;
;   File pamam_g3.5np_dglucose.itp  was generated
;   By user: sairam (1000)
;   On host: sairam
;   At date: Thu. January  4 15:29:48 2025
;
;   This is a standalone topology file
;
;   Created by:
;   ParmEd:       amb2gro_top_gro.py, VERSION 3.4.1
;   Executable:   amb2gro_top_gro.py
;   Library dir:  /usr/local/gromacs/share/gromacs/top
;   Command line:
;     ./amb2gro_top_gro.py -p pamam_g3.5np_dglucose.prmtop -c pamam_g3.5np_dglucose.inpcrd -t pamam_g3.5np_dglucose.itp -g pamam_g3.5np_dglucose.gro -b pamam_g3.5np_dglucose.pdb
;

;[ defaults ]
;; nbfunc        comb-rule       gen-pairs       fudgeLJ fudgeQQ
;1               2               yes             0.5          0.83333333  
;
;[ atomtypes ]
;; name    at.num    mass    charge ptype  sigma      epsilon
;c3             6  12.010000  0.00000000  A     0.33996695      0.4577296
;h1             1   1.008000  0.00000000  A      0.2471353      0.0656888
;n3             7  14.010000  0.00000000  A     0.32499985        0.71128
;hc             1   1.008000  0.00000000  A     0.26495328      0.0656888
;c              6  12.010000  0.00000000  A     0.33996695       0.359824
;o              8  16.000000  0.00000000  A     0.29599219        0.87864
;n              7  14.010000  0.00000000  A     0.32499985        0.71128
;hn             1   1.008000  0.00000000  A     0.10690785      0.0656888
;h2             1   1.008000  0.00000000  A     0.22931733      0.0656888
;oh             8  16.000000  0.00000000  A     0.30664734      0.8803136
;ho             1   1.008000  0.00000000  A              0              0
;os             8  16.000000  0.00000000  A     0.30000123        0.71128


[ moleculetype ]
; Name            nrexcl
pamam_g3.5np_dglucose          3

[ atoms ]
;   nr       type  resnr residue  atom   cgnr    charge       mass  typeB    chargeB      massB
; residue    1 aaa rtp aaa q -0.0
    1         c3      1    aaa     C1      1 0.02890000  12.010000   ; qtot 0.028900
    2         h1      1    aaa     H1      2 0.08460000   1.008000   ; qtot 0.113500
    3         h1      1    aaa     H2      3 0.08460000   1.008000   ; qtot 0.198100
    4         c3      1    aaa     C2      4 0.02890000  12.010000   ; qtot 0.227000
    5         h1      1    aaa     H3      5 0.08460000   1.008000   ; qtot 0.311600
    6         h1      1    aaa     H4      6 0.08460000   1.008000   ; qtot 0.396200
    7         n3      1    aaa     N1      7 -0.65770000  14.010000   ; qtot -0.261500
    8         n3      1    aaa     N2      8 -0.65770000  14.010000   ; qtot -0.919200
    9         c3      1    aaa     C3      9 0.36940000  12.010000   ; qtot -0.549800
   10         h1      1    aaa     H5     10 0.00650000   1.008000   ; qtot -0.543300
   11         h1      1    aaa     H6     11 0.00650000   1.008000   ; qtot -0.536800
   12         c3      1    aaa     C4     12 0.36940000  12.010000   ; qtot -0.167400
   13         h1      1    aaa     H7     13 0.00650000   1.008000   ; qtot -0.160900
   14         h1      1    aaa     H8     14 0.00650000   1.008000   ; qtot -0.154400
   15         c3      1    aaa     C5     15 0.36940000  12.010000   ; qtot 0.215000
   16         h1      1    aaa     H9     16 0.00650000   1.008000   ; qtot 0.221500
   17         h1      1    aaa    H10     17 0.00650000   1.008000   ; qtot 0.228000
   18         c3      1    aaa     C6     18 0.36940000  12.010000   ; qtot 0.597400
   19         h1      1    aaa    H11     19 0.00650000   1.008000   ; qtot 0.603900
   20         h1      1    aaa    H12     20 0.00650000   1.008000   ; qtot 0.610400
   21         c3      1    aaa     C7     21 -0.54350000  12.010000   ; qtot 0.066900
   22         hc      1    aaa    H13     22 0.15890000   1.008000   ; qtot 0.225800
   23         hc      1    aaa    H14     23 0.15890000   1.008000   ; qtot 0.384700
   24         c3      1    aaa     C8     24 -0.54350000  12.010000   ; qtot -0.158800
   25         hc      1    aaa    H15     25 0.15890000   1.008000   ; qtot 0.000100
   26         hc      1    aaa    H16     26 0.15890000   1.008000   ; qtot 0.159000
   27         c3      1    aaa     C9     27 -0.54350000  12.010000   ; qtot -0.384500
   28         hc      1    aaa    H17     28 0.15890000   1.008000   ; qtot -0.225600
   29         hc      1    aaa    H18     29 0.15890000   1.008000   ; qtot -0.066700
   30         c3      1    aaa    C10     30 -0.54350000  12.010000   ; qtot -0.610200
   31         hc      1    aaa    H19     31 0.15890000   1.008000   ; qtot -0.451300
   32         hc      1    aaa    H20     32 0.15890000   1.008000   ; qtot -0.292400
   33          c      1    aaa    C11     33 0.67800000  12.010000   ; qtot 0.385600
   34          c      1    aaa    C12     34 0.67800000  12.010000   ; qtot 1.063600
   35          c      1    aaa    C13     35 0.67800000  12.010000   ; qtot 1.741600
   36          c      1    aaa    C14     36 0.67800000  12.010000   ; qtot 2.419600
   37          o      1    aaa     O1     37 -0.60490000  16.000000   ; qtot 1.814700
   38          o      1    aaa     O2     38 -0.60490000  16.000000   ; qtot 1.209800
   39          o      1    aaa     O3     39 -0.60490000  16.000000   ; qtot 0.604900
   40          o      1    aaa     O4     40 -0.60490000  16.000000   ; qtot -0.000000
; residue    2 bbb rtp bbb q -0.0
   41         c3      2    bbb     C1     41 0.44180000  12.010000   ; qtot 0.441800
   42         h1      2    bbb     H1     42 -0.03530000   1.008000   ; qtot 0.406500
   43         h1      2    bbb     H2     43 -0.03530000   1.008000   ; qtot 0.371200
   44         c3      2    bbb     C2     44 -0.28250000  12.010000   ; qtot 0.088700
   45         h1      2    bbb     H3     45 0.15710000   1.008000   ; qtot 0.245800
   46         h1      2    bbb     H4     46 0.15710000   1.008000   ; qtot 0.402900
   47         n3      2    bbb     N1     47 -0.74090000  14.010000   ; qtot -0.338000
   48         c3      2    bbb     C3     48 0.51680000  12.010000   ; qtot 0.178800
   49         h1      2    bbb     H5     49 -0.05230000   1.008000   ; qtot 0.126500
   50         h1      2    bbb     H6     50 -0.05230000   1.008000   ; qtot 0.074200
   51         c3      2    bbb     C4     51 0.51680000  12.010000   ; qtot 0.591000
   52         h1      2    bbb     H7     52 -0.05230000   1.008000   ; qtot 0.538700
   53         h1      2    bbb     H8     53 -0.05230000   1.008000   ; qtot 0.486400
   54         c3      2    bbb     C5     54 -0.60390000  12.010000   ; qtot -0.117500
   55         hc      2    bbb     H9     55 0.16730000   1.008000   ; qtot 0.049800
   56         hc      2    bbb    H10     56 0.16730000   1.008000   ; qtot 0.217100
   57         c3      2    bbb     C6     57 -0.60390000  12.010000   ; qtot -0.386800
   58         hc      2    bbb    H11     58 0.16730000   1.008000   ; qtot -0.219500
   59         hc      2    bbb    H12     59 0.16730000   1.008000   ; qtot -0.052200
   60          c      2    bbb     C7     60 0.72110000  12.010000   ; qtot 0.668900
   61          c      2    bbb     C8     61 0.72110000  12.010000   ; qtot 1.390000
   62          o      2    bbb     O1     62 -0.61950000  16.000000   ; qtot 0.770500
   63          o      2    bbb     O2     63 -0.61950000  16.000000   ; qtot 0.151000
   64          n      2    bbb     N4     64 -0.46580000  14.010000   ; qtot -0.314800
   65         hn      2    bbb    H21     65 0.31480000   1.008000   ; qtot -0.000000
; residue    3 bbb rtp bbb q -0.0
   66         c3      3    bbb     C1     66 0.44180000  12.010000   ; qtot 0.441800
   67         h1      3    bbb     H1     67 -0.03530000   1.008000   ; qtot 0.406500
   68         h1      3    bbb     H2     68 -0.03530000   1.008000   ; qtot 0.371200
   69         c3      3    bbb     C2     69 -0.28250000  12.010000   ; qtot 0.088700
   70         h1      3    bbb     H3     70 0.15710000   1.008000   ; qtot 0.245800
   71         h1      3    bbb     H4     71 0.15710000   1.008000   ; qtot 0.402900
   72         n3      3    bbb     N1     72 -0.74090000  14.010000   ; qtot -0.338000
   73         c3      3    bbb     C3     73 0.51680000  12.010000   ; qtot 0.178800
   74         h1      3    bbb     H5     74 -0.05230000   1.008000   ; qtot 0.126500
   75         h1      3    bbb     H6     75 -0.05230000   1.008000   ; qtot 0.074200
   76         c3      3    bbb     C4     76 0.51680000  12.010000   ; qtot 0.591000
   77         h1      3    bbb     H7     77 -0.05230000   1.008000   ; qtot 0.538700
   78         h1      3    bbb     H8     78 -0.05230000   1.008000   ; qtot 0.486400
   79         c3      3    bbb     C5     79 -0.60390000  12.010000   ; qtot -0.117500
   80         hc      3    bbb     H9     80 0.16730000   1.008000   ; qtot 0.049800
   81         hc      3    bbb    H10     81 0.16730000   1.008000   ; qtot 0.217100
   82         c3      3    bbb     C6     82 -0.60390000  12.010000   ; qtot -0.386800
   83         hc      3    bbb    H11     83 0.16730000   1.008000   ; qtot -0.219500
   84         hc      3    bbb    H12     84 0.16730000   1.008000   ; qtot -0.052200
   85          c      3    bbb     C7     85 0.72110000  12.010000   ; qtot 0.668900
   86          c      3    bbb     C8     86 0.72110000  12.010000   ; qtot 1.390000
   87          o      3    bbb     O1     87 -0.61950000  16.000000   ; qtot 0.770500
   88          o      3    bbb     O2     88 -0.61950000  16.000000   ; qtot 0.151000
   89          n      3    bbb     N4     89 -0.46580000  14.010000   ; qtot -0.314800
   90         hn      3    bbb    H21     90 0.31480000   1.008000   ; qtot -0.000000
; residue    4 bbb rtp bbb q -0.0
   91         c3      4    bbb     C1     91 0.44180000  12.010000   ; qtot 0.441800
   92         h1      4    bbb     H1     92 -0.03530000   1.008000   ; qtot 0.406500
   93         h1      4    bbb     H2     93 -0.03530000   1.008000   ; qtot 0.371200
   94         c3      4    bbb     C2     94 -0.28250000  12.010000   ; qtot 0.088700
   95         h1      4    bbb     H3     95 0.15710000   1.008000   ; qtot 0.245800
   96         h1      4    bbb     H4     96 0.15710000   1.008000   ; qtot 0.402900
   97         n3      4    bbb     N1     97 -0.74090000  14.010000   ; qtot -0.338000
   98         c3      4    bbb     C3     98 0.51680000  12.010000   ; qtot 0.178800
   99         h1      4    bbb     H5     99 -0.05230000   1.008000   ; qtot 0.126500
  100         h1      4    bbb     H6    100 -0.05230000   1.008000   ; qtot 0.074200
  101         c3      4    bbb     C4    101 0.51680000  12.010000   ; qtot 0.591000
  102         h1      4    bbb     H7    102 -0.05230000   1.008000   ; qtot 0.538700
  103         h1      4    bbb     H8    103 -0.05230000   1.008000   ; qtot 0.486400
  104         c3      4    bbb     C5    104 -0.60390000  12.010000   ; qtot -0.117500
  105         hc      4    bbb     H9    105 0.16730000   1.008000   ; qtot 0.049800
  106         hc      4    bbb    H10    106 0.16730000   1.008000   ; qtot 0.217100
  107         c3      4    bbb     C6    107 -0.60390000  12.010000   ; qtot -0.386800
  108         hc      4    bbb    H11    108 0.16730000   1.008000   ; qtot -0.219500
  109         hc      4    bbb    H12    109 0.16730000   1.008000   ; qtot -0.052200
  110          c      4    bbb     C7    110 0.72110000  12.010000   ; qtot 0.668900
  111          c      4    bbb     C8    111 0.72110000  12.010000   ; qtot 1.390000
  112          o      4    bbb     O1    112 -0.61950000  16.000000   ; qtot 0.770500
  113          o      4    bbb     O2    113 -0.61950000  16.000000   ; qtot 0.151000
  114          n      4    bbb     N4    114 -0.46580000  14.010000   ; qtot -0.314800
  115         hn      4    bbb    H21    115 0.31480000   1.008000   ; qtot -0.000000
; residue    5 bbb rtp bbb q -0.0
  116         c3      5    bbb     C1    116 0.44180000  12.010000   ; qtot 0.441800
  117         h1      5    bbb     H1    117 -0.03530000   1.008000   ; qtot 0.406500
  118         h1      5    bbb     H2    118 -0.03530000   1.008000   ; qtot 0.371200
  119         c3      5    bbb     C2    119 -0.28250000  12.010000   ; qtot 0.088700
  120         h1      5    bbb     H3    120 0.15710000   1.008000   ; qtot 0.245800
  121         h1      5    bbb     H4    121 0.15710000   1.008000   ; qtot 0.402900
  122         n3      5    bbb     N1    122 -0.74090000  14.010000   ; qtot -0.338000
  123         c3      5    bbb     C3    123 0.51680000  12.010000   ; qtot 0.178800
  124         h1      5    bbb     H5    124 -0.05230000   1.008000   ; qtot 0.126500
  125         h1      5    bbb     H6    125 -0.05230000   1.008000   ; qtot 0.074200
  126         c3      5    bbb     C4    126 0.51680000  12.010000   ; qtot 0.591000
  127         h1      5    bbb     H7    127 -0.05230000   1.008000   ; qtot 0.538700
  128         h1      5    bbb     H8    128 -0.05230000   1.008000   ; qtot 0.486400
  129         c3      5    bbb     C5    129 -0.60390000  12.010000   ; qtot -0.117500
  130         hc      5    bbb     H9    130 0.16730000   1.008000   ; qtot 0.049800
  131         hc      5    bbb    H10    131 0.16730000   1.008000   ; qtot 0.217100
  132         c3      5    bbb     C6    132 -0.60390000  12.010000   ; qtot -0.386800
  133         hc      5    bbb    H11    133 0.16730000   1.008000   ; qtot -0.219500
  134         hc      5    bbb    H12    134 0.16730000   1.008000   ; qtot -0.052200
  135          c      5    bbb     C7    135 0.72110000  12.010000   ; qtot 0.668900
  136          c      5    bbb     C8    136 0.72110000  12.010000   ; qtot 1.390000
  137          o      5    bbb     O1    137 -0.61950000  16.000000   ; qtot 0.770500
  138          o      5    bbb     O2    138 -0.61950000  16.000000   ; qtot 0.151000
  139          n      5    bbb     N4    139 -0.46580000  14.010000   ; qtot -0.314800
  140         hn      5    bbb    H21    140 0.31480000   1.008000   ; qtot -0.000000
; residue    6 bbb rtp bbb q -0.0
  141         c3      6    bbb     C1    141 0.44180000  12.010000   ; qtot 0.441800
  142         h1      6    bbb     H1    142 -0.03530000   1.008000   ; qtot 0.406500
  143         h1      6    bbb     H2    143 -0.03530000   1.008000   ; qtot 0.371200
  144         c3      6    bbb     C2    144 -0.28250000  12.010000   ; qtot 0.088700
  145         h1      6    bbb     H3    145 0.15710000   1.008000   ; qtot 0.245800
  146         h1      6    bbb     H4    146 0.15710000   1.008000   ; qtot 0.402900
  147         n3      6    bbb     N1    147 -0.74090000  14.010000   ; qtot -0.338000
  148         c3      6    bbb     C3    148 0.51680000  12.010000   ; qtot 0.178800
  149         h1      6    bbb     H5    149 -0.05230000   1.008000   ; qtot 0.126500
  150         h1      6    bbb     H6    150 -0.05230000   1.008000   ; qtot 0.074200
  151         c3      6    bbb     C4    151 0.51680000  12.010000   ; qtot 0.591000
  152         h1      6    bbb     H7    152 -0.05230000   1.008000   ; qtot 0.538700
  153         h1      6    bbb     H8    153 -0.05230000   1.008000   ; qtot 0.486400
  154         c3      6    bbb     C5    154 -0.60390000  12.010000   ; qtot -0.117500
  155         hc      6    bbb     H9    155 0.16730000   1.008000   ; qtot 0.049800
  156         hc      6    bbb    H10    156 0.16730000   1.008000   ; qtot 0.217100
  157         c3      6    bbb     C6    157 -0.60390000  12.010000   ; qtot -0.386800
  158         hc      6    bbb    H11    158 0.16730000   1.008000   ; qtot -0.219500
  159         hc      6    bbb    H12    159 0.16730000   1.008000   ; qtot -0.052200
  160          c      6    bbb     C7    160 0.72110000  12.010000   ; qtot 0.668900
  161          c      6    bbb     C8    161 0.72110000  12.010000   ; qtot 1.390000
  162          o      6    bbb     O1    162 -0.61950000  16.000000   ; qtot 0.770500
  163          o      6    bbb     O2    163 -0.61950000  16.000000   ; qtot 0.151000
  164          n      6    bbb     N4    164 -0.46580000  14.010000   ; qtot -0.314800
  165         hn      6    bbb    H21    165 0.31480000   1.008000   ; qtot -0.000000
; residue    7 bbb rtp bbb q -0.0
  166         c3      7    bbb     C1    166 0.44180000  12.010000   ; qtot 0.441800
  167         h1      7    bbb     H1    167 -0.03530000   1.008000   ; qtot 0.406500
  168         h1      7    bbb     H2    168 -0.03530000   1.008000   ; qtot 0.371200
  169         c3      7    bbb     C2    169 -0.28250000  12.010000   ; qtot 0.088700
  170         h1      7    bbb     H3    170 0.15710000   1.008000   ; qtot 0.245800
  171         h1      7    bbb     H4    171 0.15710000   1.008000   ; qtot 0.402900
  172         n3      7    bbb     N1    172 -0.74090000  14.010000   ; qtot -0.338000
  173         c3      7    bbb     C3    173 0.51680000  12.010000   ; qtot 0.178800
  174         h1      7    bbb     H5    174 -0.05230000   1.008000   ; qtot 0.126500
  175         h1      7    bbb     H6    175 -0.05230000   1.008000   ; qtot 0.074200
  176         c3      7    bbb     C4    176 0.51680000  12.010000   ; qtot 0.591000
  177         h1      7    bbb     H7    177 -0.05230000   1.008000   ; qtot 0.538700
  178         h1      7    bbb     H8    178 -0.05230000   1.008000   ; qtot 0.486400
  179         c3      7    bbb     C5    179 -0.60390000  12.010000   ; qtot -0.117500
  180         hc      7    bbb     H9    180 0.16730000   1.008000   ; qtot 0.049800
  181         hc      7    bbb    H10    181 0.16730000   1.008000   ; qtot 0.217100
  182         c3      7    bbb     C6    182 -0.60390000  12.010000   ; qtot -0.386800
  183         hc      7    bbb    H11    183 0.16730000   1.008000   ; qtot -0.219500
  184         hc      7    bbb    H12    184 0.16730000   1.008000   ; qtot -0.052200
  185          c      7    bbb     C7    185 0.72110000  12.010000   ; qtot 0.668900
  186          c      7    bbb     C8    186 0.72110000  12.010000   ; qtot 1.390000
  187          o      7    bbb     O1    187 -0.61950000  16.000000   ; qtot 0.770500
  188          o      7    bbb     O2    188 -0.61950000  16.000000   ; qtot 0.151000
  189          n      7    bbb     N4    189 -0.46580000  14.010000   ; qtot -0.314800
  190         hn      7    bbb    H21    190 0.31480000   1.008000   ; qtot -0.000000
; residue    8 bbb rtp bbb q -0.0
  191         c3      8    bbb     C1    191 0.44180000  12.010000   ; qtot 0.441800
  192         h1      8    bbb     H1    192 -0.03530000   1.008000   ; qtot 0.406500
  193         h1      8    bbb     H2    193 -0.03530000   1.008000   ; qtot 0.371200
  194         c3      8    bbb     C2    194 -0.28250000  12.010000   ; qtot 0.088700
  195         h1      8    bbb     H3    195 0.15710000   1.008000   ; qtot 0.245800
  196         h1      8    bbb     H4    196 0.15710000   1.008000   ; qtot 0.402900
  197         n3      8    bbb     N1    197 -0.74090000  14.010000   ; qtot -0.338000
  198         c3      8    bbb     C3    198 0.51680000  12.010000   ; qtot 0.178800
  199         h1      8    bbb     H5    199 -0.05230000   1.008000   ; qtot 0.126500
  200         h1      8    bbb     H6    200 -0.05230000   1.008000   ; qtot 0.074200
  201         c3      8    bbb     C4    201 0.51680000  12.010000   ; qtot 0.591000
  202         h1      8    bbb     H7    202 -0.05230000   1.008000   ; qtot 0.538700
  203         h1      8    bbb     H8    203 -0.05230000   1.008000   ; qtot 0.486400
  204         c3      8    bbb     C5    204 -0.60390000  12.010000   ; qtot -0.117500
  205         hc      8    bbb     H9    205 0.16730000   1.008000   ; qtot 0.049800
  206         hc      8    bbb    H10    206 0.16730000   1.008000   ; qtot 0.217100
  207         c3      8    bbb     C6    207 -0.60390000  12.010000   ; qtot -0.386800
  208         hc      8    bbb    H11    208 0.16730000   1.008000   ; qtot -0.219500
  209         hc      8    bbb    H12    209 0.16730000   1.008000   ; qtot -0.052200
  210          c      8    bbb     C7    210 0.72110000  12.010000   ; qtot 0.668900
  211          c      8    bbb     C8    211 0.72110000  12.010000   ; qtot 1.390000
  212          o      8    bbb     O1    212 -0.61950000  16.000000   ; qtot 0.770500
  213          o      8    bbb     O2    213 -0.61950000  16.000000   ; qtot 0.151000
  214          n      8    bbb     N4    214 -0.46580000  14.010000   ; qtot -0.314800
  215         hn      8    bbb    H21    215 0.31480000   1.008000   ; qtot -0.000000
; residue    9 bbb rtp bbb q -0.0
  216         c3      9    bbb     C1    216 0.44180000  12.010000   ; qtot 0.441800
  217         h1      9    bbb     H1    217 -0.03530000   1.008000   ; qtot 0.406500
  218         h1      9    bbb     H2    218 -0.03530000   1.008000   ; qtot 0.371200
  219         c3      9    bbb     C2    219 -0.28250000  12.010000   ; qtot 0.088700
  220         h1      9    bbb     H3    220 0.15710000   1.008000   ; qtot 0.245800
  221         h1      9    bbb     H4    221 0.15710000   1.008000   ; qtot 0.402900
  222         n3      9    bbb     N1    222 -0.74090000  14.010000   ; qtot -0.338000
  223         c3      9    bbb     C3    223 0.51680000  12.010000   ; qtot 0.178800
  224         h1      9    bbb     H5    224 -0.05230000   1.008000   ; qtot 0.126500
  225         h1      9    bbb     H6    225 -0.05230000   1.008000   ; qtot 0.074200
  226         c3      9    bbb     C4    226 0.51680000  12.010000   ; qtot 0.591000
  227         h1      9    bbb     H7    227 -0.05230000   1.008000   ; qtot 0.538700
  228         h1      9    bbb     H8    228 -0.05230000   1.008000   ; qtot 0.486400
  229         c3      9    bbb     C5    229 -0.60390000  12.010000   ; qtot -0.117500
  230         hc      9    bbb     H9    230 0.16730000   1.008000   ; qtot 0.049800
  231         hc      9    bbb    H10    231 0.16730000   1.008000   ; qtot 0.217100
  232         c3      9    bbb     C6    232 -0.60390000  12.010000   ; qtot -0.386800
  233         hc      9    bbb    H11    233 0.16730000   1.008000   ; qtot -0.219500
  234         hc      9    bbb    H12    234 0.16730000   1.008000   ; qtot -0.052200
  235          c      9    bbb     C7    235 0.72110000  12.010000   ; qtot 0.668900
  236          c      9    bbb     C8    236 0.72110000  12.010000   ; qtot 1.390000
  237          o      9    bbb     O1    237 -0.61950000  16.000000   ; qtot 0.770500
  238          o      9    bbb     O2    238 -0.61950000  16.000000   ; qtot 0.151000
  239          n      9    bbb     N4    239 -0.46580000  14.010000   ; qtot -0.314800
  240         hn      9    bbb    H21    240 0.31480000   1.008000   ; qtot -0.000000
; residue   10 bbb rtp bbb q -0.0
  241         c3     10    bbb     C1    241 0.44180000  12.010000   ; qtot 0.441800
  242         h1     10    bbb     H1    242 -0.03530000   1.008000   ; qtot 0.406500
  243         h1     10    bbb     H2    243 -0.03530000   1.008000   ; qtot 0.371200
  244         c3     10    bbb     C2    244 -0.28250000  12.010000   ; qtot 0.088700
  245         h1     10    bbb     H3    245 0.15710000   1.008000   ; qtot 0.245800
  246         h1     10    bbb     H4    246 0.15710000   1.008000   ; qtot 0.402900
  247         n3     10    bbb     N1    247 -0.74090000  14.010000   ; qtot -0.338000
  248         c3     10    bbb     C3    248 0.51680000  12.010000   ; qtot 0.178800
  249         h1     10    bbb     H5    249 -0.05230000   1.008000   ; qtot 0.126500
  250         h1     10    bbb     H6    250 -0.05230000   1.008000   ; qtot 0.074200
  251         c3     10    bbb     C4    251 0.51680000  12.010000   ; qtot 0.591000
  252         h1     10    bbb     H7    252 -0.05230000   1.008000   ; qtot 0.538700
  253         h1     10    bbb     H8    253 -0.05230000   1.008000   ; qtot 0.486400
  254         c3     10    bbb     C5    254 -0.60390000  12.010000   ; qtot -0.117500
  255         hc     10    bbb     H9    255 0.16730000   1.008000   ; qtot 0.049800
  256         hc     10    bbb    H10    256 0.16730000   1.008000   ; qtot 0.217100
  257         c3     10    bbb     C6    257 -0.60390000  12.010000   ; qtot -0.386800
  258         hc     10    bbb    H11    258 0.16730000   1.008000   ; qtot -0.219500
  259         hc     10    bbb    H12    259 0.16730000   1.008000   ; qtot -0.052200
  260          c     10    bbb     C7    260 0.72110000  12.010000   ; qtot 0.668900
  261          c     10    bbb     C8    261 0.72110000  12.010000   ; qtot 1.390000
  262          o     10    bbb     O1    262 -0.61950000  16.000000   ; qtot 0.770500
  263          o     10    bbb     O2    263 -0.61950000  16.000000   ; qtot 0.151000
  264          n     10    bbb     N4    264 -0.46580000  14.010000   ; qtot -0.314800
  265         hn     10    bbb    H21    265 0.31480000   1.008000   ; qtot -0.000000
; residue   11 bbb rtp bbb q -0.0
  266         c3     11    bbb     C1    266 0.44180000  12.010000   ; qtot 0.441800
  267         h1     11    bbb     H1    267 -0.03530000   1.008000   ; qtot 0.406500
  268         h1     11    bbb     H2    268 -0.03530000   1.008000   ; qtot 0.371200
  269         c3     11    bbb     C2    269 -0.28250000  12.010000   ; qtot 0.088700
  270         h1     11    bbb     H3    270 0.15710000   1.008000   ; qtot 0.245800
  271         h1     11    bbb     H4    271 0.15710000   1.008000   ; qtot 0.402900
  272         n3     11    bbb     N1    272 -0.74090000  14.010000   ; qtot -0.338000
  273         c3     11    bbb     C3    273 0.51680000  12.010000   ; qtot 0.178800
  274         h1     11    bbb     H5    274 -0.05230000   1.008000   ; qtot 0.126500
  275         h1     11    bbb     H6    275 -0.05230000   1.008000   ; qtot 0.074200
  276         c3     11    bbb     C4    276 0.51680000  12.010000   ; qtot 0.591000
  277         h1     11    bbb     H7    277 -0.05230000   1.008000   ; qtot 0.538700
  278         h1     11    bbb     H8    278 -0.05230000   1.008000   ; qtot 0.486400
  279         c3     11    bbb     C5    279 -0.60390000  12.010000   ; qtot -0.117500
  280         hc     11    bbb     H9    280 0.16730000   1.008000   ; qtot 0.049800
  281         hc     11    bbb    H10    281 0.16730000   1.008000   ; qtot 0.217100
  282         c3     11    bbb     C6    282 -0.60390000  12.010000   ; qtot -0.386800
  283         hc     11    bbb    H11    283 0.16730000   1.008000   ; qtot -0.219500
  284         hc     11    bbb    H12    284 0.16730000   1.008000   ; qtot -0.052200
  285          c     11    bbb     C7    285 0.72110000  12.010000   ; qtot 0.668900
  286          c     11    bbb     C8    286 0.72110000  12.010000   ; qtot 1.390000
  287          o     11    bbb     O1    287 -0.61950000  16.000000   ; qtot 0.770500
  288          o     11    bbb     O2    288 -0.61950000  16.000000   ; qtot 0.151000
  289          n     11    bbb     N4    289 -0.46580000  14.010000   ; qtot -0.314800
  290         hn     11    bbb    H21    290 0.31480000   1.008000   ; qtot -0.000000
; residue   12 bbb rtp bbb q -0.0
  291         c3     12    bbb     C1    291 0.44180000  12.010000   ; qtot 0.441800
  292         h1     12    bbb     H1    292 -0.03530000   1.008000   ; qtot 0.406500
  293         h1     12    bbb     H2    293 -0.03530000   1.008000   ; qtot 0.371200
  294         c3     12    bbb     C2    294 -0.28250000  12.010000   ; qtot 0.088700
  295         h1     12    bbb     H3    295 0.15710000   1.008000   ; qtot 0.245800
  296         h1     12    bbb     H4    296 0.15710000   1.008000   ; qtot 0.402900
  297         n3     12    bbb     N1    297 -0.74090000  14.010000   ; qtot -0.338000
  298         c3     12    bbb     C3    298 0.51680000  12.010000   ; qtot 0.178800
  299         h1     12    bbb     H5    299 -0.05230000   1.008000   ; qtot 0.126500
  300         h1     12    bbb     H6    300 -0.05230000   1.008000   ; qtot 0.074200
  301         c3     12    bbb     C4    301 0.51680000  12.010000   ; qtot 0.591000
  302         h1     12    bbb     H7    302 -0.05230000   1.008000   ; qtot 0.538700
  303         h1     12    bbb     H8    303 -0.05230000   1.008000   ; qtot 0.486400
  304         c3     12    bbb     C5    304 -0.60390000  12.010000   ; qtot -0.117500
  305         hc     12    bbb     H9    305 0.16730000   1.008000   ; qtot 0.049800
  306         hc     12    bbb    H10    306 0.16730000   1.008000   ; qtot 0.217100
  307         c3     12    bbb     C6    307 -0.60390000  12.010000   ; qtot -0.386800
  308         hc     12    bbb    H11    308 0.16730000   1.008000   ; qtot -0.219500
  309         hc     12    bbb    H12    309 0.16730000   1.008000   ; qtot -0.052200
  310          c     12    bbb     C7    310 0.72110000  12.010000   ; qtot 0.668900
  311          c     12    bbb     C8    311 0.72110000  12.010000   ; qtot 1.390000
  312          o     12    bbb     O1    312 -0.61950000  16.000000   ; qtot 0.770500
  313          o     12    bbb     O2    313 -0.61950000  16.000000   ; qtot 0.151000
  314          n     12    bbb     N4    314 -0.46580000  14.010000   ; qtot -0.314800
  315         hn     12    bbb    H21    315 0.31480000   1.008000   ; qtot -0.000000
; residue   13 bbb rtp bbb q -0.0
  316         c3     13    bbb     C1    316 0.44180000  12.010000   ; qtot 0.441800
  317         h1     13    bbb     H1    317 -0.03530000   1.008000   ; qtot 0.406500
  318         h1     13    bbb     H2    318 -0.03530000   1.008000   ; qtot 0.371200
  319         c3     13    bbb     C2    319 -0.28250000  12.010000   ; qtot 0.088700
  320         h1     13    bbb     H3    320 0.15710000   1.008000   ; qtot 0.245800
  321         h1     13    bbb     H4    321 0.15710000   1.008000   ; qtot 0.402900
  322         n3     13    bbb     N1    322 -0.74090000  14.010000   ; qtot -0.338000
  323         c3     13    bbb     C3    323 0.51680000  12.010000   ; qtot 0.178800
  324         h1     13    bbb     H5    324 -0.05230000   1.008000   ; qtot 0.126500
  325         h1     13    bbb     H6    325 -0.05230000   1.008000   ; qtot 0.074200
  326         c3     13    bbb     C4    326 0.51680000  12.010000   ; qtot 0.591000
  327         h1     13    bbb     H7    327 -0.05230000   1.008000   ; qtot 0.538700
  328         h1     13    bbb     H8    328 -0.05230000   1.008000   ; qtot 0.486400
  329         c3     13    bbb     C5    329 -0.60390000  12.010000   ; qtot -0.117500
  330         hc     13    bbb     H9    330 0.16730000   1.008000   ; qtot 0.049800
  331         hc     13    bbb    H10    331 0.16730000   1.008000   ; qtot 0.217100
  332         c3     13    bbb     C6    332 -0.60390000  12.010000   ; qtot -0.386800
  333         hc     13    bbb    H11    333 0.16730000   1.008000   ; qtot -0.219500
  334         hc     13    bbb    H12    334 0.16730000   1.008000   ; qtot -0.052200
  335          c     13    bbb     C7    335 0.72110000  12.010000   ; qtot 0.668900
  336          c     13    bbb     C8    336 0.72110000  12.010000   ; qtot 1.390000
  337          o     13    bbb     O1    337 -0.61950000  16.000000   ; qtot 0.770500
  338          o     13    bbb     O2    338 -0.61950000  16.000000   ; qtot 0.151000
  339          n     13    bbb     N4    339 -0.46580000  14.010000   ; qtot -0.314800
  340         hn     13    bbb    H21    340 0.31480000   1.008000   ; qtot -0.000000
; residue   14 bbb rtp bbb q -0.0
  341         c3     14    bbb     C1    341 0.44180000  12.010000   ; qtot 0.441800
  342         h1     14    bbb     H1    342 -0.03530000   1.008000   ; qtot 0.406500
  343         h1     14    bbb     H2    343 -0.03530000   1.008000   ; qtot 0.371200
  344         c3     14    bbb     C2    344 -0.28250000  12.010000   ; qtot 0.088700
  345         h1     14    bbb     H3    345 0.15710000   1.008000   ; qtot 0.245800
  346         h1     14    bbb     H4    346 0.15710000   1.008000   ; qtot 0.402900
  347         n3     14    bbb     N1    347 -0.74090000  14.010000   ; qtot -0.338000
  348         c3     14    bbb     C3    348 0.51680000  12.010000   ; qtot 0.178800
  349         h1     14    bbb     H5    349 -0.05230000   1.008000   ; qtot 0.126500
  350         h1     14    bbb     H6    350 -0.05230000   1.008000   ; qtot 0.074200
  351         c3     14    bbb     C4    351 0.51680000  12.010000   ; qtot 0.591000
  352         h1     14    bbb     H7    352 -0.05230000   1.008000   ; qtot 0.538700
  353         h1     14    bbb     H8    353 -0.05230000   1.008000   ; qtot 0.486400
  354         c3     14    bbb     C5    354 -0.60390000  12.010000   ; qtot -0.117500
  355         hc     14    bbb     H9    355 0.16730000   1.008000   ; qtot 0.049800
  356         hc     14    bbb    H10    356 0.16730000   1.008000   ; qtot 0.217100
  357         c3     14    bbb     C6    357 -0.60390000  12.010000   ; qtot -0.386800
  358         hc     14    bbb    H11    358 0.16730000   1.008000   ; qtot -0.219500
  359         hc     14    bbb    H12    359 0.16730000   1.008000   ; qtot -0.052200
  360          c     14    bbb     C7    360 0.72110000  12.010000   ; qtot 0.668900
  361          c     14    bbb     C8    361 0.72110000  12.010000   ; qtot 1.390000
  362          o     14    bbb     O1    362 -0.61950000  16.000000   ; qtot 0.770500
  363          o     14    bbb     O2    363 -0.61950000  16.000000   ; qtot 0.151000
  364          n     14    bbb     N4    364 -0.46580000  14.010000   ; qtot -0.314800
  365         hn     14    bbb    H21    365 0.31480000   1.008000   ; qtot -0.000000
; residue   15 bbb rtp bbb q -0.0
  366         c3     15    bbb     C1    366 0.44180000  12.010000   ; qtot 0.441800
  367         h1     15    bbb     H1    367 -0.03530000   1.008000   ; qtot 0.406500
  368         h1     15    bbb     H2    368 -0.03530000   1.008000   ; qtot 0.371200
  369         c3     15    bbb     C2    369 -0.28250000  12.010000   ; qtot 0.088700
  370         h1     15    bbb     H3    370 0.15710000   1.008000   ; qtot 0.245800
  371         h1     15    bbb     H4    371 0.15710000   1.008000   ; qtot 0.402900
  372         n3     15    bbb     N1    372 -0.74090000  14.010000   ; qtot -0.338000
  373         c3     15    bbb     C3    373 0.51680000  12.010000   ; qtot 0.178800
  374         h1     15    bbb     H5    374 -0.05230000   1.008000   ; qtot 0.126500
  375         h1     15    bbb     H6    375 -0.05230000   1.008000   ; qtot 0.074200
  376         c3     15    bbb     C4    376 0.51680000  12.010000   ; qtot 0.591000
  377         h1     15    bbb     H7    377 -0.05230000   1.008000   ; qtot 0.538700
  378         h1     15    bbb     H8    378 -0.05230000   1.008000   ; qtot 0.486400
  379         c3     15    bbb     C5    379 -0.60390000  12.010000   ; qtot -0.117500
  380         hc     15    bbb     H9    380 0.16730000   1.008000   ; qtot 0.049800
  381         hc     15    bbb    H10    381 0.16730000   1.008000   ; qtot 0.217100
  382         c3     15    bbb     C6    382 -0.60390000  12.010000   ; qtot -0.386800
  383         hc     15    bbb    H11    383 0.16730000   1.008000   ; qtot -0.219500
  384         hc     15    bbb    H12    384 0.16730000   1.008000   ; qtot -0.052200
  385          c     15    bbb     C7    385 0.72110000  12.010000   ; qtot 0.668900
  386          c     15    bbb     C8    386 0.72110000  12.010000   ; qtot 1.390000
  387          o     15    bbb     O1    387 -0.61950000  16.000000   ; qtot 0.770500
  388          o     15    bbb     O2    388 -0.61950000  16.000000   ; qtot 0.151000
  389          n     15    bbb     N4    389 -0.46580000  14.010000   ; qtot -0.314800
  390         hn     15    bbb    H21    390 0.31480000   1.008000   ; qtot -0.000000
; residue   16 bbb rtp bbb q -0.0
  391         c3     16    bbb     C1    391 0.44180000  12.010000   ; qtot 0.441800
  392         h1     16    bbb     H1    392 -0.03530000   1.008000   ; qtot 0.406500
  393         h1     16    bbb     H2    393 -0.03530000   1.008000   ; qtot 0.371200
  394         c3     16    bbb     C2    394 -0.28250000  12.010000   ; qtot 0.088700
  395         h1     16    bbb     H3    395 0.15710000   1.008000   ; qtot 0.245800
  396         h1     16    bbb     H4    396 0.15710000   1.008000   ; qtot 0.402900
  397         n3     16    bbb     N1    397 -0.74090000  14.010000   ; qtot -0.338000
  398         c3     16    bbb     C3    398 0.51680000  12.010000   ; qtot 0.178800
  399         h1     16    bbb     H5    399 -0.05230000   1.008000   ; qtot 0.126500
  400         h1     16    bbb     H6    400 -0.05230000   1.008000   ; qtot 0.074200
  401         c3     16    bbb     C4    401 0.51680000  12.010000   ; qtot 0.591000
  402         h1     16    bbb     H7    402 -0.05230000   1.008000   ; qtot 0.538700
  403         h1     16    bbb     H8    403 -0.05230000   1.008000   ; qtot 0.486400
  404         c3     16    bbb     C5    404 -0.60390000  12.010000   ; qtot -0.117500
  405         hc     16    bbb     H9    405 0.16730000   1.008000   ; qtot 0.049800
  406         hc     16    bbb    H10    406 0.16730000   1.008000   ; qtot 0.217100
  407         c3     16    bbb     C6    407 -0.60390000  12.010000   ; qtot -0.386800
  408         hc     16    bbb    H11    408 0.16730000   1.008000   ; qtot -0.219500
  409         hc     16    bbb    H12    409 0.16730000   1.008000   ; qtot -0.052200
  410          c     16    bbb     C7    410 0.72110000  12.010000   ; qtot 0.668900
  411          c     16    bbb     C8    411 0.72110000  12.010000   ; qtot 1.390000
  412          o     16    bbb     O1    412 -0.61950000  16.000000   ; qtot 0.770500
  413          o     16    bbb     O2    413 -0.61950000  16.000000   ; qtot 0.151000
  414          n     16    bbb     N4    414 -0.46580000  14.010000   ; qtot -0.314800
  415         hn     16    bbb    H21    415 0.31480000   1.008000   ; qtot -0.000000
; residue   17 bbb rtp bbb q -0.0
  416         c3     17    bbb     C1    416 0.44180000  12.010000   ; qtot 0.441800
  417         h1     17    bbb     H1    417 -0.03530000   1.008000   ; qtot 0.406500
  418         h1     17    bbb     H2    418 -0.03530000   1.008000   ; qtot 0.371200
  419         c3     17    bbb     C2    419 -0.28250000  12.010000   ; qtot 0.088700
  420         h1     17    bbb     H3    420 0.15710000   1.008000   ; qtot 0.245800
  421         h1     17    bbb     H4    421 0.15710000   1.008000   ; qtot 0.402900
  422         n3     17    bbb     N1    422 -0.74090000  14.010000   ; qtot -0.338000
  423         c3     17    bbb     C3    423 0.51680000  12.010000   ; qtot 0.178800
  424         h1     17    bbb     H5    424 -0.05230000   1.008000   ; qtot 0.126500
  425         h1     17    bbb     H6    425 -0.05230000   1.008000   ; qtot 0.074200
  426         c3     17    bbb     C4    426 0.51680000  12.010000   ; qtot 0.591000
  427         h1     17    bbb     H7    427 -0.05230000   1.008000   ; qtot 0.538700
  428         h1     17    bbb     H8    428 -0.05230000   1.008000   ; qtot 0.486400
  429         c3     17    bbb     C5    429 -0.60390000  12.010000   ; qtot -0.117500
  430         hc     17    bbb     H9    430 0.16730000   1.008000   ; qtot 0.049800
  431         hc     17    bbb    H10    431 0.16730000   1.008000   ; qtot 0.217100
  432         c3     17    bbb     C6    432 -0.60390000  12.010000   ; qtot -0.386800
  433         hc     17    bbb    H11    433 0.16730000   1.008000   ; qtot -0.219500
  434         hc     17    bbb    H12    434 0.16730000   1.008000   ; qtot -0.052200
  435          c     17    bbb     C7    435 0.72110000  12.010000   ; qtot 0.668900
  436          c     17    bbb     C8    436 0.72110000  12.010000   ; qtot 1.390000
  437          o     17    bbb     O1    437 -0.61950000  16.000000   ; qtot 0.770500
  438          o     17    bbb     O2    438 -0.61950000  16.000000   ; qtot 0.151000
  439          n     17    bbb     N4    439 -0.46580000  14.010000   ; qtot -0.314800
  440         hn     17    bbb    H21    440 0.31480000   1.008000   ; qtot -0.000000
; residue   18 bbb rtp bbb q -0.0
  441         c3     18    bbb     C1    441 0.44180000  12.010000   ; qtot 0.441800
  442         h1     18    bbb     H1    442 -0.03530000   1.008000   ; qtot 0.406500
  443         h1     18    bbb     H2    443 -0.03530000   1.008000   ; qtot 0.371200
  444         c3     18    bbb     C2    444 -0.28250000  12.010000   ; qtot 0.088700
  445         h1     18    bbb     H3    445 0.15710000   1.008000   ; qtot 0.245800
  446         h1     18    bbb     H4    446 0.15710000   1.008000   ; qtot 0.402900
  447         n3     18    bbb     N1    447 -0.74090000  14.010000   ; qtot -0.338000
  448         c3     18    bbb     C3    448 0.51680000  12.010000   ; qtot 0.178800
  449         h1     18    bbb     H5    449 -0.05230000   1.008000   ; qtot 0.126500
  450         h1     18    bbb     H6    450 -0.05230000   1.008000   ; qtot 0.074200
  451         c3     18    bbb     C4    451 0.51680000  12.010000   ; qtot 0.591000
  452         h1     18    bbb     H7    452 -0.05230000   1.008000   ; qtot 0.538700
  453         h1     18    bbb     H8    453 -0.05230000   1.008000   ; qtot 0.486400
  454         c3     18    bbb     C5    454 -0.60390000  12.010000   ; qtot -0.117500
  455         hc     18    bbb     H9    455 0.16730000   1.008000   ; qtot 0.049800
  456         hc     18    bbb    H10    456 0.16730000   1.008000   ; qtot 0.217100
  457         c3     18    bbb     C6    457 -0.60390000  12.010000   ; qtot -0.386800
  458         hc     18    bbb    H11    458 0.16730000   1.008000   ; qtot -0.219500
  459         hc     18    bbb    H12    459 0.16730000   1.008000   ; qtot -0.052200
  460          c     18    bbb     C7    460 0.72110000  12.010000   ; qtot 0.668900
  461          c     18    bbb     C8    461 0.72110000  12.010000   ; qtot 1.390000
  462          o     18    bbb     O1    462 -0.61950000  16.000000   ; qtot 0.770500
  463          o     18    bbb     O2    463 -0.61950000  16.000000   ; qtot 0.151000
  464          n     18    bbb     N4    464 -0.46580000  14.010000   ; qtot -0.314800
  465         hn     18    bbb    H21    465 0.31480000   1.008000   ; qtot -0.000000
; residue   19 bbb rtp bbb q -0.0
  466         c3     19    bbb     C1    466 0.44180000  12.010000   ; qtot 0.441800
  467         h1     19    bbb     H1    467 -0.03530000   1.008000   ; qtot 0.406500
  468         h1     19    bbb     H2    468 -0.03530000   1.008000   ; qtot 0.371200
  469         c3     19    bbb     C2    469 -0.28250000  12.010000   ; qtot 0.088700
  470         h1     19    bbb     H3    470 0.15710000   1.008000   ; qtot 0.245800
  471         h1     19    bbb     H4    471 0.15710000   1.008000   ; qtot 0.402900
  472         n3     19    bbb     N1    472 -0.74090000  14.010000   ; qtot -0.338000
  473         c3     19    bbb     C3    473 0.51680000  12.010000   ; qtot 0.178800
  474         h1     19    bbb     H5    474 -0.05230000   1.008000   ; qtot 0.126500
  475         h1     19    bbb     H6    475 -0.05230000   1.008000   ; qtot 0.074200
  476         c3     19    bbb     C4    476 0.51680000  12.010000   ; qtot 0.591000
  477         h1     19    bbb     H7    477 -0.05230000   1.008000   ; qtot 0.538700
  478         h1     19    bbb     H8    478 -0.05230000   1.008000   ; qtot 0.486400
  479         c3     19    bbb     C5    479 -0.60390000  12.010000   ; qtot -0.117500
  480         hc     19    bbb     H9    480 0.16730000   1.008000   ; qtot 0.049800
  481         hc     19    bbb    H10    481 0.16730000   1.008000   ; qtot 0.217100
  482         c3     19    bbb     C6    482 -0.60390000  12.010000   ; qtot -0.386800
  483         hc     19    bbb    H11    483 0.16730000   1.008000   ; qtot -0.219500
  484         hc     19    bbb    H12    484 0.16730000   1.008000   ; qtot -0.052200
  485          c     19    bbb     C7    485 0.72110000  12.010000   ; qtot 0.668900
  486          c     19    bbb     C8    486 0.72110000  12.010000   ; qtot 1.390000
  487          o     19    bbb     O1    487 -0.61950000  16.000000   ; qtot 0.770500
  488          o     19    bbb     O2    488 -0.61950000  16.000000   ; qtot 0.151000
  489          n     19    bbb     N4    489 -0.46580000  14.010000   ; qtot -0.314800
  490         hn     19    bbb    H21    490 0.31480000   1.008000   ; qtot -0.000000
; residue   20 bbb rtp bbb q -0.0
  491         c3     20    bbb     C1    491 0.44180000  12.010000   ; qtot 0.441800
  492         h1     20    bbb     H1    492 -0.03530000   1.008000   ; qtot 0.406500
  493         h1     20    bbb     H2    493 -0.03530000   1.008000   ; qtot 0.371200
  494         c3     20    bbb     C2    494 -0.28250000  12.010000   ; qtot 0.088700
  495         h1     20    bbb     H3    495 0.15710000   1.008000   ; qtot 0.245800
  496         h1     20    bbb     H4    496 0.15710000   1.008000   ; qtot 0.402900
  497         n3     20    bbb     N1    497 -0.74090000  14.010000   ; qtot -0.338000
  498         c3     20    bbb     C3    498 0.51680000  12.010000   ; qtot 0.178800
  499         h1     20    bbb     H5    499 -0.05230000   1.008000   ; qtot 0.126500
  500         h1     20    bbb     H6    500 -0.05230000   1.008000   ; qtot 0.074200
  501         c3     20    bbb     C4    501 0.51680000  12.010000   ; qtot 0.591000
  502         h1     20    bbb     H7    502 -0.05230000   1.008000   ; qtot 0.538700
  503         h1     20    bbb     H8    503 -0.05230000   1.008000   ; qtot 0.486400
  504         c3     20    bbb     C5    504 -0.60390000  12.010000   ; qtot -0.117500
  505         hc     20    bbb     H9    505 0.16730000   1.008000   ; qtot 0.049800
  506         hc     20    bbb    H10    506 0.16730000   1.008000   ; qtot 0.217100
  507         c3     20    bbb     C6    507 -0.60390000  12.010000   ; qtot -0.386800
  508         hc     20    bbb    H11    508 0.16730000   1.008000   ; qtot -0.219500
  509         hc     20    bbb    H12    509 0.16730000   1.008000   ; qtot -0.052200
  510          c     20    bbb     C7    510 0.72110000  12.010000   ; qtot 0.668900
  511          c     20    bbb     C8    511 0.72110000  12.010000   ; qtot 1.390000
  512          o     20    bbb     O1    512 -0.61950000  16.000000   ; qtot 0.770500
  513          o     20    bbb     O2    513 -0.61950000  16.000000   ; qtot 0.151000
  514          n     20    bbb     N4    514 -0.46580000  14.010000   ; qtot -0.314800
  515         hn     20    bbb    H21    515 0.31480000   1.008000   ; qtot -0.000000
; residue   21 bbb rtp bbb q -0.0
  516         c3     21    bbb     C1    516 0.44180000  12.010000   ; qtot 0.441800
  517         h1     21    bbb     H1    517 -0.03530000   1.008000   ; qtot 0.406500
  518         h1     21    bbb     H2    518 -0.03530000   1.008000   ; qtot 0.371200
  519         c3     21    bbb     C2    519 -0.28250000  12.010000   ; qtot 0.088700
  520         h1     21    bbb     H3    520 0.15710000   1.008000   ; qtot 0.245800
  521         h1     21    bbb     H4    521 0.15710000   1.008000   ; qtot 0.402900
  522         n3     21    bbb     N1    522 -0.74090000  14.010000   ; qtot -0.338000
  523         c3     21    bbb     C3    523 0.51680000  12.010000   ; qtot 0.178800
  524         h1     21    bbb     H5    524 -0.05230000   1.008000   ; qtot 0.126500
  525         h1     21    bbb     H6    525 -0.05230000   1.008000   ; qtot 0.074200
  526         c3     21    bbb     C4    526 0.51680000  12.010000   ; qtot 0.591000
  527         h1     21    bbb     H7    527 -0.05230000   1.008000   ; qtot 0.538700
  528         h1     21    bbb     H8    528 -0.05230000   1.008000   ; qtot 0.486400
  529         c3     21    bbb     C5    529 -0.60390000  12.010000   ; qtot -0.117500
  530         hc     21    bbb     H9    530 0.16730000   1.008000   ; qtot 0.049800
  531         hc     21    bbb    H10    531 0.16730000   1.008000   ; qtot 0.217100
  532         c3     21    bbb     C6    532 -0.60390000  12.010000   ; qtot -0.386800
  533         hc     21    bbb    H11    533 0.16730000   1.008000   ; qtot -0.219500
  534         hc     21    bbb    H12    534 0.16730000   1.008000   ; qtot -0.052200
  535          c     21    bbb     C7    535 0.72110000  12.010000   ; qtot 0.668900
  536          c     21    bbb     C8    536 0.72110000  12.010000   ; qtot 1.390000
  537          o     21    bbb     O1    537 -0.61950000  16.000000   ; qtot 0.770500
  538          o     21    bbb     O2    538 -0.61950000  16.000000   ; qtot 0.151000
  539          n     21    bbb     N4    539 -0.46580000  14.010000   ; qtot -0.314800
  540         hn     21    bbb    H21    540 0.31480000   1.008000   ; qtot -0.000000
; residue   22 bbb rtp bbb q -0.0
  541         c3     22    bbb     C1    541 0.44180000  12.010000   ; qtot 0.441800
  542         h1     22    bbb     H1    542 -0.03530000   1.008000   ; qtot 0.406500
  543         h1     22    bbb     H2    543 -0.03530000   1.008000   ; qtot 0.371200
  544         c3     22    bbb     C2    544 -0.28250000  12.010000   ; qtot 0.088700
  545         h1     22    bbb     H3    545 0.15710000   1.008000   ; qtot 0.245800
  546         h1     22    bbb     H4    546 0.15710000   1.008000   ; qtot 0.402900
  547         n3     22    bbb     N1    547 -0.74090000  14.010000   ; qtot -0.338000
  548         c3     22    bbb     C3    548 0.51680000  12.010000   ; qtot 0.178800
  549         h1     22    bbb     H5    549 -0.05230000   1.008000   ; qtot 0.126500
  550         h1     22    bbb     H6    550 -0.05230000   1.008000   ; qtot 0.074200
  551         c3     22    bbb     C4    551 0.51680000  12.010000   ; qtot 0.591000
  552         h1     22    bbb     H7    552 -0.05230000   1.008000   ; qtot 0.538700
  553         h1     22    bbb     H8    553 -0.05230000   1.008000   ; qtot 0.486400
  554         c3     22    bbb     C5    554 -0.60390000  12.010000   ; qtot -0.117500
  555         hc     22    bbb     H9    555 0.16730000   1.008000   ; qtot 0.049800
  556         hc     22    bbb    H10    556 0.16730000   1.008000   ; qtot 0.217100
  557         c3     22    bbb     C6    557 -0.60390000  12.010000   ; qtot -0.386800
  558         hc     22    bbb    H11    558 0.16730000   1.008000   ; qtot -0.219500
  559         hc     22    bbb    H12    559 0.16730000   1.008000   ; qtot -0.052200
  560          c     22    bbb     C7    560 0.72110000  12.010000   ; qtot 0.668900
  561          c     22    bbb     C8    561 0.72110000  12.010000   ; qtot 1.390000
  562          o     22    bbb     O1    562 -0.61950000  16.000000   ; qtot 0.770500
  563          o     22    bbb     O2    563 -0.61950000  16.000000   ; qtot 0.151000
  564          n     22    bbb     N4    564 -0.46580000  14.010000   ; qtot -0.314800
  565         hn     22    bbb    H21    565 0.31480000   1.008000   ; qtot -0.000000
; residue   23 bbb rtp bbb q -0.0
  566         c3     23    bbb     C1    566 0.44180000  12.010000   ; qtot 0.441800
  567         h1     23    bbb     H1    567 -0.03530000   1.008000   ; qtot 0.406500
  568         h1     23    bbb     H2    568 -0.03530000   1.008000   ; qtot 0.371200
  569         c3     23    bbb     C2    569 -0.28250000  12.010000   ; qtot 0.088700
  570         h1     23    bbb     H3    570 0.15710000   1.008000   ; qtot 0.245800
  571         h1     23    bbb     H4    571 0.15710000   1.008000   ; qtot 0.402900
  572         n3     23    bbb     N1    572 -0.74090000  14.010000   ; qtot -0.338000
  573         c3     23    bbb     C3    573 0.51680000  12.010000   ; qtot 0.178800
  574         h1     23    bbb     H5    574 -0.05230000   1.008000   ; qtot 0.126500
  575         h1     23    bbb     H6    575 -0.05230000   1.008000   ; qtot 0.074200
  576         c3     23    bbb     C4    576 0.51680000  12.010000   ; qtot 0.591000
  577         h1     23    bbb     H7    577 -0.05230000   1.008000   ; qtot 0.538700
  578         h1     23    bbb     H8    578 -0.05230000   1.008000   ; qtot 0.486400
  579         c3     23    bbb     C5    579 -0.60390000  12.010000   ; qtot -0.117500
  580         hc     23    bbb     H9    580 0.16730000   1.008000   ; qtot 0.049800
  581         hc     23    bbb    H10    581 0.16730000   1.008000   ; qtot 0.217100
  582         c3     23    bbb     C6    582 -0.60390000  12.010000   ; qtot -0.386800
  583         hc     23    bbb    H11    583 0.16730000   1.008000   ; qtot -0.219500
  584         hc     23    bbb    H12    584 0.16730000   1.008000   ; qtot -0.052200
  585          c     23    bbb     C7    585 0.72110000  12.010000   ; qtot 0.668900
  586          c     23    bbb     C8    586 0.72110000  12.010000   ; qtot 1.390000
  587          o     23    bbb     O1    587 -0.61950000  16.000000   ; qtot 0.770500
  588          o     23    bbb     O2    588 -0.61950000  16.000000   ; qtot 0.151000
  589          n     23    bbb     N4    589 -0.46580000  14.010000   ; qtot -0.314800
  590         hn     23    bbb    H21    590 0.31480000   1.008000   ; qtot -0.000000
; residue   24 bbb rtp bbb q -0.0
  591         c3     24    bbb     C1    591 0.44180000  12.010000   ; qtot 0.441800
  592         h1     24    bbb     H1    592 -0.03530000   1.008000   ; qtot 0.406500
  593         h1     24    bbb     H2    593 -0.03530000   1.008000   ; qtot 0.371200
  594         c3     24    bbb     C2    594 -0.28250000  12.010000   ; qtot 0.088700
  595         h1     24    bbb     H3    595 0.15710000   1.008000   ; qtot 0.245800
  596         h1     24    bbb     H4    596 0.15710000   1.008000   ; qtot 0.402900
  597         n3     24    bbb     N1    597 -0.74090000  14.010000   ; qtot -0.338000
  598         c3     24    bbb     C3    598 0.51680000  12.010000   ; qtot 0.178800
  599         h1     24    bbb     H5    599 -0.05230000   1.008000   ; qtot 0.126500
  600         h1     24    bbb     H6    600 -0.05230000   1.008000   ; qtot 0.074200
  601         c3     24    bbb     C4    601 0.51680000  12.010000   ; qtot 0.591000
  602         h1     24    bbb     H7    602 -0.05230000   1.008000   ; qtot 0.538700
  603         h1     24    bbb     H8    603 -0.05230000   1.008000   ; qtot 0.486400
  604         c3     24    bbb     C5    604 -0.60390000  12.010000   ; qtot -0.117500
  605         hc     24    bbb     H9    605 0.16730000   1.008000   ; qtot 0.049800
  606         hc     24    bbb    H10    606 0.16730000   1.008000   ; qtot 0.217100
  607         c3     24    bbb     C6    607 -0.60390000  12.010000   ; qtot -0.386800
  608         hc     24    bbb    H11    608 0.16730000   1.008000   ; qtot -0.219500
  609         hc     24    bbb    H12    609 0.16730000   1.008000   ; qtot -0.052200
  610          c     24    bbb     C7    610 0.72110000  12.010000   ; qtot 0.668900
  611          c     24    bbb     C8    611 0.72110000  12.010000   ; qtot 1.390000
  612          o     24    bbb     O1    612 -0.61950000  16.000000   ; qtot 0.770500
  613          o     24    bbb     O2    613 -0.61950000  16.000000   ; qtot 0.151000
  614          n     24    bbb     N4    614 -0.46580000  14.010000   ; qtot -0.314800
  615         hn     24    bbb    H21    615 0.31480000   1.008000   ; qtot -0.000000
; residue   25 bbb rtp bbb q -0.0
  616         c3     25    bbb     C1    616 0.44180000  12.010000   ; qtot 0.441800
  617         h1     25    bbb     H1    617 -0.03530000   1.008000   ; qtot 0.406500
  618         h1     25    bbb     H2    618 -0.03530000   1.008000   ; qtot 0.371200
  619         c3     25    bbb     C2    619 -0.28250000  12.010000   ; qtot 0.088700
  620         h1     25    bbb     H3    620 0.15710000   1.008000   ; qtot 0.245800
  621         h1     25    bbb     H4    621 0.15710000   1.008000   ; qtot 0.402900
  622         n3     25    bbb     N1    622 -0.74090000  14.010000   ; qtot -0.338000
  623         c3     25    bbb     C3    623 0.51680000  12.010000   ; qtot 0.178800
  624         h1     25    bbb     H5    624 -0.05230000   1.008000   ; qtot 0.126500
  625         h1     25    bbb     H6    625 -0.05230000   1.008000   ; qtot 0.074200
  626         c3     25    bbb     C4    626 0.51680000  12.010000   ; qtot 0.591000
  627         h1     25    bbb     H7    627 -0.05230000   1.008000   ; qtot 0.538700
  628         h1     25    bbb     H8    628 -0.05230000   1.008000   ; qtot 0.486400
  629         c3     25    bbb     C5    629 -0.60390000  12.010000   ; qtot -0.117500
  630         hc     25    bbb     H9    630 0.16730000   1.008000   ; qtot 0.049800
  631         hc     25    bbb    H10    631 0.16730000   1.008000   ; qtot 0.217100
  632         c3     25    bbb     C6    632 -0.60390000  12.010000   ; qtot -0.386800
  633         hc     25    bbb    H11    633 0.16730000   1.008000   ; qtot -0.219500
  634         hc     25    bbb    H12    634 0.16730000   1.008000   ; qtot -0.052200
  635          c     25    bbb     C7    635 0.72110000  12.010000   ; qtot 0.668900
  636          c     25    bbb     C8    636 0.72110000  12.010000   ; qtot 1.390000
  637          o     25    bbb     O1    637 -0.61950000  16.000000   ; qtot 0.770500
  638          o     25    bbb     O2    638 -0.61950000  16.000000   ; qtot 0.151000
  639          n     25    bbb     N4    639 -0.46580000  14.010000   ; qtot -0.314800
  640         hn     25    bbb    H21    640 0.31480000   1.008000   ; qtot -0.000000
; residue   26 bbb rtp bbb q -0.0
  641         c3     26    bbb     C1    641 0.44180000  12.010000   ; qtot 0.441800
  642         h1     26    bbb     H1    642 -0.03530000   1.008000   ; qtot 0.406500
  643         h1     26    bbb     H2    643 -0.03530000   1.008000   ; qtot 0.371200
  644         c3     26    bbb     C2    644 -0.28250000  12.010000   ; qtot 0.088700
  645         h1     26    bbb     H3    645 0.15710000   1.008000   ; qtot 0.245800
  646         h1     26    bbb     H4    646 0.15710000   1.008000   ; qtot 0.402900
  647         n3     26    bbb     N1    647 -0.74090000  14.010000   ; qtot -0.338000
  648         c3     26    bbb     C3    648 0.51680000  12.010000   ; qtot 0.178800
  649         h1     26    bbb     H5    649 -0.05230000   1.008000   ; qtot 0.126500
  650         h1     26    bbb     H6    650 -0.05230000   1.008000   ; qtot 0.074200
  651         c3     26    bbb     C4    651 0.51680000  12.010000   ; qtot 0.591000
  652         h1     26    bbb     H7    652 -0.05230000   1.008000   ; qtot 0.538700
  653         h1     26    bbb     H8    653 -0.05230000   1.008000   ; qtot 0.486400
  654         c3     26    bbb     C5    654 -0.60390000  12.010000   ; qtot -0.117500
  655         hc     26    bbb     H9    655 0.16730000   1.008000   ; qtot 0.049800
  656         hc     26    bbb    H10    656 0.16730000   1.008000   ; qtot 0.217100
  657         c3     26    bbb     C6    657 -0.60390000  12.010000   ; qtot -0.386800
  658         hc     26    bbb    H11    658 0.16730000   1.008000   ; qtot -0.219500
  659         hc     26    bbb    H12    659 0.16730000   1.008000   ; qtot -0.052200
  660          c     26    bbb     C7    660 0.72110000  12.010000   ; qtot 0.668900
  661          c     26    bbb     C8    661 0.72110000  12.010000   ; qtot 1.390000
  662          o     26    bbb     O1    662 -0.61950000  16.000000   ; qtot 0.770500
  663          o     26    bbb     O2    663 -0.61950000  16.000000   ; qtot 0.151000
  664          n     26    bbb     N4    664 -0.46580000  14.010000   ; qtot -0.314800
  665         hn     26    bbb    H21    665 0.31480000   1.008000   ; qtot -0.000000
; residue   27 bbb rtp bbb q -0.0
  666         c3     27    bbb     C1    666 0.44180000  12.010000   ; qtot 0.441800
  667         h1     27    bbb     H1    667 -0.03530000   1.008000   ; qtot 0.406500
  668         h1     27    bbb     H2    668 -0.03530000   1.008000   ; qtot 0.371200
  669         c3     27    bbb     C2    669 -0.28250000  12.010000   ; qtot 0.088700
  670         h1     27    bbb     H3    670 0.15710000   1.008000   ; qtot 0.245800
  671         h1     27    bbb     H4    671 0.15710000   1.008000   ; qtot 0.402900
  672         n3     27    bbb     N1    672 -0.74090000  14.010000   ; qtot -0.338000
  673         c3     27    bbb     C3    673 0.51680000  12.010000   ; qtot 0.178800
  674         h1     27    bbb     H5    674 -0.05230000   1.008000   ; qtot 0.126500
  675         h1     27    bbb     H6    675 -0.05230000   1.008000   ; qtot 0.074200
  676         c3     27    bbb     C4    676 0.51680000  12.010000   ; qtot 0.591000
  677         h1     27    bbb     H7    677 -0.05230000   1.008000   ; qtot 0.538700
  678         h1     27    bbb     H8    678 -0.05230000   1.008000   ; qtot 0.486400
  679         c3     27    bbb     C5    679 -0.60390000  12.010000   ; qtot -0.117500
  680         hc     27    bbb     H9    680 0.16730000   1.008000   ; qtot 0.049800
  681         hc     27    bbb    H10    681 0.16730000   1.008000   ; qtot 0.217100
  682         c3     27    bbb     C6    682 -0.60390000  12.010000   ; qtot -0.386800
  683         hc     27    bbb    H11    683 0.16730000   1.008000   ; qtot -0.219500
  684         hc     27    bbb    H12    684 0.16730000   1.008000   ; qtot -0.052200
  685          c     27    bbb     C7    685 0.72110000  12.010000   ; qtot 0.668900
  686          c     27    bbb     C8    686 0.72110000  12.010000   ; qtot 1.390000
  687          o     27    bbb     O1    687 -0.61950000  16.000000   ; qtot 0.770500
  688          o     27    bbb     O2    688 -0.61950000  16.000000   ; qtot 0.151000
  689          n     27    bbb     N4    689 -0.46580000  14.010000   ; qtot -0.314800
  690         hn     27    bbb    H21    690 0.31480000   1.008000   ; qtot -0.000000
; residue   28 bbb rtp bbb q -0.0
  691         c3     28    bbb     C1    691 0.44180000  12.010000   ; qtot 0.441800
  692         h1     28    bbb     H1    692 -0.03530000   1.008000   ; qtot 0.406500
  693         h1     28    bbb     H2    693 -0.03530000   1.008000   ; qtot 0.371200
  694         c3     28    bbb     C2    694 -0.28250000  12.010000   ; qtot 0.088700
  695         h1     28    bbb     H3    695 0.15710000   1.008000   ; qtot 0.245800
  696         h1     28    bbb     H4    696 0.15710000   1.008000   ; qtot 0.402900
  697         n3     28    bbb     N1    697 -0.74090000  14.010000   ; qtot -0.338000
  698         c3     28    bbb     C3    698 0.51680000  12.010000   ; qtot 0.178800
  699         h1     28    bbb     H5    699 -0.05230000   1.008000   ; qtot 0.126500
  700         h1     28    bbb     H6    700 -0.05230000   1.008000   ; qtot 0.074200
  701         c3     28    bbb     C4    701 0.51680000  12.010000   ; qtot 0.591000
  702         h1     28    bbb     H7    702 -0.05230000   1.008000   ; qtot 0.538700
  703         h1     28    bbb     H8    703 -0.05230000   1.008000   ; qtot 0.486400
  704         c3     28    bbb     C5    704 -0.60390000  12.010000   ; qtot -0.117500
  705         hc     28    bbb     H9    705 0.16730000   1.008000   ; qtot 0.049800
  706         hc     28    bbb    H10    706 0.16730000   1.008000   ; qtot 0.217100
  707         c3     28    bbb     C6    707 -0.60390000  12.010000   ; qtot -0.386800
  708         hc     28    bbb    H11    708 0.16730000   1.008000   ; qtot -0.219500
  709         hc     28    bbb    H12    709 0.16730000   1.008000   ; qtot -0.052200
  710          c     28    bbb     C7    710 0.72110000  12.010000   ; qtot 0.668900
  711          c     28    bbb     C8    711 0.72110000  12.010000   ; qtot 1.390000
  712          o     28    bbb     O1    712 -0.61950000  16.000000   ; qtot 0.770500
  713          o     28    bbb     O2    713 -0.61950000  16.000000   ; qtot 0.151000
  714          n     28    bbb     N4    714 -0.46580000  14.010000   ; qtot -0.314800
  715         hn     28    bbb    H21    715 0.31480000   1.008000   ; qtot -0.000000
; residue   29 bbb rtp bbb q -0.0
  716         c3     29    bbb     C1    716 0.44180000  12.010000   ; qtot 0.441800
  717         h1     29    bbb     H1    717 -0.03530000   1.008000   ; qtot 0.406500
  718         h1     29    bbb     H2    718 -0.03530000   1.008000   ; qtot 0.371200
  719         c3     29    bbb     C2    719 -0.28250000  12.010000   ; qtot 0.088700
  720         h1     29    bbb     H3    720 0.15710000   1.008000   ; qtot 0.245800
  721         h1     29    bbb     H4    721 0.15710000   1.008000   ; qtot 0.402900
  722         n3     29    bbb     N1    722 -0.74090000  14.010000   ; qtot -0.338000
  723         c3     29    bbb     C3    723 0.51680000  12.010000   ; qtot 0.178800
  724         h1     29    bbb     H5    724 -0.05230000   1.008000   ; qtot 0.126500
  725         h1     29    bbb     H6    725 -0.05230000   1.008000   ; qtot 0.074200
  726         c3     29    bbb     C4    726 0.51680000  12.010000   ; qtot 0.591000
  727         h1     29    bbb     H7    727 -0.05230000   1.008000   ; qtot 0.538700
  728         h1     29    bbb     H8    728 -0.05230000   1.008000   ; qtot 0.486400
  729         c3     29    bbb     C5    729 -0.60390000  12.010000   ; qtot -0.117500
  730         hc     29    bbb     H9    730 0.16730000   1.008000   ; qtot 0.049800
  731         hc     29    bbb    H10    731 0.16730000   1.008000   ; qtot 0.217100
  732         c3     29    bbb     C6    732 -0.60390000  12.010000   ; qtot -0.386800
  733         hc     29    bbb    H11    733 0.16730000   1.008000   ; qtot -0.219500
  734         hc     29    bbb    H12    734 0.16730000   1.008000   ; qtot -0.052200
  735          c     29    bbb     C7    735 0.72110000  12.010000   ; qtot 0.668900
  736          c     29    bbb     C8    736 0.72110000  12.010000   ; qtot 1.390000
  737          o     29    bbb     O1    737 -0.61950000  16.000000   ; qtot 0.770500
  738          o     29    bbb     O2    738 -0.61950000  16.000000   ; qtot 0.151000
  739          n     29    bbb     N4    739 -0.46580000  14.010000   ; qtot -0.314800
  740         hn     29    bbb    H21    740 0.31480000   1.008000   ; qtot -0.000000
; residue   30 ccc rtp ccc q -0.0
  741          n     30    ccc     N1    741 -0.46580000  14.010000   ; qtot -0.465800
  742         hn     30    ccc     H4    742 0.31480000   1.008000   ; qtot -0.151000
  743         c3     30    ccc     C3    743 -0.28250000  12.010000   ; qtot -0.433500
  744         h1     30    ccc     H5    744 0.15710000   1.008000   ; qtot -0.276400
  745         c3     30    ccc     C4    745 0.44180000  12.010000   ; qtot 0.165400
  746         h1     30    ccc     H6    746 0.15710000   1.008000   ; qtot 0.322500
  747         h1     30    ccc     H7    747 -0.03530000   1.008000   ; qtot 0.287200
  748         h1     30    ccc     H8    748 -0.03530000   1.008000   ; qtot 0.251900
  749         n3     30    ccc     N2    749 -0.74090000  14.010000   ; qtot -0.489000
  750         c3     30    ccc     C5    750 0.51680000  12.010000   ; qtot 0.027800
  751         c3     30    ccc     C6    751 0.51680000  12.010000   ; qtot 0.544600
  752         h1     30    ccc     H9    752 -0.05230000   1.008000   ; qtot 0.492300
  753         c3     30    ccc     C7    753 -0.60390000  12.010000   ; qtot -0.111600
  754         h1     30    ccc    H10    754 -0.05230000   1.008000   ; qtot -0.163900
  755         hc     30    ccc    H11    755 0.16730000   1.008000   ; qtot 0.003400
  756         hc     30    ccc    H12    756 0.16730000   1.008000   ; qtot 0.170700
  757          c     30    ccc     C8    757 0.72110000  12.010000   ; qtot 0.891800
  758          o     30    ccc     O2    758 -0.61950000  16.000000   ; qtot 0.272300
  759         h1     30    ccc    H13    759 -0.05230000   1.008000   ; qtot 0.220000
  760         h1     30    ccc    H14    760 -0.05230000   1.008000   ; qtot 0.167700
  761         c3     30    ccc     C9    761 -0.60390000  12.010000   ; qtot -0.436200
  762         hc     30    ccc    H15    762 0.16730000   1.008000   ; qtot -0.268900
  763         hc     30    ccc    H16    763 0.16730000   1.008000   ; qtot -0.101600
  764          c     30    ccc    C10    764 0.72110000  12.010000   ; qtot 0.619500
  765          o     30    ccc     O4    765 -0.61950000  16.000000   ; qtot -0.000000
  766         c3     30    ccc    C11    766 0.08518000  12.010000   ; qtot 0.085180
  767         c3     30    ccc    C12    767 0.07918000  12.010000   ; qtot 0.164360
  768         h1     30    ccc    H17    768 0.06978000   1.008000   ; qtot 0.234140
  769         c3     30    ccc    C13    769 0.07918000  12.010000   ; qtot 0.313320
  770         c3     30    ccc    C14    770 0.03578000  12.010000   ; qtot 0.349100
  771         c3     30    ccc    C15    771 0.33498000  12.010000   ; qtot 0.684080
  772         h1     30    ccc    H18    772 0.06178000   1.008000   ; qtot 0.745860
  773         h1     30    ccc    H19    773 0.11278000   1.008000   ; qtot 0.858640
  774         h2     30    ccc    H20    774 0.12178000   1.008000   ; qtot 0.980420
  775         oh     30    ccc     O1    775 -0.56972000  16.000000   ; qtot 0.410700
  776         oh     30    ccc     O6    776 -0.57772000  16.000000   ; qtot -0.167020
  777         c3     30    ccc    C16    777 0.14548000  12.010000   ; qtot -0.021540
  778         ho     30    ccc    H21    778 0.40508000   1.008000   ; qtot 0.383540
  779         hn     30    ccc    H22    779 0.31758000   1.008000   ; qtot 0.701120
  780         h1     30    ccc    H23    780 0.06278000   1.008000   ; qtot 0.763900
  781         h1     30    ccc    H24    781 0.06278000   1.008000   ; qtot 0.826680
  782         oh     30    ccc     O7    782 -0.59472000  16.000000   ; qtot 0.231960
  783         ho     30    ccc    H25    783 0.41908000   1.008000   ; qtot 0.651040
  784         os     30    ccc     O8    784 -0.44552000  16.000000   ; qtot 0.205520
  785         ho     30    ccc    H26    785 0.41908000   1.008000   ; qtot 0.624600
  786         h1     30    ccc    H27    786 0.08578000   1.008000   ; qtot 0.710380
  787         oh     30    ccc     O9    787 -0.58672000  16.000000   ; qtot 0.123660
  788         ho     30    ccc    H28    788 0.41908000   1.008000   ; qtot 0.542740
  789         n3     30    ccc     N3    789 -0.54282000  14.010000   ; qtot -0.000080
  790         c3     30    ccc    C17    790 0.08518000  12.010000   ; qtot 0.085100
  791         c3     30    ccc    C18    791 0.07918000  12.010000   ; qtot 0.164280
  792         h1     30    ccc    H29    792 0.06978000   1.008000   ; qtot 0.234060
  793         c3     30    ccc    C19    793 0.07918000  12.010000   ; qtot 0.313240
  794         c3     30    ccc    C20    794 0.03578000  12.010000   ; qtot 0.349020
  795         c3     30    ccc    C21    795 0.33498000  12.010000   ; qtot 0.684000
  796         h1     30    ccc    H30    796 0.06178000   1.008000   ; qtot 0.745780
  797         h1     30    ccc    H31    797 0.11278000   1.008000   ; qtot 0.858560
  798         h2     30    ccc    H32    798 0.12178000   1.008000   ; qtot 0.980340
  799         oh     30    ccc    O10    799 -0.56972000  16.000000   ; qtot 0.410620
  800         oh     30    ccc    O11    800 -0.57772000  16.000000   ; qtot -0.167100
  801         c3     30    ccc    C22    801 0.14548000  12.010000   ; qtot -0.021620
  802         ho     30    ccc    H33    802 0.40508000   1.008000   ; qtot 0.383460
  803         hn     30    ccc    H34    803 0.31758000   1.008000   ; qtot 0.701040
  804         h1     30    ccc    H35    804 0.06278000   1.008000   ; qtot 0.763820
  805         h1     30    ccc    H36    805 0.06278000   1.008000   ; qtot 0.826600
  806         oh     30    ccc    O12    806 -0.59472000  16.000000   ; qtot 0.231880
  807         ho     30    ccc    H37    807 0.41908000   1.008000   ; qtot 0.650960
  808         os     30    ccc    O13    808 -0.44552000  16.000000   ; qtot 0.205440
  809         ho     30    ccc    H38    809 0.41908000   1.008000   ; qtot 0.624520
  810         h1     30    ccc    H39    810 0.08578000   1.008000   ; qtot 0.710300
  811         oh     30    ccc     O5    811 -0.58672000  16.000000   ; qtot 0.123580
  812         ho     30    ccc    H40    812 0.41908000   1.008000   ; qtot 0.542660
  813         n3     30    ccc     N4    813 -0.54282000  14.010000   ; qtot -0.000160
; residue   31 ccc rtp ccc q -0.0
  814          n     31    ccc     N1    814 -0.46580000  14.010000   ; qtot -0.465960
  815         hn     31    ccc     H4    815 0.31480000   1.008000   ; qtot -0.151160
  816         c3     31    ccc     C3    816 -0.28250000  12.010000   ; qtot -0.433660
  817         h1     31    ccc     H5    817 0.15710000   1.008000   ; qtot -0.276560
  818         c3     31    ccc     C4    818 0.44180000  12.010000   ; qtot 0.165240
  819         h1     31    ccc     H6    819 0.15710000   1.008000   ; qtot 0.322340
  820         h1     31    ccc     H7    820 -0.03530000   1.008000   ; qtot 0.287040
  821         h1     31    ccc     H8    821 -0.03530000   1.008000   ; qtot 0.251740
  822         n3     31    ccc     N2    822 -0.74090000  14.010000   ; qtot -0.489160
  823         c3     31    ccc     C5    823 0.51680000  12.010000   ; qtot 0.027640
  824         c3     31    ccc     C6    824 0.51680000  12.010000   ; qtot 0.544440
  825         h1     31    ccc     H9    825 -0.05230000   1.008000   ; qtot 0.492140
  826         c3     31    ccc     C7    826 -0.60390000  12.010000   ; qtot -0.111760
  827         h1     31    ccc    H10    827 -0.05230000   1.008000   ; qtot -0.164060
  828         hc     31    ccc    H11    828 0.16730000   1.008000   ; qtot 0.003240
  829         hc     31    ccc    H12    829 0.16730000   1.008000   ; qtot 0.170540
  830          c     31    ccc     C8    830 0.72110000  12.010000   ; qtot 0.891640
  831          o     31    ccc     O2    831 -0.61950000  16.000000   ; qtot 0.272140
  832         h1     31    ccc    H13    832 -0.05230000   1.008000   ; qtot 0.219840
  833         h1     31    ccc    H14    833 -0.05230000   1.008000   ; qtot 0.167540
  834         c3     31    ccc     C9    834 -0.60390000  12.010000   ; qtot -0.436360
  835         hc     31    ccc    H15    835 0.16730000   1.008000   ; qtot -0.269060
  836         hc     31    ccc    H16    836 0.16730000   1.008000   ; qtot -0.101760
  837          c     31    ccc    C10    837 0.72110000  12.010000   ; qtot 0.619340
  838          o     31    ccc     O4    838 -0.61950000  16.000000   ; qtot -0.000160
  839         c3     31    ccc    C11    839 0.08518000  12.010000   ; qtot 0.085020
  840         c3     31    ccc    C12    840 0.07918000  12.010000   ; qtot 0.164200
  841         h1     31    ccc    H17    841 0.06978000   1.008000   ; qtot 0.233980
  842         c3     31    ccc    C13    842 0.07918000  12.010000   ; qtot 0.313160
  843         c3     31    ccc    C14    843 0.03578000  12.010000   ; qtot 0.348940
  844         c3     31    ccc    C15    844 0.33498000  12.010000   ; qtot 0.683920
  845         h1     31    ccc    H18    845 0.06178000   1.008000   ; qtot 0.745700
  846         h1     31    ccc    H19    846 0.11278000   1.008000   ; qtot 0.858480
  847         h2     31    ccc    H20    847 0.12178000   1.008000   ; qtot 0.980260
  848         oh     31    ccc     O1    848 -0.56972000  16.000000   ; qtot 0.410540
  849         oh     31    ccc     O6    849 -0.57772000  16.000000   ; qtot -0.167180
  850         c3     31    ccc    C16    850 0.14548000  12.010000   ; qtot -0.021700
  851         ho     31    ccc    H21    851 0.40508000   1.008000   ; qtot 0.383380
  852         hn     31    ccc    H22    852 0.31758000   1.008000   ; qtot 0.700960
  853         h1     31    ccc    H23    853 0.06278000   1.008000   ; qtot 0.763740
  854         h1     31    ccc    H24    854 0.06278000   1.008000   ; qtot 0.826520
  855         oh     31    ccc     O7    855 -0.59472000  16.000000   ; qtot 0.231800
  856         ho     31    ccc    H25    856 0.41908000   1.008000   ; qtot 0.650880
  857         os     31    ccc     O8    857 -0.44552000  16.000000   ; qtot 0.205360
  858         ho     31    ccc    H26    858 0.41908000   1.008000   ; qtot 0.624440
  859         h1     31    ccc    H27    859 0.08578000   1.008000   ; qtot 0.710220
  860         oh     31    ccc     O9    860 -0.58672000  16.000000   ; qtot 0.123500
  861         ho     31    ccc    H28    861 0.41908000   1.008000   ; qtot 0.542580
  862         n3     31    ccc     N3    862 -0.54282000  14.010000   ; qtot -0.000240
  863         c3     31    ccc    C17    863 0.08518000  12.010000   ; qtot 0.084940
  864         c3     31    ccc    C18    864 0.07918000  12.010000   ; qtot 0.164120
  865         h1     31    ccc    H29    865 0.06978000   1.008000   ; qtot 0.233900
  866         c3     31    ccc    C19    866 0.07918000  12.010000   ; qtot 0.313080
  867         c3     31    ccc    C20    867 0.03578000  12.010000   ; qtot 0.348860
  868         c3     31    ccc    C21    868 0.33498000  12.010000   ; qtot 0.683840
  869         h1     31    ccc    H30    869 0.06178000   1.008000   ; qtot 0.745620
  870         h1     31    ccc    H31    870 0.11278000   1.008000   ; qtot 0.858400
  871         h2     31    ccc    H32    871 0.12178000   1.008000   ; qtot 0.980180
  872         oh     31    ccc    O10    872 -0.56972000  16.000000   ; qtot 0.410460
  873         oh     31    ccc    O11    873 -0.57772000  16.000000   ; qtot -0.167260
  874         c3     31    ccc    C22    874 0.14548000  12.010000   ; qtot -0.021780
  875         ho     31    ccc    H33    875 0.40508000   1.008000   ; qtot 0.383300
  876         hn     31    ccc    H34    876 0.31758000   1.008000   ; qtot 0.700880
  877         h1     31    ccc    H35    877 0.06278000   1.008000   ; qtot 0.763660
  878         h1     31    ccc    H36    878 0.06278000   1.008000   ; qtot 0.826440
  879         oh     31    ccc    O12    879 -0.59472000  16.000000   ; qtot 0.231720
  880         ho     31    ccc    H37    880 0.41908000   1.008000   ; qtot 0.650800
  881         os     31    ccc    O13    881 -0.44552000  16.000000   ; qtot 0.205280
  882         ho     31    ccc    H38    882 0.41908000   1.008000   ; qtot 0.624360
  883         h1     31    ccc    H39    883 0.08578000   1.008000   ; qtot 0.710140
  884         oh     31    ccc     O5    884 -0.58672000  16.000000   ; qtot 0.123420
  885         ho     31    ccc    H40    885 0.41908000   1.008000   ; qtot 0.542500
  886         n3     31    ccc     N4    886 -0.54282000  14.010000   ; qtot -0.000320
; residue   32 ccc rtp ccc q -0.0
  887          n     32    ccc     N1    887 -0.46580000  14.010000   ; qtot -0.466120
  888         hn     32    ccc     H4    888 0.31480000   1.008000   ; qtot -0.151320
  889         c3     32    ccc     C3    889 -0.28250000  12.010000   ; qtot -0.433820
  890         h1     32    ccc     H5    890 0.15710000   1.008000   ; qtot -0.276720
  891         c3     32    ccc     C4    891 0.44180000  12.010000   ; qtot 0.165080
  892         h1     32    ccc     H6    892 0.15710000   1.008000   ; qtot 0.322180
  893         h1     32    ccc     H7    893 -0.03530000   1.008000   ; qtot 0.286880
  894         h1     32    ccc     H8    894 -0.03530000   1.008000   ; qtot 0.251580
  895         n3     32    ccc     N2    895 -0.74090000  14.010000   ; qtot -0.489320
  896         c3     32    ccc     C5    896 0.51680000  12.010000   ; qtot 0.027480
  897         c3     32    ccc     C6    897 0.51680000  12.010000   ; qtot 0.544280
  898         h1     32    ccc     H9    898 -0.05230000   1.008000   ; qtot 0.491980
  899         c3     32    ccc     C7    899 -0.60390000  12.010000   ; qtot -0.111920
  900         h1     32    ccc    H10    900 -0.05230000   1.008000   ; qtot -0.164220
  901         hc     32    ccc    H11    901 0.16730000   1.008000   ; qtot 0.003080
  902         hc     32    ccc    H12    902 0.16730000   1.008000   ; qtot 0.170380
  903          c     32    ccc     C8    903 0.72110000  12.010000   ; qtot 0.891480
  904          o     32    ccc     O2    904 -0.61950000  16.000000   ; qtot 0.271980
  905         h1     32    ccc    H13    905 -0.05230000   1.008000   ; qtot 0.219680
  906         h1     32    ccc    H14    906 -0.05230000   1.008000   ; qtot 0.167380
  907         c3     32    ccc     C9    907 -0.60390000  12.010000   ; qtot -0.436520
  908         hc     32    ccc    H15    908 0.16730000   1.008000   ; qtot -0.269220
  909         hc     32    ccc    H16    909 0.16730000   1.008000   ; qtot -0.101920
  910          c     32    ccc    C10    910 0.72110000  12.010000   ; qtot 0.619180
  911          o     32    ccc     O4    911 -0.61950000  16.000000   ; qtot -0.000320
  912         c3     32    ccc    C11    912 0.08518000  12.010000   ; qtot 0.084860
  913         c3     32    ccc    C12    913 0.07918000  12.010000   ; qtot 0.164040
  914         h1     32    ccc    H17    914 0.06978000   1.008000   ; qtot 0.233820
  915         c3     32    ccc    C13    915 0.07918000  12.010000   ; qtot 0.313000
  916         c3     32    ccc    C14    916 0.03578000  12.010000   ; qtot 0.348780
  917         c3     32    ccc    C15    917 0.33498000  12.010000   ; qtot 0.683760
  918         h1     32    ccc    H18    918 0.06178000   1.008000   ; qtot 0.745540
  919         h1     32    ccc    H19    919 0.11278000   1.008000   ; qtot 0.858320
  920         h2     32    ccc    H20    920 0.12178000   1.008000   ; qtot 0.980100
  921         oh     32    ccc     O1    921 -0.56972000  16.000000   ; qtot 0.410380
  922         oh     32    ccc     O6    922 -0.57772000  16.000000   ; qtot -0.167340
  923         c3     32    ccc    C16    923 0.14548000  12.010000   ; qtot -0.021860
  924         ho     32    ccc    H21    924 0.40508000   1.008000   ; qtot 0.383220
  925         hn     32    ccc    H22    925 0.31758000   1.008000   ; qtot 0.700800
  926         h1     32    ccc    H23    926 0.06278000   1.008000   ; qtot 0.763580
  927         h1     32    ccc    H24    927 0.06278000   1.008000   ; qtot 0.826360
  928         oh     32    ccc     O7    928 -0.59472000  16.000000   ; qtot 0.231640
  929         ho     32    ccc    H25    929 0.41908000   1.008000   ; qtot 0.650720
  930         os     32    ccc     O8    930 -0.44552000  16.000000   ; qtot 0.205200
  931         ho     32    ccc    H26    931 0.41908000   1.008000   ; qtot 0.624280
  932         h1     32    ccc    H27    932 0.08578000   1.008000   ; qtot 0.710060
  933         oh     32    ccc     O9    933 -0.58672000  16.000000   ; qtot 0.123340
  934         ho     32    ccc    H28    934 0.41908000   1.008000   ; qtot 0.542420
  935         n3     32    ccc     N3    935 -0.54282000  14.010000   ; qtot -0.000400
  936         c3     32    ccc    C17    936 0.08518000  12.010000   ; qtot 0.084779
  937         c3     32    ccc    C18    937 0.07918000  12.010000   ; qtot 0.163959
  938         h1     32    ccc    H29    938 0.06978000   1.008000   ; qtot 0.233739
  939         c3     32    ccc    C19    939 0.07918000  12.010000   ; qtot 0.312919
  940         c3     32    ccc    C20    940 0.03578000  12.010000   ; qtot 0.348699
  941         c3     32    ccc    C21    941 0.33498000  12.010000   ; qtot 0.683679
  942         h1     32    ccc    H30    942 0.06178000   1.008000   ; qtot 0.745459
  943         h1     32    ccc    H31    943 0.11278000   1.008000   ; qtot 0.858239
  944         h2     32    ccc    H32    944 0.12178000   1.008000   ; qtot 0.980019
  945         oh     32    ccc    O10    945 -0.56972000  16.000000   ; qtot 0.410299
  946         oh     32    ccc    O11    946 -0.57772000  16.000000   ; qtot -0.167421
  947         c3     32    ccc    C22    947 0.14548000  12.010000   ; qtot -0.021941
  948         ho     32    ccc    H33    948 0.40508000   1.008000   ; qtot 0.383139
  949         hn     32    ccc    H34    949 0.31758000   1.008000   ; qtot 0.700719
  950         h1     32    ccc    H35    950 0.06278000   1.008000   ; qtot 0.763499
  951         h1     32    ccc    H36    951 0.06278000   1.008000   ; qtot 0.826279
  952         oh     32    ccc    O12    952 -0.59472000  16.000000   ; qtot 0.231559
  953         ho     32    ccc    H37    953 0.41908000   1.008000   ; qtot 0.650639
  954         os     32    ccc    O13    954 -0.44552000  16.000000   ; qtot 0.205119
  955         ho     32    ccc    H38    955 0.41908000   1.008000   ; qtot 0.624199
  956         h1     32    ccc    H39    956 0.08578000   1.008000   ; qtot 0.709979
  957         oh     32    ccc     O5    957 -0.58672000  16.000000   ; qtot 0.123259
  958         ho     32    ccc    H40    958 0.41908000   1.008000   ; qtot 0.542339
  959         n3     32    ccc     N4    959 -0.54282000  14.010000   ; qtot -0.000481
; residue   33 ccc rtp ccc q -0.0
  960          n     33    ccc     N1    960 -0.46580000  14.010000   ; qtot -0.466281
  961         hn     33    ccc     H4    961 0.31480000   1.008000   ; qtot -0.151481
  962         c3     33    ccc     C3    962 -0.28250000  12.010000   ; qtot -0.433981
  963         h1     33    ccc     H5    963 0.15710000   1.008000   ; qtot -0.276881
  964         c3     33    ccc     C4    964 0.44180000  12.010000   ; qtot 0.164919
  965         h1     33    ccc     H6    965 0.15710000   1.008000   ; qtot 0.322019
  966         h1     33    ccc     H7    966 -0.03530000   1.008000   ; qtot 0.286719
  967         h1     33    ccc     H8    967 -0.03530000   1.008000   ; qtot 0.251419
  968         n3     33    ccc     N2    968 -0.74090000  14.010000   ; qtot -0.489481
  969         c3     33    ccc     C5    969 0.51680000  12.010000   ; qtot 0.027319
  970         c3     33    ccc     C6    970 0.51680000  12.010000   ; qtot 0.544119
  971         h1     33    ccc     H9    971 -0.05230000   1.008000   ; qtot 0.491819
  972         c3     33    ccc     C7    972 -0.60390000  12.010000   ; qtot -0.112081
  973         h1     33    ccc    H10    973 -0.05230000   1.008000   ; qtot -0.164381
  974         hc     33    ccc    H11    974 0.16730000   1.008000   ; qtot 0.002919
  975         hc     33    ccc    H12    975 0.16730000   1.008000   ; qtot 0.170219
  976          c     33    ccc     C8    976 0.72110000  12.010000   ; qtot 0.891319
  977          o     33    ccc     O2    977 -0.61950000  16.000000   ; qtot 0.271819
  978         h1     33    ccc    H13    978 -0.05230000   1.008000   ; qtot 0.219519
  979         h1     33    ccc    H14    979 -0.05230000   1.008000   ; qtot 0.167219
  980         c3     33    ccc     C9    980 -0.60390000  12.010000   ; qtot -0.436681
  981         hc     33    ccc    H15    981 0.16730000   1.008000   ; qtot -0.269381
  982         hc     33    ccc    H16    982 0.16730000   1.008000   ; qtot -0.102081
  983          c     33    ccc    C10    983 0.72110000  12.010000   ; qtot 0.619019
  984          o     33    ccc     O4    984 -0.61950000  16.000000   ; qtot -0.000481
  985         c3     33    ccc    C11    985 0.08518000  12.010000   ; qtot 0.084699
  986         c3     33    ccc    C12    986 0.07918000  12.010000   ; qtot 0.163879
  987         h1     33    ccc    H17    987 0.06978000   1.008000   ; qtot 0.233659
  988         c3     33    ccc    C13    988 0.07918000  12.010000   ; qtot 0.312839
  989         c3     33    ccc    C14    989 0.03578000  12.010000   ; qtot 0.348619
  990         c3     33    ccc    C15    990 0.33498000  12.010000   ; qtot 0.683599
  991         h1     33    ccc    H18    991 0.06178000   1.008000   ; qtot 0.745379
  992         h1     33    ccc    H19    992 0.11278000   1.008000   ; qtot 0.858159
  993         h2     33    ccc    H20    993 0.12178000   1.008000   ; qtot 0.979939
  994         oh     33    ccc     O1    994 -0.56972000  16.000000   ; qtot 0.410219
  995         oh     33    ccc     O6    995 -0.57772000  16.000000   ; qtot -0.167501
  996         c3     33    ccc    C16    996 0.14548000  12.010000   ; qtot -0.022021
  997         ho     33    ccc    H21    997 0.40508000   1.008000   ; qtot 0.383059
  998         hn     33    ccc    H22    998 0.31758000   1.008000   ; qtot 0.700639
  999         h1     33    ccc    H23    999 0.06278000   1.008000   ; qtot 0.763419
 1000         h1     33    ccc    H24   1000 0.06278000   1.008000   ; qtot 0.826199
 1001         oh     33    ccc     O7   1001 -0.59472000  16.000000   ; qtot 0.231479
 1002         ho     33    ccc    H25   1002 0.41908000   1.008000   ; qtot 0.650559
 1003         os     33    ccc     O8   1003 -0.44552000  16.000000   ; qtot 0.205039
 1004         ho     33    ccc    H26   1004 0.41908000   1.008000   ; qtot 0.624119
 1005         h1     33    ccc    H27   1005 0.08578000   1.008000   ; qtot 0.709899
 1006         oh     33    ccc     O9   1006 -0.58672000  16.000000   ; qtot 0.123179
 1007         ho     33    ccc    H28   1007 0.41908000   1.008000   ; qtot 0.542259
 1008         n3     33    ccc     N3   1008 -0.54282000  14.010000   ; qtot -0.000561
 1009         c3     33    ccc    C17   1009 0.08518000  12.010000   ; qtot 0.084619
 1010         c3     33    ccc    C18   1010 0.07918000  12.010000   ; qtot 0.163799
 1011         h1     33    ccc    H29   1011 0.06978000   1.008000   ; qtot 0.233579
 1012         c3     33    ccc    C19   1012 0.07918000  12.010000   ; qtot 0.312759
 1013         c3     33    ccc    C20   1013 0.03578000  12.010000   ; qtot 0.348539
 1014         c3     33    ccc    C21   1014 0.33498000  12.010000   ; qtot 0.683519
 1015         h1     33    ccc    H30   1015 0.06178000   1.008000   ; qtot 0.745299
 1016         h1     33    ccc    H31   1016 0.11278000   1.008000   ; qtot 0.858079
 1017         h2     33    ccc    H32   1017 0.12178000   1.008000   ; qtot 0.979859
 1018         oh     33    ccc    O10   1018 -0.56972000  16.000000   ; qtot 0.410139
 1019         oh     33    ccc    O11   1019 -0.57772000  16.000000   ; qtot -0.167581
 1020         c3     33    ccc    C22   1020 0.14548000  12.010000   ; qtot -0.022101
 1021         ho     33    ccc    H33   1021 0.40508000   1.008000   ; qtot 0.382979
 1022         hn     33    ccc    H34   1022 0.31758000   1.008000   ; qtot 0.700559
 1023         h1     33    ccc    H35   1023 0.06278000   1.008000   ; qtot 0.763339
 1024         h1     33    ccc    H36   1024 0.06278000   1.008000   ; qtot 0.826119
 1025         oh     33    ccc    O12   1025 -0.59472000  16.000000   ; qtot 0.231399
 1026         ho     33    ccc    H37   1026 0.41908000   1.008000   ; qtot 0.650479
 1027         os     33    ccc    O13   1027 -0.44552000  16.000000   ; qtot 0.204959
 1028         ho     33    ccc    H38   1028 0.41908000   1.008000   ; qtot 0.624039
 1029         h1     33    ccc    H39   1029 0.08578000   1.008000   ; qtot 0.709819
 1030         oh     33    ccc     O5   1030 -0.58672000  16.000000   ; qtot 0.123099
 1031         ho     33    ccc    H40   1031 0.41908000   1.008000   ; qtot 0.542179
 1032         n3     33    ccc     N4   1032 -0.54282000  14.010000   ; qtot -0.000641
; residue   34 ccc rtp ccc q -0.0
 1033          n     34    ccc     N1   1033 -0.46580000  14.010000   ; qtot -0.466441
 1034         hn     34    ccc     H4   1034 0.31480000   1.008000   ; qtot -0.151641
 1035         c3     34    ccc     C3   1035 -0.28250000  12.010000   ; qtot -0.434141
 1036         h1     34    ccc     H5   1036 0.15710000   1.008000   ; qtot -0.277041
 1037         c3     34    ccc     C4   1037 0.44180000  12.010000   ; qtot 0.164759
 1038         h1     34    ccc     H6   1038 0.15710000   1.008000   ; qtot 0.321859
 1039         h1     34    ccc     H7   1039 -0.03530000   1.008000   ; qtot 0.286559
 1040         h1     34    ccc     H8   1040 -0.03530000   1.008000   ; qtot 0.251259
 1041         n3     34    ccc     N2   1041 -0.74090000  14.010000   ; qtot -0.489641
 1042         c3     34    ccc     C5   1042 0.51680000  12.010000   ; qtot 0.027159
 1043         c3     34    ccc     C6   1043 0.51680000  12.010000   ; qtot 0.543959
 1044         h1     34    ccc     H9   1044 -0.05230000   1.008000   ; qtot 0.491659
 1045         c3     34    ccc     C7   1045 -0.60390000  12.010000   ; qtot -0.112241
 1046         h1     34    ccc    H10   1046 -0.05230000   1.008000   ; qtot -0.164541
 1047         hc     34    ccc    H11   1047 0.16730000   1.008000   ; qtot 0.002759
 1048         hc     34    ccc    H12   1048 0.16730000   1.008000   ; qtot 0.170059
 1049          c     34    ccc     C8   1049 0.72110000  12.010000   ; qtot 0.891159
 1050          o     34    ccc     O2   1050 -0.61950000  16.000000   ; qtot 0.271659
 1051         h1     34    ccc    H13   1051 -0.05230000   1.008000   ; qtot 0.219359
 1052         h1     34    ccc    H14   1052 -0.05230000   1.008000   ; qtot 0.167059
 1053         c3     34    ccc     C9   1053 -0.60390000  12.010000   ; qtot -0.436841
 1054         hc     34    ccc    H15   1054 0.16730000   1.008000   ; qtot -0.269541
 1055         hc     34    ccc    H16   1055 0.16730000   1.008000   ; qtot -0.102241
 1056          c     34    ccc    C10   1056 0.72110000  12.010000   ; qtot 0.618859
 1057          o     34    ccc     O4   1057 -0.61950000  16.000000   ; qtot -0.000641
 1058         c3     34    ccc    C11   1058 0.08518000  12.010000   ; qtot 0.084539
 1059         c3     34    ccc    C12   1059 0.07918000  12.010000   ; qtot 0.163719
 1060         h1     34    ccc    H17   1060 0.06978000   1.008000   ; qtot 0.233499
 1061         c3     34    ccc    C13   1061 0.07918000  12.010000   ; qtot 0.312679
 1062         c3     34    ccc    C14   1062 0.03578000  12.010000   ; qtot 0.348459
 1063         c3     34    ccc    C15   1063 0.33498000  12.010000   ; qtot 0.683439
 1064         h1     34    ccc    H18   1064 0.06178000   1.008000   ; qtot 0.745219
 1065         h1     34    ccc    H19   1065 0.11278000   1.008000   ; qtot 0.857999
 1066         h2     34    ccc    H20   1066 0.12178000   1.008000   ; qtot 0.979779
 1067         oh     34    ccc     O1   1067 -0.56972000  16.000000   ; qtot 0.410059
 1068         oh     34    ccc     O6   1068 -0.57772000  16.000000   ; qtot -0.167661
 1069         c3     34    ccc    C16   1069 0.14548000  12.010000   ; qtot -0.022181
 1070         ho     34    ccc    H21   1070 0.40508000   1.008000   ; qtot 0.382899
 1071         hn     34    ccc    H22   1071 0.31758000   1.008000   ; qtot 0.700479
 1072         h1     34    ccc    H23   1072 0.06278000   1.008000   ; qtot 0.763259
 1073         h1     34    ccc    H24   1073 0.06278000   1.008000   ; qtot 0.826039
 1074         oh     34    ccc     O7   1074 -0.59472000  16.000000   ; qtot 0.231319
 1075         ho     34    ccc    H25   1075 0.41908000   1.008000   ; qtot 0.650399
 1076         os     34    ccc     O8   1076 -0.44552000  16.000000   ; qtot 0.204879
 1077         ho     34    ccc    H26   1077 0.41908000   1.008000   ; qtot 0.623959
 1078         h1     34    ccc    H27   1078 0.08578000   1.008000   ; qtot 0.709739
 1079         oh     34    ccc     O9   1079 -0.58672000  16.000000   ; qtot 0.123019
 1080         ho     34    ccc    H28   1080 0.41908000   1.008000   ; qtot 0.542099
 1081         n3     34    ccc     N3   1081 -0.54282000  14.010000   ; qtot -0.000721
 1082         c3     34    ccc    C17   1082 0.08518000  12.010000   ; qtot 0.084459
 1083         c3     34    ccc    C18   1083 0.07918000  12.010000   ; qtot 0.163639
 1084         h1     34    ccc    H29   1084 0.06978000   1.008000   ; qtot 0.233419
 1085         c3     34    ccc    C19   1085 0.07918000  12.010000   ; qtot 0.312599
 1086         c3     34    ccc    C20   1086 0.03578000  12.010000   ; qtot 0.348379
 1087         c3     34    ccc    C21   1087 0.33498000  12.010000   ; qtot 0.683359
 1088         h1     34    ccc    H30   1088 0.06178000   1.008000   ; qtot 0.745139
 1089         h1     34    ccc    H31   1089 0.11278000   1.008000   ; qtot 0.857919
 1090         h2     34    ccc    H32   1090 0.12178000   1.008000   ; qtot 0.979699
 1091         oh     34    ccc    O10   1091 -0.56972000  16.000000   ; qtot 0.409979
 1092         oh     34    ccc    O11   1092 -0.57772000  16.000000   ; qtot -0.167741
 1093         c3     34    ccc    C22   1093 0.14548000  12.010000   ; qtot -0.022261
 1094         ho     34    ccc    H33   1094 0.40508000   1.008000   ; qtot 0.382819
 1095         hn     34    ccc    H34   1095 0.31758000   1.008000   ; qtot 0.700399
 1096         h1     34    ccc    H35   1096 0.06278000   1.008000   ; qtot 0.763179
 1097         h1     34    ccc    H36   1097 0.06278000   1.008000   ; qtot 0.825959
 1098         oh     34    ccc    O12   1098 -0.59472000  16.000000   ; qtot 0.231239
 1099         ho     34    ccc    H37   1099 0.41908000   1.008000   ; qtot 0.650319
 1100         os     34    ccc    O13   1100 -0.44552000  16.000000   ; qtot 0.204799
 1101         ho     34    ccc    H38   1101 0.41908000   1.008000   ; qtot 0.623879
 1102         h1     34    ccc    H39   1102 0.08578000   1.008000   ; qtot 0.709659
 1103         oh     34    ccc     O5   1103 -0.58672000  16.000000   ; qtot 0.122939
 1104         ho     34    ccc    H40   1104 0.41908000   1.008000   ; qtot 0.542019
 1105         n3     34    ccc     N4   1105 -0.54282000  14.010000   ; qtot -0.000801
; residue   35 ccc rtp ccc q -0.0
 1106          n     35    ccc     N1   1106 -0.46580000  14.010000   ; qtot -0.466601
 1107         hn     35    ccc     H4   1107 0.31480000   1.008000   ; qtot -0.151801
 1108         c3     35    ccc     C3   1108 -0.28250000  12.010000   ; qtot -0.434301
 1109         h1     35    ccc     H5   1109 0.15710000   1.008000   ; qtot -0.277201
 1110         c3     35    ccc     C4   1110 0.44180000  12.010000   ; qtot 0.164599
 1111         h1     35    ccc     H6   1111 0.15710000   1.008000   ; qtot 0.321699
 1112         h1     35    ccc     H7   1112 -0.03530000   1.008000   ; qtot 0.286399
 1113         h1     35    ccc     H8   1113 -0.03530000   1.008000   ; qtot 0.251099
 1114         n3     35    ccc     N2   1114 -0.74090000  14.010000   ; qtot -0.489801
 1115         c3     35    ccc     C5   1115 0.51680000  12.010000   ; qtot 0.026999
 1116         c3     35    ccc     C6   1116 0.51680000  12.010000   ; qtot 0.543799
 1117         h1     35    ccc     H9   1117 -0.05230000   1.008000   ; qtot 0.491499
 1118         c3     35    ccc     C7   1118 -0.60390000  12.010000   ; qtot -0.112401
 1119         h1     35    ccc    H10   1119 -0.05230000   1.008000   ; qtot -0.164701
 1120         hc     35    ccc    H11   1120 0.16730000   1.008000   ; qtot 0.002599
 1121         hc     35    ccc    H12   1121 0.16730000   1.008000   ; qtot 0.169899
 1122          c     35    ccc     C8   1122 0.72110000  12.010000   ; qtot 0.890999
 1123          o     35    ccc     O2   1123 -0.61950000  16.000000   ; qtot 0.271499
 1124         h1     35    ccc    H13   1124 -0.05230000   1.008000   ; qtot 0.219199
 1125         h1     35    ccc    H14   1125 -0.05230000   1.008000   ; qtot 0.166899
 1126         c3     35    ccc     C9   1126 -0.60390000  12.010000   ; qtot -0.437001
 1127         hc     35    ccc    H15   1127 0.16730000   1.008000   ; qtot -0.269701
 1128         hc     35    ccc    H16   1128 0.16730000   1.008000   ; qtot -0.102401
 1129          c     35    ccc    C10   1129 0.72110000  12.010000   ; qtot 0.618699
 1130          o     35    ccc     O4   1130 -0.61950000  16.000000   ; qtot -0.000801
 1131         c3     35    ccc    C11   1131 0.08518000  12.010000   ; qtot 0.084379
 1132         c3     35    ccc    C12   1132 0.07918000  12.010000   ; qtot 0.163559
 1133         h1     35    ccc    H17   1133 0.06978000   1.008000   ; qtot 0.233339
 1134         c3     35    ccc    C13   1134 0.07918000  12.010000   ; qtot 0.312519
 1135         c3     35    ccc    C14   1135 0.03578000  12.010000   ; qtot 0.348299
 1136         c3     35    ccc    C15   1136 0.33498000  12.010000   ; qtot 0.683279
 1137         h1     35    ccc    H18   1137 0.06178000   1.008000   ; qtot 0.745059
 1138         h1     35    ccc    H19   1138 0.11278000   1.008000   ; qtot 0.857839
 1139         h2     35    ccc    H20   1139 0.12178000   1.008000   ; qtot 0.979619
 1140         oh     35    ccc     O1   1140 -0.56972000  16.000000   ; qtot 0.409899
 1141         oh     35    ccc     O6   1141 -0.57772000  16.000000   ; qtot -0.167821
 1142         c3     35    ccc    C16   1142 0.14548000  12.010000   ; qtot -0.022341
 1143         ho     35    ccc    H21   1143 0.40508000   1.008000   ; qtot 0.382739
 1144         hn     35    ccc    H22   1144 0.31758000   1.008000   ; qtot 0.700319
 1145         h1     35    ccc    H23   1145 0.06278000   1.008000   ; qtot 0.763099
 1146         h1     35    ccc    H24   1146 0.06278000   1.008000   ; qtot 0.825879
 1147         oh     35    ccc     O7   1147 -0.59472000  16.000000   ; qtot 0.231159
 1148         ho     35    ccc    H25   1148 0.41908000   1.008000   ; qtot 0.650239
 1149         os     35    ccc     O8   1149 -0.44552000  16.000000   ; qtot 0.204719
 1150         ho     35    ccc    H26   1150 0.41908000   1.008000   ; qtot 0.623799
 1151         h1     35    ccc    H27   1151 0.08578000   1.008000   ; qtot 0.709579
 1152         oh     35    ccc     O9   1152 -0.58672000  16.000000   ; qtot 0.122859
 1153         ho     35    ccc    H28   1153 0.41908000   1.008000   ; qtot 0.541939
 1154         n3     35    ccc     N3   1154 -0.54282000  14.010000   ; qtot -0.000881
 1155         c3     35    ccc    C17   1155 0.08518000  12.010000   ; qtot 0.084299
 1156         c3     35    ccc    C18   1156 0.07918000  12.010000   ; qtot 0.163479
 1157         h1     35    ccc    H29   1157 0.06978000   1.008000   ; qtot 0.233259
 1158         c3     35    ccc    C19   1158 0.07918000  12.010000   ; qtot 0.312439
 1159         c3     35    ccc    C20   1159 0.03578000  12.010000   ; qtot 0.348219
 1160         c3     35    ccc    C21   1160 0.33498000  12.010000   ; qtot 0.683199
 1161         h1     35    ccc    H30   1161 0.06178000   1.008000   ; qtot 0.744979
 1162         h1     35    ccc    H31   1162 0.11278000   1.008000   ; qtot 0.857759
 1163         h2     35    ccc    H32   1163 0.12178000   1.008000   ; qtot 0.979539
 1164         oh     35    ccc    O10   1164 -0.56972000  16.000000   ; qtot 0.409819
 1165         oh     35    ccc    O11   1165 -0.57772000  16.000000   ; qtot -0.167901
 1166         c3     35    ccc    C22   1166 0.14548000  12.010000   ; qtot -0.022421
 1167         ho     35    ccc    H33   1167 0.40508000   1.008000   ; qtot 0.382659
 1168         hn     35    ccc    H34   1168 0.31758000   1.008000   ; qtot 0.700239
 1169         h1     35    ccc    H35   1169 0.06278000   1.008000   ; qtot 0.763019
 1170         h1     35    ccc    H36   1170 0.06278000   1.008000   ; qtot 0.825799
 1171         oh     35    ccc    O12   1171 -0.59472000  16.000000   ; qtot 0.231079
 1172         ho     35    ccc    H37   1172 0.41908000   1.008000   ; qtot 0.650159
 1173         os     35    ccc    O13   1173 -0.44552000  16.000000   ; qtot 0.204639
 1174         ho     35    ccc    H38   1174 0.41908000   1.008000   ; qtot 0.623719
 1175         h1     35    ccc    H39   1175 0.08578000   1.008000   ; qtot 0.709499
 1176         oh     35    ccc     O5   1176 -0.58672000  16.000000   ; qtot 0.122779
 1177         ho     35    ccc    H40   1177 0.41908000   1.008000   ; qtot 0.541859
 1178         n3     35    ccc     N4   1178 -0.54282000  14.010000   ; qtot -0.000961
; residue   36 ccc rtp ccc q -0.0
 1179          n     36    ccc     N1   1179 -0.46580000  14.010000   ; qtot -0.466761
 1180         hn     36    ccc     H4   1180 0.31480000   1.008000   ; qtot -0.151961
 1181         c3     36    ccc     C3   1181 -0.28250000  12.010000   ; qtot -0.434461
 1182         h1     36    ccc     H5   1182 0.15710000   1.008000   ; qtot -0.277361
 1183         c3     36    ccc     C4   1183 0.44180000  12.010000   ; qtot 0.164439
 1184         h1     36    ccc     H6   1184 0.15710000   1.008000   ; qtot 0.321539
 1185         h1     36    ccc     H7   1185 -0.03530000   1.008000   ; qtot 0.286239
 1186         h1     36    ccc     H8   1186 -0.03530000   1.008000   ; qtot 0.250939
 1187         n3     36    ccc     N2   1187 -0.74090000  14.010000   ; qtot -0.489961
 1188         c3     36    ccc     C5   1188 0.51680000  12.010000   ; qtot 0.026839
 1189         c3     36    ccc     C6   1189 0.51680000  12.010000   ; qtot 0.543639
 1190         h1     36    ccc     H9   1190 -0.05230000   1.008000   ; qtot 0.491339
 1191         c3     36    ccc     C7   1191 -0.60390000  12.010000   ; qtot -0.112561
 1192         h1     36    ccc    H10   1192 -0.05230000   1.008000   ; qtot -0.164861
 1193         hc     36    ccc    H11   1193 0.16730000   1.008000   ; qtot 0.002439
 1194         hc     36    ccc    H12   1194 0.16730000   1.008000   ; qtot 0.169739
 1195          c     36    ccc     C8   1195 0.72110000  12.010000   ; qtot 0.890839
 1196          o     36    ccc     O2   1196 -0.61950000  16.000000   ; qtot 0.271339
 1197         h1     36    ccc    H13   1197 -0.05230000   1.008000   ; qtot 0.219039
 1198         h1     36    ccc    H14   1198 -0.05230000   1.008000   ; qtot 0.166739
 1199         c3     36    ccc     C9   1199 -0.60390000  12.010000   ; qtot -0.437161
 1200         hc     36    ccc    H15   1200 0.16730000   1.008000   ; qtot -0.269861
 1201         hc     36    ccc    H16   1201 0.16730000   1.008000   ; qtot -0.102561
 1202          c     36    ccc    C10   1202 0.72110000  12.010000   ; qtot 0.618539
 1203          o     36    ccc     O4   1203 -0.61950000  16.000000   ; qtot -0.000961
 1204         c3     36    ccc    C11   1204 0.08518000  12.010000   ; qtot 0.084219
 1205         c3     36    ccc    C12   1205 0.07918000  12.010000   ; qtot 0.163399
 1206         h1     36    ccc    H17   1206 0.06978000   1.008000   ; qtot 0.233179
 1207         c3     36    ccc    C13   1207 0.07918000  12.010000   ; qtot 0.312359
 1208         c3     36    ccc    C14   1208 0.03578000  12.010000   ; qtot 0.348139
 1209         c3     36    ccc    C15   1209 0.33498000  12.010000   ; qtot 0.683119
 1210         h1     36    ccc    H18   1210 0.06178000   1.008000   ; qtot 0.744899
 1211         h1     36    ccc    H19   1211 0.11278000   1.008000   ; qtot 0.857679
 1212         h2     36    ccc    H20   1212 0.12178000   1.008000   ; qtot 0.979459
 1213         oh     36    ccc     O1   1213 -0.56972000  16.000000   ; qtot 0.409739
 1214         oh     36    ccc     O6   1214 -0.57772000  16.000000   ; qtot -0.167981
 1215         c3     36    ccc    C16   1215 0.14548000  12.010000   ; qtot -0.022501
 1216         ho     36    ccc    H21   1216 0.40508000   1.008000   ; qtot 0.382579
 1217         hn     36    ccc    H22   1217 0.31758000   1.008000   ; qtot 0.700159
 1218         h1     36    ccc    H23   1218 0.06278000   1.008000   ; qtot 0.762939
 1219         h1     36    ccc    H24   1219 0.06278000   1.008000   ; qtot 0.825719
 1220         oh     36    ccc     O7   1220 -0.59472000  16.000000   ; qtot 0.230999
 1221         ho     36    ccc    H25   1221 0.41908000   1.008000   ; qtot 0.650079
 1222         os     36    ccc     O8   1222 -0.44552000  16.000000   ; qtot 0.204559
 1223         ho     36    ccc    H26   1223 0.41908000   1.008000   ; qtot 0.623639
 1224         h1     36    ccc    H27   1224 0.08578000   1.008000   ; qtot 0.709419
 1225         oh     36    ccc     O9   1225 -0.58672000  16.000000   ; qtot 0.122699
 1226         ho     36    ccc    H28   1226 0.41908000   1.008000   ; qtot 0.541779
 1227         n3     36    ccc     N3   1227 -0.54282000  14.010000   ; qtot -0.001041
 1228         c3     36    ccc    C17   1228 0.08518000  12.010000   ; qtot 0.084139
 1229         c3     36    ccc    C18   1229 0.07918000  12.010000   ; qtot 0.163319
 1230         h1     36    ccc    H29   1230 0.06978000   1.008000   ; qtot 0.233099
 1231         c3     36    ccc    C19   1231 0.07918000  12.010000   ; qtot 0.312279
 1232         c3     36    ccc    C20   1232 0.03578000  12.010000   ; qtot 0.348059
 1233         c3     36    ccc    C21   1233 0.33498000  12.010000   ; qtot 0.683039
 1234         h1     36    ccc    H30   1234 0.06178000   1.008000   ; qtot 0.744819
 1235         h1     36    ccc    H31   1235 0.11278000   1.008000   ; qtot 0.857599
 1236         h2     36    ccc    H32   1236 0.12178000   1.008000   ; qtot 0.979379
 1237         oh     36    ccc    O10   1237 -0.56972000  16.000000   ; qtot 0.409659
 1238         oh     36    ccc    O11   1238 -0.57772000  16.000000   ; qtot -0.168061
 1239         c3     36    ccc    C22   1239 0.14548000  12.010000   ; qtot -0.022581
 1240         ho     36    ccc    H33   1240 0.40508000   1.008000   ; qtot 0.382499
 1241         hn     36    ccc    H34   1241 0.31758000   1.008000   ; qtot 0.700079
 1242         h1     36    ccc    H35   1242 0.06278000   1.008000   ; qtot 0.762859
 1243         h1     36    ccc    H36   1243 0.06278000   1.008000   ; qtot 0.825639
 1244         oh     36    ccc    O12   1244 -0.59472000  16.000000   ; qtot 0.230919
 1245         ho     36    ccc    H37   1245 0.41908000   1.008000   ; qtot 0.649999
 1246         os     36    ccc    O13   1246 -0.44552000  16.000000   ; qtot 0.204479
 1247         ho     36    ccc    H38   1247 0.41908000   1.008000   ; qtot 0.623559
 1248         h1     36    ccc    H39   1248 0.08578000   1.008000   ; qtot 0.709339
 1249         oh     36    ccc     O5   1249 -0.58672000  16.000000   ; qtot 0.122619
 1250         ho     36    ccc    H40   1250 0.41908000   1.008000   ; qtot 0.541699
 1251         n3     36    ccc     N4   1251 -0.54282000  14.010000   ; qtot -0.001121
; residue   37 ccc rtp ccc q -0.0
 1252          n     37    ccc     N1   1252 -0.46580000  14.010000   ; qtot -0.466921
 1253         hn     37    ccc     H4   1253 0.31480000   1.008000   ; qtot -0.152121
 1254         c3     37    ccc     C3   1254 -0.28250000  12.010000   ; qtot -0.434621
 1255         h1     37    ccc     H5   1255 0.15710000   1.008000   ; qtot -0.277521
 1256         c3     37    ccc     C4   1256 0.44180000  12.010000   ; qtot 0.164279
 1257         h1     37    ccc     H6   1257 0.15710000   1.008000   ; qtot 0.321379
 1258         h1     37    ccc     H7   1258 -0.03530000   1.008000   ; qtot 0.286079
 1259         h1     37    ccc     H8   1259 -0.03530000   1.008000   ; qtot 0.250779
 1260         n3     37    ccc     N2   1260 -0.74090000  14.010000   ; qtot -0.490121
 1261         c3     37    ccc     C5   1261 0.51680000  12.010000   ; qtot 0.026679
 1262         c3     37    ccc     C6   1262 0.51680000  12.010000   ; qtot 0.543479
 1263         h1     37    ccc     H9   1263 -0.05230000   1.008000   ; qtot 0.491179
 1264         c3     37    ccc     C7   1264 -0.60390000  12.010000   ; qtot -0.112721
 1265         h1     37    ccc    H10   1265 -0.05230000   1.008000   ; qtot -0.165021
 1266         hc     37    ccc    H11   1266 0.16730000   1.008000   ; qtot 0.002279
 1267         hc     37    ccc    H12   1267 0.16730000   1.008000   ; qtot 0.169579
 1268          c     37    ccc     C8   1268 0.72110000  12.010000   ; qtot 0.890679
 1269          o     37    ccc     O2   1269 -0.61950000  16.000000   ; qtot 0.271179
 1270         h1     37    ccc    H13   1270 -0.05230000   1.008000   ; qtot 0.218879
 1271         h1     37    ccc    H14   1271 -0.05230000   1.008000   ; qtot 0.166579
 1272         c3     37    ccc     C9   1272 -0.60390000  12.010000   ; qtot -0.437321
 1273         hc     37    ccc    H15   1273 0.16730000   1.008000   ; qtot -0.270021
 1274         hc     37    ccc    H16   1274 0.16730000   1.008000   ; qtot -0.102721
 1275          c     37    ccc    C10   1275 0.72110000  12.010000   ; qtot 0.618379
 1276          o     37    ccc     O4   1276 -0.61950000  16.000000   ; qtot -0.001121
 1277         c3     37    ccc    C11   1277 0.08518000  12.010000   ; qtot 0.084059
 1278         c3     37    ccc    C12   1278 0.07918000  12.010000   ; qtot 0.163239
 1279         h1     37    ccc    H17   1279 0.06978000   1.008000   ; qtot 0.233019
 1280         c3     37    ccc    C13   1280 0.07918000  12.010000   ; qtot 0.312199
 1281         c3     37    ccc    C14   1281 0.03578000  12.010000   ; qtot 0.347979
 1282         c3     37    ccc    C15   1282 0.33498000  12.010000   ; qtot 0.682959
 1283         h1     37    ccc    H18   1283 0.06178000   1.008000   ; qtot 0.744739
 1284         h1     37    ccc    H19   1284 0.11278000   1.008000   ; qtot 0.857519
 1285         h2     37    ccc    H20   1285 0.12178000   1.008000   ; qtot 0.979299
 1286         oh     37    ccc     O1   1286 -0.56972000  16.000000   ; qtot 0.409579
 1287         oh     37    ccc     O6   1287 -0.57772000  16.000000   ; qtot -0.168141
 1288         c3     37    ccc    C16   1288 0.14548000  12.010000   ; qtot -0.022661
 1289         ho     37    ccc    H21   1289 0.40508000   1.008000   ; qtot 0.382419
 1290         hn     37    ccc    H22   1290 0.31758000   1.008000   ; qtot 0.699999
 1291         h1     37    ccc    H23   1291 0.06278000   1.008000   ; qtot 0.762779
 1292         h1     37    ccc    H24   1292 0.06278000   1.008000   ; qtot 0.825559
 1293         oh     37    ccc     O7   1293 -0.59472000  16.000000   ; qtot 0.230839
 1294         ho     37    ccc    H25   1294 0.41908000   1.008000   ; qtot 0.649919
 1295         os     37    ccc     O8   1295 -0.44552000  16.000000   ; qtot 0.204399
 1296         ho     37    ccc    H26   1296 0.41908000   1.008000   ; qtot 0.623479
 1297         h1     37    ccc    H27   1297 0.08578000   1.008000   ; qtot 0.709259
 1298         oh     37    ccc     O9   1298 -0.58672000  16.000000   ; qtot 0.122539
 1299         ho     37    ccc    H28   1299 0.41908000   1.008000   ; qtot 0.541619
 1300         n3     37    ccc     N3   1300 -0.54282000  14.010000   ; qtot -0.001201
 1301         c3     37    ccc    C17   1301 0.08518000  12.010000   ; qtot 0.083979
 1302         c3     37    ccc    C18   1302 0.07918000  12.010000   ; qtot 0.163159
 1303         h1     37    ccc    H29   1303 0.06978000   1.008000   ; qtot 0.232939
 1304         c3     37    ccc    C19   1304 0.07918000  12.010000   ; qtot 0.312119
 1305         c3     37    ccc    C20   1305 0.03578000  12.010000   ; qtot 0.347899
 1306         c3     37    ccc    C21   1306 0.33498000  12.010000   ; qtot 0.682879
 1307         h1     37    ccc    H30   1307 0.06178000   1.008000   ; qtot 0.744659
 1308         h1     37    ccc    H31   1308 0.11278000   1.008000   ; qtot 0.857439
 1309         h2     37    ccc    H32   1309 0.12178000   1.008000   ; qtot 0.979219
 1310         oh     37    ccc    O10   1310 -0.56972000  16.000000   ; qtot 0.409499
 1311         oh     37    ccc    O11   1311 -0.57772000  16.000000   ; qtot -0.168221
 1312         c3     37    ccc    C22   1312 0.14548000  12.010000   ; qtot -0.022741
 1313         ho     37    ccc    H33   1313 0.40508000   1.008000   ; qtot 0.382339
 1314         hn     37    ccc    H34   1314 0.31758000   1.008000   ; qtot 0.699919
 1315         h1     37    ccc    H35   1315 0.06278000   1.008000   ; qtot 0.762699
 1316         h1     37    ccc    H36   1316 0.06278000   1.008000   ; qtot 0.825479
 1317         oh     37    ccc    O12   1317 -0.59472000  16.000000   ; qtot 0.230759
 1318         ho     37    ccc    H37   1318 0.41908000   1.008000   ; qtot 0.649839
 1319         os     37    ccc    O13   1319 -0.44552000  16.000000   ; qtot 0.204319
 1320         ho     37    ccc    H38   1320 0.41908000   1.008000   ; qtot 0.623399
 1321         h1     37    ccc    H39   1321 0.08578000   1.008000   ; qtot 0.709179
 1322         oh     37    ccc     O5   1322 -0.58672000  16.000000   ; qtot 0.122459
 1323         ho     37    ccc    H40   1323 0.41908000   1.008000   ; qtot 0.541539
 1324         n3     37    ccc     N4   1324 -0.54282000  14.010000   ; qtot -0.001281
; residue   38 ccc rtp ccc q -0.0
 1325          n     38    ccc     N1   1325 -0.46580000  14.010000   ; qtot -0.467081
 1326         hn     38    ccc     H4   1326 0.31480000   1.008000   ; qtot -0.152281
 1327         c3     38    ccc     C3   1327 -0.28250000  12.010000   ; qtot -0.434781
 1328         h1     38    ccc     H5   1328 0.15710000   1.008000   ; qtot -0.277681
 1329         c3     38    ccc     C4   1329 0.44180000  12.010000   ; qtot 0.164119
 1330         h1     38    ccc     H6   1330 0.15710000   1.008000   ; qtot 0.321219
 1331         h1     38    ccc     H7   1331 -0.03530000   1.008000   ; qtot 0.285919
 1332         h1     38    ccc     H8   1332 -0.03530000   1.008000   ; qtot 0.250619
 1333         n3     38    ccc     N2   1333 -0.74090000  14.010000   ; qtot -0.490281
 1334         c3     38    ccc     C5   1334 0.51680000  12.010000   ; qtot 0.026519
 1335         c3     38    ccc     C6   1335 0.51680000  12.010000   ; qtot 0.543319
 1336         h1     38    ccc     H9   1336 -0.05230000   1.008000   ; qtot 0.491019
 1337         c3     38    ccc     C7   1337 -0.60390000  12.010000   ; qtot -0.112881
 1338         h1     38    ccc    H10   1338 -0.05230000   1.008000   ; qtot -0.165181
 1339         hc     38    ccc    H11   1339 0.16730000   1.008000   ; qtot 0.002119
 1340         hc     38    ccc    H12   1340 0.16730000   1.008000   ; qtot 0.169419
 1341          c     38    ccc     C8   1341 0.72110000  12.010000   ; qtot 0.890519
 1342          o     38    ccc     O2   1342 -0.61950000  16.000000   ; qtot 0.271019
 1343         h1     38    ccc    H13   1343 -0.05230000   1.008000   ; qtot 0.218719
 1344         h1     38    ccc    H14   1344 -0.05230000   1.008000   ; qtot 0.166419
 1345         c3     38    ccc     C9   1345 -0.60390000  12.010000   ; qtot -0.437481
 1346         hc     38    ccc    H15   1346 0.16730000   1.008000   ; qtot -0.270181
 1347         hc     38    ccc    H16   1347 0.16730000   1.008000   ; qtot -0.102881
 1348          c     38    ccc    C10   1348 0.72110000  12.010000   ; qtot 0.618219
 1349          o     38    ccc     O4   1349 -0.61950000  16.000000   ; qtot -0.001281
 1350         c3     38    ccc    C11   1350 0.08518000  12.010000   ; qtot 0.083899
 1351         c3     38    ccc    C12   1351 0.07918000  12.010000   ; qtot 0.163079
 1352         h1     38    ccc    H17   1352 0.06978000   1.008000   ; qtot 0.232859
 1353         c3     38    ccc    C13   1353 0.07918000  12.010000   ; qtot 0.312039
 1354         c3     38    ccc    C14   1354 0.03578000  12.010000   ; qtot 0.347819
 1355         c3     38    ccc    C15   1355 0.33498000  12.010000   ; qtot 0.682799
 1356         h1     38    ccc    H18   1356 0.06178000   1.008000   ; qtot 0.744579
 1357         h1     38    ccc    H19   1357 0.11278000   1.008000   ; qtot 0.857359
 1358         h2     38    ccc    H20   1358 0.12178000   1.008000   ; qtot 0.979139
 1359         oh     38    ccc     O1   1359 -0.56972000  16.000000   ; qtot 0.409419
 1360         oh     38    ccc     O6   1360 -0.57772000  16.000000   ; qtot -0.168301
 1361         c3     38    ccc    C16   1361 0.14548000  12.010000   ; qtot -0.022821
 1362         ho     38    ccc    H21   1362 0.40508000   1.008000   ; qtot 0.382259
 1363         hn     38    ccc    H22   1363 0.31758000   1.008000   ; qtot 0.699839
 1364         h1     38    ccc    H23   1364 0.06278000   1.008000   ; qtot 0.762619
 1365         h1     38    ccc    H24   1365 0.06278000   1.008000   ; qtot 0.825399
 1366         oh     38    ccc     O7   1366 -0.59472000  16.000000   ; qtot 0.230679
 1367         ho     38    ccc    H25   1367 0.41908000   1.008000   ; qtot 0.649759
 1368         os     38    ccc     O8   1368 -0.44552000  16.000000   ; qtot 0.204239
 1369         ho     38    ccc    H26   1369 0.41908000   1.008000   ; qtot 0.623319
 1370         h1     38    ccc    H27   1370 0.08578000   1.008000   ; qtot 0.709099
 1371         oh     38    ccc     O9   1371 -0.58672000  16.000000   ; qtot 0.122379
 1372         ho     38    ccc    H28   1372 0.41908000   1.008000   ; qtot 0.541459
 1373         n3     38    ccc     N3   1373 -0.54282000  14.010000   ; qtot -0.001361
 1374         c3     38    ccc    C17   1374 0.08518000  12.010000   ; qtot 0.083819
 1375         c3     38    ccc    C18   1375 0.07918000  12.010000   ; qtot 0.162999
 1376         h1     38    ccc    H29   1376 0.06978000   1.008000   ; qtot 0.232779
 1377         c3     38    ccc    C19   1377 0.07918000  12.010000   ; qtot 0.311959
 1378         c3     38    ccc    C20   1378 0.03578000  12.010000   ; qtot 0.347739
 1379         c3     38    ccc    C21   1379 0.33498000  12.010000   ; qtot 0.682719
 1380         h1     38    ccc    H30   1380 0.06178000   1.008000   ; qtot 0.744499
 1381         h1     38    ccc    H31   1381 0.11278000   1.008000   ; qtot 0.857279
 1382         h2     38    ccc    H32   1382 0.12178000   1.008000   ; qtot 0.979059
 1383         oh     38    ccc    O10   1383 -0.56972000  16.000000   ; qtot 0.409339
 1384         oh     38    ccc    O11   1384 -0.57772000  16.000000   ; qtot -0.168381
 1385         c3     38    ccc    C22   1385 0.14548000  12.010000   ; qtot -0.022901
 1386         ho     38    ccc    H33   1386 0.40508000   1.008000   ; qtot 0.382179
 1387         hn     38    ccc    H34   1387 0.31758000   1.008000   ; qtot 0.699759
 1388         h1     38    ccc    H35   1388 0.06278000   1.008000   ; qtot 0.762539
 1389         h1     38    ccc    H36   1389 0.06278000   1.008000   ; qtot 0.825319
 1390         oh     38    ccc    O12   1390 -0.59472000  16.000000   ; qtot 0.230599
 1391         ho     38    ccc    H37   1391 0.41908000   1.008000   ; qtot 0.649679
 1392         os     38    ccc    O13   1392 -0.44552000  16.000000   ; qtot 0.204159
 1393         ho     38    ccc    H38   1393 0.41908000   1.008000   ; qtot 0.623239
 1394         h1     38    ccc    H39   1394 0.08578000   1.008000   ; qtot 0.709019
 1395         oh     38    ccc     O5   1395 -0.58672000  16.000000   ; qtot 0.122299
 1396         ho     38    ccc    H40   1396 0.41908000   1.008000   ; qtot 0.541379
 1397         n3     38    ccc     N4   1397 -0.54282000  14.010000   ; qtot -0.001441
; residue   39 ccc rtp ccc q -0.0
 1398          n     39    ccc     N1   1398 -0.46580000  14.010000   ; qtot -0.467241
 1399         hn     39    ccc     H4   1399 0.31480000   1.008000   ; qtot -0.152441
 1400         c3     39    ccc     C3   1400 -0.28250000  12.010000   ; qtot -0.434941
 1401         h1     39    ccc     H5   1401 0.15710000   1.008000   ; qtot -0.277841
 1402         c3     39    ccc     C4   1402 0.44180000  12.010000   ; qtot 0.163959
 1403         h1     39    ccc     H6   1403 0.15710000   1.008000   ; qtot 0.321059
 1404         h1     39    ccc     H7   1404 -0.03530000   1.008000   ; qtot 0.285759
 1405         h1     39    ccc     H8   1405 -0.03530000   1.008000   ; qtot 0.250459
 1406         n3     39    ccc     N2   1406 -0.74090000  14.010000   ; qtot -0.490441
 1407         c3     39    ccc     C5   1407 0.51680000  12.010000   ; qtot 0.026359
 1408         c3     39    ccc     C6   1408 0.51680000  12.010000   ; qtot 0.543159
 1409         h1     39    ccc     H9   1409 -0.05230000   1.008000   ; qtot 0.490859
 1410         c3     39    ccc     C7   1410 -0.60390000  12.010000   ; qtot -0.113041
 1411         h1     39    ccc    H10   1411 -0.05230000   1.008000   ; qtot -0.165341
 1412         hc     39    ccc    H11   1412 0.16730000   1.008000   ; qtot 0.001959
 1413         hc     39    ccc    H12   1413 0.16730000   1.008000   ; qtot 0.169259
 1414          c     39    ccc     C8   1414 0.72110000  12.010000   ; qtot 0.890359
 1415          o     39    ccc     O2   1415 -0.61950000  16.000000   ; qtot 0.270859
 1416         h1     39    ccc    H13   1416 -0.05230000   1.008000   ; qtot 0.218559
 1417         h1     39    ccc    H14   1417 -0.05230000   1.008000   ; qtot 0.166259
 1418         c3     39    ccc     C9   1418 -0.60390000  12.010000   ; qtot -0.437641
 1419         hc     39    ccc    H15   1419 0.16730000   1.008000   ; qtot -0.270341
 1420         hc     39    ccc    H16   1420 0.16730000   1.008000   ; qtot -0.103041
 1421          c     39    ccc    C10   1421 0.72110000  12.010000   ; qtot 0.618059
 1422          o     39    ccc     O4   1422 -0.61950000  16.000000   ; qtot -0.001441
 1423         c3     39    ccc    C11   1423 0.08518000  12.010000   ; qtot 0.083739
 1424         c3     39    ccc    C12   1424 0.07918000  12.010000   ; qtot 0.162919
 1425         h1     39    ccc    H17   1425 0.06978000   1.008000   ; qtot 0.232699
 1426         c3     39    ccc    C13   1426 0.07918000  12.010000   ; qtot 0.311879
 1427         c3     39    ccc    C14   1427 0.03578000  12.010000   ; qtot 0.347659
 1428         c3     39    ccc    C15   1428 0.33498000  12.010000   ; qtot 0.682639
 1429         h1     39    ccc    H18   1429 0.06178000   1.008000   ; qtot 0.744419
 1430         h1     39    ccc    H19   1430 0.11278000   1.008000   ; qtot 0.857199
 1431         h2     39    ccc    H20   1431 0.12178000   1.008000   ; qtot 0.978979
 1432         oh     39    ccc     O1   1432 -0.56972000  16.000000   ; qtot 0.409259
 1433         oh     39    ccc     O6   1433 -0.57772000  16.000000   ; qtot -0.168461
 1434         c3     39    ccc    C16   1434 0.14548000  12.010000   ; qtot -0.022981
 1435         ho     39    ccc    H21   1435 0.40508000   1.008000   ; qtot 0.382099
 1436         hn     39    ccc    H22   1436 0.31758000   1.008000   ; qtot 0.699679
 1437         h1     39    ccc    H23   1437 0.06278000   1.008000   ; qtot 0.762459
 1438         h1     39    ccc    H24   1438 0.06278000   1.008000   ; qtot 0.825239
 1439         oh     39    ccc     O7   1439 -0.59472000  16.000000   ; qtot 0.230519
 1440         ho     39    ccc    H25   1440 0.41908000   1.008000   ; qtot 0.649599
 1441         os     39    ccc     O8   1441 -0.44552000  16.000000   ; qtot 0.204079
 1442         ho     39    ccc    H26   1442 0.41908000   1.008000   ; qtot 0.623159
 1443         h1     39    ccc    H27   1443 0.08578000   1.008000   ; qtot 0.708939
 1444         oh     39    ccc     O9   1444 -0.58672000  16.000000   ; qtot 0.122219
 1445         ho     39    ccc    H28   1445 0.41908000   1.008000   ; qtot 0.541299
 1446         n3     39    ccc     N3   1446 -0.54282000  14.010000   ; qtot -0.001521
 1447         c3     39    ccc    C17   1447 0.08518000  12.010000   ; qtot 0.083659
 1448         c3     39    ccc    C18   1448 0.07918000  12.010000   ; qtot 0.162839
 1449         h1     39    ccc    H29   1449 0.06978000   1.008000   ; qtot 0.232619
 1450         c3     39    ccc    C19   1450 0.07918000  12.010000   ; qtot 0.311799
 1451         c3     39    ccc    C20   1451 0.03578000  12.010000   ; qtot 0.347579
 1452         c3     39    ccc    C21   1452 0.33498000  12.010000   ; qtot 0.682559
 1453         h1     39    ccc    H30   1453 0.06178000   1.008000   ; qtot 0.744339
 1454         h1     39    ccc    H31   1454 0.11278000   1.008000   ; qtot 0.857119
 1455         h2     39    ccc    H32   1455 0.12178000   1.008000   ; qtot 0.978899
 1456         oh     39    ccc    O10   1456 -0.56972000  16.000000   ; qtot 0.409179
 1457         oh     39    ccc    O11   1457 -0.57772000  16.000000   ; qtot -0.168541
 1458         c3     39    ccc    C22   1458 0.14548000  12.010000   ; qtot -0.023061
 1459         ho     39    ccc    H33   1459 0.40508000   1.008000   ; qtot 0.382019
 1460         hn     39    ccc    H34   1460 0.31758000   1.008000   ; qtot 0.699599
 1461         h1     39    ccc    H35   1461 0.06278000   1.008000   ; qtot 0.762379
 1462         h1     39    ccc    H36   1462 0.06278000   1.008000   ; qtot 0.825159
 1463         oh     39    ccc    O12   1463 -0.59472000  16.000000   ; qtot 0.230439
 1464         ho     39    ccc    H37   1464 0.41908000   1.008000   ; qtot 0.649519
 1465         os     39    ccc    O13   1465 -0.44552000  16.000000   ; qtot 0.203999
 1466         ho     39    ccc    H38   1466 0.41908000   1.008000   ; qtot 0.623079
 1467         h1     39    ccc    H39   1467 0.08578000   1.008000   ; qtot 0.708859
 1468         oh     39    ccc     O5   1468 -0.58672000  16.000000   ; qtot 0.122139
 1469         ho     39    ccc    H40   1469 0.41908000   1.008000   ; qtot 0.541219
 1470         n3     39    ccc     N4   1470 -0.54282000  14.010000   ; qtot -0.001601
; residue   40 ccc rtp ccc q -0.0
 1471          n     40    ccc     N1   1471 -0.46580000  14.010000   ; qtot -0.467401
 1472         hn     40    ccc     H4   1472 0.31480000   1.008000   ; qtot -0.152601
 1473         c3     40    ccc     C3   1473 -0.28250000  12.010000   ; qtot -0.435101
 1474         h1     40    ccc     H5   1474 0.15710000   1.008000   ; qtot -0.278001
 1475         c3     40    ccc     C4   1475 0.44180000  12.010000   ; qtot 0.163799
 1476         h1     40    ccc     H6   1476 0.15710000   1.008000   ; qtot 0.320899
 1477         h1     40    ccc     H7   1477 -0.03530000   1.008000   ; qtot 0.285599
 1478         h1     40    ccc     H8   1478 -0.03530000   1.008000   ; qtot 0.250299
 1479         n3     40    ccc     N2   1479 -0.74090000  14.010000   ; qtot -0.490601
 1480         c3     40    ccc     C5   1480 0.51680000  12.010000   ; qtot 0.026199
 1481         c3     40    ccc     C6   1481 0.51680000  12.010000   ; qtot 0.542999
 1482         h1     40    ccc     H9   1482 -0.05230000   1.008000   ; qtot 0.490699
 1483         c3     40    ccc     C7   1483 -0.60390000  12.010000   ; qtot -0.113201
 1484         h1     40    ccc    H10   1484 -0.05230000   1.008000   ; qtot -0.165501
 1485         hc     40    ccc    H11   1485 0.16730000   1.008000   ; qtot 0.001799
 1486         hc     40    ccc    H12   1486 0.16730000   1.008000   ; qtot 0.169099
 1487          c     40    ccc     C8   1487 0.72110000  12.010000   ; qtot 0.890199
 1488          o     40    ccc     O2   1488 -0.61950000  16.000000   ; qtot 0.270699
 1489         h1     40    ccc    H13   1489 -0.05230000   1.008000   ; qtot 0.218399
 1490         h1     40    ccc    H14   1490 -0.05230000   1.008000   ; qtot 0.166099
 1491         c3     40    ccc     C9   1491 -0.60390000  12.010000   ; qtot -0.437801
 1492         hc     40    ccc    H15   1492 0.16730000   1.008000   ; qtot -0.270501
 1493         hc     40    ccc    H16   1493 0.16730000   1.008000   ; qtot -0.103201
 1494          c     40    ccc    C10   1494 0.72110000  12.010000   ; qtot 0.617899
 1495          o     40    ccc     O4   1495 -0.61950000  16.000000   ; qtot -0.001601
 1496         c3     40    ccc    C11   1496 0.08518000  12.010000   ; qtot 0.083579
 1497         c3     40    ccc    C12   1497 0.07918000  12.010000   ; qtot 0.162759
 1498         h1     40    ccc    H17   1498 0.06978000   1.008000   ; qtot 0.232539
 1499         c3     40    ccc    C13   1499 0.07918000  12.010000   ; qtot 0.311719
 1500         c3     40    ccc    C14   1500 0.03578000  12.010000   ; qtot 0.347499
 1501         c3     40    ccc    C15   1501 0.33498000  12.010000   ; qtot 0.682479
 1502         h1     40    ccc    H18   1502 0.06178000   1.008000   ; qtot 0.744259
 1503         h1     40    ccc    H19   1503 0.11278000   1.008000   ; qtot 0.857039
 1504         h2     40    ccc    H20   1504 0.12178000   1.008000   ; qtot 0.978819
 1505         oh     40    ccc     O1   1505 -0.56972000  16.000000   ; qtot 0.409099
 1506         oh     40    ccc     O6   1506 -0.57772000  16.000000   ; qtot -0.168621
 1507         c3     40    ccc    C16   1507 0.14548000  12.010000   ; qtot -0.023141
 1508         ho     40    ccc    H21   1508 0.40508000   1.008000   ; qtot 0.381939
 1509         hn     40    ccc    H22   1509 0.31758000   1.008000   ; qtot 0.699519
 1510         h1     40    ccc    H23   1510 0.06278000   1.008000   ; qtot 0.762299
 1511         h1     40    ccc    H24   1511 0.06278000   1.008000   ; qtot 0.825079
 1512         oh     40    ccc     O7   1512 -0.59472000  16.000000   ; qtot 0.230359
 1513         ho     40    ccc    H25   1513 0.41908000   1.008000   ; qtot 0.649439
 1514         os     40    ccc     O8   1514 -0.44552000  16.000000   ; qtot 0.203919
 1515         ho     40    ccc    H26   1515 0.41908000   1.008000   ; qtot 0.622999
 1516         h1     40    ccc    H27   1516 0.08578000   1.008000   ; qtot 0.708779
 1517         oh     40    ccc     O9   1517 -0.58672000  16.000000   ; qtot 0.122059
 1518         ho     40    ccc    H28   1518 0.41908000   1.008000   ; qtot 0.541139
 1519         n3     40    ccc     N3   1519 -0.54282000  14.010000   ; qtot -0.001681
 1520         c3     40    ccc    C17   1520 0.08518000  12.010000   ; qtot 0.083499
 1521         c3     40    ccc    C18   1521 0.07918000  12.010000   ; qtot 0.162679
 1522         h1     40    ccc    H29   1522 0.06978000   1.008000   ; qtot 0.232459
 1523         c3     40    ccc    C19   1523 0.07918000  12.010000   ; qtot 0.311639
 1524         c3     40    ccc    C20   1524 0.03578000  12.010000   ; qtot 0.347419
 1525         c3     40    ccc    C21   1525 0.33498000  12.010000   ; qtot 0.682399
 1526         h1     40    ccc    H30   1526 0.06178000   1.008000   ; qtot 0.744179
 1527         h1     40    ccc    H31   1527 0.11278000   1.008000   ; qtot 0.856959
 1528         h2     40    ccc    H32   1528 0.12178000   1.008000   ; qtot 0.978739
 1529         oh     40    ccc    O10   1529 -0.56972000  16.000000   ; qtot 0.409019
 1530         oh     40    ccc    O11   1530 -0.57772000  16.000000   ; qtot -0.168701
 1531         c3     40    ccc    C22   1531 0.14548000  12.010000   ; qtot -0.023221
 1532         ho     40    ccc    H33   1532 0.40508000   1.008000   ; qtot 0.381859
 1533         hn     40    ccc    H34   1533 0.31758000   1.008000   ; qtot 0.699439
 1534         h1     40    ccc    H35   1534 0.06278000   1.008000   ; qtot 0.762219
 1535         h1     40    ccc    H36   1535 0.06278000   1.008000   ; qtot 0.824999
 1536         oh     40    ccc    O12   1536 -0.59472000  16.000000   ; qtot 0.230279
 1537         ho     40    ccc    H37   1537 0.41908000   1.008000   ; qtot 0.649359
 1538         os     40    ccc    O13   1538 -0.44552000  16.000000   ; qtot 0.203839
 1539         ho     40    ccc    H38   1539 0.41908000   1.008000   ; qtot 0.622919
 1540         h1     40    ccc    H39   1540 0.08578000   1.008000   ; qtot 0.708699
 1541         oh     40    ccc     O5   1541 -0.58672000  16.000000   ; qtot 0.121979
 1542         ho     40    ccc    H40   1542 0.41908000   1.008000   ; qtot 0.541059
 1543         n3     40    ccc     N4   1543 -0.54282000  14.010000   ; qtot -0.001761
; residue   41 ccc rtp ccc q -0.0
 1544          n     41    ccc     N1   1544 -0.46580000  14.010000   ; qtot -0.467561
 1545         hn     41    ccc     H4   1545 0.31480000   1.008000   ; qtot -0.152761
 1546         c3     41    ccc     C3   1546 -0.28250000  12.010000   ; qtot -0.435261
 1547         h1     41    ccc     H5   1547 0.15710000   1.008000   ; qtot -0.278161
 1548         c3     41    ccc     C4   1548 0.44180000  12.010000   ; qtot 0.163639
 1549         h1     41    ccc     H6   1549 0.15710000   1.008000   ; qtot 0.320739
 1550         h1     41    ccc     H7   1550 -0.03530000   1.008000   ; qtot 0.285439
 1551         h1     41    ccc     H8   1551 -0.03530000   1.008000   ; qtot 0.250139
 1552         n3     41    ccc     N2   1552 -0.74090000  14.010000   ; qtot -0.490761
 1553         c3     41    ccc     C5   1553 0.51680000  12.010000   ; qtot 0.026039
 1554         c3     41    ccc     C6   1554 0.51680000  12.010000   ; qtot 0.542839
 1555         h1     41    ccc     H9   1555 -0.05230000   1.008000   ; qtot 0.490539
 1556         c3     41    ccc     C7   1556 -0.60390000  12.010000   ; qtot -0.113361
 1557         h1     41    ccc    H10   1557 -0.05230000   1.008000   ; qtot -0.165661
 1558         hc     41    ccc    H11   1558 0.16730000   1.008000   ; qtot 0.001639
 1559         hc     41    ccc    H12   1559 0.16730000   1.008000   ; qtot 0.168939
 1560          c     41    ccc     C8   1560 0.72110000  12.010000   ; qtot 0.890039
 1561          o     41    ccc     O2   1561 -0.61950000  16.000000   ; qtot 0.270539
 1562         h1     41    ccc    H13   1562 -0.05230000   1.008000   ; qtot 0.218239
 1563         h1     41    ccc    H14   1563 -0.05230000   1.008000   ; qtot 0.165939
 1564         c3     41    ccc     C9   1564 -0.60390000  12.010000   ; qtot -0.437961
 1565         hc     41    ccc    H15   1565 0.16730000   1.008000   ; qtot -0.270661
 1566         hc     41    ccc    H16   1566 0.16730000   1.008000   ; qtot -0.103361
 1567          c     41    ccc    C10   1567 0.72110000  12.010000   ; qtot 0.617739
 1568          o     41    ccc     O4   1568 -0.61950000  16.000000   ; qtot -0.001761
 1569         c3     41    ccc    C11   1569 0.08518000  12.010000   ; qtot 0.083419
 1570         c3     41    ccc    C12   1570 0.07918000  12.010000   ; qtot 0.162599
 1571         h1     41    ccc    H17   1571 0.06978000   1.008000   ; qtot 0.232379
 1572         c3     41    ccc    C13   1572 0.07918000  12.010000   ; qtot 0.311559
 1573         c3     41    ccc    C14   1573 0.03578000  12.010000   ; qtot 0.347339
 1574         c3     41    ccc    C15   1574 0.33498000  12.010000   ; qtot 0.682319
 1575         h1     41    ccc    H18   1575 0.06178000   1.008000   ; qtot 0.744099
 1576         h1     41    ccc    H19   1576 0.11278000   1.008000   ; qtot 0.856879
 1577         h2     41    ccc    H20   1577 0.12178000   1.008000   ; qtot 0.978659
 1578         oh     41    ccc     O1   1578 -0.56972000  16.000000   ; qtot 0.408939
 1579         oh     41    ccc     O6   1579 -0.57772000  16.000000   ; qtot -0.168781
 1580         c3     41    ccc    C16   1580 0.14548000  12.010000   ; qtot -0.023301
 1581         ho     41    ccc    H21   1581 0.40508000   1.008000   ; qtot 0.381779
 1582         hn     41    ccc    H22   1582 0.31758000   1.008000   ; qtot 0.699359
 1583         h1     41    ccc    H23   1583 0.06278000   1.008000   ; qtot 0.762139
 1584         h1     41    ccc    H24   1584 0.06278000   1.008000   ; qtot 0.824919
 1585         oh     41    ccc     O7   1585 -0.59472000  16.000000   ; qtot 0.230199
 1586         ho     41    ccc    H25   1586 0.41908000   1.008000   ; qtot 0.649279
 1587         os     41    ccc     O8   1587 -0.44552000  16.000000   ; qtot 0.203759
 1588         ho     41    ccc    H26   1588 0.41908000   1.008000   ; qtot 0.622839
 1589         h1     41    ccc    H27   1589 0.08578000   1.008000   ; qtot 0.708619
 1590         oh     41    ccc     O9   1590 -0.58672000  16.000000   ; qtot 0.121899
 1591         ho     41    ccc    H28   1591 0.41908000   1.008000   ; qtot 0.540979
 1592         n3     41    ccc     N3   1592 -0.54282000  14.010000   ; qtot -0.001841
 1593         c3     41    ccc    C17   1593 0.08518000  12.010000   ; qtot 0.083339
 1594         c3     41    ccc    C18   1594 0.07918000  12.010000   ; qtot 0.162519
 1595         h1     41    ccc    H29   1595 0.06978000   1.008000   ; qtot 0.232299
 1596         c3     41    ccc    C19   1596 0.07918000  12.010000   ; qtot 0.311479
 1597         c3     41    ccc    C20   1597 0.03578000  12.010000   ; qtot 0.347259
 1598         c3     41    ccc    C21   1598 0.33498000  12.010000   ; qtot 0.682239
 1599         h1     41    ccc    H30   1599 0.06178000   1.008000   ; qtot 0.744019
 1600         h1     41    ccc    H31   1600 0.11278000   1.008000   ; qtot 0.856799
 1601         h2     41    ccc    H32   1601 0.12178000   1.008000   ; qtot 0.978579
 1602         oh     41    ccc    O10   1602 -0.56972000  16.000000   ; qtot 0.408859
 1603         oh     41    ccc    O11   1603 -0.57772000  16.000000   ; qtot -0.168861
 1604         c3     41    ccc    C22   1604 0.14548000  12.010000   ; qtot -0.023381
 1605         ho     41    ccc    H33   1605 0.40508000   1.008000   ; qtot 0.381699
 1606         hn     41    ccc    H34   1606 0.31758000   1.008000   ; qtot 0.699279
 1607         h1     41    ccc    H35   1607 0.06278000   1.008000   ; qtot 0.762059
 1608         h1     41    ccc    H36   1608 0.06278000   1.008000   ; qtot 0.824839
 1609         oh     41    ccc    O12   1609 -0.59472000  16.000000   ; qtot 0.230119
 1610         ho     41    ccc    H37   1610 0.41908000   1.008000   ; qtot 0.649199
 1611         os     41    ccc    O13   1611 -0.44552000  16.000000   ; qtot 0.203679
 1612         ho     41    ccc    H38   1612 0.41908000   1.008000   ; qtot 0.622759
 1613         h1     41    ccc    H39   1613 0.08578000   1.008000   ; qtot 0.708539
 1614         oh     41    ccc     O5   1614 -0.58672000  16.000000   ; qtot 0.121819
 1615         ho     41    ccc    H40   1615 0.41908000   1.008000   ; qtot 0.540899
 1616         n3     41    ccc     N4   1616 -0.54282000  14.010000   ; qtot -0.001921
; residue   42 ccc rtp ccc q -0.0
 1617          n     42    ccc     N1   1617 -0.46580000  14.010000   ; qtot -0.467721
 1618         hn     42    ccc     H4   1618 0.31480000   1.008000   ; qtot -0.152921
 1619         c3     42    ccc     C3   1619 -0.28250000  12.010000   ; qtot -0.435421
 1620         h1     42    ccc     H5   1620 0.15710000   1.008000   ; qtot -0.278321
 1621         c3     42    ccc     C4   1621 0.44180000  12.010000   ; qtot 0.163479
 1622         h1     42    ccc     H6   1622 0.15710000   1.008000   ; qtot 0.320579
 1623         h1     42    ccc     H7   1623 -0.03530000   1.008000   ; qtot 0.285279
 1624         h1     42    ccc     H8   1624 -0.03530000   1.008000   ; qtot 0.249979
 1625         n3     42    ccc     N2   1625 -0.74090000  14.010000   ; qtot -0.490921
 1626         c3     42    ccc     C5   1626 0.51680000  12.010000   ; qtot 0.025879
 1627         c3     42    ccc     C6   1627 0.51680000  12.010000   ; qtot 0.542679
 1628         h1     42    ccc     H9   1628 -0.05230000   1.008000   ; qtot 0.490379
 1629         c3     42    ccc     C7   1629 -0.60390000  12.010000   ; qtot -0.113521
 1630         h1     42    ccc    H10   1630 -0.05230000   1.008000   ; qtot -0.165821
 1631         hc     42    ccc    H11   1631 0.16730000   1.008000   ; qtot 0.001479
 1632         hc     42    ccc    H12   1632 0.16730000   1.008000   ; qtot 0.168779
 1633          c     42    ccc     C8   1633 0.72110000  12.010000   ; qtot 0.889879
 1634          o     42    ccc     O2   1634 -0.61950000  16.000000   ; qtot 0.270379
 1635         h1     42    ccc    H13   1635 -0.05230000   1.008000   ; qtot 0.218079
 1636         h1     42    ccc    H14   1636 -0.05230000   1.008000   ; qtot 0.165779
 1637         c3     42    ccc     C9   1637 -0.60390000  12.010000   ; qtot -0.438121
 1638         hc     42    ccc    H15   1638 0.16730000   1.008000   ; qtot -0.270821
 1639         hc     42    ccc    H16   1639 0.16730000   1.008000   ; qtot -0.103521
 1640          c     42    ccc    C10   1640 0.72110000  12.010000   ; qtot 0.617579
 1641          o     42    ccc     O4   1641 -0.61950000  16.000000   ; qtot -0.001921
 1642         c3     42    ccc    C11   1642 0.08518000  12.010000   ; qtot 0.083259
 1643         c3     42    ccc    C12   1643 0.07918000  12.010000   ; qtot 0.162439
 1644         h1     42    ccc    H17   1644 0.06978000   1.008000   ; qtot 0.232219
 1645         c3     42    ccc    C13   1645 0.07918000  12.010000   ; qtot 0.311399
 1646         c3     42    ccc    C14   1646 0.03578000  12.010000   ; qtot 0.347179
 1647         c3     42    ccc    C15   1647 0.33498000  12.010000   ; qtot 0.682159
 1648         h1     42    ccc    H18   1648 0.06178000   1.008000   ; qtot 0.743939
 1649         h1     42    ccc    H19   1649 0.11278000   1.008000   ; qtot 0.856719
 1650         h2     42    ccc    H20   1650 0.12178000   1.008000   ; qtot 0.978499
 1651         oh     42    ccc     O1   1651 -0.56972000  16.000000   ; qtot 0.408779
 1652         oh     42    ccc     O6   1652 -0.57772000  16.000000   ; qtot -0.168941
 1653         c3     42    ccc    C16   1653 0.14548000  12.010000   ; qtot -0.023461
 1654         ho     42    ccc    H21   1654 0.40508000   1.008000   ; qtot 0.381619
 1655         hn     42    ccc    H22   1655 0.31758000   1.008000   ; qtot 0.699199
 1656         h1     42    ccc    H23   1656 0.06278000   1.008000   ; qtot 0.761979
 1657         h1     42    ccc    H24   1657 0.06278000   1.008000   ; qtot 0.824759
 1658         oh     42    ccc     O7   1658 -0.59472000  16.000000   ; qtot 0.230039
 1659         ho     42    ccc    H25   1659 0.41908000   1.008000   ; qtot 0.649119
 1660         os     42    ccc     O8   1660 -0.44552000  16.000000   ; qtot 0.203599
 1661         ho     42    ccc    H26   1661 0.41908000   1.008000   ; qtot 0.622679
 1662         h1     42    ccc    H27   1662 0.08578000   1.008000   ; qtot 0.708459
 1663         oh     42    ccc     O9   1663 -0.58672000  16.000000   ; qtot 0.121739
 1664         ho     42    ccc    H28   1664 0.41908000   1.008000   ; qtot 0.540819
 1665         n3     42    ccc     N3   1665 -0.54282000  14.010000   ; qtot -0.002001
 1666         c3     42    ccc    C17   1666 0.08518000  12.010000   ; qtot 0.083179
 1667         c3     42    ccc    C18   1667 0.07918000  12.010000   ; qtot 0.162359
 1668         h1     42    ccc    H29   1668 0.06978000   1.008000   ; qtot 0.232139
 1669         c3     42    ccc    C19   1669 0.07918000  12.010000   ; qtot 0.311319
 1670         c3     42    ccc    C20   1670 0.03578000  12.010000   ; qtot 0.347099
 1671         c3     42    ccc    C21   1671 0.33498000  12.010000   ; qtot 0.682079
 1672         h1     42    ccc    H30   1672 0.06178000   1.008000   ; qtot 0.743859
 1673         h1     42    ccc    H31   1673 0.11278000   1.008000   ; qtot 0.856639
 1674         h2     42    ccc    H32   1674 0.12178000   1.008000   ; qtot 0.978419
 1675         oh     42    ccc    O10   1675 -0.56972000  16.000000   ; qtot 0.408699
 1676         oh     42    ccc    O11   1676 -0.57772000  16.000000   ; qtot -0.169021
 1677         c3     42    ccc    C22   1677 0.14548000  12.010000   ; qtot -0.023541
 1678         ho     42    ccc    H33   1678 0.40508000   1.008000   ; qtot 0.381539
 1679         hn     42    ccc    H34   1679 0.31758000   1.008000   ; qtot 0.699119
 1680         h1     42    ccc    H35   1680 0.06278000   1.008000   ; qtot 0.761899
 1681         h1     42    ccc    H36   1681 0.06278000   1.008000   ; qtot 0.824679
 1682         oh     42    ccc    O12   1682 -0.59472000  16.000000   ; qtot 0.229959
 1683         ho     42    ccc    H37   1683 0.41908000   1.008000   ; qtot 0.649039
 1684         os     42    ccc    O13   1684 -0.44552000  16.000000   ; qtot 0.203519
 1685         ho     42    ccc    H38   1685 0.41908000   1.008000   ; qtot 0.622599
 1686         h1     42    ccc    H39   1686 0.08578000   1.008000   ; qtot 0.708379
 1687         oh     42    ccc     O5   1687 -0.58672000  16.000000   ; qtot 0.121659
 1688         ho     42    ccc    H40   1688 0.41908000   1.008000   ; qtot 0.540739
 1689         n3     42    ccc     N4   1689 -0.54282000  14.010000   ; qtot -0.002081
; residue   43 ccc rtp ccc q -0.0
 1690          n     43    ccc     N1   1690 -0.46580000  14.010000   ; qtot -0.467881
 1691         hn     43    ccc     H4   1691 0.31480000   1.008000   ; qtot -0.153081
 1692         c3     43    ccc     C3   1692 -0.28250000  12.010000   ; qtot -0.435581
 1693         h1     43    ccc     H5   1693 0.15710000   1.008000   ; qtot -0.278481
 1694         c3     43    ccc     C4   1694 0.44180000  12.010000   ; qtot 0.163319
 1695         h1     43    ccc     H6   1695 0.15710000   1.008000   ; qtot 0.320419
 1696         h1     43    ccc     H7   1696 -0.03530000   1.008000   ; qtot 0.285119
 1697         h1     43    ccc     H8   1697 -0.03530000   1.008000   ; qtot 0.249819
 1698         n3     43    ccc     N2   1698 -0.74090000  14.010000   ; qtot -0.491081
 1699         c3     43    ccc     C5   1699 0.51680000  12.010000   ; qtot 0.025719
 1700         c3     43    ccc     C6   1700 0.51680000  12.010000   ; qtot 0.542519
 1701         h1     43    ccc     H9   1701 -0.05230000   1.008000   ; qtot 0.490219
 1702         c3     43    ccc     C7   1702 -0.60390000  12.010000   ; qtot -0.113681
 1703         h1     43    ccc    H10   1703 -0.05230000   1.008000   ; qtot -0.165981
 1704         hc     43    ccc    H11   1704 0.16730000   1.008000   ; qtot 0.001319
 1705         hc     43    ccc    H12   1705 0.16730000   1.008000   ; qtot 0.168619
 1706          c     43    ccc     C8   1706 0.72110000  12.010000   ; qtot 0.889719
 1707          o     43    ccc     O2   1707 -0.61950000  16.000000   ; qtot 0.270219
 1708         h1     43    ccc    H13   1708 -0.05230000   1.008000   ; qtot 0.217919
 1709         h1     43    ccc    H14   1709 -0.05230000   1.008000   ; qtot 0.165619
 1710         c3     43    ccc     C9   1710 -0.60390000  12.010000   ; qtot -0.438281
 1711         hc     43    ccc    H15   1711 0.16730000   1.008000   ; qtot -0.270981
 1712         hc     43    ccc    H16   1712 0.16730000   1.008000   ; qtot -0.103681
 1713          c     43    ccc    C10   1713 0.72110000  12.010000   ; qtot 0.617419
 1714          o     43    ccc     O4   1714 -0.61950000  16.000000   ; qtot -0.002081
 1715         c3     43    ccc    C11   1715 0.08518000  12.010000   ; qtot 0.083099
 1716         c3     43    ccc    C12   1716 0.07918000  12.010000   ; qtot 0.162279
 1717         h1     43    ccc    H17   1717 0.06978000   1.008000   ; qtot 0.232059
 1718         c3     43    ccc    C13   1718 0.07918000  12.010000   ; qtot 0.311239
 1719         c3     43    ccc    C14   1719 0.03578000  12.010000   ; qtot 0.347019
 1720         c3     43    ccc    C15   1720 0.33498000  12.010000   ; qtot 0.681999
 1721         h1     43    ccc    H18   1721 0.06178000   1.008000   ; qtot 0.743779
 1722         h1     43    ccc    H19   1722 0.11278000   1.008000   ; qtot 0.856559
 1723         h2     43    ccc    H20   1723 0.12178000   1.008000   ; qtot 0.978339
 1724         oh     43    ccc     O1   1724 -0.56972000  16.000000   ; qtot 0.408619
 1725         oh     43    ccc     O6   1725 -0.57772000  16.000000   ; qtot -0.169101
 1726         c3     43    ccc    C16   1726 0.14548000  12.010000   ; qtot -0.023621
 1727         ho     43    ccc    H21   1727 0.40508000   1.008000   ; qtot 0.381459
 1728         hn     43    ccc    H22   1728 0.31758000   1.008000   ; qtot 0.699039
 1729         h1     43    ccc    H23   1729 0.06278000   1.008000   ; qtot 0.761819
 1730         h1     43    ccc    H24   1730 0.06278000   1.008000   ; qtot 0.824599
 1731         oh     43    ccc     O7   1731 -0.59472000  16.000000   ; qtot 0.229879
 1732         ho     43    ccc    H25   1732 0.41908000   1.008000   ; qtot 0.648959
 1733         os     43    ccc     O8   1733 -0.44552000  16.000000   ; qtot 0.203439
 1734         ho     43    ccc    H26   1734 0.41908000   1.008000   ; qtot 0.622519
 1735         h1     43    ccc    H27   1735 0.08578000   1.008000   ; qtot 0.708299
 1736         oh     43    ccc     O9   1736 -0.58672000  16.000000   ; qtot 0.121579
 1737         ho     43    ccc    H28   1737 0.41908000   1.008000   ; qtot 0.540659
 1738         n3     43    ccc     N3   1738 -0.54282000  14.010000   ; qtot -0.002161
 1739         c3     43    ccc    C17   1739 0.08518000  12.010000   ; qtot 0.083019
 1740         c3     43    ccc    C18   1740 0.07918000  12.010000   ; qtot 0.162199
 1741         h1     43    ccc    H29   1741 0.06978000   1.008000   ; qtot 0.231979
 1742         c3     43    ccc    C19   1742 0.07918000  12.010000   ; qtot 0.311159
 1743         c3     43    ccc    C20   1743 0.03578000  12.010000   ; qtot 0.346939
 1744         c3     43    ccc    C21   1744 0.33498000  12.010000   ; qtot 0.681919
 1745         h1     43    ccc    H30   1745 0.06178000   1.008000   ; qtot 0.743699
 1746         h1     43    ccc    H31   1746 0.11278000   1.008000   ; qtot 0.856479
 1747         h2     43    ccc    H32   1747 0.12178000   1.008000   ; qtot 0.978259
 1748         oh     43    ccc    O10   1748 -0.56972000  16.000000   ; qtot 0.408539
 1749         oh     43    ccc    O11   1749 -0.57772000  16.000000   ; qtot -0.169181
 1750         c3     43    ccc    C22   1750 0.14548000  12.010000   ; qtot -0.023701
 1751         ho     43    ccc    H33   1751 0.40508000   1.008000   ; qtot 0.381379
 1752         hn     43    ccc    H34   1752 0.31758000   1.008000   ; qtot 0.698959
 1753         h1     43    ccc    H35   1753 0.06278000   1.008000   ; qtot 0.761739
 1754         h1     43    ccc    H36   1754 0.06278000   1.008000   ; qtot 0.824519
 1755         oh     43    ccc    O12   1755 -0.59472000  16.000000   ; qtot 0.229799
 1756         ho     43    ccc    H37   1756 0.41908000   1.008000   ; qtot 0.648879
 1757         os     43    ccc    O13   1757 -0.44552000  16.000000   ; qtot 0.203359
 1758         ho     43    ccc    H38   1758 0.41908000   1.008000   ; qtot 0.622439
 1759         h1     43    ccc    H39   1759 0.08578000   1.008000   ; qtot 0.708219
 1760         oh     43    ccc     O5   1760 -0.58672000  16.000000   ; qtot 0.121499
 1761         ho     43    ccc    H40   1761 0.41908000   1.008000   ; qtot 0.540579
 1762         n3     43    ccc     N4   1762 -0.54282000  14.010000   ; qtot -0.002241
; residue   44 ccc rtp ccc q -0.0
 1763          n     44    ccc     N1   1763 -0.46580000  14.010000   ; qtot -0.468041
 1764         hn     44    ccc     H4   1764 0.31480000   1.008000   ; qtot -0.153241
 1765         c3     44    ccc     C3   1765 -0.28250000  12.010000   ; qtot -0.435741
 1766         h1     44    ccc     H5   1766 0.15710000   1.008000   ; qtot -0.278641
 1767         c3     44    ccc     C4   1767 0.44180000  12.010000   ; qtot 0.163159
 1768         h1     44    ccc     H6   1768 0.15710000   1.008000   ; qtot 0.320259
 1769         h1     44    ccc     H7   1769 -0.03530000   1.008000   ; qtot 0.284959
 1770         h1     44    ccc     H8   1770 -0.03530000   1.008000   ; qtot 0.249659
 1771         n3     44    ccc     N2   1771 -0.74090000  14.010000   ; qtot -0.491241
 1772         c3     44    ccc     C5   1772 0.51680000  12.010000   ; qtot 0.025559
 1773         c3     44    ccc     C6   1773 0.51680000  12.010000   ; qtot 0.542359
 1774         h1     44    ccc     H9   1774 -0.05230000   1.008000   ; qtot 0.490059
 1775         c3     44    ccc     C7   1775 -0.60390000  12.010000   ; qtot -0.113841
 1776         h1     44    ccc    H10   1776 -0.05230000   1.008000   ; qtot -0.166141
 1777         hc     44    ccc    H11   1777 0.16730000   1.008000   ; qtot 0.001159
 1778         hc     44    ccc    H12   1778 0.16730000   1.008000   ; qtot 0.168459
 1779          c     44    ccc     C8   1779 0.72110000  12.010000   ; qtot 0.889559
 1780          o     44    ccc     O2   1780 -0.61950000  16.000000   ; qtot 0.270059
 1781         h1     44    ccc    H13   1781 -0.05230000   1.008000   ; qtot 0.217759
 1782         h1     44    ccc    H14   1782 -0.05230000   1.008000   ; qtot 0.165459
 1783         c3     44    ccc     C9   1783 -0.60390000  12.010000   ; qtot -0.438441
 1784         hc     44    ccc    H15   1784 0.16730000   1.008000   ; qtot -0.271141
 1785         hc     44    ccc    H16   1785 0.16730000   1.008000   ; qtot -0.103841
 1786          c     44    ccc    C10   1786 0.72110000  12.010000   ; qtot 0.617259
 1787          o     44    ccc     O4   1787 -0.61950000  16.000000   ; qtot -0.002241
 1788         c3     44    ccc    C11   1788 0.08518000  12.010000   ; qtot 0.082939
 1789         c3     44    ccc    C12   1789 0.07918000  12.010000   ; qtot 0.162119
 1790         h1     44    ccc    H17   1790 0.06978000   1.008000   ; qtot 0.231899
 1791         c3     44    ccc    C13   1791 0.07918000  12.010000   ; qtot 0.311079
 1792         c3     44    ccc    C14   1792 0.03578000  12.010000   ; qtot 0.346859
 1793         c3     44    ccc    C15   1793 0.33498000  12.010000   ; qtot 0.681839
 1794         h1     44    ccc    H18   1794 0.06178000   1.008000   ; qtot 0.743619
 1795         h1     44    ccc    H19   1795 0.11278000   1.008000   ; qtot 0.856399
 1796         h2     44    ccc    H20   1796 0.12178000   1.008000   ; qtot 0.978179
 1797         oh     44    ccc     O1   1797 -0.56972000  16.000000   ; qtot 0.408459
 1798         oh     44    ccc     O6   1798 -0.57772000  16.000000   ; qtot -0.169261
 1799         c3     44    ccc    C16   1799 0.14548000  12.010000   ; qtot -0.023781
 1800         ho     44    ccc    H21   1800 0.40508000   1.008000   ; qtot 0.381299
 1801         hn     44    ccc    H22   1801 0.31758000   1.008000   ; qtot 0.698879
 1802         h1     44    ccc    H23   1802 0.06278000   1.008000   ; qtot 0.761659
 1803         h1     44    ccc    H24   1803 0.06278000   1.008000   ; qtot 0.824439
 1804         oh     44    ccc     O7   1804 -0.59472000  16.000000   ; qtot 0.229719
 1805         ho     44    ccc    H25   1805 0.41908000   1.008000   ; qtot 0.648799
 1806         os     44    ccc     O8   1806 -0.44552000  16.000000   ; qtot 0.203279
 1807         ho     44    ccc    H26   1807 0.41908000   1.008000   ; qtot 0.622359
 1808         h1     44    ccc    H27   1808 0.08578000   1.008000   ; qtot 0.708139
 1809         oh     44    ccc     O9   1809 -0.58672000  16.000000   ; qtot 0.121419
 1810         ho     44    ccc    H28   1810 0.41908000   1.008000   ; qtot 0.540499
 1811         n3     44    ccc     N3   1811 -0.54282000  14.010000   ; qtot -0.002321
 1812         c3     44    ccc    C17   1812 0.08518000  12.010000   ; qtot 0.082859
 1813         c3     44    ccc    C18   1813 0.07918000  12.010000   ; qtot 0.162039
 1814         h1     44    ccc    H29   1814 0.06978000   1.008000   ; qtot 0.231819
 1815         c3     44    ccc    C19   1815 0.07918000  12.010000   ; qtot 0.310999
 1816         c3     44    ccc    C20   1816 0.03578000  12.010000   ; qtot 0.346779
 1817         c3     44    ccc    C21   1817 0.33498000  12.010000   ; qtot 0.681759
 1818         h1     44    ccc    H30   1818 0.06178000   1.008000   ; qtot 0.743539
 1819         h1     44    ccc    H31   1819 0.11278000   1.008000   ; qtot 0.856319
 1820         h2     44    ccc    H32   1820 0.12178000   1.008000   ; qtot 0.978099
 1821         oh     44    ccc    O10   1821 -0.56972000  16.000000   ; qtot 0.408379
 1822         oh     44    ccc    O11   1822 -0.57772000  16.000000   ; qtot -0.169341
 1823         c3     44    ccc    C22   1823 0.14548000  12.010000   ; qtot -0.023861
 1824         ho     44    ccc    H33   1824 0.40508000   1.008000   ; qtot 0.381219
 1825         hn     44    ccc    H34   1825 0.31758000   1.008000   ; qtot 0.698799
 1826         h1     44    ccc    H35   1826 0.06278000   1.008000   ; qtot 0.761579
 1827         h1     44    ccc    H36   1827 0.06278000   1.008000   ; qtot 0.824359
 1828         oh     44    ccc    O12   1828 -0.59472000  16.000000   ; qtot 0.229639
 1829         ho     44    ccc    H37   1829 0.41908000   1.008000   ; qtot 0.648719
 1830         os     44    ccc    O13   1830 -0.44552000  16.000000   ; qtot 0.203199
 1831         ho     44    ccc    H38   1831 0.41908000   1.008000   ; qtot 0.622279
 1832         h1     44    ccc    H39   1832 0.08578000   1.008000   ; qtot 0.708059
 1833         oh     44    ccc     O5   1833 -0.58672000  16.000000   ; qtot 0.121339
 1834         ho     44    ccc    H40   1834 0.41908000   1.008000   ; qtot 0.540419
 1835         n3     44    ccc     N4   1835 -0.54282000  14.010000   ; qtot -0.002401
; residue   45 ccc rtp ccc q -0.0
 1836          n     45    ccc     N1   1836 -0.46580000  14.010000   ; qtot -0.468201
 1837         hn     45    ccc     H4   1837 0.31480000   1.008000   ; qtot -0.153401
 1838         c3     45    ccc     C3   1838 -0.28250000  12.010000   ; qtot -0.435901
 1839         h1     45    ccc     H5   1839 0.15710000   1.008000   ; qtot -0.278801
 1840         c3     45    ccc     C4   1840 0.44180000  12.010000   ; qtot 0.162999
 1841         h1     45    ccc     H6   1841 0.15710000   1.008000   ; qtot 0.320099
 1842         h1     45    ccc     H7   1842 -0.03530000   1.008000   ; qtot 0.284799
 1843         h1     45    ccc     H8   1843 -0.03530000   1.008000   ; qtot 0.249499
 1844         n3     45    ccc     N2   1844 -0.74090000  14.010000   ; qtot -0.491401
 1845         c3     45    ccc     C5   1845 0.51680000  12.010000   ; qtot 0.025399
 1846         c3     45    ccc     C6   1846 0.51680000  12.010000   ; qtot 0.542199
 1847         h1     45    ccc     H9   1847 -0.05230000   1.008000   ; qtot 0.489899
 1848         c3     45    ccc     C7   1848 -0.60390000  12.010000   ; qtot -0.114001
 1849         h1     45    ccc    H10   1849 -0.05230000   1.008000   ; qtot -0.166301
 1850         hc     45    ccc    H11   1850 0.16730000   1.008000   ; qtot 0.000999
 1851         hc     45    ccc    H12   1851 0.16730000   1.008000   ; qtot 0.168299
 1852          c     45    ccc     C8   1852 0.72110000  12.010000   ; qtot 0.889399
 1853          o     45    ccc     O2   1853 -0.61950000  16.000000   ; qtot 0.269899
 1854         h1     45    ccc    H13   1854 -0.05230000   1.008000   ; qtot 0.217599
 1855         h1     45    ccc    H14   1855 -0.05230000   1.008000   ; qtot 0.165299
 1856         c3     45    ccc     C9   1856 -0.60390000  12.010000   ; qtot -0.438601
 1857         hc     45    ccc    H15   1857 0.16730000   1.008000   ; qtot -0.271301
 1858         hc     45    ccc    H16   1858 0.16730000   1.008000   ; qtot -0.104001
 1859          c     45    ccc    C10   1859 0.72110000  12.010000   ; qtot 0.617099
 1860          o     45    ccc     O4   1860 -0.61950000  16.000000   ; qtot -0.002401
 1861         c3     45    ccc    C11   1861 0.08518000  12.010000   ; qtot 0.082779
 1862         c3     45    ccc    C12   1862 0.07918000  12.010000   ; qtot 0.161959
 1863         h1     45    ccc    H17   1863 0.06978000   1.008000   ; qtot 0.231739
 1864         c3     45    ccc    C13   1864 0.07918000  12.010000   ; qtot 0.310919
 1865         c3     45    ccc    C14   1865 0.03578000  12.010000   ; qtot 0.346699
 1866         c3     45    ccc    C15   1866 0.33498000  12.010000   ; qtot 0.681679
 1867         h1     45    ccc    H18   1867 0.06178000   1.008000   ; qtot 0.743459
 1868         h1     45    ccc    H19   1868 0.11278000   1.008000   ; qtot 0.856239
 1869         h2     45    ccc    H20   1869 0.12178000   1.008000   ; qtot 0.978019
 1870         oh     45    ccc     O1   1870 -0.56972000  16.000000   ; qtot 0.408299
 1871         oh     45    ccc     O6   1871 -0.57772000  16.000000   ; qtot -0.169421
 1872         c3     45    ccc    C16   1872 0.14548000  12.010000   ; qtot -0.023941
 1873         ho     45    ccc    H21   1873 0.40508000   1.008000   ; qtot 0.381139
 1874         hn     45    ccc    H22   1874 0.31758000   1.008000   ; qtot 0.698719
 1875         h1     45    ccc    H23   1875 0.06278000   1.008000   ; qtot 0.761499
 1876         h1     45    ccc    H24   1876 0.06278000   1.008000   ; qtot 0.824279
 1877         oh     45    ccc     O7   1877 -0.59472000  16.000000   ; qtot 0.229559
 1878         ho     45    ccc    H25   1878 0.41908000   1.008000   ; qtot 0.648639
 1879         os     45    ccc     O8   1879 -0.44552000  16.000000   ; qtot 0.203119
 1880         ho     45    ccc    H26   1880 0.41908000   1.008000   ; qtot 0.622199
 1881         h1     45    ccc    H27   1881 0.08578000   1.008000   ; qtot 0.707979
 1882         oh     45    ccc     O9   1882 -0.58672000  16.000000   ; qtot 0.121259
 1883         ho     45    ccc    H28   1883 0.41908000   1.008000   ; qtot 0.540339
 1884         n3     45    ccc     N3   1884 -0.54282000  14.010000   ; qtot -0.002481
 1885         c3     45    ccc    C17   1885 0.08518000  12.010000   ; qtot 0.082699
 1886         c3     45    ccc    C18   1886 0.07918000  12.010000   ; qtot 0.161879
 1887         h1     45    ccc    H29   1887 0.06978000   1.008000   ; qtot 0.231659
 1888         c3     45    ccc    C19   1888 0.07918000  12.010000   ; qtot 0.310839
 1889         c3     45    ccc    C20   1889 0.03578000  12.010000   ; qtot 0.346619
 1890         c3     45    ccc    C21   1890 0.33498000  12.010000   ; qtot 0.681599
 1891         h1     45    ccc    H30   1891 0.06178000   1.008000   ; qtot 0.743379
 1892         h1     45    ccc    H31   1892 0.11278000   1.008000   ; qtot 0.856159
 1893         h2     45    ccc    H32   1893 0.12178000   1.008000   ; qtot 0.977939
 1894         oh     45    ccc    O10   1894 -0.56972000  16.000000   ; qtot 0.408219
 1895         oh     45    ccc    O11   1895 -0.57772000  16.000000   ; qtot -0.169501
 1896         c3     45    ccc    C22   1896 0.14548000  12.010000   ; qtot -0.024021
 1897         ho     45    ccc    H33   1897 0.40508000   1.008000   ; qtot 0.381059
 1898         hn     45    ccc    H34   1898 0.31758000   1.008000   ; qtot 0.698639
 1899         h1     45    ccc    H35   1899 0.06278000   1.008000   ; qtot 0.761419
 1900         h1     45    ccc    H36   1900 0.06278000   1.008000   ; qtot 0.824199
 1901         oh     45    ccc    O12   1901 -0.59472000  16.000000   ; qtot 0.229479
 1902         ho     45    ccc    H37   1902 0.41908000   1.008000   ; qtot 0.648559
 1903         os     45    ccc    O13   1903 -0.44552000  16.000000   ; qtot 0.203039
 1904         ho     45    ccc    H38   1904 0.41908000   1.008000   ; qtot 0.622119
 1905         h1     45    ccc    H39   1905 0.08578000   1.008000   ; qtot 0.707899
 1906         oh     45    ccc     O5   1906 -0.58672000  16.000000   ; qtot 0.121179
 1907         ho     45    ccc    H40   1907 0.41908000   1.008000   ; qtot 0.540259
 1908         n3     45    ccc     N4   1908 -0.54282000  14.010000   ; qtot -0.002561
; residue   46 ccc rtp ccc q -0.0
 1909          n     46    ccc     N1   1909 -0.46580000  14.010000   ; qtot -0.468361
 1910         hn     46    ccc     H4   1910 0.31480000   1.008000   ; qtot -0.153561
 1911         c3     46    ccc     C3   1911 -0.28250000  12.010000   ; qtot -0.436061
 1912         h1     46    ccc     H5   1912 0.15710000   1.008000   ; qtot -0.278961
 1913         c3     46    ccc     C4   1913 0.44180000  12.010000   ; qtot 0.162839
 1914         h1     46    ccc     H6   1914 0.15710000   1.008000   ; qtot 0.319939
 1915         h1     46    ccc     H7   1915 -0.03530000   1.008000   ; qtot 0.284639
 1916         h1     46    ccc     H8   1916 -0.03530000   1.008000   ; qtot 0.249339
 1917         n3     46    ccc     N2   1917 -0.74090000  14.010000   ; qtot -0.491561
 1918         c3     46    ccc     C5   1918 0.51680000  12.010000   ; qtot 0.025239
 1919         c3     46    ccc     C6   1919 0.51680000  12.010000   ; qtot 0.542039
 1920         h1     46    ccc     H9   1920 -0.05230000   1.008000   ; qtot 0.489739
 1921         c3     46    ccc     C7   1921 -0.60390000  12.010000   ; qtot -0.114161
 1922         h1     46    ccc    H10   1922 -0.05230000   1.008000   ; qtot -0.166461
 1923         hc     46    ccc    H11   1923 0.16730000   1.008000   ; qtot 0.000839
 1924         hc     46    ccc    H12   1924 0.16730000   1.008000   ; qtot 0.168139
 1925          c     46    ccc     C8   1925 0.72110000  12.010000   ; qtot 0.889239
 1926          o     46    ccc     O2   1926 -0.61950000  16.000000   ; qtot 0.269739
 1927         h1     46    ccc    H13   1927 -0.05230000   1.008000   ; qtot 0.217439
 1928         h1     46    ccc    H14   1928 -0.05230000   1.008000   ; qtot 0.165139
 1929         c3     46    ccc     C9   1929 -0.60390000  12.010000   ; qtot -0.438761
 1930         hc     46    ccc    H15   1930 0.16730000   1.008000   ; qtot -0.271461
 1931         hc     46    ccc    H16   1931 0.16730000   1.008000   ; qtot -0.104161
 1932          c     46    ccc    C10   1932 0.72110000  12.010000   ; qtot 0.616939
 1933          o     46    ccc     O4   1933 -0.61950000  16.000000   ; qtot -0.002561
 1934         c3     46    ccc    C11   1934 0.08518000  12.010000   ; qtot 0.082619
 1935         c3     46    ccc    C12   1935 0.07918000  12.010000   ; qtot 0.161799
 1936         h1     46    ccc    H17   1936 0.06978000   1.008000   ; qtot 0.231579
 1937         c3     46    ccc    C13   1937 0.07918000  12.010000   ; qtot 0.310759
 1938         c3     46    ccc    C14   1938 0.03578000  12.010000   ; qtot 0.346539
 1939         c3     46    ccc    C15   1939 0.33498000  12.010000   ; qtot 0.681519
 1940         h1     46    ccc    H18   1940 0.06178000   1.008000   ; qtot 0.743299
 1941         h1     46    ccc    H19   1941 0.11278000   1.008000   ; qtot 0.856079
 1942         h2     46    ccc    H20   1942 0.12178000   1.008000   ; qtot 0.977859
 1943         oh     46    ccc     O1   1943 -0.56972000  16.000000   ; qtot 0.408139
 1944         oh     46    ccc     O6   1944 -0.57772000  16.000000   ; qtot -0.169581
 1945         c3     46    ccc    C16   1945 0.14548000  12.010000   ; qtot -0.024101
 1946         ho     46    ccc    H21   1946 0.40508000   1.008000   ; qtot 0.380979
 1947         hn     46    ccc    H22   1947 0.31758000   1.008000   ; qtot 0.698559
 1948         h1     46    ccc    H23   1948 0.06278000   1.008000   ; qtot 0.761339
 1949         h1     46    ccc    H24   1949 0.06278000   1.008000   ; qtot 0.824119
 1950         oh     46    ccc     O7   1950 -0.59472000  16.000000   ; qtot 0.229399
 1951         ho     46    ccc    H25   1951 0.41908000   1.008000   ; qtot 0.648479
 1952         os     46    ccc     O8   1952 -0.44552000  16.000000   ; qtot 0.202959
 1953         ho     46    ccc    H26   1953 0.41908000   1.008000   ; qtot 0.622039
 1954         h1     46    ccc    H27   1954 0.08578000   1.008000   ; qtot 0.707819
 1955         oh     46    ccc     O9   1955 -0.58672000  16.000000   ; qtot 0.121099
 1956         ho     46    ccc    H28   1956 0.41908000   1.008000   ; qtot 0.540179
 1957         n3     46    ccc     N3   1957 -0.54282000  14.010000   ; qtot -0.002641
 1958         c3     46    ccc    C17   1958 0.08518000  12.010000   ; qtot 0.082539
 1959         c3     46    ccc    C18   1959 0.07918000  12.010000   ; qtot 0.161719
 1960         h1     46    ccc    H29   1960 0.06978000   1.008000   ; qtot 0.231499
 1961         c3     46    ccc    C19   1961 0.07918000  12.010000   ; qtot 0.310679
 1962         c3     46    ccc    C20   1962 0.03578000  12.010000   ; qtot 0.346459
 1963         c3     46    ccc    C21   1963 0.33498000  12.010000   ; qtot 0.681439
 1964         h1     46    ccc    H30   1964 0.06178000   1.008000   ; qtot 0.743219
 1965         h1     46    ccc    H31   1965 0.11278000   1.008000   ; qtot 0.855999
 1966         h2     46    ccc    H32   1966 0.12178000   1.008000   ; qtot 0.977779
 1967         oh     46    ccc    O10   1967 -0.56972000  16.000000   ; qtot 0.408059
 1968         oh     46    ccc    O11   1968 -0.57772000  16.000000   ; qtot -0.169661
 1969         c3     46    ccc    C22   1969 0.14548000  12.010000   ; qtot -0.024181
 1970         ho     46    ccc    H33   1970 0.40508000   1.008000   ; qtot 0.380899
 1971         hn     46    ccc    H34   1971 0.31758000   1.008000   ; qtot 0.698479
 1972         h1     46    ccc    H35   1972 0.06278000   1.008000   ; qtot 0.761259
 1973         h1     46    ccc    H36   1973 0.06278000   1.008000   ; qtot 0.824039
 1974         oh     46    ccc    O12   1974 -0.59472000  16.000000   ; qtot 0.229319
 1975         ho     46    ccc    H37   1975 0.41908000   1.008000   ; qtot 0.648399
 1976         os     46    ccc    O13   1976 -0.44552000  16.000000   ; qtot 0.202879
 1977         ho     46    ccc    H38   1977 0.41908000   1.008000   ; qtot 0.621959
 1978         h1     46    ccc    H39   1978 0.08578000   1.008000   ; qtot 0.707739
 1979         oh     46    ccc     O5   1979 -0.58672000  16.000000   ; qtot 0.121019
 1980         ho     46    ccc    H40   1980 0.41908000   1.008000   ; qtot 0.540099
 1981         n3     46    ccc     N4   1981 -0.54282000  14.010000   ; qtot -0.002721
; residue   47 ccc rtp ccc q -0.0
 1982          n     47    ccc     N1   1982 -0.46580000  14.010000   ; qtot -0.468521
 1983         hn     47    ccc     H4   1983 0.31480000   1.008000   ; qtot -0.153721
 1984         c3     47    ccc     C3   1984 -0.28250000  12.010000   ; qtot -0.436221
 1985         h1     47    ccc     H5   1985 0.15710000   1.008000   ; qtot -0.279121
 1986         c3     47    ccc     C4   1986 0.44180000  12.010000   ; qtot 0.162679
 1987         h1     47    ccc     H6   1987 0.15710000   1.008000   ; qtot 0.319779
 1988         h1     47    ccc     H7   1988 -0.03530000   1.008000   ; qtot 0.284479
 1989         h1     47    ccc     H8   1989 -0.03530000   1.008000   ; qtot 0.249179
 1990         n3     47    ccc     N2   1990 -0.74090000  14.010000   ; qtot -0.491721
 1991         c3     47    ccc     C5   1991 0.51680000  12.010000   ; qtot 0.025079
 1992         c3     47    ccc     C6   1992 0.51680000  12.010000   ; qtot 0.541879
 1993         h1     47    ccc     H9   1993 -0.05230000   1.008000   ; qtot 0.489579
 1994         c3     47    ccc     C7   1994 -0.60390000  12.010000   ; qtot -0.114321
 1995         h1     47    ccc    H10   1995 -0.05230000   1.008000   ; qtot -0.166621
 1996         hc     47    ccc    H11   1996 0.16730000   1.008000   ; qtot 0.000679
 1997         hc     47    ccc    H12   1997 0.16730000   1.008000   ; qtot 0.167979
 1998          c     47    ccc     C8   1998 0.72110000  12.010000   ; qtot 0.889079
 1999          o     47    ccc     O2   1999 -0.61950000  16.000000   ; qtot 0.269579
 2000         h1     47    ccc    H13   2000 -0.05230000   1.008000   ; qtot 0.217279
 2001         h1     47    ccc    H14   2001 -0.05230000   1.008000   ; qtot 0.164979
 2002         c3     47    ccc     C9   2002 -0.60390000  12.010000   ; qtot -0.438921
 2003         hc     47    ccc    H15   2003 0.16730000   1.008000   ; qtot -0.271621
 2004         hc     47    ccc    H16   2004 0.16730000   1.008000   ; qtot -0.104321
 2005          c     47    ccc    C10   2005 0.72110000  12.010000   ; qtot 0.616779
 2006          o     47    ccc     O4   2006 -0.61950000  16.000000   ; qtot -0.002721
 2007         c3     47    ccc    C11   2007 0.08518000  12.010000   ; qtot 0.082459
 2008         c3     47    ccc    C12   2008 0.07918000  12.010000   ; qtot 0.161639
 2009         h1     47    ccc    H17   2009 0.06978000   1.008000   ; qtot 0.231419
 2010         c3     47    ccc    C13   2010 0.07918000  12.010000   ; qtot 0.310599
 2011         c3     47    ccc    C14   2011 0.03578000  12.010000   ; qtot 0.346379
 2012         c3     47    ccc    C15   2012 0.33498000  12.010000   ; qtot 0.681359
 2013         h1     47    ccc    H18   2013 0.06178000   1.008000   ; qtot 0.743139
 2014         h1     47    ccc    H19   2014 0.11278000   1.008000   ; qtot 0.855919
 2015         h2     47    ccc    H20   2015 0.12178000   1.008000   ; qtot 0.977699
 2016         oh     47    ccc     O1   2016 -0.56972000  16.000000   ; qtot 0.407979
 2017         oh     47    ccc     O6   2017 -0.57772000  16.000000   ; qtot -0.169741
 2018         c3     47    ccc    C16   2018 0.14548000  12.010000   ; qtot -0.024261
 2019         ho     47    ccc    H21   2019 0.40508000   1.008000   ; qtot 0.380819
 2020         hn     47    ccc    H22   2020 0.31758000   1.008000   ; qtot 0.698399
 2021         h1     47    ccc    H23   2021 0.06278000   1.008000   ; qtot 0.761179
 2022         h1     47    ccc    H24   2022 0.06278000   1.008000   ; qtot 0.823959
 2023         oh     47    ccc     O7   2023 -0.59472000  16.000000   ; qtot 0.229239
 2024         ho     47    ccc    H25   2024 0.41908000   1.008000   ; qtot 0.648319
 2025         os     47    ccc     O8   2025 -0.44552000  16.000000   ; qtot 0.202799
 2026         ho     47    ccc    H26   2026 0.41908000   1.008000   ; qtot 0.621879
 2027         h1     47    ccc    H27   2027 0.08578000   1.008000   ; qtot 0.707659
 2028         oh     47    ccc     O9   2028 -0.58672000  16.000000   ; qtot 0.120939
 2029         ho     47    ccc    H28   2029 0.41908000   1.008000   ; qtot 0.540019
 2030         n3     47    ccc     N3   2030 -0.54282000  14.010000   ; qtot -0.002801
 2031         c3     47    ccc    C17   2031 0.08518000  12.010000   ; qtot 0.082379
 2032         c3     47    ccc    C18   2032 0.07918000  12.010000   ; qtot 0.161559
 2033         h1     47    ccc    H29   2033 0.06978000   1.008000   ; qtot 0.231339
 2034         c3     47    ccc    C19   2034 0.07918000  12.010000   ; qtot 0.310519
 2035         c3     47    ccc    C20   2035 0.03578000  12.010000   ; qtot 0.346299
 2036         c3     47    ccc    C21   2036 0.33498000  12.010000   ; qtot 0.681279
 2037         h1     47    ccc    H30   2037 0.06178000   1.008000   ; qtot 0.743059
 2038         h1     47    ccc    H31   2038 0.11278000   1.008000   ; qtot 0.855839
 2039         h2     47    ccc    H32   2039 0.12178000   1.008000   ; qtot 0.977619
 2040         oh     47    ccc    O10   2040 -0.56972000  16.000000   ; qtot 0.407899
 2041         oh     47    ccc    O11   2041 -0.57772000  16.000000   ; qtot -0.169821
 2042         c3     47    ccc    C22   2042 0.14548000  12.010000   ; qtot -0.024341
 2043         ho     47    ccc    H33   2043 0.40508000   1.008000   ; qtot 0.380739
 2044         hn     47    ccc    H34   2044 0.31758000   1.008000   ; qtot 0.698319
 2045         h1     47    ccc    H35   2045 0.06278000   1.008000   ; qtot 0.761099
 2046         h1     47    ccc    H36   2046 0.06278000   1.008000   ; qtot 0.823879
 2047         oh     47    ccc    O12   2047 -0.59472000  16.000000   ; qtot 0.229159
 2048         ho     47    ccc    H37   2048 0.41908000   1.008000   ; qtot 0.648239
 2049         os     47    ccc    O13   2049 -0.44552000  16.000000   ; qtot 0.202719
 2050         ho     47    ccc    H38   2050 0.41908000   1.008000   ; qtot 0.621799
 2051         h1     47    ccc    H39   2051 0.08578000   1.008000   ; qtot 0.707579
 2052         oh     47    ccc     O5   2052 -0.58672000  16.000000   ; qtot 0.120859
 2053         ho     47    ccc    H40   2053 0.41908000   1.008000   ; qtot 0.539939
 2054         n3     47    ccc     N4   2054 -0.54282000  14.010000   ; qtot -0.002881
; residue   48 ccc rtp ccc q -0.0
 2055          n     48    ccc     N1   2055 -0.46580000  14.010000   ; qtot -0.468681
 2056         hn     48    ccc     H4   2056 0.31480000   1.008000   ; qtot -0.153881
 2057         c3     48    ccc     C3   2057 -0.28250000  12.010000   ; qtot -0.436381
 2058         h1     48    ccc     H5   2058 0.15710000   1.008000   ; qtot -0.279281
 2059         c3     48    ccc     C4   2059 0.44180000  12.010000   ; qtot 0.162519
 2060         h1     48    ccc     H6   2060 0.15710000   1.008000   ; qtot 0.319619
 2061         h1     48    ccc     H7   2061 -0.03530000   1.008000   ; qtot 0.284319
 2062         h1     48    ccc     H8   2062 -0.03530000   1.008000   ; qtot 0.249019
 2063         n3     48    ccc     N2   2063 -0.74090000  14.010000   ; qtot -0.491881
 2064         c3     48    ccc     C5   2064 0.51680000  12.010000   ; qtot 0.024919
 2065         c3     48    ccc     C6   2065 0.51680000  12.010000   ; qtot 0.541719
 2066         h1     48    ccc     H9   2066 -0.05230000   1.008000   ; qtot 0.489419
 2067         c3     48    ccc     C7   2067 -0.60390000  12.010000   ; qtot -0.114481
 2068         h1     48    ccc    H10   2068 -0.05230000   1.008000   ; qtot -0.166781
 2069         hc     48    ccc    H11   2069 0.16730000   1.008000   ; qtot 0.000519
 2070         hc     48    ccc    H12   2070 0.16730000   1.008000   ; qtot 0.167819
 2071          c     48    ccc     C8   2071 0.72110000  12.010000   ; qtot 0.888919
 2072          o     48    ccc     O2   2072 -0.61950000  16.000000   ; qtot 0.269419
 2073         h1     48    ccc    H13   2073 -0.05230000   1.008000   ; qtot 0.217119
 2074         h1     48    ccc    H14   2074 -0.05230000   1.008000   ; qtot 0.164819
 2075         c3     48    ccc     C9   2075 -0.60390000  12.010000   ; qtot -0.439081
 2076         hc     48    ccc    H15   2076 0.16730000   1.008000   ; qtot -0.271781
 2077         hc     48    ccc    H16   2077 0.16730000   1.008000   ; qtot -0.104481
 2078          c     48    ccc    C10   2078 0.72110000  12.010000   ; qtot 0.616619
 2079          o     48    ccc     O4   2079 -0.61950000  16.000000   ; qtot -0.002881
 2080         c3     48    ccc    C11   2080 0.08518000  12.010000   ; qtot 0.082299
 2081         c3     48    ccc    C12   2081 0.07918000  12.010000   ; qtot 0.161479
 2082         h1     48    ccc    H17   2082 0.06978000   1.008000   ; qtot 0.231259
 2083         c3     48    ccc    C13   2083 0.07918000  12.010000   ; qtot 0.310439
 2084         c3     48    ccc    C14   2084 0.03578000  12.010000   ; qtot 0.346219
 2085         c3     48    ccc    C15   2085 0.33498000  12.010000   ; qtot 0.681199
 2086         h1     48    ccc    H18   2086 0.06178000   1.008000   ; qtot 0.742979
 2087         h1     48    ccc    H19   2087 0.11278000   1.008000   ; qtot 0.855759
 2088         h2     48    ccc    H20   2088 0.12178000   1.008000   ; qtot 0.977539
 2089         oh     48    ccc     O1   2089 -0.56972000  16.000000   ; qtot 0.407819
 2090         oh     48    ccc     O6   2090 -0.57772000  16.000000   ; qtot -0.169901
 2091         c3     48    ccc    C16   2091 0.14548000  12.010000   ; qtot -0.024421
 2092         ho     48    ccc    H21   2092 0.40508000   1.008000   ; qtot 0.380659
 2093         hn     48    ccc    H22   2093 0.31758000   1.008000   ; qtot 0.698239
 2094         h1     48    ccc    H23   2094 0.06278000   1.008000   ; qtot 0.761019
 2095         h1     48    ccc    H24   2095 0.06278000   1.008000   ; qtot 0.823799
 2096         oh     48    ccc     O7   2096 -0.59472000  16.000000   ; qtot 0.229079
 2097         ho     48    ccc    H25   2097 0.41908000   1.008000   ; qtot 0.648159
 2098         os     48    ccc     O8   2098 -0.44552000  16.000000   ; qtot 0.202639
 2099         ho     48    ccc    H26   2099 0.41908000   1.008000   ; qtot 0.621719
 2100         h1     48    ccc    H27   2100 0.08578000   1.008000   ; qtot 0.707499
 2101         oh     48    ccc     O9   2101 -0.58672000  16.000000   ; qtot 0.120779
 2102         ho     48    ccc    H28   2102 0.41908000   1.008000   ; qtot 0.539859
 2103         n3     48    ccc     N3   2103 -0.54282000  14.010000   ; qtot -0.002961
 2104         c3     48    ccc    C17   2104 0.08518000  12.010000   ; qtot 0.082219
 2105         c3     48    ccc    C18   2105 0.07918000  12.010000   ; qtot 0.161399
 2106         h1     48    ccc    H29   2106 0.06978000   1.008000   ; qtot 0.231179
 2107         c3     48    ccc    C19   2107 0.07918000  12.010000   ; qtot 0.310359
 2108         c3     48    ccc    C20   2108 0.03578000  12.010000   ; qtot 0.346139
 2109         c3     48    ccc    C21   2109 0.33498000  12.010000   ; qtot 0.681119
 2110         h1     48    ccc    H30   2110 0.06178000   1.008000   ; qtot 0.742899
 2111         h1     48    ccc    H31   2111 0.11278000   1.008000   ; qtot 0.855679
 2112         h2     48    ccc    H32   2112 0.12178000   1.008000   ; qtot 0.977459
 2113         oh     48    ccc    O10   2113 -0.56972000  16.000000   ; qtot 0.407739
 2114         oh     48    ccc    O11   2114 -0.57772000  16.000000   ; qtot -0.169981
 2115         c3     48    ccc    C22   2115 0.14548000  12.010000   ; qtot -0.024501
 2116         ho     48    ccc    H33   2116 0.40508000   1.008000   ; qtot 0.380579
 2117         hn     48    ccc    H34   2117 0.31758000   1.008000   ; qtot 0.698159
 2118         h1     48    ccc    H35   2118 0.06278000   1.008000   ; qtot 0.760939
 2119         h1     48    ccc    H36   2119 0.06278000   1.008000   ; qtot 0.823719
 2120         oh     48    ccc    O12   2120 -0.59472000  16.000000   ; qtot 0.228999
 2121         ho     48    ccc    H37   2121 0.41908000   1.008000   ; qtot 0.648079
 2122         os     48    ccc    O13   2122 -0.44552000  16.000000   ; qtot 0.202559
 2123         ho     48    ccc    H38   2123 0.41908000   1.008000   ; qtot 0.621639
 2124         h1     48    ccc    H39   2124 0.08578000   1.008000   ; qtot 0.707419
 2125         oh     48    ccc     O5   2125 -0.58672000  16.000000   ; qtot 0.120699
 2126         ho     48    ccc    H40   2126 0.41908000   1.008000   ; qtot 0.539779
 2127         n3     48    ccc     N4   2127 -0.54282000  14.010000   ; qtot -0.003041
; residue   49 ccc rtp ccc q -0.0
 2128          n     49    ccc     N1   2128 -0.46580000  14.010000   ; qtot -0.468841
 2129         hn     49    ccc     H4   2129 0.31480000   1.008000   ; qtot -0.154041
 2130         c3     49    ccc     C3   2130 -0.28250000  12.010000   ; qtot -0.436541
 2131         h1     49    ccc     H5   2131 0.15710000   1.008000   ; qtot -0.279441
 2132         c3     49    ccc     C4   2132 0.44180000  12.010000   ; qtot 0.162359
 2133         h1     49    ccc     H6   2133 0.15710000   1.008000   ; qtot 0.319459
 2134         h1     49    ccc     H7   2134 -0.03530000   1.008000   ; qtot 0.284159
 2135         h1     49    ccc     H8   2135 -0.03530000   1.008000   ; qtot 0.248859
 2136         n3     49    ccc     N2   2136 -0.74090000  14.010000   ; qtot -0.492041
 2137         c3     49    ccc     C5   2137 0.51680000  12.010000   ; qtot 0.024759
 2138         c3     49    ccc     C6   2138 0.51680000  12.010000   ; qtot 0.541559
 2139         h1     49    ccc     H9   2139 -0.05230000   1.008000   ; qtot 0.489259
 2140         c3     49    ccc     C7   2140 -0.60390000  12.010000   ; qtot -0.114641
 2141         h1     49    ccc    H10   2141 -0.05230000   1.008000   ; qtot -0.166941
 2142         hc     49    ccc    H11   2142 0.16730000   1.008000   ; qtot 0.000359
 2143         hc     49    ccc    H12   2143 0.16730000   1.008000   ; qtot 0.167659
 2144          c     49    ccc     C8   2144 0.72110000  12.010000   ; qtot 0.888759
 2145          o     49    ccc     O2   2145 -0.61950000  16.000000   ; qtot 0.269259
 2146         h1     49    ccc    H13   2146 -0.05230000   1.008000   ; qtot 0.216959
 2147         h1     49    ccc    H14   2147 -0.05230000   1.008000   ; qtot 0.164659
 2148         c3     49    ccc     C9   2148 -0.60390000  12.010000   ; qtot -0.439241
 2149         hc     49    ccc    H15   2149 0.16730000   1.008000   ; qtot -0.271941
 2150         hc     49    ccc    H16   2150 0.16730000   1.008000   ; qtot -0.104641
 2151          c     49    ccc    C10   2151 0.72110000  12.010000   ; qtot 0.616459
 2152          o     49    ccc     O4   2152 -0.61950000  16.000000   ; qtot -0.003041
 2153         c3     49    ccc    C11   2153 0.08518000  12.010000   ; qtot 0.082139
 2154         c3     49    ccc    C12   2154 0.07918000  12.010000   ; qtot 0.161319
 2155         h1     49    ccc    H17   2155 0.06978000   1.008000   ; qtot 0.231099
 2156         c3     49    ccc    C13   2156 0.07918000  12.010000   ; qtot 0.310279
 2157         c3     49    ccc    C14   2157 0.03578000  12.010000   ; qtot 0.346059
 2158         c3     49    ccc    C15   2158 0.33498000  12.010000   ; qtot 0.681039
 2159         h1     49    ccc    H18   2159 0.06178000   1.008000   ; qtot 0.742819
 2160         h1     49    ccc    H19   2160 0.11278000   1.008000   ; qtot 0.855599
 2161         h2     49    ccc    H20   2161 0.12178000   1.008000   ; qtot 0.977379
 2162         oh     49    ccc     O1   2162 -0.56972000  16.000000   ; qtot 0.407659
 2163         oh     49    ccc     O6   2163 -0.57772000  16.000000   ; qtot -0.170061
 2164         c3     49    ccc    C16   2164 0.14548000  12.010000   ; qtot -0.024581
 2165         ho     49    ccc    H21   2165 0.40508000   1.008000   ; qtot 0.380499
 2166         hn     49    ccc    H22   2166 0.31758000   1.008000   ; qtot 0.698079
 2167         h1     49    ccc    H23   2167 0.06278000   1.008000   ; qtot 0.760859
 2168         h1     49    ccc    H24   2168 0.06278000   1.008000   ; qtot 0.823639
 2169         oh     49    ccc     O7   2169 -0.59472000  16.000000   ; qtot 0.228919
 2170         ho     49    ccc    H25   2170 0.41908000   1.008000   ; qtot 0.647999
 2171         os     49    ccc     O8   2171 -0.44552000  16.000000   ; qtot 0.202479
 2172         ho     49    ccc    H26   2172 0.41908000   1.008000   ; qtot 0.621559
 2173         h1     49    ccc    H27   2173 0.08578000   1.008000   ; qtot 0.707339
 2174         oh     49    ccc     O9   2174 -0.58672000  16.000000   ; qtot 0.120619
 2175         ho     49    ccc    H28   2175 0.41908000   1.008000   ; qtot 0.539699
 2176         n3     49    ccc     N3   2176 -0.54282000  14.010000   ; qtot -0.003121
 2177         c3     49    ccc    C17   2177 0.08518000  12.010000   ; qtot 0.082059
 2178         c3     49    ccc    C18   2178 0.07918000  12.010000   ; qtot 0.161239
 2179         h1     49    ccc    H29   2179 0.06978000   1.008000   ; qtot 0.231019
 2180         c3     49    ccc    C19   2180 0.07918000  12.010000   ; qtot 0.310199
 2181         c3     49    ccc    C20   2181 0.03578000  12.010000   ; qtot 0.345979
 2182         c3     49    ccc    C21   2182 0.33498000  12.010000   ; qtot 0.680959
 2183         h1     49    ccc    H30   2183 0.06178000   1.008000   ; qtot 0.742739
 2184         h1     49    ccc    H31   2184 0.11278000   1.008000   ; qtot 0.855519
 2185         h2     49    ccc    H32   2185 0.12178000   1.008000   ; qtot 0.977299
 2186         oh     49    ccc    O10   2186 -0.56972000  16.000000   ; qtot 0.407579
 2187         oh     49    ccc    O11   2187 -0.57772000  16.000000   ; qtot -0.170141
 2188         c3     49    ccc    C22   2188 0.14548000  12.010000   ; qtot -0.024661
 2189         ho     49    ccc    H33   2189 0.40508000   1.008000   ; qtot 0.380419
 2190         hn     49    ccc    H34   2190 0.31758000   1.008000   ; qtot 0.697999
 2191         h1     49    ccc    H35   2191 0.06278000   1.008000   ; qtot 0.760779
 2192         h1     49    ccc    H36   2192 0.06278000   1.008000   ; qtot 0.823559
 2193         oh     49    ccc    O12   2193 -0.59472000  16.000000   ; qtot 0.228839
 2194         ho     49    ccc    H37   2194 0.41908000   1.008000   ; qtot 0.647919
 2195         os     49    ccc    O13   2195 -0.44552000  16.000000   ; qtot 0.202399
 2196         ho     49    ccc    H38   2196 0.41908000   1.008000   ; qtot 0.621479
 2197         h1     49    ccc    H39   2197 0.08578000   1.008000   ; qtot 0.707259
 2198         oh     49    ccc     O5   2198 -0.58672000  16.000000   ; qtot 0.120539
 2199         ho     49    ccc    H40   2199 0.41908000   1.008000   ; qtot 0.539619
 2200         n3     49    ccc     N4   2200 -0.54282000  14.010000   ; qtot -0.003201
; residue   50 ccc rtp ccc q -0.0
 2201          n     50    ccc     N1   2201 -0.46580000  14.010000   ; qtot -0.469001
 2202         hn     50    ccc     H4   2202 0.31480000   1.008000   ; qtot -0.154201
 2203         c3     50    ccc     C3   2203 -0.28250000  12.010000   ; qtot -0.436701
 2204         h1     50    ccc     H5   2204 0.15710000   1.008000   ; qtot -0.279601
 2205         c3     50    ccc     C4   2205 0.44180000  12.010000   ; qtot 0.162199
 2206         h1     50    ccc     H6   2206 0.15710000   1.008000   ; qtot 0.319299
 2207         h1     50    ccc     H7   2207 -0.03530000   1.008000   ; qtot 0.283999
 2208         h1     50    ccc     H8   2208 -0.03530000   1.008000   ; qtot 0.248699
 2209         n3     50    ccc     N2   2209 -0.74090000  14.010000   ; qtot -0.492201
 2210         c3     50    ccc     C5   2210 0.51680000  12.010000   ; qtot 0.024599
 2211         c3     50    ccc     C6   2211 0.51680000  12.010000   ; qtot 0.541399
 2212         h1     50    ccc     H9   2212 -0.05230000   1.008000   ; qtot 0.489099
 2213         c3     50    ccc     C7   2213 -0.60390000  12.010000   ; qtot -0.114801
 2214         h1     50    ccc    H10   2214 -0.05230000   1.008000   ; qtot -0.167101
 2215         hc     50    ccc    H11   2215 0.16730000   1.008000   ; qtot 0.000199
 2216         hc     50    ccc    H12   2216 0.16730000   1.008000   ; qtot 0.167499
 2217          c     50    ccc     C8   2217 0.72110000  12.010000   ; qtot 0.888599
 2218          o     50    ccc     O2   2218 -0.61950000  16.000000   ; qtot 0.269099
 2219         h1     50    ccc    H13   2219 -0.05230000   1.008000   ; qtot 0.216799
 2220         h1     50    ccc    H14   2220 -0.05230000   1.008000   ; qtot 0.164499
 2221         c3     50    ccc     C9   2221 -0.60390000  12.010000   ; qtot -0.439401
 2222         hc     50    ccc    H15   2222 0.16730000   1.008000   ; qtot -0.272101
 2223         hc     50    ccc    H16   2223 0.16730000   1.008000   ; qtot -0.104801
 2224          c     50    ccc    C10   2224 0.72110000  12.010000   ; qtot 0.616299
 2225          o     50    ccc     O4   2225 -0.61950000  16.000000   ; qtot -0.003201
 2226         c3     50    ccc    C11   2226 0.08518000  12.010000   ; qtot 0.081979
 2227         c3     50    ccc    C12   2227 0.07918000  12.010000   ; qtot 0.161159
 2228         h1     50    ccc    H17   2228 0.06978000   1.008000   ; qtot 0.230939
 2229         c3     50    ccc    C13   2229 0.07918000  12.010000   ; qtot 0.310119
 2230         c3     50    ccc    C14   2230 0.03578000  12.010000   ; qtot 0.345899
 2231         c3     50    ccc    C15   2231 0.33498000  12.010000   ; qtot 0.680879
 2232         h1     50    ccc    H18   2232 0.06178000   1.008000   ; qtot 0.742659
 2233         h1     50    ccc    H19   2233 0.11278000   1.008000   ; qtot 0.855439
 2234         h2     50    ccc    H20   2234 0.12178000   1.008000   ; qtot 0.977219
 2235         oh     50    ccc     O1   2235 -0.56972000  16.000000   ; qtot 0.407499
 2236         oh     50    ccc     O6   2236 -0.57772000  16.000000   ; qtot -0.170221
 2237         c3     50    ccc    C16   2237 0.14548000  12.010000   ; qtot -0.024741
 2238         ho     50    ccc    H21   2238 0.40508000   1.008000   ; qtot 0.380339
 2239         hn     50    ccc    H22   2239 0.31758000   1.008000   ; qtot 0.697919
 2240         h1     50    ccc    H23   2240 0.06278000   1.008000   ; qtot 0.760699
 2241         h1     50    ccc    H24   2241 0.06278000   1.008000   ; qtot 0.823479
 2242         oh     50    ccc     O7   2242 -0.59472000  16.000000   ; qtot 0.228759
 2243         ho     50    ccc    H25   2243 0.41908000   1.008000   ; qtot 0.647839
 2244         os     50    ccc     O8   2244 -0.44552000  16.000000   ; qtot 0.202319
 2245         ho     50    ccc    H26   2245 0.41908000   1.008000   ; qtot 0.621399
 2246         h1     50    ccc    H27   2246 0.08578000   1.008000   ; qtot 0.707179
 2247         oh     50    ccc     O9   2247 -0.58672000  16.000000   ; qtot 0.120459
 2248         ho     50    ccc    H28   2248 0.41908000   1.008000   ; qtot 0.539539
 2249         n3     50    ccc     N3   2249 -0.54282000  14.010000   ; qtot -0.003281
 2250         c3     50    ccc    C17   2250 0.08518000  12.010000   ; qtot 0.081899
 2251         c3     50    ccc    C18   2251 0.07918000  12.010000   ; qtot 0.161079
 2252         h1     50    ccc    H29   2252 0.06978000   1.008000   ; qtot 0.230859
 2253         c3     50    ccc    C19   2253 0.07918000  12.010000   ; qtot 0.310039
 2254         c3     50    ccc    C20   2254 0.03578000  12.010000   ; qtot 0.345819
 2255         c3     50    ccc    C21   2255 0.33498000  12.010000   ; qtot 0.680799
 2256         h1     50    ccc    H30   2256 0.06178000   1.008000   ; qtot 0.742579
 2257         h1     50    ccc    H31   2257 0.11278000   1.008000   ; qtot 0.855359
 2258         h2     50    ccc    H32   2258 0.12178000   1.008000   ; qtot 0.977139
 2259         oh     50    ccc    O10   2259 -0.56972000  16.000000   ; qtot 0.407419
 2260         oh     50    ccc    O11   2260 -0.57772000  16.000000   ; qtot -0.170301
 2261         c3     50    ccc    C22   2261 0.14548000  12.010000   ; qtot -0.024821
 2262         ho     50    ccc    H33   2262 0.40508000   1.008000   ; qtot 0.380259
 2263         hn     50    ccc    H34   2263 0.31758000   1.008000   ; qtot 0.697839
 2264         h1     50    ccc    H35   2264 0.06278000   1.008000   ; qtot 0.760619
 2265         h1     50    ccc    H36   2265 0.06278000   1.008000   ; qtot 0.823399
 2266         oh     50    ccc    O12   2266 -0.59472000  16.000000   ; qtot 0.228679
 2267         ho     50    ccc    H37   2267 0.41908000   1.008000   ; qtot 0.647759
 2268         os     50    ccc    O13   2268 -0.44552000  16.000000   ; qtot 0.202239
 2269         ho     50    ccc    H38   2269 0.41908000   1.008000   ; qtot 0.621319
 2270         h1     50    ccc    H39   2270 0.08578000   1.008000   ; qtot 0.707099
 2271         oh     50    ccc     O5   2271 -0.58672000  16.000000   ; qtot 0.120379
 2272         ho     50    ccc    H40   2272 0.41908000   1.008000   ; qtot 0.539459
 2273         n3     50    ccc     N4   2273 -0.54282000  14.010000   ; qtot -0.003361
; residue   51 ccc rtp ccc q -0.0
 2274          n     51    ccc     N1   2274 -0.46580000  14.010000   ; qtot -0.469161
 2275         hn     51    ccc     H4   2275 0.31480000   1.008000   ; qtot -0.154361
 2276         c3     51    ccc     C3   2276 -0.28250000  12.010000   ; qtot -0.436861
 2277         h1     51    ccc     H5   2277 0.15710000   1.008000   ; qtot -0.279761
 2278         c3     51    ccc     C4   2278 0.44180000  12.010000   ; qtot 0.162039
 2279         h1     51    ccc     H6   2279 0.15710000   1.008000   ; qtot 0.319139
 2280         h1     51    ccc     H7   2280 -0.03530000   1.008000   ; qtot 0.283839
 2281         h1     51    ccc     H8   2281 -0.03530000   1.008000   ; qtot 0.248539
 2282         n3     51    ccc     N2   2282 -0.74090000  14.010000   ; qtot -0.492361
 2283         c3     51    ccc     C5   2283 0.51680000  12.010000   ; qtot 0.024439
 2284         c3     51    ccc     C6   2284 0.51680000  12.010000   ; qtot 0.541239
 2285         h1     51    ccc     H9   2285 -0.05230000   1.008000   ; qtot 0.488939
 2286         c3     51    ccc     C7   2286 -0.60390000  12.010000   ; qtot -0.114961
 2287         h1     51    ccc    H10   2287 -0.05230000   1.008000   ; qtot -0.167261
 2288         hc     51    ccc    H11   2288 0.16730000   1.008000   ; qtot 0.000039
 2289         hc     51    ccc    H12   2289 0.16730000   1.008000   ; qtot 0.167339
 2290          c     51    ccc     C8   2290 0.72110000  12.010000   ; qtot 0.888439
 2291          o     51    ccc     O2   2291 -0.61950000  16.000000   ; qtot 0.268939
 2292         h1     51    ccc    H13   2292 -0.05230000   1.008000   ; qtot 0.216639
 2293         h1     51    ccc    H14   2293 -0.05230000   1.008000   ; qtot 0.164339
 2294         c3     51    ccc     C9   2294 -0.60390000  12.010000   ; qtot -0.439561
 2295         hc     51    ccc    H15   2295 0.16730000   1.008000   ; qtot -0.272261
 2296         hc     51    ccc    H16   2296 0.16730000   1.008000   ; qtot -0.104961
 2297          c     51    ccc    C10   2297 0.72110000  12.010000   ; qtot 0.616139
 2298          o     51    ccc     O4   2298 -0.61950000  16.000000   ; qtot -0.003361
 2299         c3     51    ccc    C11   2299 0.08518000  12.010000   ; qtot 0.081819
 2300         c3     51    ccc    C12   2300 0.07918000  12.010000   ; qtot 0.160999
 2301         h1     51    ccc    H17   2301 0.06978000   1.008000   ; qtot 0.230779
 2302         c3     51    ccc    C13   2302 0.07918000  12.010000   ; qtot 0.309959
 2303         c3     51    ccc    C14   2303 0.03578000  12.010000   ; qtot 0.345739
 2304         c3     51    ccc    C15   2304 0.33498000  12.010000   ; qtot 0.680719
 2305         h1     51    ccc    H18   2305 0.06178000   1.008000   ; qtot 0.742499
 2306         h1     51    ccc    H19   2306 0.11278000   1.008000   ; qtot 0.855279
 2307         h2     51    ccc    H20   2307 0.12178000   1.008000   ; qtot 0.977059
 2308         oh     51    ccc     O1   2308 -0.56972000  16.000000   ; qtot 0.407339
 2309         oh     51    ccc     O6   2309 -0.57772000  16.000000   ; qtot -0.170381
 2310         c3     51    ccc    C16   2310 0.14548000  12.010000   ; qtot -0.024901
 2311         ho     51    ccc    H21   2311 0.40508000   1.008000   ; qtot 0.380179
 2312         hn     51    ccc    H22   2312 0.31758000   1.008000   ; qtot 0.697759
 2313         h1     51    ccc    H23   2313 0.06278000   1.008000   ; qtot 0.760539
 2314         h1     51    ccc    H24   2314 0.06278000   1.008000   ; qtot 0.823319
 2315         oh     51    ccc     O7   2315 -0.59472000  16.000000   ; qtot 0.228599
 2316         ho     51    ccc    H25   2316 0.41908000   1.008000   ; qtot 0.647679
 2317         os     51    ccc     O8   2317 -0.44552000  16.000000   ; qtot 0.202159
 2318         ho     51    ccc    H26   2318 0.41908000   1.008000   ; qtot 0.621239
 2319         h1     51    ccc    H27   2319 0.08578000   1.008000   ; qtot 0.707019
 2320         oh     51    ccc     O9   2320 -0.58672000  16.000000   ; qtot 0.120299
 2321         ho     51    ccc    H28   2321 0.41908000   1.008000   ; qtot 0.539379
 2322         n3     51    ccc     N3   2322 -0.54282000  14.010000   ; qtot -0.003441
 2323         c3     51    ccc    C17   2323 0.08518000  12.010000   ; qtot 0.081739
 2324         c3     51    ccc    C18   2324 0.07918000  12.010000   ; qtot 0.160919
 2325         h1     51    ccc    H29   2325 0.06978000   1.008000   ; qtot 0.230699
 2326         c3     51    ccc    C19   2326 0.07918000  12.010000   ; qtot 0.309879
 2327         c3     51    ccc    C20   2327 0.03578000  12.010000   ; qtot 0.345659
 2328         c3     51    ccc    C21   2328 0.33498000  12.010000   ; qtot 0.680639
 2329         h1     51    ccc    H30   2329 0.06178000   1.008000   ; qtot 0.742419
 2330         h1     51    ccc    H31   2330 0.11278000   1.008000   ; qtot 0.855199
 2331         h2     51    ccc    H32   2331 0.12178000   1.008000   ; qtot 0.976979
 2332         oh     51    ccc    O10   2332 -0.56972000  16.000000   ; qtot 0.407259
 2333         oh     51    ccc    O11   2333 -0.57772000  16.000000   ; qtot -0.170461
 2334         c3     51    ccc    C22   2334 0.14548000  12.010000   ; qtot -0.024981
 2335         ho     51    ccc    H33   2335 0.40508000   1.008000   ; qtot 0.380099
 2336         hn     51    ccc    H34   2336 0.31758000   1.008000   ; qtot 0.697679
 2337         h1     51    ccc    H35   2337 0.06278000   1.008000   ; qtot 0.760459
 2338         h1     51    ccc    H36   2338 0.06278000   1.008000   ; qtot 0.823239
 2339         oh     51    ccc    O12   2339 -0.59472000  16.000000   ; qtot 0.228519
 2340         ho     51    ccc    H37   2340 0.41908000   1.008000   ; qtot 0.647599
 2341         os     51    ccc    O13   2341 -0.44552000  16.000000   ; qtot 0.202079
 2342         ho     51    ccc    H38   2342 0.41908000   1.008000   ; qtot 0.621159
 2343         h1     51    ccc    H39   2343 0.08578000   1.008000   ; qtot 0.706939
 2344         oh     51    ccc     O5   2344 -0.58672000  16.000000   ; qtot 0.120219
 2345         ho     51    ccc    H40   2345 0.41908000   1.008000   ; qtot 0.539299
 2346         n3     51    ccc     N4   2346 -0.54282000  14.010000   ; qtot -0.003521
; residue   52 ccc rtp ccc q -0.0
 2347          n     52    ccc     N1   2347 -0.46580000  14.010000   ; qtot -0.469321
 2348         hn     52    ccc     H4   2348 0.31480000   1.008000   ; qtot -0.154521
 2349         c3     52    ccc     C3   2349 -0.28250000  12.010000   ; qtot -0.437021
 2350         h1     52    ccc     H5   2350 0.15710000   1.008000   ; qtot -0.279921
 2351         c3     52    ccc     C4   2351 0.44180000  12.010000   ; qtot 0.161879
 2352         h1     52    ccc     H6   2352 0.15710000   1.008000   ; qtot 0.318979
 2353         h1     52    ccc     H7   2353 -0.03530000   1.008000   ; qtot 0.283679
 2354         h1     52    ccc     H8   2354 -0.03530000   1.008000   ; qtot 0.248379
 2355         n3     52    ccc     N2   2355 -0.74090000  14.010000   ; qtot -0.492521
 2356         c3     52    ccc     C5   2356 0.51680000  12.010000   ; qtot 0.024279
 2357         c3     52    ccc     C6   2357 0.51680000  12.010000   ; qtot 0.541079
 2358         h1     52    ccc     H9   2358 -0.05230000   1.008000   ; qtot 0.488779
 2359         c3     52    ccc     C7   2359 -0.60390000  12.010000   ; qtot -0.115121
 2360         h1     52    ccc    H10   2360 -0.05230000   1.008000   ; qtot -0.167421
 2361         hc     52    ccc    H11   2361 0.16730000   1.008000   ; qtot -0.000121
 2362         hc     52    ccc    H12   2362 0.16730000   1.008000   ; qtot 0.167179
 2363          c     52    ccc     C8   2363 0.72110000  12.010000   ; qtot 0.888279
 2364          o     52    ccc     O2   2364 -0.61950000  16.000000   ; qtot 0.268779
 2365         h1     52    ccc    H13   2365 -0.05230000   1.008000   ; qtot 0.216479
 2366         h1     52    ccc    H14   2366 -0.05230000   1.008000   ; qtot 0.164179
 2367         c3     52    ccc     C9   2367 -0.60390000  12.010000   ; qtot -0.439721
 2368         hc     52    ccc    H15   2368 0.16730000   1.008000   ; qtot -0.272421
 2369         hc     52    ccc    H16   2369 0.16730000   1.008000   ; qtot -0.105121
 2370          c     52    ccc    C10   2370 0.72110000  12.010000   ; qtot 0.615979
 2371          o     52    ccc     O4   2371 -0.61950000  16.000000   ; qtot -0.003521
 2372         c3     52    ccc    C11   2372 0.08518000  12.010000   ; qtot 0.081659
 2373         c3     52    ccc    C12   2373 0.07918000  12.010000   ; qtot 0.160839
 2374         h1     52    ccc    H17   2374 0.06978000   1.008000   ; qtot 0.230619
 2375         c3     52    ccc    C13   2375 0.07918000  12.010000   ; qtot 0.309799
 2376         c3     52    ccc    C14   2376 0.03578000  12.010000   ; qtot 0.345579
 2377         c3     52    ccc    C15   2377 0.33498000  12.010000   ; qtot 0.680559
 2378         h1     52    ccc    H18   2378 0.06178000   1.008000   ; qtot 0.742339
 2379         h1     52    ccc    H19   2379 0.11278000   1.008000   ; qtot 0.855119
 2380         h2     52    ccc    H20   2380 0.12178000   1.008000   ; qtot 0.976899
 2381         oh     52    ccc     O1   2381 -0.56972000  16.000000   ; qtot 0.407179
 2382         oh     52    ccc     O6   2382 -0.57772000  16.000000   ; qtot -0.170541
 2383         c3     52    ccc    C16   2383 0.14548000  12.010000   ; qtot -0.025061
 2384         ho     52    ccc    H21   2384 0.40508000   1.008000   ; qtot 0.380019
 2385         hn     52    ccc    H22   2385 0.31758000   1.008000   ; qtot 0.697599
 2386         h1     52    ccc    H23   2386 0.06278000   1.008000   ; qtot 0.760379
 2387         h1     52    ccc    H24   2387 0.06278000   1.008000   ; qtot 0.823159
 2388         oh     52    ccc     O7   2388 -0.59472000  16.000000   ; qtot 0.228439
 2389         ho     52    ccc    H25   2389 0.41908000   1.008000   ; qtot 0.647519
 2390         os     52    ccc     O8   2390 -0.44552000  16.000000   ; qtot 0.201999
 2391         ho     52    ccc    H26   2391 0.41908000   1.008000   ; qtot 0.621079
 2392         h1     52    ccc    H27   2392 0.08578000   1.008000   ; qtot 0.706859
 2393         oh     52    ccc     O9   2393 -0.58672000  16.000000   ; qtot 0.120139
 2394         ho     52    ccc    H28   2394 0.41908000   1.008000   ; qtot 0.539219
 2395         n3     52    ccc     N3   2395 -0.54282000  14.010000   ; qtot -0.003601
 2396         c3     52    ccc    C17   2396 0.08518000  12.010000   ; qtot 0.081579
 2397         c3     52    ccc    C18   2397 0.07918000  12.010000   ; qtot 0.160759
 2398         h1     52    ccc    H29   2398 0.06978000   1.008000   ; qtot 0.230539
 2399         c3     52    ccc    C19   2399 0.07918000  12.010000   ; qtot 0.309719
 2400         c3     52    ccc    C20   2400 0.03578000  12.010000   ; qtot 0.345499
 2401         c3     52    ccc    C21   2401 0.33498000  12.010000   ; qtot 0.680479
 2402         h1     52    ccc    H30   2402 0.06178000   1.008000   ; qtot 0.742259
 2403         h1     52    ccc    H31   2403 0.11278000   1.008000   ; qtot 0.855039
 2404         h2     52    ccc    H32   2404 0.12178000   1.008000   ; qtot 0.976819
 2405         oh     52    ccc    O10   2405 -0.56972000  16.000000   ; qtot 0.407099
 2406         oh     52    ccc    O11   2406 -0.57772000  16.000000   ; qtot -0.170621
 2407         c3     52    ccc    C22   2407 0.14548000  12.010000   ; qtot -0.025141
 2408         ho     52    ccc    H33   2408 0.40508000   1.008000   ; qtot 0.379939
 2409         hn     52    ccc    H34   2409 0.31758000   1.008000   ; qtot 0.697519
 2410         h1     52    ccc    H35   2410 0.06278000   1.008000   ; qtot 0.760299
 2411         h1     52    ccc    H36   2411 0.06278000   1.008000   ; qtot 0.823079
 2412         oh     52    ccc    O12   2412 -0.59472000  16.000000   ; qtot 0.228359
 2413         ho     52    ccc    H37   2413 0.41908000   1.008000   ; qtot 0.647439
 2414         os     52    ccc    O13   2414 -0.44552000  16.000000   ; qtot 0.201919
 2415         ho     52    ccc    H38   2415 0.41908000   1.008000   ; qtot 0.620999
 2416         h1     52    ccc    H39   2416 0.08578000   1.008000   ; qtot 0.706779
 2417         oh     52    ccc     O5   2417 -0.58672000  16.000000   ; qtot 0.120059
 2418         ho     52    ccc    H40   2418 0.41908000   1.008000   ; qtot 0.539139
 2419         n3     52    ccc     N4   2419 -0.54282000  14.010000   ; qtot -0.003681
; residue   53 ccc rtp ccc q -0.0
 2420          n     53    ccc     N1   2420 -0.46580000  14.010000   ; qtot -0.469481
 2421         hn     53    ccc     H4   2421 0.31480000   1.008000   ; qtot -0.154681
 2422         c3     53    ccc     C3   2422 -0.28250000  12.010000   ; qtot -0.437181
 2423         h1     53    ccc     H5   2423 0.15710000   1.008000   ; qtot -0.280081
 2424         c3     53    ccc     C4   2424 0.44180000  12.010000   ; qtot 0.161719
 2425         h1     53    ccc     H6   2425 0.15710000   1.008000   ; qtot 0.318819
 2426         h1     53    ccc     H7   2426 -0.03530000   1.008000   ; qtot 0.283519
 2427         h1     53    ccc     H8   2427 -0.03530000   1.008000   ; qtot 0.248219
 2428         n3     53    ccc     N2   2428 -0.74090000  14.010000   ; qtot -0.492681
 2429         c3     53    ccc     C5   2429 0.51680000  12.010000   ; qtot 0.024119
 2430         c3     53    ccc     C6   2430 0.51680000  12.010000   ; qtot 0.540919
 2431         h1     53    ccc     H9   2431 -0.05230000   1.008000   ; qtot 0.488619
 2432         c3     53    ccc     C7   2432 -0.60390000  12.010000   ; qtot -0.115281
 2433         h1     53    ccc    H10   2433 -0.05230000   1.008000   ; qtot -0.167581
 2434         hc     53    ccc    H11   2434 0.16730000   1.008000   ; qtot -0.000281
 2435         hc     53    ccc    H12   2435 0.16730000   1.008000   ; qtot 0.167019
 2436          c     53    ccc     C8   2436 0.72110000  12.010000   ; qtot 0.888119
 2437          o     53    ccc     O2   2437 -0.61950000  16.000000   ; qtot 0.268619
 2438         h1     53    ccc    H13   2438 -0.05230000   1.008000   ; qtot 0.216319
 2439         h1     53    ccc    H14   2439 -0.05230000   1.008000   ; qtot 0.164019
 2440         c3     53    ccc     C9   2440 -0.60390000  12.010000   ; qtot -0.439881
 2441         hc     53    ccc    H15   2441 0.16730000   1.008000   ; qtot -0.272581
 2442         hc     53    ccc    H16   2442 0.16730000   1.008000   ; qtot -0.105281
 2443          c     53    ccc    C10   2443 0.72110000  12.010000   ; qtot 0.615819
 2444          o     53    ccc     O4   2444 -0.61950000  16.000000   ; qtot -0.003681
 2445         c3     53    ccc    C11   2445 0.08518000  12.010000   ; qtot 0.081499
 2446         c3     53    ccc    C12   2446 0.07918000  12.010000   ; qtot 0.160679
 2447         h1     53    ccc    H17   2447 0.06978000   1.008000   ; qtot 0.230459
 2448         c3     53    ccc    C13   2448 0.07918000  12.010000   ; qtot 0.309639
 2449         c3     53    ccc    C14   2449 0.03578000  12.010000   ; qtot 0.345419
 2450         c3     53    ccc    C15   2450 0.33498000  12.010000   ; qtot 0.680399
 2451         h1     53    ccc    H18   2451 0.06178000   1.008000   ; qtot 0.742179
 2452         h1     53    ccc    H19   2452 0.11278000   1.008000   ; qtot 0.854959
 2453         h2     53    ccc    H20   2453 0.12178000   1.008000   ; qtot 0.976739
 2454         oh     53    ccc     O1   2454 -0.56972000  16.000000   ; qtot 0.407019
 2455         oh     53    ccc     O6   2455 -0.57772000  16.000000   ; qtot -0.170701
 2456         c3     53    ccc    C16   2456 0.14548000  12.010000   ; qtot -0.025221
 2457         ho     53    ccc    H21   2457 0.40508000   1.008000   ; qtot 0.379859
 2458         hn     53    ccc    H22   2458 0.31758000   1.008000   ; qtot 0.697439
 2459         h1     53    ccc    H23   2459 0.06278000   1.008000   ; qtot 0.760219
 2460         h1     53    ccc    H24   2460 0.06278000   1.008000   ; qtot 0.822999
 2461         oh     53    ccc     O7   2461 -0.59472000  16.000000   ; qtot 0.228279
 2462         ho     53    ccc    H25   2462 0.41908000   1.008000   ; qtot 0.647359
 2463         os     53    ccc     O8   2463 -0.44552000  16.000000   ; qtot 0.201839
 2464         ho     53    ccc    H26   2464 0.41908000   1.008000   ; qtot 0.620919
 2465         h1     53    ccc    H27   2465 0.08578000   1.008000   ; qtot 0.706699
 2466         oh     53    ccc     O9   2466 -0.58672000  16.000000   ; qtot 0.119979
 2467         ho     53    ccc    H28   2467 0.41908000   1.008000   ; qtot 0.539059
 2468         n3     53    ccc     N3   2468 -0.54282000  14.010000   ; qtot -0.003761
 2469         c3     53    ccc    C17   2469 0.08518000  12.010000   ; qtot 0.081419
 2470         c3     53    ccc    C18   2470 0.07918000  12.010000   ; qtot 0.160599
 2471         h1     53    ccc    H29   2471 0.06978000   1.008000   ; qtot 0.230379
 2472         c3     53    ccc    C19   2472 0.07918000  12.010000   ; qtot 0.309559
 2473         c3     53    ccc    C20   2473 0.03578000  12.010000   ; qtot 0.345339
 2474         c3     53    ccc    C21   2474 0.33498000  12.010000   ; qtot 0.680319
 2475         h1     53    ccc    H30   2475 0.06178000   1.008000   ; qtot 0.742099
 2476         h1     53    ccc    H31   2476 0.11278000   1.008000   ; qtot 0.854879
 2477         h2     53    ccc    H32   2477 0.12178000   1.008000   ; qtot 0.976659
 2478         oh     53    ccc    O10   2478 -0.56972000  16.000000   ; qtot 0.406939
 2479         oh     53    ccc    O11   2479 -0.57772000  16.000000   ; qtot -0.170781
 2480         c3     53    ccc    C22   2480 0.14548000  12.010000   ; qtot -0.025301
 2481         ho     53    ccc    H33   2481 0.40508000   1.008000   ; qtot 0.379779
 2482         hn     53    ccc    H34   2482 0.31758000   1.008000   ; qtot 0.697359
 2483         h1     53    ccc    H35   2483 0.06278000   1.008000   ; qtot 0.760139
 2484         h1     53    ccc    H36   2484 0.06278000   1.008000   ; qtot 0.822919
 2485         oh     53    ccc    O12   2485 -0.59472000  16.000000   ; qtot 0.228199
 2486         ho     53    ccc    H37   2486 0.41908000   1.008000   ; qtot 0.647279
 2487         os     53    ccc    O13   2487 -0.44552000  16.000000   ; qtot 0.201759
 2488         ho     53    ccc    H38   2488 0.41908000   1.008000   ; qtot 0.620839
 2489         h1     53    ccc    H39   2489 0.08578000   1.008000   ; qtot 0.706619
 2490         oh     53    ccc     O5   2490 -0.58672000  16.000000   ; qtot 0.119899
 2491         ho     53    ccc    H40   2491 0.41908000   1.008000   ; qtot 0.538979
 2492         n3     53    ccc     N4   2492 -0.54282000  14.010000   ; qtot -0.003841
; residue   54 ccc rtp ccc q -0.0
 2493          n     54    ccc     N1   2493 -0.46580000  14.010000   ; qtot -0.469641
 2494         hn     54    ccc     H4   2494 0.31480000   1.008000   ; qtot -0.154841
 2495         c3     54    ccc     C3   2495 -0.28250000  12.010000   ; qtot -0.437341
 2496         h1     54    ccc     H5   2496 0.15710000   1.008000   ; qtot -0.280241
 2497         c3     54    ccc     C4   2497 0.44180000  12.010000   ; qtot 0.161559
 2498         h1     54    ccc     H6   2498 0.15710000   1.008000   ; qtot 0.318659
 2499         h1     54    ccc     H7   2499 -0.03530000   1.008000   ; qtot 0.283359
 2500         h1     54    ccc     H8   2500 -0.03530000   1.008000   ; qtot 0.248059
 2501         n3     54    ccc     N2   2501 -0.74090000  14.010000   ; qtot -0.492841
 2502         c3     54    ccc     C5   2502 0.51680000  12.010000   ; qtot 0.023959
 2503         c3     54    ccc     C6   2503 0.51680000  12.010000   ; qtot 0.540759
 2504         h1     54    ccc     H9   2504 -0.05230000   1.008000   ; qtot 0.488459
 2505         c3     54    ccc     C7   2505 -0.60390000  12.010000   ; qtot -0.115441
 2506         h1     54    ccc    H10   2506 -0.05230000   1.008000   ; qtot -0.167741
 2507         hc     54    ccc    H11   2507 0.16730000   1.008000   ; qtot -0.000441
 2508         hc     54    ccc    H12   2508 0.16730000   1.008000   ; qtot 0.166859
 2509          c     54    ccc     C8   2509 0.72110000  12.010000   ; qtot 0.887959
 2510          o     54    ccc     O2   2510 -0.61950000  16.000000   ; qtot 0.268459
 2511         h1     54    ccc    H13   2511 -0.05230000   1.008000   ; qtot 0.216159
 2512         h1     54    ccc    H14   2512 -0.05230000   1.008000   ; qtot 0.163859
 2513         c3     54    ccc     C9   2513 -0.60390000  12.010000   ; qtot -0.440041
 2514         hc     54    ccc    H15   2514 0.16730000   1.008000   ; qtot -0.272741
 2515         hc     54    ccc    H16   2515 0.16730000   1.008000   ; qtot -0.105441
 2516          c     54    ccc    C10   2516 0.72110000  12.010000   ; qtot 0.615659
 2517          o     54    ccc     O4   2517 -0.61950000  16.000000   ; qtot -0.003841
 2518         c3     54    ccc    C11   2518 0.08518000  12.010000   ; qtot 0.081339
 2519         c3     54    ccc    C12   2519 0.07918000  12.010000   ; qtot 0.160519
 2520         h1     54    ccc    H17   2520 0.06978000   1.008000   ; qtot 0.230299
 2521         c3     54    ccc    C13   2521 0.07918000  12.010000   ; qtot 0.309479
 2522         c3     54    ccc    C14   2522 0.03578000  12.010000   ; qtot 0.345259
 2523         c3     54    ccc    C15   2523 0.33498000  12.010000   ; qtot 0.680239
 2524         h1     54    ccc    H18   2524 0.06178000   1.008000   ; qtot 0.742019
 2525         h1     54    ccc    H19   2525 0.11278000   1.008000   ; qtot 0.854799
 2526         h2     54    ccc    H20   2526 0.12178000   1.008000   ; qtot 0.976579
 2527         oh     54    ccc     O1   2527 -0.56972000  16.000000   ; qtot 0.406859
 2528         oh     54    ccc     O6   2528 -0.57772000  16.000000   ; qtot -0.170861
 2529         c3     54    ccc    C16   2529 0.14548000  12.010000   ; qtot -0.025381
 2530         ho     54    ccc    H21   2530 0.40508000   1.008000   ; qtot 0.379699
 2531         hn     54    ccc    H22   2531 0.31758000   1.008000   ; qtot 0.697279
 2532         h1     54    ccc    H23   2532 0.06278000   1.008000   ; qtot 0.760059
 2533         h1     54    ccc    H24   2533 0.06278000   1.008000   ; qtot 0.822839
 2534         oh     54    ccc     O7   2534 -0.59472000  16.000000   ; qtot 0.228119
 2535         ho     54    ccc    H25   2535 0.41908000   1.008000   ; qtot 0.647199
 2536         os     54    ccc     O8   2536 -0.44552000  16.000000   ; qtot 0.201679
 2537         ho     54    ccc    H26   2537 0.41908000   1.008000   ; qtot 0.620759
 2538         h1     54    ccc    H27   2538 0.08578000   1.008000   ; qtot 0.706539
 2539         oh     54    ccc     O9   2539 -0.58672000  16.000000   ; qtot 0.119819
 2540         ho     54    ccc    H28   2540 0.41908000   1.008000   ; qtot 0.538899
 2541         n3     54    ccc     N3   2541 -0.54282000  14.010000   ; qtot -0.003921
 2542         c3     54    ccc    C17   2542 0.08518000  12.010000   ; qtot 0.081259
 2543         c3     54    ccc    C18   2543 0.07918000  12.010000   ; qtot 0.160439
 2544         h1     54    ccc    H29   2544 0.06978000   1.008000   ; qtot 0.230219
 2545         c3     54    ccc    C19   2545 0.07918000  12.010000   ; qtot 0.309399
 2546         c3     54    ccc    C20   2546 0.03578000  12.010000   ; qtot 0.345179
 2547         c3     54    ccc    C21   2547 0.33498000  12.010000   ; qtot 0.680159
 2548         h1     54    ccc    H30   2548 0.06178000   1.008000   ; qtot 0.741939
 2549         h1     54    ccc    H31   2549 0.11278000   1.008000   ; qtot 0.854719
 2550         h2     54    ccc    H32   2550 0.12178000   1.008000   ; qtot 0.976499
 2551         oh     54    ccc    O10   2551 -0.56972000  16.000000   ; qtot 0.406779
 2552         oh     54    ccc    O11   2552 -0.57772000  16.000000   ; qtot -0.170941
 2553         c3     54    ccc    C22   2553 0.14548000  12.010000   ; qtot -0.025461
 2554         ho     54    ccc    H33   2554 0.40508000   1.008000   ; qtot 0.379619
 2555         hn     54    ccc    H34   2555 0.31758000   1.008000   ; qtot 0.697199
 2556         h1     54    ccc    H35   2556 0.06278000   1.008000   ; qtot 0.759979
 2557         h1     54    ccc    H36   2557 0.06278000   1.008000   ; qtot 0.822759
 2558         oh     54    ccc    O12   2558 -0.59472000  16.000000   ; qtot 0.228039
 2559         ho     54    ccc    H37   2559 0.41908000   1.008000   ; qtot 0.647119
 2560         os     54    ccc    O13   2560 -0.44552000  16.000000   ; qtot 0.201599
 2561         ho     54    ccc    H38   2561 0.41908000   1.008000   ; qtot 0.620679
 2562         h1     54    ccc    H39   2562 0.08578000   1.008000   ; qtot 0.706459
 2563         oh     54    ccc     O5   2563 -0.58672000  16.000000   ; qtot 0.119739
 2564         ho     54    ccc    H40   2564 0.41908000   1.008000   ; qtot 0.538819
 2565         n3     54    ccc     N4   2565 -0.54282000  14.010000   ; qtot -0.004001
; residue   55 ccc rtp ccc q -0.0
 2566          n     55    ccc     N1   2566 -0.46580000  14.010000   ; qtot -0.469801
 2567         hn     55    ccc     H4   2567 0.31480000   1.008000   ; qtot -0.155001
 2568         c3     55    ccc     C3   2568 -0.28250000  12.010000   ; qtot -0.437501
 2569         h1     55    ccc     H5   2569 0.15710000   1.008000   ; qtot -0.280401
 2570         c3     55    ccc     C4   2570 0.44180000  12.010000   ; qtot 0.161399
 2571         h1     55    ccc     H6   2571 0.15710000   1.008000   ; qtot 0.318499
 2572         h1     55    ccc     H7   2572 -0.03530000   1.008000   ; qtot 0.283199
 2573         h1     55    ccc     H8   2573 -0.03530000   1.008000   ; qtot 0.247899
 2574         n3     55    ccc     N2   2574 -0.74090000  14.010000   ; qtot -0.493001
 2575         c3     55    ccc     C5   2575 0.51680000  12.010000   ; qtot 0.023799
 2576         c3     55    ccc     C6   2576 0.51680000  12.010000   ; qtot 0.540599
 2577         h1     55    ccc     H9   2577 -0.05230000   1.008000   ; qtot 0.488299
 2578         c3     55    ccc     C7   2578 -0.60390000  12.010000   ; qtot -0.115601
 2579         h1     55    ccc    H10   2579 -0.05230000   1.008000   ; qtot -0.167901
 2580         hc     55    ccc    H11   2580 0.16730000   1.008000   ; qtot -0.000601
 2581         hc     55    ccc    H12   2581 0.16730000   1.008000   ; qtot 0.166699
 2582          c     55    ccc     C8   2582 0.72110000  12.010000   ; qtot 0.887799
 2583          o     55    ccc     O2   2583 -0.61950000  16.000000   ; qtot 0.268299
 2584         h1     55    ccc    H13   2584 -0.05230000   1.008000   ; qtot 0.215999
 2585         h1     55    ccc    H14   2585 -0.05230000   1.008000   ; qtot 0.163699
 2586         c3     55    ccc     C9   2586 -0.60390000  12.010000   ; qtot -0.440201
 2587         hc     55    ccc    H15   2587 0.16730000   1.008000   ; qtot -0.272901
 2588         hc     55    ccc    H16   2588 0.16730000   1.008000   ; qtot -0.105601
 2589          c     55    ccc    C10   2589 0.72110000  12.010000   ; qtot 0.615499
 2590          o     55    ccc     O4   2590 -0.61950000  16.000000   ; qtot -0.004001
 2591         c3     55    ccc    C11   2591 0.08518000  12.010000   ; qtot 0.081179
 2592         c3     55    ccc    C12   2592 0.07918000  12.010000   ; qtot 0.160359
 2593         h1     55    ccc    H17   2593 0.06978000   1.008000   ; qtot 0.230139
 2594         c3     55    ccc    C13   2594 0.07918000  12.010000   ; qtot 0.309319
 2595         c3     55    ccc    C14   2595 0.03578000  12.010000   ; qtot 0.345099
 2596         c3     55    ccc    C15   2596 0.33498000  12.010000   ; qtot 0.680079
 2597         h1     55    ccc    H18   2597 0.06178000   1.008000   ; qtot 0.741859
 2598         h1     55    ccc    H19   2598 0.11278000   1.008000   ; qtot 0.854639
 2599         h2     55    ccc    H20   2599 0.12178000   1.008000   ; qtot 0.976419
 2600         oh     55    ccc     O1   2600 -0.56972000  16.000000   ; qtot 0.406699
 2601         oh     55    ccc     O6   2601 -0.57772000  16.000000   ; qtot -0.171021
 2602         c3     55    ccc    C16   2602 0.14548000  12.010000   ; qtot -0.025541
 2603         ho     55    ccc    H21   2603 0.40508000   1.008000   ; qtot 0.379539
 2604         hn     55    ccc    H22   2604 0.31758000   1.008000   ; qtot 0.697119
 2605         h1     55    ccc    H23   2605 0.06278000   1.008000   ; qtot 0.759899
 2606         h1     55    ccc    H24   2606 0.06278000   1.008000   ; qtot 0.822679
 2607         oh     55    ccc     O7   2607 -0.59472000  16.000000   ; qtot 0.227959
 2608         ho     55    ccc    H25   2608 0.41908000   1.008000   ; qtot 0.647039
 2609         os     55    ccc     O8   2609 -0.44552000  16.000000   ; qtot 0.201519
 2610         ho     55    ccc    H26   2610 0.41908000   1.008000   ; qtot 0.620599
 2611         h1     55    ccc    H27   2611 0.08578000   1.008000   ; qtot 0.706379
 2612         oh     55    ccc     O9   2612 -0.58672000  16.000000   ; qtot 0.119659
 2613         ho     55    ccc    H28   2613 0.41908000   1.008000   ; qtot 0.538739
 2614         n3     55    ccc     N3   2614 -0.54282000  14.010000   ; qtot -0.004081
 2615         c3     55    ccc    C17   2615 0.08518000  12.010000   ; qtot 0.081099
 2616         c3     55    ccc    C18   2616 0.07918000  12.010000   ; qtot 0.160279
 2617         h1     55    ccc    H29   2617 0.06978000   1.008000   ; qtot 0.230059
 2618         c3     55    ccc    C19   2618 0.07918000  12.010000   ; qtot 0.309239
 2619         c3     55    ccc    C20   2619 0.03578000  12.010000   ; qtot 0.345019
 2620         c3     55    ccc    C21   2620 0.33498000  12.010000   ; qtot 0.679999
 2621         h1     55    ccc    H30   2621 0.06178000   1.008000   ; qtot 0.741779
 2622         h1     55    ccc    H31   2622 0.11278000   1.008000   ; qtot 0.854559
 2623         h2     55    ccc    H32   2623 0.12178000   1.008000   ; qtot 0.976339
 2624         oh     55    ccc    O10   2624 -0.56972000  16.000000   ; qtot 0.406619
 2625         oh     55    ccc    O11   2625 -0.57772000  16.000000   ; qtot -0.171101
 2626         c3     55    ccc    C22   2626 0.14548000  12.010000   ; qtot -0.025621
 2627         ho     55    ccc    H33   2627 0.40508000   1.008000   ; qtot 0.379459
 2628         hn     55    ccc    H34   2628 0.31758000   1.008000   ; qtot 0.697039
 2629         h1     55    ccc    H35   2629 0.06278000   1.008000   ; qtot 0.759819
 2630         h1     55    ccc    H36   2630 0.06278000   1.008000   ; qtot 0.822599
 2631         oh     55    ccc    O12   2631 -0.59472000  16.000000   ; qtot 0.227879
 2632         ho     55    ccc    H37   2632 0.41908000   1.008000   ; qtot 0.646959
 2633         os     55    ccc    O13   2633 -0.44552000  16.000000   ; qtot 0.201439
 2634         ho     55    ccc    H38   2634 0.41908000   1.008000   ; qtot 0.620519
 2635         h1     55    ccc    H39   2635 0.08578000   1.008000   ; qtot 0.706299
 2636         oh     55    ccc     O5   2636 -0.58672000  16.000000   ; qtot 0.119579
 2637         ho     55    ccc    H40   2637 0.41908000   1.008000   ; qtot 0.538659
 2638         n3     55    ccc     N4   2638 -0.54282000  14.010000   ; qtot -0.004161
; residue   56 ccc rtp ccc q -0.0
 2639          n     56    ccc     N1   2639 -0.46580000  14.010000   ; qtot -0.469961
 2640         hn     56    ccc     H4   2640 0.31480000   1.008000   ; qtot -0.155161
 2641         c3     56    ccc     C3   2641 -0.28250000  12.010000   ; qtot -0.437661
 2642         h1     56    ccc     H5   2642 0.15710000   1.008000   ; qtot -0.280561
 2643         c3     56    ccc     C4   2643 0.44180000  12.010000   ; qtot 0.161239
 2644         h1     56    ccc     H6   2644 0.15710000   1.008000   ; qtot 0.318339
 2645         h1     56    ccc     H7   2645 -0.03530000   1.008000   ; qtot 0.283039
 2646         h1     56    ccc     H8   2646 -0.03530000   1.008000   ; qtot 0.247739
 2647         n3     56    ccc     N2   2647 -0.74090000  14.010000   ; qtot -0.493161
 2648         c3     56    ccc     C5   2648 0.51680000  12.010000   ; qtot 0.023639
 2649         c3     56    ccc     C6   2649 0.51680000  12.010000   ; qtot 0.540439
 2650         h1     56    ccc     H9   2650 -0.05230000   1.008000   ; qtot 0.488139
 2651         c3     56    ccc     C7   2651 -0.60390000  12.010000   ; qtot -0.115761
 2652         h1     56    ccc    H10   2652 -0.05230000   1.008000   ; qtot -0.168061
 2653         hc     56    ccc    H11   2653 0.16730000   1.008000   ; qtot -0.000761
 2654         hc     56    ccc    H12   2654 0.16730000   1.008000   ; qtot 0.166539
 2655          c     56    ccc     C8   2655 0.72110000  12.010000   ; qtot 0.887639
 2656          o     56    ccc     O2   2656 -0.61950000  16.000000   ; qtot 0.268139
 2657         h1     56    ccc    H13   2657 -0.05230000   1.008000   ; qtot 0.215839
 2658         h1     56    ccc    H14   2658 -0.05230000   1.008000   ; qtot 0.163539
 2659         c3     56    ccc     C9   2659 -0.60390000  12.010000   ; qtot -0.440361
 2660         hc     56    ccc    H15   2660 0.16730000   1.008000   ; qtot -0.273061
 2661         hc     56    ccc    H16   2661 0.16730000   1.008000   ; qtot -0.105761
 2662          c     56    ccc    C10   2662 0.72110000  12.010000   ; qtot 0.615339
 2663          o     56    ccc     O4   2663 -0.61950000  16.000000   ; qtot -0.004161
 2664         c3     56    ccc    C11   2664 0.08518000  12.010000   ; qtot 0.081019
 2665         c3     56    ccc    C12   2665 0.07918000  12.010000   ; qtot 0.160199
 2666         h1     56    ccc    H17   2666 0.06978000   1.008000   ; qtot 0.229979
 2667         c3     56    ccc    C13   2667 0.07918000  12.010000   ; qtot 0.309159
 2668         c3     56    ccc    C14   2668 0.03578000  12.010000   ; qtot 0.344939
 2669         c3     56    ccc    C15   2669 0.33498000  12.010000   ; qtot 0.679919
 2670         h1     56    ccc    H18   2670 0.06178000   1.008000   ; qtot 0.741699
 2671         h1     56    ccc    H19   2671 0.11278000   1.008000   ; qtot 0.854479
 2672         h2     56    ccc    H20   2672 0.12178000   1.008000   ; qtot 0.976259
 2673         oh     56    ccc     O1   2673 -0.56972000  16.000000   ; qtot 0.406539
 2674         oh     56    ccc     O6   2674 -0.57772000  16.000000   ; qtot -0.171181
 2675         c3     56    ccc    C16   2675 0.14548000  12.010000   ; qtot -0.025701
 2676         ho     56    ccc    H21   2676 0.40508000   1.008000   ; qtot 0.379379
 2677         hn     56    ccc    H22   2677 0.31758000   1.008000   ; qtot 0.696959
 2678         h1     56    ccc    H23   2678 0.06278000   1.008000   ; qtot 0.759739
 2679         h1     56    ccc    H24   2679 0.06278000   1.008000   ; qtot 0.822519
 2680         oh     56    ccc     O7   2680 -0.59472000  16.000000   ; qtot 0.227799
 2681         ho     56    ccc    H25   2681 0.41908000   1.008000   ; qtot 0.646879
 2682         os     56    ccc     O8   2682 -0.44552000  16.000000   ; qtot 0.201359
 2683         ho     56    ccc    H26   2683 0.41908000   1.008000   ; qtot 0.620439
 2684         h1     56    ccc    H27   2684 0.08578000   1.008000   ; qtot 0.706219
 2685         oh     56    ccc     O9   2685 -0.58672000  16.000000   ; qtot 0.119499
 2686         ho     56    ccc    H28   2686 0.41908000   1.008000   ; qtot 0.538579
 2687         n3     56    ccc     N3   2687 -0.54282000  14.010000   ; qtot -0.004241
 2688         c3     56    ccc    C17   2688 0.08518000  12.010000   ; qtot 0.080939
 2689         c3     56    ccc    C18   2689 0.07918000  12.010000   ; qtot 0.160119
 2690         h1     56    ccc    H29   2690 0.06978000   1.008000   ; qtot 0.229899
 2691         c3     56    ccc    C19   2691 0.07918000  12.010000   ; qtot 0.309079
 2692         c3     56    ccc    C20   2692 0.03578000  12.010000   ; qtot 0.344859
 2693         c3     56    ccc    C21   2693 0.33498000  12.010000   ; qtot 0.679839
 2694         h1     56    ccc    H30   2694 0.06178000   1.008000   ; qtot 0.741619
 2695         h1     56    ccc    H31   2695 0.11278000   1.008000   ; qtot 0.854399
 2696         h2     56    ccc    H32   2696 0.12178000   1.008000   ; qtot 0.976179
 2697         oh     56    ccc    O10   2697 -0.56972000  16.000000   ; qtot 0.406459
 2698         oh     56    ccc    O11   2698 -0.57772000  16.000000   ; qtot -0.171261
 2699         c3     56    ccc    C22   2699 0.14548000  12.010000   ; qtot -0.025781
 2700         ho     56    ccc    H33   2700 0.40508000   1.008000   ; qtot 0.379298
 2701         hn     56    ccc    H34   2701 0.31758000   1.008000   ; qtot 0.696878
 2702         h1     56    ccc    H35   2702 0.06278000   1.008000   ; qtot 0.759658
 2703         h1     56    ccc    H36   2703 0.06278000   1.008000   ; qtot 0.822438
 2704         oh     56    ccc    O12   2704 -0.59472000  16.000000   ; qtot 0.227718
 2705         ho     56    ccc    H37   2705 0.41908000   1.008000   ; qtot 0.646798
 2706         os     56    ccc    O13   2706 -0.44552000  16.000000   ; qtot 0.201278
 2707         ho     56    ccc    H38   2707 0.41908000   1.008000   ; qtot 0.620358
 2708         h1     56    ccc    H39   2708 0.08578000   1.008000   ; qtot 0.706138
 2709         oh     56    ccc     O5   2709 -0.58672000  16.000000   ; qtot 0.119418
 2710         ho     56    ccc    H40   2710 0.41908000   1.008000   ; qtot 0.538498
 2711         n3     56    ccc     N4   2711 -0.54282000  14.010000   ; qtot -0.004322
; residue   57 ccc rtp ccc q -0.0
 2712          n     57    ccc     N1   2712 -0.46580000  14.010000   ; qtot -0.470122
 2713         hn     57    ccc     H4   2713 0.31480000   1.008000   ; qtot -0.155322
 2714         c3     57    ccc     C3   2714 -0.28250000  12.010000   ; qtot -0.437822
 2715         h1     57    ccc     H5   2715 0.15710000   1.008000   ; qtot -0.280722
 2716         c3     57    ccc     C4   2716 0.44180000  12.010000   ; qtot 0.161078
 2717         h1     57    ccc     H6   2717 0.15710000   1.008000   ; qtot 0.318178
 2718         h1     57    ccc     H7   2718 -0.03530000   1.008000   ; qtot 0.282878
 2719         h1     57    ccc     H8   2719 -0.03530000   1.008000   ; qtot 0.247578
 2720         n3     57    ccc     N2   2720 -0.74090000  14.010000   ; qtot -0.493322
 2721         c3     57    ccc     C5   2721 0.51680000  12.010000   ; qtot 0.023478
 2722         c3     57    ccc     C6   2722 0.51680000  12.010000   ; qtot 0.540278
 2723         h1     57    ccc     H9   2723 -0.05230000   1.008000   ; qtot 0.487978
 2724         c3     57    ccc     C7   2724 -0.60390000  12.010000   ; qtot -0.115922
 2725         h1     57    ccc    H10   2725 -0.05230000   1.008000   ; qtot -0.168222
 2726         hc     57    ccc    H11   2726 0.16730000   1.008000   ; qtot -0.000922
 2727         hc     57    ccc    H12   2727 0.16730000   1.008000   ; qtot 0.166378
 2728          c     57    ccc     C8   2728 0.72110000  12.010000   ; qtot 0.887478
 2729          o     57    ccc     O2   2729 -0.61950000  16.000000   ; qtot 0.267978
 2730         h1     57    ccc    H13   2730 -0.05230000   1.008000   ; qtot 0.215678
 2731         h1     57    ccc    H14   2731 -0.05230000   1.008000   ; qtot 0.163378
 2732         c3     57    ccc     C9   2732 -0.60390000  12.010000   ; qtot -0.440522
 2733         hc     57    ccc    H15   2733 0.16730000   1.008000   ; qtot -0.273222
 2734         hc     57    ccc    H16   2734 0.16730000   1.008000   ; qtot -0.105922
 2735          c     57    ccc    C10   2735 0.72110000  12.010000   ; qtot 0.615178
 2736          o     57    ccc     O4   2736 -0.61950000  16.000000   ; qtot -0.004322
 2737         c3     57    ccc    C11   2737 0.08518000  12.010000   ; qtot 0.080858
 2738         c3     57    ccc    C12   2738 0.07918000  12.010000   ; qtot 0.160038
 2739         h1     57    ccc    H17   2739 0.06978000   1.008000   ; qtot 0.229818
 2740         c3     57    ccc    C13   2740 0.07918000  12.010000   ; qtot 0.308998
 2741         c3     57    ccc    C14   2741 0.03578000  12.010000   ; qtot 0.344778
 2742         c3     57    ccc    C15   2742 0.33498000  12.010000   ; qtot 0.679758
 2743         h1     57    ccc    H18   2743 0.06178000   1.008000   ; qtot 0.741538
 2744         h1     57    ccc    H19   2744 0.11278000   1.008000   ; qtot 0.854318
 2745         h2     57    ccc    H20   2745 0.12178000   1.008000   ; qtot 0.976098
 2746         oh     57    ccc     O1   2746 -0.56972000  16.000000   ; qtot 0.406378
 2747         oh     57    ccc     O6   2747 -0.57772000  16.000000   ; qtot -0.171342
 2748         c3     57    ccc    C16   2748 0.14548000  12.010000   ; qtot -0.025862
 2749         ho     57    ccc    H21   2749 0.40508000   1.008000   ; qtot 0.379218
 2750         hn     57    ccc    H22   2750 0.31758000   1.008000   ; qtot 0.696798
 2751         h1     57    ccc    H23   2751 0.06278000   1.008000   ; qtot 0.759578
 2752         h1     57    ccc    H24   2752 0.06278000   1.008000   ; qtot 0.822358
 2753         oh     57    ccc     O7   2753 -0.59472000  16.000000   ; qtot 0.227638
 2754         ho     57    ccc    H25   2754 0.41908000   1.008000   ; qtot 0.646718
 2755         os     57    ccc     O8   2755 -0.44552000  16.000000   ; qtot 0.201198
 2756         ho     57    ccc    H26   2756 0.41908000   1.008000   ; qtot 0.620278
 2757         h1     57    ccc    H27   2757 0.08578000   1.008000   ; qtot 0.706058
 2758         oh     57    ccc     O9   2758 -0.58672000  16.000000   ; qtot 0.119338
 2759         ho     57    ccc    H28   2759 0.41908000   1.008000   ; qtot 0.538418
 2760         n3     57    ccc     N3   2760 -0.54282000  14.010000   ; qtot -0.004402
 2761         c3     57    ccc    C17   2761 0.08518000  12.010000   ; qtot 0.080778
 2762         c3     57    ccc    C18   2762 0.07918000  12.010000   ; qtot 0.159958
 2763         h1     57    ccc    H29   2763 0.06978000   1.008000   ; qtot 0.229738
 2764         c3     57    ccc    C19   2764 0.07918000  12.010000   ; qtot 0.308918
 2765         c3     57    ccc    C20   2765 0.03578000  12.010000   ; qtot 0.344698
 2766         c3     57    ccc    C21   2766 0.33498000  12.010000   ; qtot 0.679678
 2767         h1     57    ccc    H30   2767 0.06178000   1.008000   ; qtot 0.741458
 2768         h1     57    ccc    H31   2768 0.11278000   1.008000   ; qtot 0.854238
 2769         h2     57    ccc    H32   2769 0.12178000   1.008000   ; qtot 0.976018
 2770         oh     57    ccc    O10   2770 -0.56972000  16.000000   ; qtot 0.406298
 2771         oh     57    ccc    O11   2771 -0.57772000  16.000000   ; qtot -0.171422
 2772         c3     57    ccc    C22   2772 0.14548000  12.010000   ; qtot -0.025942
 2773         ho     57    ccc    H33   2773 0.40508000   1.008000   ; qtot 0.379138
 2774         hn     57    ccc    H34   2774 0.31758000   1.008000   ; qtot 0.696718
 2775         h1     57    ccc    H35   2775 0.06278000   1.008000   ; qtot 0.759498
 2776         h1     57    ccc    H36   2776 0.06278000   1.008000   ; qtot 0.822278
 2777         oh     57    ccc    O12   2777 -0.59472000  16.000000   ; qtot 0.227558
 2778         ho     57    ccc    H37   2778 0.41908000   1.008000   ; qtot 0.646638
 2779         os     57    ccc    O13   2779 -0.44552000  16.000000   ; qtot 0.201118
 2780         ho     57    ccc    H38   2780 0.41908000   1.008000   ; qtot 0.620198
 2781         h1     57    ccc    H39   2781 0.08578000   1.008000   ; qtot 0.705978
 2782         oh     57    ccc     O5   2782 -0.58672000  16.000000   ; qtot 0.119258
 2783         ho     57    ccc    H40   2783 0.41908000   1.008000   ; qtot 0.538338
 2784         n3     57    ccc     N4   2784 -0.54282000  14.010000   ; qtot -0.004482
; residue   58 ccc rtp ccc q -0.0
 2785          n     58    ccc     N1   2785 -0.46580000  14.010000   ; qtot -0.470282
 2786         hn     58    ccc     H4   2786 0.31480000   1.008000   ; qtot -0.155482
 2787         c3     58    ccc     C3   2787 -0.28250000  12.010000   ; qtot -0.437982
 2788         h1     58    ccc     H5   2788 0.15710000   1.008000   ; qtot -0.280882
 2789         c3     58    ccc     C4   2789 0.44180000  12.010000   ; qtot 0.160918
 2790         h1     58    ccc     H6   2790 0.15710000   1.008000   ; qtot 0.318018
 2791         h1     58    ccc     H7   2791 -0.03530000   1.008000   ; qtot 0.282718
 2792         h1     58    ccc     H8   2792 -0.03530000   1.008000   ; qtot 0.247418
 2793         n3     58    ccc     N2   2793 -0.74090000  14.010000   ; qtot -0.493482
 2794         c3     58    ccc     C5   2794 0.51680000  12.010000   ; qtot 0.023318
 2795         c3     58    ccc     C6   2795 0.51680000  12.010000   ; qtot 0.540118
 2796         h1     58    ccc     H9   2796 -0.05230000   1.008000   ; qtot 0.487818
 2797         c3     58    ccc     C7   2797 -0.60390000  12.010000   ; qtot -0.116082
 2798         h1     58    ccc    H10   2798 -0.05230000   1.008000   ; qtot -0.168382
 2799         hc     58    ccc    H11   2799 0.16730000   1.008000   ; qtot -0.001082
 2800         hc     58    ccc    H12   2800 0.16730000   1.008000   ; qtot 0.166218
 2801          c     58    ccc     C8   2801 0.72110000  12.010000   ; qtot 0.887318
 2802          o     58    ccc     O2   2802 -0.61950000  16.000000   ; qtot 0.267818
 2803         h1     58    ccc    H13   2803 -0.05230000   1.008000   ; qtot 0.215518
 2804         h1     58    ccc    H14   2804 -0.05230000   1.008000   ; qtot 0.163218
 2805         c3     58    ccc     C9   2805 -0.60390000  12.010000   ; qtot -0.440682
 2806         hc     58    ccc    H15   2806 0.16730000   1.008000   ; qtot -0.273382
 2807         hc     58    ccc    H16   2807 0.16730000   1.008000   ; qtot -0.106082
 2808          c     58    ccc    C10   2808 0.72110000  12.010000   ; qtot 0.615018
 2809          o     58    ccc     O4   2809 -0.61950000  16.000000   ; qtot -0.004482
 2810         c3     58    ccc    C11   2810 0.08518000  12.010000   ; qtot 0.080698
 2811         c3     58    ccc    C12   2811 0.07918000  12.010000   ; qtot 0.159878
 2812         h1     58    ccc    H17   2812 0.06978000   1.008000   ; qtot 0.229658
 2813         c3     58    ccc    C13   2813 0.07918000  12.010000   ; qtot 0.308838
 2814         c3     58    ccc    C14   2814 0.03578000  12.010000   ; qtot 0.344618
 2815         c3     58    ccc    C15   2815 0.33498000  12.010000   ; qtot 0.679598
 2816         h1     58    ccc    H18   2816 0.06178000   1.008000   ; qtot 0.741378
 2817         h1     58    ccc    H19   2817 0.11278000   1.008000   ; qtot 0.854158
 2818         h2     58    ccc    H20   2818 0.12178000   1.008000   ; qtot 0.975938
 2819         oh     58    ccc     O1   2819 -0.56972000  16.000000   ; qtot 0.406218
 2820         oh     58    ccc     O6   2820 -0.57772000  16.000000   ; qtot -0.171502
 2821         c3     58    ccc    C16   2821 0.14548000  12.010000   ; qtot -0.026022
 2822         ho     58    ccc    H21   2822 0.40508000   1.008000   ; qtot 0.379058
 2823         hn     58    ccc    H22   2823 0.31758000   1.008000   ; qtot 0.696638
 2824         h1     58    ccc    H23   2824 0.06278000   1.008000   ; qtot 0.759418
 2825         h1     58    ccc    H24   2825 0.06278000   1.008000   ; qtot 0.822198
 2826         oh     58    ccc     O7   2826 -0.59472000  16.000000   ; qtot 0.227478
 2827         ho     58    ccc    H25   2827 0.41908000   1.008000   ; qtot 0.646558
 2828         os     58    ccc     O8   2828 -0.44552000  16.000000   ; qtot 0.201038
 2829         ho     58    ccc    H26   2829 0.41908000   1.008000   ; qtot 0.620118
 2830         h1     58    ccc    H27   2830 0.08578000   1.008000   ; qtot 0.705898
 2831         oh     58    ccc     O9   2831 -0.58672000  16.000000   ; qtot 0.119178
 2832         ho     58    ccc    H28   2832 0.41908000   1.008000   ; qtot 0.538258
 2833         n3     58    ccc     N3   2833 -0.54282000  14.010000   ; qtot -0.004562
 2834         c3     58    ccc    C17   2834 0.08518000  12.010000   ; qtot 0.080618
 2835         c3     58    ccc    C18   2835 0.07918000  12.010000   ; qtot 0.159798
 2836         h1     58    ccc    H29   2836 0.06978000   1.008000   ; qtot 0.229578
 2837         c3     58    ccc    C19   2837 0.07918000  12.010000   ; qtot 0.308758
 2838         c3     58    ccc    C20   2838 0.03578000  12.010000   ; qtot 0.344538
 2839         c3     58    ccc    C21   2839 0.33498000  12.010000   ; qtot 0.679518
 2840         h1     58    ccc    H30   2840 0.06178000   1.008000   ; qtot 0.741298
 2841         h1     58    ccc    H31   2841 0.11278000   1.008000   ; qtot 0.854078
 2842         h2     58    ccc    H32   2842 0.12178000   1.008000   ; qtot 0.975858
 2843         oh     58    ccc    O10   2843 -0.56972000  16.000000   ; qtot 0.406138
 2844         oh     58    ccc    O11   2844 -0.57772000  16.000000   ; qtot -0.171582
 2845         c3     58    ccc    C22   2845 0.14548000  12.010000   ; qtot -0.026102
 2846         ho     58    ccc    H33   2846 0.40508000   1.008000   ; qtot 0.378978
 2847         hn     58    ccc    H34   2847 0.31758000   1.008000   ; qtot 0.696558
 2848         h1     58    ccc    H35   2848 0.06278000   1.008000   ; qtot 0.759338
 2849         h1     58    ccc    H36   2849 0.06278000   1.008000   ; qtot 0.822118
 2850         oh     58    ccc    O12   2850 -0.59472000  16.000000   ; qtot 0.227398
 2851         ho     58    ccc    H37   2851 0.41908000   1.008000   ; qtot 0.646478
 2852         os     58    ccc    O13   2852 -0.44552000  16.000000   ; qtot 0.200958
 2853         ho     58    ccc    H38   2853 0.41908000   1.008000   ; qtot 0.620038
 2854         h1     58    ccc    H39   2854 0.08578000   1.008000   ; qtot 0.705818
 2855         oh     58    ccc     O5   2855 -0.58672000  16.000000   ; qtot 0.119098
 2856         ho     58    ccc    H40   2856 0.41908000   1.008000   ; qtot 0.538178
 2857         n3     58    ccc     N4   2857 -0.54282000  14.010000   ; qtot -0.004642
; residue   59 ccc rtp ccc q -0.0
 2858          n     59    ccc     N1   2858 -0.46580000  14.010000   ; qtot -0.470442
 2859         hn     59    ccc     H4   2859 0.31480000   1.008000   ; qtot -0.155642
 2860         c3     59    ccc     C3   2860 -0.28250000  12.010000   ; qtot -0.438142
 2861         h1     59    ccc     H5   2861 0.15710000   1.008000   ; qtot -0.281042
 2862         c3     59    ccc     C4   2862 0.44180000  12.010000   ; qtot 0.160758
 2863         h1     59    ccc     H6   2863 0.15710000   1.008000   ; qtot 0.317858
 2864         h1     59    ccc     H7   2864 -0.03530000   1.008000   ; qtot 0.282558
 2865         h1     59    ccc     H8   2865 -0.03530000   1.008000   ; qtot 0.247258
 2866         n3     59    ccc     N2   2866 -0.74090000  14.010000   ; qtot -0.493642
 2867         c3     59    ccc     C5   2867 0.51680000  12.010000   ; qtot 0.023158
 2868         c3     59    ccc     C6   2868 0.51680000  12.010000   ; qtot 0.539958
 2869         h1     59    ccc     H9   2869 -0.05230000   1.008000   ; qtot 0.487658
 2870         c3     59    ccc     C7   2870 -0.60390000  12.010000   ; qtot -0.116242
 2871         h1     59    ccc    H10   2871 -0.05230000   1.008000   ; qtot -0.168542
 2872         hc     59    ccc    H11   2872 0.16730000   1.008000   ; qtot -0.001242
 2873         hc     59    ccc    H12   2873 0.16730000   1.008000   ; qtot 0.166058
 2874          c     59    ccc     C8   2874 0.72110000  12.010000   ; qtot 0.887158
 2875          o     59    ccc     O2   2875 -0.61950000  16.000000   ; qtot 0.267658
 2876         h1     59    ccc    H13   2876 -0.05230000   1.008000   ; qtot 0.215358
 2877         h1     59    ccc    H14   2877 -0.05230000   1.008000   ; qtot 0.163058
 2878         c3     59    ccc     C9   2878 -0.60390000  12.010000   ; qtot -0.440842
 2879         hc     59    ccc    H15   2879 0.16730000   1.008000   ; qtot -0.273542
 2880         hc     59    ccc    H16   2880 0.16730000   1.008000   ; qtot -0.106242
 2881          c     59    ccc    C10   2881 0.72110000  12.010000   ; qtot 0.614858
 2882          o     59    ccc     O4   2882 -0.61950000  16.000000   ; qtot -0.004642
 2883         c3     59    ccc    C11   2883 0.08518000  12.010000   ; qtot 0.080538
 2884         c3     59    ccc    C12   2884 0.07918000  12.010000   ; qtot 0.159718
 2885         h1     59    ccc    H17   2885 0.06978000   1.008000   ; qtot 0.229498
 2886         c3     59    ccc    C13   2886 0.07918000  12.010000   ; qtot 0.308678
 2887         c3     59    ccc    C14   2887 0.03578000  12.010000   ; qtot 0.344458
 2888         c3     59    ccc    C15   2888 0.33498000  12.010000   ; qtot 0.679438
 2889         h1     59    ccc    H18   2889 0.06178000   1.008000   ; qtot 0.741218
 2890         h1     59    ccc    H19   2890 0.11278000   1.008000   ; qtot 0.853998
 2891         h2     59    ccc    H20   2891 0.12178000   1.008000   ; qtot 0.975778
 2892         oh     59    ccc     O1   2892 -0.56972000  16.000000   ; qtot 0.406058
 2893         oh     59    ccc     O6   2893 -0.57772000  16.000000   ; qtot -0.171662
 2894         c3     59    ccc    C16   2894 0.14548000  12.010000   ; qtot -0.026182
 2895         ho     59    ccc    H21   2895 0.40508000   1.008000   ; qtot 0.378898
 2896         hn     59    ccc    H22   2896 0.31758000   1.008000   ; qtot 0.696478
 2897         h1     59    ccc    H23   2897 0.06278000   1.008000   ; qtot 0.759258
 2898         h1     59    ccc    H24   2898 0.06278000   1.008000   ; qtot 0.822038
 2899         oh     59    ccc     O7   2899 -0.59472000  16.000000   ; qtot 0.227318
 2900         ho     59    ccc    H25   2900 0.41908000   1.008000   ; qtot 0.646398
 2901         os     59    ccc     O8   2901 -0.44552000  16.000000   ; qtot 0.200878
 2902         ho     59    ccc    H26   2902 0.41908000   1.008000   ; qtot 0.619958
 2903         h1     59    ccc    H27   2903 0.08578000   1.008000   ; qtot 0.705738
 2904         oh     59    ccc     O9   2904 -0.58672000  16.000000   ; qtot 0.119018
 2905         ho     59    ccc    H28   2905 0.41908000   1.008000   ; qtot 0.538098
 2906         n3     59    ccc     N3   2906 -0.54282000  14.010000   ; qtot -0.004722
 2907         c3     59    ccc    C17   2907 0.08518000  12.010000   ; qtot 0.080458
 2908         c3     59    ccc    C18   2908 0.07918000  12.010000   ; qtot 0.159638
 2909         h1     59    ccc    H29   2909 0.06978000   1.008000   ; qtot 0.229418
 2910         c3     59    ccc    C19   2910 0.07918000  12.010000   ; qtot 0.308598
 2911         c3     59    ccc    C20   2911 0.03578000  12.010000   ; qtot 0.344378
 2912         c3     59    ccc    C21   2912 0.33498000  12.010000   ; qtot 0.679358
 2913         h1     59    ccc    H30   2913 0.06178000   1.008000   ; qtot 0.741138
 2914         h1     59    ccc    H31   2914 0.11278000   1.008000   ; qtot 0.853918
 2915         h2     59    ccc    H32   2915 0.12178000   1.008000   ; qtot 0.975698
 2916         oh     59    ccc    O10   2916 -0.56972000  16.000000   ; qtot 0.405978
 2917         oh     59    ccc    O11   2917 -0.57772000  16.000000   ; qtot -0.171742
 2918         c3     59    ccc    C22   2918 0.14548000  12.010000   ; qtot -0.026262
 2919         ho     59    ccc    H33   2919 0.40508000   1.008000   ; qtot 0.378818
 2920         hn     59    ccc    H34   2920 0.31758000   1.008000   ; qtot 0.696398
 2921         h1     59    ccc    H35   2921 0.06278000   1.008000   ; qtot 0.759178
 2922         h1     59    ccc    H36   2922 0.06278000   1.008000   ; qtot 0.821958
 2923         oh     59    ccc    O12   2923 -0.59472000  16.000000   ; qtot 0.227238
 2924         ho     59    ccc    H37   2924 0.41908000   1.008000   ; qtot 0.646318
 2925         os     59    ccc    O13   2925 -0.44552000  16.000000   ; qtot 0.200798
 2926         ho     59    ccc    H38   2926 0.41908000   1.008000   ; qtot 0.619878
 2927         h1     59    ccc    H39   2927 0.08578000   1.008000   ; qtot 0.705658
 2928         oh     59    ccc     O5   2928 -0.58672000  16.000000   ; qtot 0.118938
 2929         ho     59    ccc    H40   2929 0.41908000   1.008000   ; qtot 0.538018
 2930         n3     59    ccc     N4   2930 -0.54282000  14.010000   ; qtot -0.004802
; residue   60 ccc rtp ccc q -0.0
 2931          n     60    ccc     N1   2931 -0.46580000  14.010000   ; qtot -0.470602
 2932         hn     60    ccc     H4   2932 0.31480000   1.008000   ; qtot -0.155802
 2933         c3     60    ccc     C3   2933 -0.28250000  12.010000   ; qtot -0.438302
 2934         h1     60    ccc     H5   2934 0.15710000   1.008000   ; qtot -0.281202
 2935         c3     60    ccc     C4   2935 0.44180000  12.010000   ; qtot 0.160598
 2936         h1     60    ccc     H6   2936 0.15710000   1.008000   ; qtot 0.317698
 2937         h1     60    ccc     H7   2937 -0.03530000   1.008000   ; qtot 0.282398
 2938         h1     60    ccc     H8   2938 -0.03530000   1.008000   ; qtot 0.247098
 2939         n3     60    ccc     N2   2939 -0.74090000  14.010000   ; qtot -0.493802
 2940         c3     60    ccc     C5   2940 0.51680000  12.010000   ; qtot 0.022998
 2941         c3     60    ccc     C6   2941 0.51680000  12.010000   ; qtot 0.539798
 2942         h1     60    ccc     H9   2942 -0.05230000   1.008000   ; qtot 0.487498
 2943         c3     60    ccc     C7   2943 -0.60390000  12.010000   ; qtot -0.116402
 2944         h1     60    ccc    H10   2944 -0.05230000   1.008000   ; qtot -0.168702
 2945         hc     60    ccc    H11   2945 0.16730000   1.008000   ; qtot -0.001402
 2946         hc     60    ccc    H12   2946 0.16730000   1.008000   ; qtot 0.165898
 2947          c     60    ccc     C8   2947 0.72110000  12.010000   ; qtot 0.886998
 2948          o     60    ccc     O2   2948 -0.61950000  16.000000   ; qtot 0.267498
 2949         h1     60    ccc    H13   2949 -0.05230000   1.008000   ; qtot 0.215198
 2950         h1     60    ccc    H14   2950 -0.05230000   1.008000   ; qtot 0.162898
 2951         c3     60    ccc     C9   2951 -0.60390000  12.010000   ; qtot -0.441002
 2952         hc     60    ccc    H15   2952 0.16730000   1.008000   ; qtot -0.273702
 2953         hc     60    ccc    H16   2953 0.16730000   1.008000   ; qtot -0.106402
 2954          c     60    ccc    C10   2954 0.72110000  12.010000   ; qtot 0.614698
 2955          o     60    ccc     O4   2955 -0.61950000  16.000000   ; qtot -0.004802
 2956         c3     60    ccc    C11   2956 0.08518000  12.010000   ; qtot 0.080378
 2957         c3     60    ccc    C12   2957 0.07918000  12.010000   ; qtot 0.159558
 2958         h1     60    ccc    H17   2958 0.06978000   1.008000   ; qtot 0.229338
 2959         c3     60    ccc    C13   2959 0.07918000  12.010000   ; qtot 0.308518
 2960         c3     60    ccc    C14   2960 0.03578000  12.010000   ; qtot 0.344298
 2961         c3     60    ccc    C15   2961 0.33498000  12.010000   ; qtot 0.679278
 2962         h1     60    ccc    H18   2962 0.06178000   1.008000   ; qtot 0.741058
 2963         h1     60    ccc    H19   2963 0.11278000   1.008000   ; qtot 0.853838
 2964         h2     60    ccc    H20   2964 0.12178000   1.008000   ; qtot 0.975618
 2965         oh     60    ccc     O1   2965 -0.56972000  16.000000   ; qtot 0.405898
 2966         oh     60    ccc     O6   2966 -0.57772000  16.000000   ; qtot -0.171822
 2967         c3     60    ccc    C16   2967 0.14548000  12.010000   ; qtot -0.026342
 2968         ho     60    ccc    H21   2968 0.40508000   1.008000   ; qtot 0.378738
 2969         hn     60    ccc    H22   2969 0.31758000   1.008000   ; qtot 0.696318
 2970         h1     60    ccc    H23   2970 0.06278000   1.008000   ; qtot 0.759098
 2971         h1     60    ccc    H24   2971 0.06278000   1.008000   ; qtot 0.821878
 2972         oh     60    ccc     O7   2972 -0.59472000  16.000000   ; qtot 0.227158
 2973         ho     60    ccc    H25   2973 0.41908000   1.008000   ; qtot 0.646238
 2974         os     60    ccc     O8   2974 -0.44552000  16.000000   ; qtot 0.200718
 2975         ho     60    ccc    H26   2975 0.41908000   1.008000   ; qtot 0.619798
 2976         h1     60    ccc    H27   2976 0.08578000   1.008000   ; qtot 0.705578
 2977         oh     60    ccc     O9   2977 -0.58672000  16.000000   ; qtot 0.118858
 2978         ho     60    ccc    H28   2978 0.41908000   1.008000   ; qtot 0.537938
 2979         n3     60    ccc     N3   2979 -0.54282000  14.010000   ; qtot -0.004882
 2980         c3     60    ccc    C17   2980 0.08518000  12.010000   ; qtot 0.080298
 2981         c3     60    ccc    C18   2981 0.07918000  12.010000   ; qtot 0.159478
 2982         h1     60    ccc    H29   2982 0.06978000   1.008000   ; qtot 0.229258
 2983         c3     60    ccc    C19   2983 0.07918000  12.010000   ; qtot 0.308438
 2984         c3     60    ccc    C20   2984 0.03578000  12.010000   ; qtot 0.344218
 2985         c3     60    ccc    C21   2985 0.33498000  12.010000   ; qtot 0.679198
 2986         h1     60    ccc    H30   2986 0.06178000   1.008000   ; qtot 0.740978
 2987         h1     60    ccc    H31   2987 0.11278000   1.008000   ; qtot 0.853758
 2988         h2     60    ccc    H32   2988 0.12178000   1.008000   ; qtot 0.975538
 2989         oh     60    ccc    O10   2989 -0.56972000  16.000000   ; qtot 0.405818
 2990         oh     60    ccc    O11   2990 -0.57772000  16.000000   ; qtot -0.171902
 2991         c3     60    ccc    C22   2991 0.14548000  12.010000   ; qtot -0.026422
 2992         ho     60    ccc    H33   2992 0.40508000   1.008000   ; qtot 0.378658
 2993         hn     60    ccc    H34   2993 0.31758000   1.008000   ; qtot 0.696238
 2994         h1     60    ccc    H35   2994 0.06278000   1.008000   ; qtot 0.759018
 2995         h1     60    ccc    H36   2995 0.06278000   1.008000   ; qtot 0.821798
 2996         oh     60    ccc    O12   2996 -0.59472000  16.000000   ; qtot 0.227078
 2997         ho     60    ccc    H37   2997 0.41908000   1.008000   ; qtot 0.646158
 2998         os     60    ccc    O13   2998 -0.44552000  16.000000   ; qtot 0.200638
 2999         ho     60    ccc    H38   2999 0.41908000   1.008000   ; qtot 0.619718
 3000         h1     60    ccc    H39   3000 0.08578000   1.008000   ; qtot 0.705498
 3001         oh     60    ccc     O5   3001 -0.58672000  16.000000   ; qtot 0.118778
 3002         ho     60    ccc    H40   3002 0.41908000   1.008000   ; qtot 0.537858
 3003         n3     60    ccc     N4   3003 -0.54282000  14.010000   ; qtot -0.004962
; residue   61 ccc rtp ccc q -0.0
 3004          n     61    ccc     N1   3004 -0.46580000  14.010000   ; qtot -0.470762
 3005         hn     61    ccc     H4   3005 0.31480000   1.008000   ; qtot -0.155962
 3006         c3     61    ccc     C3   3006 -0.28250000  12.010000   ; qtot -0.438462
 3007         h1     61    ccc     H5   3007 0.15710000   1.008000   ; qtot -0.281362
 3008         c3     61    ccc     C4   3008 0.44180000  12.010000   ; qtot 0.160438
 3009         h1     61    ccc     H6   3009 0.15710000   1.008000   ; qtot 0.317538
 3010         h1     61    ccc     H7   3010 -0.03530000   1.008000   ; qtot 0.282238
 3011         h1     61    ccc     H8   3011 -0.03530000   1.008000   ; qtot 0.246938
 3012         n3     61    ccc     N2   3012 -0.74090000  14.010000   ; qtot -0.493962
 3013         c3     61    ccc     C5   3013 0.51680000  12.010000   ; qtot 0.022838
 3014         c3     61    ccc     C6   3014 0.51680000  12.010000   ; qtot 0.539638
 3015         h1     61    ccc     H9   3015 -0.05230000   1.008000   ; qtot 0.487338
 3016         c3     61    ccc     C7   3016 -0.60390000  12.010000   ; qtot -0.116562
 3017         h1     61    ccc    H10   3017 -0.05230000   1.008000   ; qtot -0.168862
 3018         hc     61    ccc    H11   3018 0.16730000   1.008000   ; qtot -0.001562
 3019         hc     61    ccc    H12   3019 0.16730000   1.008000   ; qtot 0.165738
 3020          c     61    ccc     C8   3020 0.72110000  12.010000   ; qtot 0.886838
 3021          o     61    ccc     O2   3021 -0.61950000  16.000000   ; qtot 0.267338
 3022         h1     61    ccc    H13   3022 -0.05230000   1.008000   ; qtot 0.215038
 3023         h1     61    ccc    H14   3023 -0.05230000   1.008000   ; qtot 0.162738
 3024         c3     61    ccc     C9   3024 -0.60390000  12.010000   ; qtot -0.441162
 3025         hc     61    ccc    H15   3025 0.16730000   1.008000   ; qtot -0.273862
 3026         hc     61    ccc    H16   3026 0.16730000   1.008000   ; qtot -0.106562
 3027          c     61    ccc    C10   3027 0.72110000  12.010000   ; qtot 0.614538
 3028          o     61    ccc     O4   3028 -0.61950000  16.000000   ; qtot -0.004962
 3029         c3     61    ccc    C11   3029 0.08518000  12.010000   ; qtot 0.080218
 3030         c3     61    ccc    C12   3030 0.07918000  12.010000   ; qtot 0.159398
 3031         h1     61    ccc    H17   3031 0.06978000   1.008000   ; qtot 0.229178
 3032         c3     61    ccc    C13   3032 0.07918000  12.010000   ; qtot 0.308358
 3033         c3     61    ccc    C14   3033 0.03578000  12.010000   ; qtot 0.344138
 3034         c3     61    ccc    C15   3034 0.33498000  12.010000   ; qtot 0.679118
 3035         h1     61    ccc    H18   3035 0.06178000   1.008000   ; qtot 0.740898
 3036         h1     61    ccc    H19   3036 0.11278000   1.008000   ; qtot 0.853678
 3037         h2     61    ccc    H20   3037 0.12178000   1.008000   ; qtot 0.975458
 3038         oh     61    ccc     O1   3038 -0.56972000  16.000000   ; qtot 0.405738
 3039         oh     61    ccc     O6   3039 -0.57772000  16.000000   ; qtot -0.171982
 3040         c3     61    ccc    C16   3040 0.14548000  12.010000   ; qtot -0.026502
 3041         ho     61    ccc    H21   3041 0.40508000   1.008000   ; qtot 0.378578
 3042         hn     61    ccc    H22   3042 0.31758000   1.008000   ; qtot 0.696158
 3043         h1     61    ccc    H23   3043 0.06278000   1.008000   ; qtot 0.758938
 3044         h1     61    ccc    H24   3044 0.06278000   1.008000   ; qtot 0.821718
 3045         oh     61    ccc     O7   3045 -0.59472000  16.000000   ; qtot 0.226998
 3046         ho     61    ccc    H25   3046 0.41908000   1.008000   ; qtot 0.646078
 3047         os     61    ccc     O8   3047 -0.44552000  16.000000   ; qtot 0.200558
 3048         ho     61    ccc    H26   3048 0.41908000   1.008000   ; qtot 0.619638
 3049         h1     61    ccc    H27   3049 0.08578000   1.008000   ; qtot 0.705418
 3050         oh     61    ccc     O9   3050 -0.58672000  16.000000   ; qtot 0.118698
 3051         ho     61    ccc    H28   3051 0.41908000   1.008000   ; qtot 0.537778
 3052         n3     61    ccc     N3   3052 -0.54282000  14.010000   ; qtot -0.005042
 3053         c3     61    ccc    C17   3053 0.08518000  12.010000   ; qtot 0.080138
 3054         c3     61    ccc    C18   3054 0.07918000  12.010000   ; qtot 0.159318
 3055         h1     61    ccc    H29   3055 0.06978000   1.008000   ; qtot 0.229098
 3056         c3     61    ccc    C19   3056 0.07918000  12.010000   ; qtot 0.308278
 3057         c3     61    ccc    C20   3057 0.03578000  12.010000   ; qtot 0.344058
 3058         c3     61    ccc    C21   3058 0.33498000  12.010000   ; qtot 0.679038
 3059         h1     61    ccc    H30   3059 0.06178000   1.008000   ; qtot 0.740818
 3060         h1     61    ccc    H31   3060 0.11278000   1.008000   ; qtot 0.853598
 3061         h2     61    ccc    H32   3061 0.12178000   1.008000   ; qtot 0.975378
 3062         oh     61    ccc    O10   3062 -0.56972000  16.000000   ; qtot 0.405658
 3063         oh     61    ccc    O11   3063 -0.57772000  16.000000   ; qtot -0.172062
 3064         c3     61    ccc    C22   3064 0.14548000  12.010000   ; qtot -0.026582
 3065         ho     61    ccc    H33   3065 0.40508000   1.008000   ; qtot 0.378498
 3066         hn     61    ccc    H34   3066 0.31758000   1.008000   ; qtot 0.696078
 3067         h1     61    ccc    H35   3067 0.06278000   1.008000   ; qtot 0.758858
 3068         h1     61    ccc    H36   3068 0.06278000   1.008000   ; qtot 0.821638
 3069         oh     61    ccc    O12   3069 -0.59472000  16.000000   ; qtot 0.226918
 3070         ho     61    ccc    H37   3070 0.41908000   1.008000   ; qtot 0.645998
 3071         os     61    ccc    O13   3071 -0.44552000  16.000000   ; qtot 0.200478
 3072         ho     61    ccc    H38   3072 0.41908000   1.008000   ; qtot 0.619558
 3073         h1     61    ccc    H39   3073 0.08578000   1.008000   ; qtot 0.705338
 3074         oh     61    ccc     O5   3074 -0.58672000  16.000000   ; qtot 0.118618
 3075         ho     61    ccc    H40   3075 0.41908000   1.008000   ; qtot 0.537698
 3076         n3     61    ccc     N4   3076 -0.54282000  14.010000   ; qtot -0.005122

[ bonds ]
;    ai     aj funct         c0         c1         c2         c3
      1      4     1   0.15375 251793.120000
      1      8     1   0.14647 272713.120000
      4      7     1   0.14647 272713.120000
      7     15     1   0.14647 272713.120000
      7     18     1   0.14647 272713.120000
      8      9     1   0.14647 272713.120000
      8     12     1   0.14647 272713.120000
      9     30     1   0.15375 251793.120000
     12     27     1   0.15375 251793.120000
     15     21     1   0.15375 251793.120000
     18     24     1   0.15375 251793.120000
     21     35     1   0.15241 261918.400000
     24     36     1   0.15241 261918.400000
     27     33     1   0.15241 261918.400000
     30     34     1   0.15241 261918.400000
     33     37     1   0.12183 533627.360000
     33     64     1   0.13789 357815.680000
     34     40     1   0.12183 533627.360000
     34     89     1   0.13789 357815.680000
     35     38     1   0.12183 533627.360000
     35    114     1   0.13789 357815.680000
     36     39     1   0.12183 533627.360000
     36    139     1   0.13789 357815.680000
     41     44     1   0.15375 251793.120000
     41     47     1   0.14647 272713.120000
     44     64     1   0.14619 275056.160000
     47     48     1   0.14647 272713.120000
     47     51     1   0.14647 272713.120000
     48     57     1   0.15375 251793.120000
     51     54     1   0.15375 251793.120000
     54     60     1   0.15241 261918.400000
     57     61     1   0.15241 261918.400000
     60     62     1   0.12183 533627.360000
     60    164     1   0.13789 357815.680000
     61     63     1   0.12183 533627.360000
     61    189     1   0.13789 357815.680000
     66     69     1   0.15375 251793.120000
     66     72     1   0.14647 272713.120000
     69     89     1   0.14619 275056.160000
     72     73     1   0.14647 272713.120000
     72     76     1   0.14647 272713.120000
     73     82     1   0.15375 251793.120000
     76     79     1   0.15375 251793.120000
     79     85     1   0.15241 261918.400000
     82     86     1   0.15241 261918.400000
     85     87     1   0.12183 533627.360000
     85    214     1   0.13789 357815.680000
     86     88     1   0.12183 533627.360000
     86    239     1   0.13789 357815.680000
     91     94     1   0.15375 251793.120000
     91     97     1   0.14647 272713.120000
     94    114     1   0.14619 275056.160000
     97     98     1   0.14647 272713.120000
     97    101     1   0.14647 272713.120000
     98    107     1   0.15375 251793.120000
    101    104     1   0.15375 251793.120000
    104    110     1   0.15241 261918.400000
    107    111     1   0.15241 261918.400000
    110    112     1   0.12183 533627.360000
    110    264     1   0.13789 357815.680000
    111    113     1   0.12183 533627.360000
    111    289     1   0.13789 357815.680000
    116    119     1   0.15375 251793.120000
    116    122     1   0.14647 272713.120000
    119    139     1   0.14619 275056.160000
    122    123     1   0.14647 272713.120000
    122    126     1   0.14647 272713.120000
    123    132     1   0.15375 251793.120000
    126    129     1   0.15375 251793.120000
    129    135     1   0.15241 261918.400000
    132    136     1   0.15241 261918.400000
    135    137     1   0.12183 533627.360000
    135    314     1   0.13789 357815.680000
    136    138     1   0.12183 533627.360000
    136    339     1   0.13789 357815.680000
    141    144     1   0.15375 251793.120000
    141    147     1   0.14647 272713.120000
    144    164     1   0.14619 275056.160000
    147    148     1   0.14647 272713.120000
    147    151     1   0.14647 272713.120000
    148    157     1   0.15375 251793.120000
    151    154     1   0.15375 251793.120000
    154    160     1   0.15241 261918.400000
    157    161     1   0.15241 261918.400000
    160    162     1   0.12183 533627.360000
    160    364     1   0.13789 357815.680000
    161    163     1   0.12183 533627.360000
    161    389     1   0.13789 357815.680000
    166    169     1   0.15375 251793.120000
    166    172     1   0.14647 272713.120000
    169    189     1   0.14619 275056.160000
    172    173     1   0.14647 272713.120000
    172    176     1   0.14647 272713.120000
    173    182     1   0.15375 251793.120000
    176    179     1   0.15375 251793.120000
    179    185     1   0.15241 261918.400000
    182    186     1   0.15241 261918.400000
    185    187     1   0.12183 533627.360000
    185    414     1   0.13789 357815.680000
    186    188     1   0.12183 533627.360000
    186    439     1   0.13789 357815.680000
    191    194     1   0.15375 251793.120000
    191    197     1   0.14647 272713.120000
    194    214     1   0.14619 275056.160000
    197    198     1   0.14647 272713.120000
    197    201     1   0.14647 272713.120000
    198    207     1   0.15375 251793.120000
    201    204     1   0.15375 251793.120000
    204    210     1   0.15241 261918.400000
    207    211     1   0.15241 261918.400000
    210    212     1   0.12183 533627.360000
    210    464     1   0.13789 357815.680000
    211    213     1   0.12183 533627.360000
    211    489     1   0.13789 357815.680000
    216    219     1   0.15375 251793.120000
    216    222     1   0.14647 272713.120000
    219    239     1   0.14619 275056.160000
    222    223     1   0.14647 272713.120000
    222    226     1   0.14647 272713.120000
    223    232     1   0.15375 251793.120000
    226    229     1   0.15375 251793.120000
    229    235     1   0.15241 261918.400000
    232    236     1   0.15241 261918.400000
    235    237     1   0.12183 533627.360000
    235    514     1   0.13789 357815.680000
    236    238     1   0.12183 533627.360000
    236    539     1   0.13789 357815.680000
    241    244     1   0.15375 251793.120000
    241    247     1   0.14647 272713.120000
    244    264     1   0.14619 275056.160000
    247    248     1   0.14647 272713.120000
    247    251     1   0.14647 272713.120000
    248    257     1   0.15375 251793.120000
    251    254     1   0.15375 251793.120000
    254    260     1   0.15241 261918.400000
    257    261     1   0.15241 261918.400000
    260    262     1   0.12183 533627.360000
    260    564     1   0.13789 357815.680000
    261    263     1   0.12183 533627.360000
    261    589     1   0.13789 357815.680000
    266    269     1   0.15375 251793.120000
    266    272     1   0.14647 272713.120000
    269    289     1   0.14619 275056.160000
    272    273     1   0.14647 272713.120000
    272    276     1   0.14647 272713.120000
    273    282     1   0.15375 251793.120000
    276    279     1   0.15375 251793.120000
    279    285     1   0.15241 261918.400000
    282    286     1   0.15241 261918.400000
    285    287     1   0.12183 533627.360000
    285    614     1   0.13789 357815.680000
    286    288     1   0.12183 533627.360000
    286    639     1   0.13789 357815.680000
    291    294     1   0.15375 251793.120000
    291    297     1   0.14647 272713.120000
    294    314     1   0.14619 275056.160000
    297    298     1   0.14647 272713.120000
    297    301     1   0.14647 272713.120000
    298    307     1   0.15375 251793.120000
    301    304     1   0.15375 251793.120000
    304    310     1   0.15241 261918.400000
    307    311     1   0.15241 261918.400000
    310    312     1   0.12183 533627.360000
    310    664     1   0.13789 357815.680000
    311    313     1   0.12183 533627.360000
    311    689     1   0.13789 357815.680000
    316    319     1   0.15375 251793.120000
    316    322     1   0.14647 272713.120000
    319    339     1   0.14619 275056.160000
    322    323     1   0.14647 272713.120000
    322    326     1   0.14647 272713.120000
    323    332     1   0.15375 251793.120000
    326    329     1   0.15375 251793.120000
    329    335     1   0.15241 261918.400000
    332    336     1   0.15241 261918.400000
    335    337     1   0.12183 533627.360000
    335    714     1   0.13789 357815.680000
    336    338     1   0.12183 533627.360000
    336    739     1   0.13789 357815.680000
    341    344     1   0.15375 251793.120000
    341    347     1   0.14647 272713.120000
    344    364     1   0.14619 275056.160000
    347    348     1   0.14647 272713.120000
    347    351     1   0.14647 272713.120000
    348    357     1   0.15375 251793.120000
    351    354     1   0.15375 251793.120000
    354    360     1   0.15241 261918.400000
    357    361     1   0.15241 261918.400000
    360    741     1   0.13789 357815.680000
    360    362     1   0.12183 533627.360000
    361    363     1   0.12183 533627.360000
    361    814     1   0.13789 357815.680000
    366    369     1   0.15375 251793.120000
    366    372     1   0.14647 272713.120000
    369    389     1   0.14619 275056.160000
    372    373     1   0.14647 272713.120000
    372    376     1   0.14647 272713.120000
    373    382     1   0.15375 251793.120000
    376    379     1   0.15375 251793.120000
    379    385     1   0.15241 261918.400000
    382    386     1   0.15241 261918.400000
    385    887     1   0.13789 357815.680000
    385    387     1   0.12183 533627.360000
    386    388     1   0.12183 533627.360000
    386    960     1   0.13789 357815.680000
    391    394     1   0.15375 251793.120000
    391    397     1   0.14647 272713.120000
    394    414     1   0.14619 275056.160000
    397    398     1   0.14647 272713.120000
    397    401     1   0.14647 272713.120000
    398    407     1   0.15375 251793.120000
    401    404     1   0.15375 251793.120000
    404    410     1   0.15241 261918.400000
    407    411     1   0.15241 261918.400000
    410   1033     1   0.13789 357815.680000
    410    412     1   0.12183 533627.360000
    411    413     1   0.12183 533627.360000
    411   1106     1   0.13789 357815.680000
    416    419     1   0.15375 251793.120000
    416    422     1   0.14647 272713.120000
    419    439     1   0.14619 275056.160000
    422    423     1   0.14647 272713.120000
    422    426     1   0.14647 272713.120000
    423    432     1   0.15375 251793.120000
    426    429     1   0.15375 251793.120000
    429    435     1   0.15241 261918.400000
    432    436     1   0.15241 261918.400000
    435   1179     1   0.13789 357815.680000
    435    437     1   0.12183 533627.360000
    436    438     1   0.12183 533627.360000
    436   1252     1   0.13789 357815.680000
    441    444     1   0.15375 251793.120000
    441    447     1   0.14647 272713.120000
    444    464     1   0.14619 275056.160000
    447    448     1   0.14647 272713.120000
    447    451     1   0.14647 272713.120000
    448    457     1   0.15375 251793.120000
    451    454     1   0.15375 251793.120000
    454    460     1   0.15241 261918.400000
    457    461     1   0.15241 261918.400000
    460   1325     1   0.13789 357815.680000
    460    462     1   0.12183 533627.360000
    461    463     1   0.12183 533627.360000
    461   1398     1   0.13789 357815.680000
    466    469     1   0.15375 251793.120000
    466    472     1   0.14647 272713.120000
    469    489     1   0.14619 275056.160000
    472    473     1   0.14647 272713.120000
    472    476     1   0.14647 272713.120000
    473    482     1   0.15375 251793.120000
    476    479     1   0.15375 251793.120000
    479    485     1   0.15241 261918.400000
    482    486     1   0.15241 261918.400000
    485   1471     1   0.13789 357815.680000
    485    487     1   0.12183 533627.360000
    486    488     1   0.12183 533627.360000
    486   1544     1   0.13789 357815.680000
    491    494     1   0.15375 251793.120000
    491    497     1   0.14647 272713.120000
    494    514     1   0.14619 275056.160000
    497    498     1   0.14647 272713.120000
    497    501     1   0.14647 272713.120000
    498    507     1   0.15375 251793.120000
    501    504     1   0.15375 251793.120000
    504    510     1   0.15241 261918.400000
    507    511     1   0.15241 261918.400000
    510   1617     1   0.13789 357815.680000
    510    512     1   0.12183 533627.360000
    511    513     1   0.12183 533627.360000
    511   1690     1   0.13789 357815.680000
    516    519     1   0.15375 251793.120000
    516    522     1   0.14647 272713.120000
    519    539     1   0.14619 275056.160000
    522    523     1   0.14647 272713.120000
    522    526     1   0.14647 272713.120000
    523    532     1   0.15375 251793.120000
    526    529     1   0.15375 251793.120000
    529    535     1   0.15241 261918.400000
    532    536     1   0.15241 261918.400000
    535   1763     1   0.13789 357815.680000
    535    537     1   0.12183 533627.360000
    536    538     1   0.12183 533627.360000
    536   1836     1   0.13789 357815.680000
    541    544     1   0.15375 251793.120000
    541    547     1   0.14647 272713.120000
    544    564     1   0.14619 275056.160000
    547    548     1   0.14647 272713.120000
    547    551     1   0.14647 272713.120000
    548    557     1   0.15375 251793.120000
    551    554     1   0.15375 251793.120000
    554    560     1   0.15241 261918.400000
    557    561     1   0.15241 261918.400000
    560   1909     1   0.13789 357815.680000
    560    562     1   0.12183 533627.360000
    561    563     1   0.12183 533627.360000
    561   1982     1   0.13789 357815.680000
    566    569     1   0.15375 251793.120000
    566    572     1   0.14647 272713.120000
    569    589     1   0.14619 275056.160000
    572    573     1   0.14647 272713.120000
    572    576     1   0.14647 272713.120000
    573    582     1   0.15375 251793.120000
    576    579     1   0.15375 251793.120000
    579    585     1   0.15241 261918.400000
    582    586     1   0.15241 261918.400000
    585   2055     1   0.13789 357815.680000
    585    587     1   0.12183 533627.360000
    586    588     1   0.12183 533627.360000
    586   2128     1   0.13789 357815.680000
    591    594     1   0.15375 251793.120000
    591    597     1   0.14647 272713.120000
    594    614     1   0.14619 275056.160000
    597    598     1   0.14647 272713.120000
    597    601     1   0.14647 272713.120000
    598    607     1   0.15375 251793.120000
    601    604     1   0.15375 251793.120000
    604    610     1   0.15241 261918.400000
    607    611     1   0.15241 261918.400000
    610   2201     1   0.13789 357815.680000
    610    612     1   0.12183 533627.360000
    611    613     1   0.12183 533627.360000
    611   2274     1   0.13789 357815.680000
    616    619     1   0.15375 251793.120000
    616    622     1   0.14647 272713.120000
    619    639     1   0.14619 275056.160000
    622    623     1   0.14647 272713.120000
    622    626     1   0.14647 272713.120000
    623    632     1   0.15375 251793.120000
    626    629     1   0.15375 251793.120000
    629    635     1   0.15241 261918.400000
    632    636     1   0.15241 261918.400000
    635   2347     1   0.13789 357815.680000
    635    637     1   0.12183 533627.360000
    636    638     1   0.12183 533627.360000
    636   2420     1   0.13789 357815.680000
    641    644     1   0.15375 251793.120000
    641    647     1   0.14647 272713.120000
    644    664     1   0.14619 275056.160000
    647    648     1   0.14647 272713.120000
    647    651     1   0.14647 272713.120000
    648    657     1   0.15375 251793.120000
    651    654     1   0.15375 251793.120000
    654    660     1   0.15241 261918.400000
    657    661     1   0.15241 261918.400000
    660   2493     1   0.13789 357815.680000
    660    662     1   0.12183 533627.360000
    661    663     1   0.12183 533627.360000
    661   2566     1   0.13789 357815.680000
    666    669     1   0.15375 251793.120000
    666    672     1   0.14647 272713.120000
    669    689     1   0.14619 275056.160000
    672    673     1   0.14647 272713.120000
    672    676     1   0.14647 272713.120000
    673    682     1   0.15375 251793.120000
    676    679     1   0.15375 251793.120000
    679    685     1   0.15241 261918.400000
    682    686     1   0.15241 261918.400000
    685   2639     1   0.13789 357815.680000
    685    687     1   0.12183 533627.360000
    686    688     1   0.12183 533627.360000
    686   2712     1   0.13789 357815.680000
    691    694     1   0.15375 251793.120000
    691    697     1   0.14647 272713.120000
    694    714     1   0.14619 275056.160000
    697    698     1   0.14647 272713.120000
    697    701     1   0.14647 272713.120000
    698    707     1   0.15375 251793.120000
    701    704     1   0.15375 251793.120000
    704    710     1   0.15241 261918.400000
    707    711     1   0.15241 261918.400000
    710   2785     1   0.13789 357815.680000
    710    712     1   0.12183 533627.360000
    711    713     1   0.12183 533627.360000
    711   2858     1   0.13789 357815.680000
    716    719     1   0.15375 251793.120000
    716    722     1   0.14647 272713.120000
    719    739     1   0.14619 275056.160000
    722    723     1   0.14647 272713.120000
    722    726     1   0.14647 272713.120000
    723    732     1   0.15375 251793.120000
    726    729     1   0.15375 251793.120000
    729    735     1   0.15241 261918.400000
    732    736     1   0.15241 261918.400000
    735   2931     1   0.13789 357815.680000
    735    737     1   0.12183 533627.360000
    736   3004     1   0.13789 357815.680000
    736    738     1   0.12183 533627.360000
    741    743     1   0.14619 275056.160000
    743    745     1   0.15375 251793.120000
    745    749     1   0.14647 272713.120000
    749    750     1   0.14647 272713.120000
    749    751     1   0.14647 272713.120000
    750    761     1   0.15375 251793.120000
    751    753     1   0.15375 251793.120000
    753    757     1   0.15241 261918.400000
    757    758     1   0.12183 533627.360000
    757    789     1   0.13400 406935.840000
    761    764     1   0.15241 261918.400000
    764    765     1   0.12183 533627.360000
    764    813     1   0.13400 406935.840000
    766    767     1   0.15375 251793.120000
    766    777     1   0.15375 251793.120000
    766    784     1   0.14316 258236.480000
    767    769     1   0.15375 251793.120000
    767    787     1   0.14233 265014.560000
    769    770     1   0.15375 251793.120000
    769    776     1   0.14233 265014.560000
    770    771     1   0.15375 251793.120000
    770    789     1   0.14647 272713.120000
    771    775     1   0.14233 265014.560000
    771    784     1   0.14316 258236.480000
    777    782     1   0.14233 265014.560000
    790    791     1   0.15375 251793.120000
    790    801     1   0.15375 251793.120000
    790    808     1   0.14316 258236.480000
    791    793     1   0.15375 251793.120000
    791    811     1   0.14233 265014.560000
    793    794     1   0.15375 251793.120000
    793    800     1   0.14233 265014.560000
    794    795     1   0.15375 251793.120000
    794    813     1   0.14647 272713.120000
    795    799     1   0.14233 265014.560000
    795    808     1   0.14316 258236.480000
    801    806     1   0.14233 265014.560000
    814    816     1   0.14619 275056.160000
    816    818     1   0.15375 251793.120000
    818    822     1   0.14647 272713.120000
    822    823     1   0.14647 272713.120000
    822    824     1   0.14647 272713.120000
    823    834     1   0.15375 251793.120000
    824    826     1   0.15375 251793.120000
    826    830     1   0.15241 261918.400000
    830    831     1   0.12183 533627.360000
    830    862     1   0.13400 406935.840000
    834    837     1   0.15241 261918.400000
    837    838     1   0.12183 533627.360000
    837    886     1   0.13400 406935.840000
    839    840     1   0.15375 251793.120000
    839    850     1   0.15375 251793.120000
    839    857     1   0.14316 258236.480000
    840    842     1   0.15375 251793.120000
    840    860     1   0.14233 265014.560000
    842    843     1   0.15375 251793.120000
    842    849     1   0.14233 265014.560000
    843    844     1   0.15375 251793.120000
    843    862     1   0.14647 272713.120000
    844    848     1   0.14233 265014.560000
    844    857     1   0.14316 258236.480000
    850    855     1   0.14233 265014.560000
    863    864     1   0.15375 251793.120000
    863    874     1   0.15375 251793.120000
    863    881     1   0.14316 258236.480000
    864    866     1   0.15375 251793.120000
    864    884     1   0.14233 265014.560000
    866    867     1   0.15375 251793.120000
    866    873     1   0.14233 265014.560000
    867    868     1   0.15375 251793.120000
    867    886     1   0.14647 272713.120000
    868    872     1   0.14233 265014.560000
    868    881     1   0.14316 258236.480000
    874    879     1   0.14233 265014.560000
    887    889     1   0.14619 275056.160000
    889    891     1   0.15375 251793.120000
    891    895     1   0.14647 272713.120000
    895    896     1   0.14647 272713.120000
    895    897     1   0.14647 272713.120000
    896    907     1   0.15375 251793.120000
    897    899     1   0.15375 251793.120000
    899    903     1   0.15241 261918.400000
    903    904     1   0.12183 533627.360000
    903    935     1   0.13400 406935.840000
    907    910     1   0.15241 261918.400000
    910    911     1   0.12183 533627.360000
    910    959     1   0.13400 406935.840000
    912    913     1   0.15375 251793.120000
    912    923     1   0.15375 251793.120000
    912    930     1   0.14316 258236.480000
    913    915     1   0.15375 251793.120000
    913    933     1   0.14233 265014.560000
    915    916     1   0.15375 251793.120000
    915    922     1   0.14233 265014.560000
    916    917     1   0.15375 251793.120000
    916    935     1   0.14647 272713.120000
    917    921     1   0.14233 265014.560000
    917    930     1   0.14316 258236.480000
    923    928     1   0.14233 265014.560000
    936    937     1   0.15375 251793.120000
    936    947     1   0.15375 251793.120000
    936    954     1   0.14316 258236.480000
    937    939     1   0.15375 251793.120000
    937    957     1   0.14233 265014.560000
    939    940     1   0.15375 251793.120000
    939    946     1   0.14233 265014.560000
    940    941     1   0.15375 251793.120000
    940    959     1   0.14647 272713.120000
    941    945     1   0.14233 265014.560000
    941    954     1   0.14316 258236.480000
    947    952     1   0.14233 265014.560000
    960    962     1   0.14619 275056.160000
    962    964     1   0.15375 251793.120000
    964    968     1   0.14647 272713.120000
    968    969     1   0.14647 272713.120000
    968    970     1   0.14647 272713.120000
    969    980     1   0.15375 251793.120000
    970    972     1   0.15375 251793.120000
    972    976     1   0.15241 261918.400000
    976    977     1   0.12183 533627.360000
    976   1008     1   0.13400 406935.840000
    980    983     1   0.15241 261918.400000
    983    984     1   0.12183 533627.360000
    983   1032     1   0.13400 406935.840000
    985    986     1   0.15375 251793.120000
    985    996     1   0.15375 251793.120000
    985   1003     1   0.14316 258236.480000
    986    988     1   0.15375 251793.120000
    986   1006     1   0.14233 265014.560000
    988    989     1   0.15375 251793.120000
    988    995     1   0.14233 265014.560000
    989    990     1   0.15375 251793.120000
    989   1008     1   0.14647 272713.120000
    990    994     1   0.14233 265014.560000
    990   1003     1   0.14316 258236.480000
    996   1001     1   0.14233 265014.560000
   1009   1010     1   0.15375 251793.120000
   1009   1020     1   0.15375 251793.120000
   1009   1027     1   0.14316 258236.480000
   1010   1012     1   0.15375 251793.120000
   1010   1030     1   0.14233 265014.560000
   1012   1013     1   0.15375 251793.120000
   1012   1019     1   0.14233 265014.560000
   1013   1014     1   0.15375 251793.120000
   1013   1032     1   0.14647 272713.120000
   1014   1018     1   0.14233 265014.560000
   1014   1027     1   0.14316 258236.480000
   1020   1025     1   0.14233 265014.560000
   1033   1035     1   0.14619 275056.160000
   1035   1037     1   0.15375 251793.120000
   1037   1041     1   0.14647 272713.120000
   1041   1042     1   0.14647 272713.120000
   1041   1043     1   0.14647 272713.120000
   1042   1053     1   0.15375 251793.120000
   1043   1045     1   0.15375 251793.120000
   1045   1049     1   0.15241 261918.400000
   1049   1050     1   0.12183 533627.360000
   1049   1081     1   0.13400 406935.840000
   1053   1056     1   0.15241 261918.400000
   1056   1057     1   0.12183 533627.360000
   1056   1105     1   0.13400 406935.840000
   1058   1059     1   0.15375 251793.120000
   1058   1069     1   0.15375 251793.120000
   1058   1076     1   0.14316 258236.480000
   1059   1061     1   0.15375 251793.120000
   1059   1079     1   0.14233 265014.560000
   1061   1062     1   0.15375 251793.120000
   1061   1068     1   0.14233 265014.560000
   1062   1063     1   0.15375 251793.120000
   1062   1081     1   0.14647 272713.120000
   1063   1067     1   0.14233 265014.560000
   1063   1076     1   0.14316 258236.480000
   1069   1074     1   0.14233 265014.560000
   1082   1083     1   0.15375 251793.120000
   1082   1093     1   0.15375 251793.120000
   1082   1100     1   0.14316 258236.480000
   1083   1085     1   0.15375 251793.120000
   1083   1103     1   0.14233 265014.560000
   1085   1086     1   0.15375 251793.120000
   1085   1092     1   0.14233 265014.560000
   1086   1087     1   0.15375 251793.120000
   1086   1105     1   0.14647 272713.120000
   1087   1091     1   0.14233 265014.560000
   1087   1100     1   0.14316 258236.480000
   1093   1098     1   0.14233 265014.560000
   1106   1108     1   0.14619 275056.160000
   1108   1110     1   0.15375 251793.120000
   1110   1114     1   0.14647 272713.120000
   1114   1115     1   0.14647 272713.120000
   1114   1116     1   0.14647 272713.120000
   1115   1126     1   0.15375 251793.120000
   1116   1118     1   0.15375 251793.120000
   1118   1122     1   0.15241 261918.400000
   1122   1123     1   0.12183 533627.360000
   1122   1154     1   0.13400 406935.840000
   1126   1129     1   0.15241 261918.400000
   1129   1130     1   0.12183 533627.360000
   1129   1178     1   0.13400 406935.840000
   1131   1132     1   0.15375 251793.120000
   1131   1142     1   0.15375 251793.120000
   1131   1149     1   0.14316 258236.480000
   1132   1134     1   0.15375 251793.120000
   1132   1152     1   0.14233 265014.560000
   1134   1135     1   0.15375 251793.120000
   1134   1141     1   0.14233 265014.560000
   1135   1136     1   0.15375 251793.120000
   1135   1154     1   0.14647 272713.120000
   1136   1140     1   0.14233 265014.560000
   1136   1149     1   0.14316 258236.480000
   1142   1147     1   0.14233 265014.560000
   1155   1156     1   0.15375 251793.120000
   1155   1166     1   0.15375 251793.120000
   1155   1173     1   0.14316 258236.480000
   1156   1158     1   0.15375 251793.120000
   1156   1176     1   0.14233 265014.560000
   1158   1159     1   0.15375 251793.120000
   1158   1165     1   0.14233 265014.560000
   1159   1160     1   0.15375 251793.120000
   1159   1178     1   0.14647 272713.120000
   1160   1164     1   0.14233 265014.560000
   1160   1173     1   0.14316 258236.480000
   1166   1171     1   0.14233 265014.560000
   1179   1181     1   0.14619 275056.160000
   1181   1183     1   0.15375 251793.120000
   1183   1187     1   0.14647 272713.120000
   1187   1188     1   0.14647 272713.120000
   1187   1189     1   0.14647 272713.120000
   1188   1199     1   0.15375 251793.120000
   1189   1191     1   0.15375 251793.120000
   1191   1195     1   0.15241 261918.400000
   1195   1196     1   0.12183 533627.360000
   1195   1227     1   0.13400 406935.840000
   1199   1202     1   0.15241 261918.400000
   1202   1203     1   0.12183 533627.360000
   1202   1251     1   0.13400 406935.840000
   1204   1205     1   0.15375 251793.120000
   1204   1215     1   0.15375 251793.120000
   1204   1222     1   0.14316 258236.480000
   1205   1207     1   0.15375 251793.120000
   1205   1225     1   0.14233 265014.560000
   1207   1208     1   0.15375 251793.120000
   1207   1214     1   0.14233 265014.560000
   1208   1209     1   0.15375 251793.120000
   1208   1227     1   0.14647 272713.120000
   1209   1213     1   0.14233 265014.560000
   1209   1222     1   0.14316 258236.480000
   1215   1220     1   0.14233 265014.560000
   1228   1229     1   0.15375 251793.120000
   1228   1239     1   0.15375 251793.120000
   1228   1246     1   0.14316 258236.480000
   1229   1231     1   0.15375 251793.120000
   1229   1249     1   0.14233 265014.560000
   1231   1232     1   0.15375 251793.120000
   1231   1238     1   0.14233 265014.560000
   1232   1233     1   0.15375 251793.120000
   1232   1251     1   0.14647 272713.120000
   1233   1237     1   0.14233 265014.560000
   1233   1246     1   0.14316 258236.480000
   1239   1244     1   0.14233 265014.560000
   1252   1254     1   0.14619 275056.160000
   1254   1256     1   0.15375 251793.120000
   1256   1260     1   0.14647 272713.120000
   1260   1261     1   0.14647 272713.120000
   1260   1262     1   0.14647 272713.120000
   1261   1272     1   0.15375 251793.120000
   1262   1264     1   0.15375 251793.120000
   1264   1268     1   0.15241 261918.400000
   1268   1269     1   0.12183 533627.360000
   1268   1300     1   0.13400 406935.840000
   1272   1275     1   0.15241 261918.400000
   1275   1276     1   0.12183 533627.360000
   1275   1324     1   0.13400 406935.840000
   1277   1278     1   0.15375 251793.120000
   1277   1288     1   0.15375 251793.120000
   1277   1295     1   0.14316 258236.480000
   1278   1280     1   0.15375 251793.120000
   1278   1298     1   0.14233 265014.560000
   1280   1281     1   0.15375 251793.120000
   1280   1287     1   0.14233 265014.560000
   1281   1282     1   0.15375 251793.120000
   1281   1300     1   0.14647 272713.120000
   1282   1286     1   0.14233 265014.560000
   1282   1295     1   0.14316 258236.480000
   1288   1293     1   0.14233 265014.560000
   1301   1302     1   0.15375 251793.120000
   1301   1312     1   0.15375 251793.120000
   1301   1319     1   0.14316 258236.480000
   1302   1304     1   0.15375 251793.120000
   1302   1322     1   0.14233 265014.560000
   1304   1305     1   0.15375 251793.120000
   1304   1311     1   0.14233 265014.560000
   1305   1306     1   0.15375 251793.120000
   1305   1324     1   0.14647 272713.120000
   1306   1310     1   0.14233 265014.560000
   1306   1319     1   0.14316 258236.480000
   1312   1317     1   0.14233 265014.560000
   1325   1327     1   0.14619 275056.160000
   1327   1329     1   0.15375 251793.120000
   1329   1333     1   0.14647 272713.120000
   1333   1334     1   0.14647 272713.120000
   1333   1335     1   0.14647 272713.120000
   1334   1345     1   0.15375 251793.120000
   1335   1337     1   0.15375 251793.120000
   1337   1341     1   0.15241 261918.400000
   1341   1342     1   0.12183 533627.360000
   1341   1373     1   0.13400 406935.840000
   1345   1348     1   0.15241 261918.400000
   1348   1349     1   0.12183 533627.360000
   1348   1397     1   0.13400 406935.840000
   1350   1351     1   0.15375 251793.120000
   1350   1361     1   0.15375 251793.120000
   1350   1368     1   0.14316 258236.480000
   1351   1353     1   0.15375 251793.120000
   1351   1371     1   0.14233 265014.560000
   1353   1354     1   0.15375 251793.120000
   1353   1360     1   0.14233 265014.560000
   1354   1355     1   0.15375 251793.120000
   1354   1373     1   0.14647 272713.120000
   1355   1359     1   0.14233 265014.560000
   1355   1368     1   0.14316 258236.480000
   1361   1366     1   0.14233 265014.560000
   1374   1375     1   0.15375 251793.120000
   1374   1385     1   0.15375 251793.120000
   1374   1392     1   0.14316 258236.480000
   1375   1377     1   0.15375 251793.120000
   1375   1395     1   0.14233 265014.560000
   1377   1378     1   0.15375 251793.120000
   1377   1384     1   0.14233 265014.560000
   1378   1379     1   0.15375 251793.120000
   1378   1397     1   0.14647 272713.120000
   1379   1383     1   0.14233 265014.560000
   1379   1392     1   0.14316 258236.480000
   1385   1390     1   0.14233 265014.560000
   1398   1400     1   0.14619 275056.160000
   1400   1402     1   0.15375 251793.120000
   1402   1406     1   0.14647 272713.120000
   1406   1407     1   0.14647 272713.120000
   1406   1408     1   0.14647 272713.120000
   1407   1418     1   0.15375 251793.120000
   1408   1410     1   0.15375 251793.120000
   1410   1414     1   0.15241 261918.400000
   1414   1415     1   0.12183 533627.360000
   1414   1446     1   0.13400 406935.840000
   1418   1421     1   0.15241 261918.400000
   1421   1422     1   0.12183 533627.360000
   1421   1470     1   0.13400 406935.840000
   1423   1424     1   0.15375 251793.120000
   1423   1434     1   0.15375 251793.120000
   1423   1441     1   0.14316 258236.480000
   1424   1426     1   0.15375 251793.120000
   1424   1444     1   0.14233 265014.560000
   1426   1427     1   0.15375 251793.120000
   1426   1433     1   0.14233 265014.560000
   1427   1428     1   0.15375 251793.120000
   1427   1446     1   0.14647 272713.120000
   1428   1432     1   0.14233 265014.560000
   1428   1441     1   0.14316 258236.480000
   1434   1439     1   0.14233 265014.560000
   1447   1448     1   0.15375 251793.120000
   1447   1458     1   0.15375 251793.120000
   1447   1465     1   0.14316 258236.480000
   1448   1450     1   0.15375 251793.120000
   1448   1468     1   0.14233 265014.560000
   1450   1451     1   0.15375 251793.120000
   1450   1457     1   0.14233 265014.560000
   1451   1452     1   0.15375 251793.120000
   1451   1470     1   0.14647 272713.120000
   1452   1456     1   0.14233 265014.560000
   1452   1465     1   0.14316 258236.480000
   1458   1463     1   0.14233 265014.560000
   1471   1473     1   0.14619 275056.160000
   1473   1475     1   0.15375 251793.120000
   1475   1479     1   0.14647 272713.120000
   1479   1480     1   0.14647 272713.120000
   1479   1481     1   0.14647 272713.120000
   1480   1491     1   0.15375 251793.120000
   1481   1483     1   0.15375 251793.120000
   1483   1487     1   0.15241 261918.400000
   1487   1488     1   0.12183 533627.360000
   1487   1519     1   0.13400 406935.840000
   1491   1494     1   0.15241 261918.400000
   1494   1495     1   0.12183 533627.360000
   1494   1543     1   0.13400 406935.840000
   1496   1497     1   0.15375 251793.120000
   1496   1507     1   0.15375 251793.120000
   1496   1514     1   0.14316 258236.480000
   1497   1499     1   0.15375 251793.120000
   1497   1517     1   0.14233 265014.560000
   1499   1500     1   0.15375 251793.120000
   1499   1506     1   0.14233 265014.560000
   1500   1501     1   0.15375 251793.120000
   1500   1519     1   0.14647 272713.120000
   1501   1505     1   0.14233 265014.560000
   1501   1514     1   0.14316 258236.480000
   1507   1512     1   0.14233 265014.560000
   1520   1521     1   0.15375 251793.120000
   1520   1531     1   0.15375 251793.120000
   1520   1538     1   0.14316 258236.480000
   1521   1523     1   0.15375 251793.120000
   1521   1541     1   0.14233 265014.560000
   1523   1524     1   0.15375 251793.120000
   1523   1530     1   0.14233 265014.560000
   1524   1525     1   0.15375 251793.120000
   1524   1543     1   0.14647 272713.120000
   1525   1529     1   0.14233 265014.560000
   1525   1538     1   0.14316 258236.480000
   1531   1536     1   0.14233 265014.560000
   1544   1546     1   0.14619 275056.160000
   1546   1548     1   0.15375 251793.120000
   1548   1552     1   0.14647 272713.120000
   1552   1553     1   0.14647 272713.120000
   1552   1554     1   0.14647 272713.120000
   1553   1564     1   0.15375 251793.120000
   1554   1556     1   0.15375 251793.120000
   1556   1560     1   0.15241 261918.400000
   1560   1561     1   0.12183 533627.360000
   1560   1592     1   0.13400 406935.840000
   1564   1567     1   0.15241 261918.400000
   1567   1568     1   0.12183 533627.360000
   1567   1616     1   0.13400 406935.840000
   1569   1570     1   0.15375 251793.120000
   1569   1580     1   0.15375 251793.120000
   1569   1587     1   0.14316 258236.480000
   1570   1572     1   0.15375 251793.120000
   1570   1590     1   0.14233 265014.560000
   1572   1573     1   0.15375 251793.120000
   1572   1579     1   0.14233 265014.560000
   1573   1574     1   0.15375 251793.120000
   1573   1592     1   0.14647 272713.120000
   1574   1578     1   0.14233 265014.560000
   1574   1587     1   0.14316 258236.480000
   1580   1585     1   0.14233 265014.560000
   1593   1594     1   0.15375 251793.120000
   1593   1604     1   0.15375 251793.120000
   1593   1611     1   0.14316 258236.480000
   1594   1596     1   0.15375 251793.120000
   1594   1614     1   0.14233 265014.560000
   1596   1597     1   0.15375 251793.120000
   1596   1603     1   0.14233 265014.560000
   1597   1598     1   0.15375 251793.120000
   1597   1616     1   0.14647 272713.120000
   1598   1602     1   0.14233 265014.560000
   1598   1611     1   0.14316 258236.480000
   1604   1609     1   0.14233 265014.560000
   1617   1619     1   0.14619 275056.160000
   1619   1621     1   0.15375 251793.120000
   1621   1625     1   0.14647 272713.120000
   1625   1626     1   0.14647 272713.120000
   1625   1627     1   0.14647 272713.120000
   1626   1637     1   0.15375 251793.120000
   1627   1629     1   0.15375 251793.120000
   1629   1633     1   0.15241 261918.400000
   1633   1634     1   0.12183 533627.360000
   1633   1665     1   0.13400 406935.840000
   1637   1640     1   0.15241 261918.400000
   1640   1641     1   0.12183 533627.360000
   1640   1689     1   0.13400 406935.840000
   1642   1643     1   0.15375 251793.120000
   1642   1653     1   0.15375 251793.120000
   1642   1660     1   0.14316 258236.480000
   1643   1645     1   0.15375 251793.120000
   1643   1663     1   0.14233 265014.560000
   1645   1646     1   0.15375 251793.120000
   1645   1652     1   0.14233 265014.560000
   1646   1647     1   0.15375 251793.120000
   1646   1665     1   0.14647 272713.120000
   1647   1651     1   0.14233 265014.560000
   1647   1660     1   0.14316 258236.480000
   1653   1658     1   0.14233 265014.560000
   1666   1667     1   0.15375 251793.120000
   1666   1677     1   0.15375 251793.120000
   1666   1684     1   0.14316 258236.480000
   1667   1669     1   0.15375 251793.120000
   1667   1687     1   0.14233 265014.560000
   1669   1670     1   0.15375 251793.120000
   1669   1676     1   0.14233 265014.560000
   1670   1671     1   0.15375 251793.120000
   1670   1689     1   0.14647 272713.120000
   1671   1675     1   0.14233 265014.560000
   1671   1684     1   0.14316 258236.480000
   1677   1682     1   0.14233 265014.560000
   1690   1692     1   0.14619 275056.160000
   1692   1694     1   0.15375 251793.120000
   1694   1698     1   0.14647 272713.120000
   1698   1699     1   0.14647 272713.120000
   1698   1700     1   0.14647 272713.120000
   1699   1710     1   0.15375 251793.120000
   1700   1702     1   0.15375 251793.120000
   1702   1706     1   0.15241 261918.400000
   1706   1707     1   0.12183 533627.360000
   1706   1738     1   0.13400 406935.840000
   1710   1713     1   0.15241 261918.400000
   1713   1714     1   0.12183 533627.360000
   1713   1762     1   0.13400 406935.840000
   1715   1716     1   0.15375 251793.120000
   1715   1726     1   0.15375 251793.120000
   1715   1733     1   0.14316 258236.480000
   1716   1718     1   0.15375 251793.120000
   1716   1736     1   0.14233 265014.560000
   1718   1719     1   0.15375 251793.120000
   1718   1725     1   0.14233 265014.560000
   1719   1720     1   0.15375 251793.120000
   1719   1738     1   0.14647 272713.120000
   1720   1724     1   0.14233 265014.560000
   1720   1733     1   0.14316 258236.480000
   1726   1731     1   0.14233 265014.560000
   1739   1740     1   0.15375 251793.120000
   1739   1750     1   0.15375 251793.120000
   1739   1757     1   0.14316 258236.480000
   1740   1742     1   0.15375 251793.120000
   1740   1760     1   0.14233 265014.560000
   1742   1743     1   0.15375 251793.120000
   1742   1749     1   0.14233 265014.560000
   1743   1744     1   0.15375 251793.120000
   1743   1762     1   0.14647 272713.120000
   1744   1748     1   0.14233 265014.560000
   1744   1757     1   0.14316 258236.480000
   1750   1755     1   0.14233 265014.560000
   1763   1765     1   0.14619 275056.160000
   1765   1767     1   0.15375 251793.120000
   1767   1771     1   0.14647 272713.120000
   1771   1772     1   0.14647 272713.120000
   1771   1773     1   0.14647 272713.120000
   1772   1783     1   0.15375 251793.120000
   1773   1775     1   0.15375 251793.120000
   1775   1779     1   0.15241 261918.400000
   1779   1780     1   0.12183 533627.360000
   1779   1811     1   0.13400 406935.840000
   1783   1786     1   0.15241 261918.400000
   1786   1787     1   0.12183 533627.360000
   1786   1835     1   0.13400 406935.840000
   1788   1789     1   0.15375 251793.120000
   1788   1799     1   0.15375 251793.120000
   1788   1806     1   0.14316 258236.480000
   1789   1791     1   0.15375 251793.120000
   1789   1809     1   0.14233 265014.560000
   1791   1792     1   0.15375 251793.120000
   1791   1798     1   0.14233 265014.560000
   1792   1793     1   0.15375 251793.120000
   1792   1811     1   0.14647 272713.120000
   1793   1797     1   0.14233 265014.560000
   1793   1806     1   0.14316 258236.480000
   1799   1804     1   0.14233 265014.560000
   1812   1813     1   0.15375 251793.120000
   1812   1823     1   0.15375 251793.120000
   1812   1830     1   0.14316 258236.480000
   1813   1815     1   0.15375 251793.120000
   1813   1833     1   0.14233 265014.560000
   1815   1816     1   0.15375 251793.120000
   1815   1822     1   0.14233 265014.560000
   1816   1817     1   0.15375 251793.120000
   1816   1835     1   0.14647 272713.120000
   1817   1821     1   0.14233 265014.560000
   1817   1830     1   0.14316 258236.480000
   1823   1828     1   0.14233 265014.560000
   1836   1838     1   0.14619 275056.160000
   1838   1840     1   0.15375 251793.120000
   1840   1844     1   0.14647 272713.120000
   1844   1845     1   0.14647 272713.120000
   1844   1846     1   0.14647 272713.120000
   1845   1856     1   0.15375 251793.120000
   1846   1848     1   0.15375 251793.120000
   1848   1852     1   0.15241 261918.400000
   1852   1853     1   0.12183 533627.360000
   1852   1884     1   0.13400 406935.840000
   1856   1859     1   0.15241 261918.400000
   1859   1860     1   0.12183 533627.360000
   1859   1908     1   0.13400 406935.840000
   1861   1862     1   0.15375 251793.120000
   1861   1872     1   0.15375 251793.120000
   1861   1879     1   0.14316 258236.480000
   1862   1864     1   0.15375 251793.120000
   1862   1882     1   0.14233 265014.560000
   1864   1865     1   0.15375 251793.120000
   1864   1871     1   0.14233 265014.560000
   1865   1866     1   0.15375 251793.120000
   1865   1884     1   0.14647 272713.120000
   1866   1870     1   0.14233 265014.560000
   1866   1879     1   0.14316 258236.480000
   1872   1877     1   0.14233 265014.560000
   1885   1886     1   0.15375 251793.120000
   1885   1896     1   0.15375 251793.120000
   1885   1903     1   0.14316 258236.480000
   1886   1888     1   0.15375 251793.120000
   1886   1906     1   0.14233 265014.560000
   1888   1889     1   0.15375 251793.120000
   1888   1895     1   0.14233 265014.560000
   1889   1890     1   0.15375 251793.120000
   1889   1908     1   0.14647 272713.120000
   1890   1894     1   0.14233 265014.560000
   1890   1903     1   0.14316 258236.480000
   1896   1901     1   0.14233 265014.560000
   1909   1911     1   0.14619 275056.160000
   1911   1913     1   0.15375 251793.120000
   1913   1917     1   0.14647 272713.120000
   1917   1918     1   0.14647 272713.120000
   1917   1919     1   0.14647 272713.120000
   1918   1929     1   0.15375 251793.120000
   1919   1921     1   0.15375 251793.120000
   1921   1925     1   0.15241 261918.400000
   1925   1926     1   0.12183 533627.360000
   1925   1957     1   0.13400 406935.840000
   1929   1932     1   0.15241 261918.400000
   1932   1933     1   0.12183 533627.360000
   1932   1981     1   0.13400 406935.840000
   1934   1935     1   0.15375 251793.120000
   1934   1945     1   0.15375 251793.120000
   1934   1952     1   0.14316 258236.480000
   1935   1937     1   0.15375 251793.120000
   1935   1955     1   0.14233 265014.560000
   1937   1938     1   0.15375 251793.120000
   1937   1944     1   0.14233 265014.560000
   1938   1939     1   0.15375 251793.120000
   1938   1957     1   0.14647 272713.120000
   1939   1943     1   0.14233 265014.560000
   1939   1952     1   0.14316 258236.480000
   1945   1950     1   0.14233 265014.560000
   1958   1959     1   0.15375 251793.120000
   1958   1969     1   0.15375 251793.120000
   1958   1976     1   0.14316 258236.480000
   1959   1961     1   0.15375 251793.120000
   1959   1979     1   0.14233 265014.560000
   1961   1962     1   0.15375 251793.120000
   1961   1968     1   0.14233 265014.560000
   1962   1963     1   0.15375 251793.120000
   1962   1981     1   0.14647 272713.120000
   1963   1967     1   0.14233 265014.560000
   1963   1976     1   0.14316 258236.480000
   1969   1974     1   0.14233 265014.560000
   1982   1984     1   0.14619 275056.160000
   1984   1986     1   0.15375 251793.120000
   1986   1990     1   0.14647 272713.120000
   1990   1991     1   0.14647 272713.120000
   1990   1992     1   0.14647 272713.120000
   1991   2002     1   0.15375 251793.120000
   1992   1994     1   0.15375 251793.120000
   1994   1998     1   0.15241 261918.400000
   1998   1999     1   0.12183 533627.360000
   1998   2030     1   0.13400 406935.840000
   2002   2005     1   0.15241 261918.400000
   2005   2006     1   0.12183 533627.360000
   2005   2054     1   0.13400 406935.840000
   2007   2008     1   0.15375 251793.120000
   2007   2018     1   0.15375 251793.120000
   2007   2025     1   0.14316 258236.480000
   2008   2010     1   0.15375 251793.120000
   2008   2028     1   0.14233 265014.560000
   2010   2011     1   0.15375 251793.120000
   2010   2017     1   0.14233 265014.560000
   2011   2012     1   0.15375 251793.120000
   2011   2030     1   0.14647 272713.120000
   2012   2016     1   0.14233 265014.560000
   2012   2025     1   0.14316 258236.480000
   2018   2023     1   0.14233 265014.560000
   2031   2032     1   0.15375 251793.120000
   2031   2042     1   0.15375 251793.120000
   2031   2049     1   0.14316 258236.480000
   2032   2034     1   0.15375 251793.120000
   2032   2052     1   0.14233 265014.560000
   2034   2035     1   0.15375 251793.120000
   2034   2041     1   0.14233 265014.560000
   2035   2036     1   0.15375 251793.120000
   2035   2054     1   0.14647 272713.120000
   2036   2040     1   0.14233 265014.560000
   2036   2049     1   0.14316 258236.480000
   2042   2047     1   0.14233 265014.560000
   2055   2057     1   0.14619 275056.160000
   2057   2059     1   0.15375 251793.120000
   2059   2063     1   0.14647 272713.120000
   2063   2064     1   0.14647 272713.120000
   2063   2065     1   0.14647 272713.120000
   2064   2075     1   0.15375 251793.120000
   2065   2067     1   0.15375 251793.120000
   2067   2071     1   0.15241 261918.400000
   2071   2072     1   0.12183 533627.360000
   2071   2103     1   0.13400 406935.840000
   2075   2078     1   0.15241 261918.400000
   2078   2079     1   0.12183 533627.360000
   2078   2127     1   0.13400 406935.840000
   2080   2081     1   0.15375 251793.120000
   2080   2091     1   0.15375 251793.120000
   2080   2098     1   0.14316 258236.480000
   2081   2083     1   0.15375 251793.120000
   2081   2101     1   0.14233 265014.560000
   2083   2084     1   0.15375 251793.120000
   2083   2090     1   0.14233 265014.560000
   2084   2085     1   0.15375 251793.120000
   2084   2103     1   0.14647 272713.120000
   2085   2089     1   0.14233 265014.560000
   2085   2098     1   0.14316 258236.480000
   2091   2096     1   0.14233 265014.560000
   2104   2105     1   0.15375 251793.120000
   2104   2115     1   0.15375 251793.120000
   2104   2122     1   0.14316 258236.480000
   2105   2107     1   0.15375 251793.120000
   2105   2125     1   0.14233 265014.560000
   2107   2108     1   0.15375 251793.120000
   2107   2114     1   0.14233 265014.560000
   2108   2109     1   0.15375 251793.120000
   2108   2127     1   0.14647 272713.120000
   2109   2113     1   0.14233 265014.560000
   2109   2122     1   0.14316 258236.480000
   2115   2120     1   0.14233 265014.560000
   2128   2130     1   0.14619 275056.160000
   2130   2132     1   0.15375 251793.120000
   2132   2136     1   0.14647 272713.120000
   2136   2137     1   0.14647 272713.120000
   2136   2138     1   0.14647 272713.120000
   2137   2148     1   0.15375 251793.120000
   2138   2140     1   0.15375 251793.120000
   2140   2144     1   0.15241 261918.400000
   2144   2145     1   0.12183 533627.360000
   2144   2176     1   0.13400 406935.840000
   2148   2151     1   0.15241 261918.400000
   2151   2152     1   0.12183 533627.360000
   2151   2200     1   0.13400 406935.840000
   2153   2154     1   0.15375 251793.120000
   2153   2164     1   0.15375 251793.120000
   2153   2171     1   0.14316 258236.480000
   2154   2156     1   0.15375 251793.120000
   2154   2174     1   0.14233 265014.560000
   2156   2157     1   0.15375 251793.120000
   2156   2163     1   0.14233 265014.560000
   2157   2158     1   0.15375 251793.120000
   2157   2176     1   0.14647 272713.120000
   2158   2162     1   0.14233 265014.560000
   2158   2171     1   0.14316 258236.480000
   2164   2169     1   0.14233 265014.560000
   2177   2178     1   0.15375 251793.120000
   2177   2188     1   0.15375 251793.120000
   2177   2195     1   0.14316 258236.480000
   2178   2180     1   0.15375 251793.120000
   2178   2198     1   0.14233 265014.560000
   2180   2181     1   0.15375 251793.120000
   2180   2187     1   0.14233 265014.560000
   2181   2182     1   0.15375 251793.120000
   2181   2200     1   0.14647 272713.120000
   2182   2186     1   0.14233 265014.560000
   2182   2195     1   0.14316 258236.480000
   2188   2193     1   0.14233 265014.560000
   2201   2203     1   0.14619 275056.160000
   2203   2205     1   0.15375 251793.120000
   2205   2209     1   0.14647 272713.120000
   2209   2210     1   0.14647 272713.120000
   2209   2211     1   0.14647 272713.120000
   2210   2221     1   0.15375 251793.120000
   2211   2213     1   0.15375 251793.120000
   2213   2217     1   0.15241 261918.400000
   2217   2218     1   0.12183 533627.360000
   2217   2249     1   0.13400 406935.840000
   2221   2224     1   0.15241 261918.400000
   2224   2225     1   0.12183 533627.360000
   2224   2273     1   0.13400 406935.840000
   2226   2227     1   0.15375 251793.120000
   2226   2237     1   0.15375 251793.120000
   2226   2244     1   0.14316 258236.480000
   2227   2229     1   0.15375 251793.120000
   2227   2247     1   0.14233 265014.560000
   2229   2230     1   0.15375 251793.120000
   2229   2236     1   0.14233 265014.560000
   2230   2231     1   0.15375 251793.120000
   2230   2249     1   0.14647 272713.120000
   2231   2235     1   0.14233 265014.560000
   2231   2244     1   0.14316 258236.480000
   2237   2242     1   0.14233 265014.560000
   2250   2251     1   0.15375 251793.120000
   2250   2261     1   0.15375 251793.120000
   2250   2268     1   0.14316 258236.480000
   2251   2253     1   0.15375 251793.120000
   2251   2271     1   0.14233 265014.560000
   2253   2254     1   0.15375 251793.120000
   2253   2260     1   0.14233 265014.560000
   2254   2255     1   0.15375 251793.120000
   2254   2273     1   0.14647 272713.120000
   2255   2259     1   0.14233 265014.560000
   2255   2268     1   0.14316 258236.480000
   2261   2266     1   0.14233 265014.560000
   2274   2276     1   0.14619 275056.160000
   2276   2278     1   0.15375 251793.120000
   2278   2282     1   0.14647 272713.120000
   2282   2283     1   0.14647 272713.120000
   2282   2284     1   0.14647 272713.120000
   2283   2294     1   0.15375 251793.120000
   2284   2286     1   0.15375 251793.120000
   2286   2290     1   0.15241 261918.400000
   2290   2291     1   0.12183 533627.360000
   2290   2322     1   0.13400 406935.840000
   2294   2297     1   0.15241 261918.400000
   2297   2298     1   0.12183 533627.360000
   2297   2346     1   0.13400 406935.840000
   2299   2300     1   0.15375 251793.120000
   2299   2310     1   0.15375 251793.120000
   2299   2317     1   0.14316 258236.480000
   2300   2302     1   0.15375 251793.120000
   2300   2320     1   0.14233 265014.560000
   2302   2303     1   0.15375 251793.120000
   2302   2309     1   0.14233 265014.560000
   2303   2304     1   0.15375 251793.120000
   2303   2322     1   0.14647 272713.120000
   2304   2308     1   0.14233 265014.560000
   2304   2317     1   0.14316 258236.480000
   2310   2315     1   0.14233 265014.560000
   2323   2324     1   0.15375 251793.120000
   2323   2334     1   0.15375 251793.120000
   2323   2341     1   0.14316 258236.480000
   2324   2326     1   0.15375 251793.120000
   2324   2344     1   0.14233 265014.560000
   2326   2327     1   0.15375 251793.120000
   2326   2333     1   0.14233 265014.560000
   2327   2328     1   0.15375 251793.120000
   2327   2346     1   0.14647 272713.120000
   2328   2332     1   0.14233 265014.560000
   2328   2341     1   0.14316 258236.480000
   2334   2339     1   0.14233 265014.560000
   2347   2349     1   0.14619 275056.160000
   2349   2351     1   0.15375 251793.120000
   2351   2355     1   0.14647 272713.120000
   2355   2356     1   0.14647 272713.120000
   2355   2357     1   0.14647 272713.120000
   2356   2367     1   0.15375 251793.120000
   2357   2359     1   0.15375 251793.120000
   2359   2363     1   0.15241 261918.400000
   2363   2364     1   0.12183 533627.360000
   2363   2395     1   0.13400 406935.840000
   2367   2370     1   0.15241 261918.400000
   2370   2371     1   0.12183 533627.360000
   2370   2419     1   0.13400 406935.840000
   2372   2373     1   0.15375 251793.120000
   2372   2383     1   0.15375 251793.120000
   2372   2390     1   0.14316 258236.480000
   2373   2375     1   0.15375 251793.120000
   2373   2393     1   0.14233 265014.560000
   2375   2376     1   0.15375 251793.120000
   2375   2382     1   0.14233 265014.560000
   2376   2377     1   0.15375 251793.120000
   2376   2395     1   0.14647 272713.120000
   2377   2381     1   0.14233 265014.560000
   2377   2390     1   0.14316 258236.480000
   2383   2388     1   0.14233 265014.560000
   2396   2397     1   0.15375 251793.120000
   2396   2407     1   0.15375 251793.120000
   2396   2414     1   0.14316 258236.480000
   2397   2399     1   0.15375 251793.120000
   2397   2417     1   0.14233 265014.560000
   2399   2400     1   0.15375 251793.120000
   2399   2406     1   0.14233 265014.560000
   2400   2401     1   0.15375 251793.120000
   2400   2419     1   0.14647 272713.120000
   2401   2405     1   0.14233 265014.560000
   2401   2414     1   0.14316 258236.480000
   2407   2412     1   0.14233 265014.560000
   2420   2422     1   0.14619 275056.160000
   2422   2424     1   0.15375 251793.120000
   2424   2428     1   0.14647 272713.120000
   2428   2429     1   0.14647 272713.120000
   2428   2430     1   0.14647 272713.120000
   2429   2440     1   0.15375 251793.120000
   2430   2432     1   0.15375 251793.120000
   2432   2436     1   0.15241 261918.400000
   2436   2437     1   0.12183 533627.360000
   2436   2468     1   0.13400 406935.840000
   2440   2443     1   0.15241 261918.400000
   2443   2444     1   0.12183 533627.360000
   2443   2492     1   0.13400 406935.840000
   2445   2446     1   0.15375 251793.120000
   2445   2456     1   0.15375 251793.120000
   2445   2463     1   0.14316 258236.480000
   2446   2448     1   0.15375 251793.120000
   2446   2466     1   0.14233 265014.560000
   2448   2449     1   0.15375 251793.120000
   2448   2455     1   0.14233 265014.560000
   2449   2450     1   0.15375 251793.120000
   2449   2468     1   0.14647 272713.120000
   2450   2454     1   0.14233 265014.560000
   2450   2463     1   0.14316 258236.480000
   2456   2461     1   0.14233 265014.560000
   2469   2470     1   0.15375 251793.120000
   2469   2480     1   0.15375 251793.120000
   2469   2487     1   0.14316 258236.480000
   2470   2472     1   0.15375 251793.120000
   2470   2490     1   0.14233 265014.560000
   2472   2473     1   0.15375 251793.120000
   2472   2479     1   0.14233 265014.560000
   2473   2474     1   0.15375 251793.120000
   2473   2492     1   0.14647 272713.120000
   2474   2478     1   0.14233 265014.560000
   2474   2487     1   0.14316 258236.480000
   2480   2485     1   0.14233 265014.560000
   2493   2495     1   0.14619 275056.160000
   2495   2497     1   0.15375 251793.120000
   2497   2501     1   0.14647 272713.120000
   2501   2502     1   0.14647 272713.120000
   2501   2503     1   0.14647 272713.120000
   2502   2513     1   0.15375 251793.120000
   2503   2505     1   0.15375 251793.120000
   2505   2509     1   0.15241 261918.400000
   2509   2510     1   0.12183 533627.360000
   2509   2541     1   0.13400 406935.840000
   2513   2516     1   0.15241 261918.400000
   2516   2517     1   0.12183 533627.360000
   2516   2565     1   0.13400 406935.840000
   2518   2519     1   0.15375 251793.120000
   2518   2529     1   0.15375 251793.120000
   2518   2536     1   0.14316 258236.480000
   2519   2521     1   0.15375 251793.120000
   2519   2539     1   0.14233 265014.560000
   2521   2522     1   0.15375 251793.120000
   2521   2528     1   0.14233 265014.560000
   2522   2523     1   0.15375 251793.120000
   2522   2541     1   0.14647 272713.120000
   2523   2527     1   0.14233 265014.560000
   2523   2536     1   0.14316 258236.480000
   2529   2534     1   0.14233 265014.560000
   2542   2543     1   0.15375 251793.120000
   2542   2553     1   0.15375 251793.120000
   2542   2560     1   0.14316 258236.480000
   2543   2545     1   0.15375 251793.120000
   2543   2563     1   0.14233 265014.560000
   2545   2546     1   0.15375 251793.120000
   2545   2552     1   0.14233 265014.560000
   2546   2547     1   0.15375 251793.120000
   2546   2565     1   0.14647 272713.120000
   2547   2551     1   0.14233 265014.560000
   2547   2560     1   0.14316 258236.480000
   2553   2558     1   0.14233 265014.560000
   2566   2568     1   0.14619 275056.160000
   2568   2570     1   0.15375 251793.120000
   2570   2574     1   0.14647 272713.120000
   2574   2575     1   0.14647 272713.120000
   2574   2576     1   0.14647 272713.120000
   2575   2586     1   0.15375 251793.120000
   2576   2578     1   0.15375 251793.120000
   2578   2582     1   0.15241 261918.400000
   2582   2583     1   0.12183 533627.360000
   2582   2614     1   0.13400 406935.840000
   2586   2589     1   0.15241 261918.400000
   2589   2590     1   0.12183 533627.360000
   2589   2638     1   0.13400 406935.840000
   2591   2592     1   0.15375 251793.120000
   2591   2602     1   0.15375 251793.120000
   2591   2609     1   0.14316 258236.480000
   2592   2594     1   0.15375 251793.120000
   2592   2612     1   0.14233 265014.560000
   2594   2595     1   0.15375 251793.120000
   2594   2601     1   0.14233 265014.560000
   2595   2596     1   0.15375 251793.120000
   2595   2614     1   0.14647 272713.120000
   2596   2600     1   0.14233 265014.560000
   2596   2609     1   0.14316 258236.480000
   2602   2607     1   0.14233 265014.560000
   2615   2616     1   0.15375 251793.120000
   2615   2626     1   0.15375 251793.120000
   2615   2633     1   0.14316 258236.480000
   2616   2618     1   0.15375 251793.120000
   2616   2636     1   0.14233 265014.560000
   2618   2619     1   0.15375 251793.120000
   2618   2625     1   0.14233 265014.560000
   2619   2620     1   0.15375 251793.120000
   2619   2638     1   0.14647 272713.120000
   2620   2624     1   0.14233 265014.560000
   2620   2633     1   0.14316 258236.480000
   2626   2631     1   0.14233 265014.560000
   2639   2641     1   0.14619 275056.160000
   2641   2643     1   0.15375 251793.120000
   2643   2647     1   0.14647 272713.120000
   2647   2648     1   0.14647 272713.120000
   2647   2649     1   0.14647 272713.120000
   2648   2659     1   0.15375 251793.120000
   2649   2651     1   0.15375 251793.120000
   2651   2655     1   0.15241 261918.400000
   2655   2656     1   0.12183 533627.360000
   2655   2687     1   0.13400 406935.840000
   2659   2662     1   0.15241 261918.400000
   2662   2663     1   0.12183 533627.360000
   2662   2711     1   0.13400 406935.840000
   2664   2665     1   0.15375 251793.120000
   2664   2675     1   0.15375 251793.120000
   2664   2682     1   0.14316 258236.480000
   2665   2667     1   0.15375 251793.120000
   2665   2685     1   0.14233 265014.560000
   2667   2668     1   0.15375 251793.120000
   2667   2674     1   0.14233 265014.560000
   2668   2669     1   0.15375 251793.120000
   2668   2687     1   0.14647 272713.120000
   2669   2673     1   0.14233 265014.560000
   2669   2682     1   0.14316 258236.480000
   2675   2680     1   0.14233 265014.560000
   2688   2689     1   0.15375 251793.120000
   2688   2699     1   0.15375 251793.120000
   2688   2706     1   0.14316 258236.480000
   2689   2691     1   0.15375 251793.120000
   2689   2709     1   0.14233 265014.560000
   2691   2692     1   0.15375 251793.120000
   2691   2698     1   0.14233 265014.560000
   2692   2693     1   0.15375 251793.120000
   2692   2711     1   0.14647 272713.120000
   2693   2697     1   0.14233 265014.560000
   2693   2706     1   0.14316 258236.480000
   2699   2704     1   0.14233 265014.560000
   2712   2714     1   0.14619 275056.160000
   2714   2716     1   0.15375 251793.120000
   2716   2720     1   0.14647 272713.120000
   2720   2721     1   0.14647 272713.120000
   2720   2722     1   0.14647 272713.120000
   2721   2732     1   0.15375 251793.120000
   2722   2724     1   0.15375 251793.120000
   2724   2728     1   0.15241 261918.400000
   2728   2729     1   0.12183 533627.360000
   2728   2760     1   0.13400 406935.840000
   2732   2735     1   0.15241 261918.400000
   2735   2736     1   0.12183 533627.360000
   2735   2784     1   0.13400 406935.840000
   2737   2738     1   0.15375 251793.120000
   2737   2748     1   0.15375 251793.120000
   2737   2755     1   0.14316 258236.480000
   2738   2740     1   0.15375 251793.120000
   2738   2758     1   0.14233 265014.560000
   2740   2741     1   0.15375 251793.120000
   2740   2747     1   0.14233 265014.560000
   2741   2742     1   0.15375 251793.120000
   2741   2760     1   0.14647 272713.120000
   2742   2746     1   0.14233 265014.560000
   2742   2755     1   0.14316 258236.480000
   2748   2753     1   0.14233 265014.560000
   2761   2762     1   0.15375 251793.120000
   2761   2772     1   0.15375 251793.120000
   2761   2779     1   0.14316 258236.480000
   2762   2764     1   0.15375 251793.120000
   2762   2782     1   0.14233 265014.560000
   2764   2765     1   0.15375 251793.120000
   2764   2771     1   0.14233 265014.560000
   2765   2766     1   0.15375 251793.120000
   2765   2784     1   0.14647 272713.120000
   2766   2770     1   0.14233 265014.560000
   2766   2779     1   0.14316 258236.480000
   2772   2777     1   0.14233 265014.560000
   2785   2787     1   0.14619 275056.160000
   2787   2789     1   0.15375 251793.120000
   2789   2793     1   0.14647 272713.120000
   2793   2794     1   0.14647 272713.120000
   2793   2795     1   0.14647 272713.120000
   2794   2805     1   0.15375 251793.120000
   2795   2797     1   0.15375 251793.120000
   2797   2801     1   0.15241 261918.400000
   2801   2802     1   0.12183 533627.360000
   2801   2833     1   0.13400 406935.840000
   2805   2808     1   0.15241 261918.400000
   2808   2809     1   0.12183 533627.360000
   2808   2857     1   0.13400 406935.840000
   2810   2811     1   0.15375 251793.120000
   2810   2821     1   0.15375 251793.120000
   2810   2828     1   0.14316 258236.480000
   2811   2813     1   0.15375 251793.120000
   2811   2831     1   0.14233 265014.560000
   2813   2814     1   0.15375 251793.120000
   2813   2820     1   0.14233 265014.560000
   2814   2815     1   0.15375 251793.120000
   2814   2833     1   0.14647 272713.120000
   2815   2819     1   0.14233 265014.560000
   2815   2828     1   0.14316 258236.480000
   2821   2826     1   0.14233 265014.560000
   2834   2835     1   0.15375 251793.120000
   2834   2845     1   0.15375 251793.120000
   2834   2852     1   0.14316 258236.480000
   2835   2837     1   0.15375 251793.120000
   2835   2855     1   0.14233 265014.560000
   2837   2838     1   0.15375 251793.120000
   2837   2844     1   0.14233 265014.560000
   2838   2839     1   0.15375 251793.120000
   2838   2857     1   0.14647 272713.120000
   2839   2843     1   0.14233 265014.560000
   2839   2852     1   0.14316 258236.480000
   2845   2850     1   0.14233 265014.560000
   2858   2860     1   0.14619 275056.160000
   2860   2862     1   0.15375 251793.120000
   2862   2866     1   0.14647 272713.120000
   2866   2867     1   0.14647 272713.120000
   2866   2868     1   0.14647 272713.120000
   2867   2878     1   0.15375 251793.120000
   2868   2870     1   0.15375 251793.120000
   2870   2874     1   0.15241 261918.400000
   2874   2875     1   0.12183 533627.360000
   2874   2906     1   0.13400 406935.840000
   2878   2881     1   0.15241 261918.400000
   2881   2882     1   0.12183 533627.360000
   2881   2930     1   0.13400 406935.840000
   2883   2884     1   0.15375 251793.120000
   2883   2894     1   0.15375 251793.120000
   2883   2901     1   0.14316 258236.480000
   2884   2886     1   0.15375 251793.120000
   2884   2904     1   0.14233 265014.560000
   2886   2887     1   0.15375 251793.120000
   2886   2893     1   0.14233 265014.560000
   2887   2888     1   0.15375 251793.120000
   2887   2906     1   0.14647 272713.120000
   2888   2892     1   0.14233 265014.560000
   2888   2901     1   0.14316 258236.480000
   2894   2899     1   0.14233 265014.560000
   2907   2908     1   0.15375 251793.120000
   2907   2918     1   0.15375 251793.120000
   2907   2925     1   0.14316 258236.480000
   2908   2910     1   0.15375 251793.120000
   2908   2928     1   0.14233 265014.560000
   2910   2911     1   0.15375 251793.120000
   2910   2917     1   0.14233 265014.560000
   2911   2912     1   0.15375 251793.120000
   2911   2930     1   0.14647 272713.120000
   2912   2916     1   0.14233 265014.560000
   2912   2925     1   0.14316 258236.480000
   2918   2923     1   0.14233 265014.560000
   2931   2933     1   0.14619 275056.160000
   2933   2935     1   0.15375 251793.120000
   2935   2939     1   0.14647 272713.120000
   2939   2940     1   0.14647 272713.120000
   2939   2941     1   0.14647 272713.120000
   2940   2951     1   0.15375 251793.120000
   2941   2943     1   0.15375 251793.120000
   2943   2947     1   0.15241 261918.400000
   2947   2948     1   0.12183 533627.360000
   2947   2979     1   0.13400 406935.840000
   2951   2954     1   0.15241 261918.400000
   2954   2955     1   0.12183 533627.360000
   2954   3003     1   0.13400 406935.840000
   2956   2957     1   0.15375 251793.120000
   2956   2967     1   0.15375 251793.120000
   2956   2974     1   0.14316 258236.480000
   2957   2959     1   0.15375 251793.120000
   2957   2977     1   0.14233 265014.560000
   2959   2960     1   0.15375 251793.120000
   2959   2966     1   0.14233 265014.560000
   2960   2961     1   0.15375 251793.120000
   2960   2979     1   0.14647 272713.120000
   2961   2965     1   0.14233 265014.560000
   2961   2974     1   0.14316 258236.480000
   2967   2972     1   0.14233 265014.560000
   2980   2981     1   0.15375 251793.120000
   2980   2991     1   0.15375 251793.120000
   2980   2998     1   0.14316 258236.480000
   2981   2983     1   0.15375 251793.120000
   2981   3001     1   0.14233 265014.560000
   2983   2984     1   0.15375 251793.120000
   2983   2990     1   0.14233 265014.560000
   2984   2985     1   0.15375 251793.120000
   2984   3003     1   0.14647 272713.120000
   2985   2989     1   0.14233 265014.560000
   2985   2998     1   0.14316 258236.480000
   2991   2996     1   0.14233 265014.560000
   3004   3006     1   0.14619 275056.160000
   3006   3008     1   0.15375 251793.120000
   3008   3012     1   0.14647 272713.120000
   3012   3013     1   0.14647 272713.120000
   3012   3014     1   0.14647 272713.120000
   3013   3024     1   0.15375 251793.120000
   3014   3016     1   0.15375 251793.120000
   3016   3020     1   0.15241 261918.400000
   3020   3021     1   0.12183 533627.360000
   3020   3052     1   0.13400 406935.840000
   3024   3027     1   0.15241 261918.400000
   3027   3028     1   0.12183 533627.360000
   3027   3076     1   0.13400 406935.840000
   3029   3030     1   0.15375 251793.120000
   3029   3040     1   0.15375 251793.120000
   3029   3047     1   0.14316 258236.480000
   3030   3032     1   0.15375 251793.120000
   3030   3050     1   0.14233 265014.560000
   3032   3033     1   0.15375 251793.120000
   3032   3039     1   0.14233 265014.560000
   3033   3034     1   0.15375 251793.120000
   3033   3052     1   0.14647 272713.120000
   3034   3038     1   0.14233 265014.560000
   3034   3047     1   0.14316 258236.480000
   3040   3045     1   0.14233 265014.560000
   3053   3054     1   0.15375 251793.120000
   3053   3064     1   0.15375 251793.120000
   3053   3071     1   0.14316 258236.480000
   3054   3056     1   0.15375 251793.120000
   3054   3074     1   0.14233 265014.560000
   3056   3057     1   0.15375 251793.120000
   3056   3063     1   0.14233 265014.560000
   3057   3058     1   0.15375 251793.120000
   3057   3076     1   0.14647 272713.120000
   3058   3062     1   0.14233 265014.560000
   3058   3071     1   0.14316 258236.480000
   3064   3069     1   0.14233 265014.560000
      1      2     1   0.10969 276646.080000
      1      3     1   0.10969 276646.080000
      4      5     1   0.10969 276646.080000
      4      6     1   0.10969 276646.080000
      9     10     1   0.10969 276646.080000
      9     11     1   0.10969 276646.080000
     12     13     1   0.10969 276646.080000
     12     14     1   0.10969 276646.080000
     15     16     1   0.10969 276646.080000
     15     17     1   0.10969 276646.080000
     18     19     1   0.10969 276646.080000
     18     20     1   0.10969 276646.080000
     21     22     1   0.10969 276646.080000
     21     23     1   0.10969 276646.080000
     24     25     1   0.10969 276646.080000
     24     26     1   0.10969 276646.080000
     27     28     1   0.10969 276646.080000
     27     29     1   0.10969 276646.080000
     30     31     1   0.10969 276646.080000
     30     32     1   0.10969 276646.080000
     41     42     1   0.10969 276646.080000
     41     43     1   0.10969 276646.080000
     44     45     1   0.10969 276646.080000
     44     46     1   0.10969 276646.080000
     48     49     1   0.10969 276646.080000
     48     50     1   0.10969 276646.080000
     51     52     1   0.10969 276646.080000
     51     53     1   0.10969 276646.080000
     54     55     1   0.10969 276646.080000
     54     56     1   0.10969 276646.080000
     57     58     1   0.10969 276646.080000
     57     59     1   0.10969 276646.080000
     64     65     1   0.10129 337397.760000
     66     67     1   0.10969 276646.080000
     66     68     1   0.10969 276646.080000
     69     70     1   0.10969 276646.080000
     69     71     1   0.10969 276646.080000
     73     74     1   0.10969 276646.080000
     73     75     1   0.10969 276646.080000
     76     77     1   0.10969 276646.080000
     76     78     1   0.10969 276646.080000
     79     80     1   0.10969 276646.080000
     79     81     1   0.10969 276646.080000
     82     83     1   0.10969 276646.080000
     82     84     1   0.10969 276646.080000
     89     90     1   0.10129 337397.760000
     91     92     1   0.10969 276646.080000
     91     93     1   0.10969 276646.080000
     94     95     1   0.10969 276646.080000
     94     96     1   0.10969 276646.080000
     98     99     1   0.10969 276646.080000
     98    100     1   0.10969 276646.080000
    101    102     1   0.10969 276646.080000
    101    103     1   0.10969 276646.080000
    104    105     1   0.10969 276646.080000
    104    106     1   0.10969 276646.080000
    107    108     1   0.10969 276646.080000
    107    109     1   0.10969 276646.080000
    114    115     1   0.10129 337397.760000
    116    117     1   0.10969 276646.080000
    116    118     1   0.10969 276646.080000
    119    120     1   0.10969 276646.080000
    119    121     1   0.10969 276646.080000
    123    124     1   0.10969 276646.080000
    123    125     1   0.10969 276646.080000
    126    127     1   0.10969 276646.080000
    126    128     1   0.10969 276646.080000
    129    130     1   0.10969 276646.080000
    129    131     1   0.10969 276646.080000
    132    133     1   0.10969 276646.080000
    132    134     1   0.10969 276646.080000
    139    140     1   0.10129 337397.760000
    141    142     1   0.10969 276646.080000
    141    143     1   0.10969 276646.080000
    144    145     1   0.10969 276646.080000
    144    146     1   0.10969 276646.080000
    148    149     1   0.10969 276646.080000
    148    150     1   0.10969 276646.080000
    151    152     1   0.10969 276646.080000
    151    153     1   0.10969 276646.080000
    154    155     1   0.10969 276646.080000
    154    156     1   0.10969 276646.080000
    157    158     1   0.10969 276646.080000
    157    159     1   0.10969 276646.080000
    164    165     1   0.10129 337397.760000
    166    167     1   0.10969 276646.080000
    166    168     1   0.10969 276646.080000
    169    170     1   0.10969 276646.080000
    169    171     1   0.10969 276646.080000
    173    174     1   0.10969 276646.080000
    173    175     1   0.10969 276646.080000
    176    177     1   0.10969 276646.080000
    176    178     1   0.10969 276646.080000
    179    180     1   0.10969 276646.080000
    179    181     1   0.10969 276646.080000
    182    183     1   0.10969 276646.080000
    182    184     1   0.10969 276646.080000
    189    190     1   0.10129 337397.760000
    191    192     1   0.10969 276646.080000
    191    193     1   0.10969 276646.080000
    194    195     1   0.10969 276646.080000
    194    196     1   0.10969 276646.080000
    198    199     1   0.10969 276646.080000
    198    200     1   0.10969 276646.080000
    201    202     1   0.10969 276646.080000
    201    203     1   0.10969 276646.080000
    204    205     1   0.10969 276646.080000
    204    206     1   0.10969 276646.080000
    207    208     1   0.10969 276646.080000
    207    209     1   0.10969 276646.080000
    214    215     1   0.10129 337397.760000
    216    217     1   0.10969 276646.080000
    216    218     1   0.10969 276646.080000
    219    220     1   0.10969 276646.080000
    219    221     1   0.10969 276646.080000
    223    224     1   0.10969 276646.080000
    223    225     1   0.10969 276646.080000
    226    227     1   0.10969 276646.080000
    226    228     1   0.10969 276646.080000
    229    230     1   0.10969 276646.080000
    229    231     1   0.10969 276646.080000
    232    233     1   0.10969 276646.080000
    232    234     1   0.10969 276646.080000
    239    240     1   0.10129 337397.760000
    241    242     1   0.10969 276646.080000
    241    243     1   0.10969 276646.080000
    244    245     1   0.10969 276646.080000
    244    246     1   0.10969 276646.080000
    248    249     1   0.10969 276646.080000
    248    250     1   0.10969 276646.080000
    251    252     1   0.10969 276646.080000
    251    253     1   0.10969 276646.080000
    254    255     1   0.10969 276646.080000
    254    256     1   0.10969 276646.080000
    257    258     1   0.10969 276646.080000
    257    259     1   0.10969 276646.080000
    264    265     1   0.10129 337397.760000
    266    267     1   0.10969 276646.080000
    266    268     1   0.10969 276646.080000
    269    270     1   0.10969 276646.080000
    269    271     1   0.10969 276646.080000
    273    274     1   0.10969 276646.080000
    273    275     1   0.10969 276646.080000
    276    277     1   0.10969 276646.080000
    276    278     1   0.10969 276646.080000
    279    280     1   0.10969 276646.080000
    279    281     1   0.10969 276646.080000
    282    283     1   0.10969 276646.080000
    282    284     1   0.10969 276646.080000
    289    290     1   0.10129 337397.760000
    291    292     1   0.10969 276646.080000
    291    293     1   0.10969 276646.080000
    294    295     1   0.10969 276646.080000
    294    296     1   0.10969 276646.080000
    298    299     1   0.10969 276646.080000
    298    300     1   0.10969 276646.080000
    301    302     1   0.10969 276646.080000
    301    303     1   0.10969 276646.080000
    304    305     1   0.10969 276646.080000
    304    306     1   0.10969 276646.080000
    307    308     1   0.10969 276646.080000
    307    309     1   0.10969 276646.080000
    314    315     1   0.10129 337397.760000
    316    317     1   0.10969 276646.080000
    316    318     1   0.10969 276646.080000
    319    320     1   0.10969 276646.080000
    319    321     1   0.10969 276646.080000
    323    324     1   0.10969 276646.080000
    323    325     1   0.10969 276646.080000
    326    327     1   0.10969 276646.080000
    326    328     1   0.10969 276646.080000
    329    330     1   0.10969 276646.080000
    329    331     1   0.10969 276646.080000
    332    333     1   0.10969 276646.080000
    332    334     1   0.10969 276646.080000
    339    340     1   0.10129 337397.760000
    341    342     1   0.10969 276646.080000
    341    343     1   0.10969 276646.080000
    344    345     1   0.10969 276646.080000
    344    346     1   0.10969 276646.080000
    348    349     1   0.10969 276646.080000
    348    350     1   0.10969 276646.080000
    351    352     1   0.10969 276646.080000
    351    353     1   0.10969 276646.080000
    354    355     1   0.10969 276646.080000
    354    356     1   0.10969 276646.080000
    357    358     1   0.10969 276646.080000
    357    359     1   0.10969 276646.080000
    364    365     1   0.10129 337397.760000
    366    367     1   0.10969 276646.080000
    366    368     1   0.10969 276646.080000
    369    370     1   0.10969 276646.080000
    369    371     1   0.10969 276646.080000
    373    374     1   0.10969 276646.080000
    373    375     1   0.10969 276646.080000
    376    377     1   0.10969 276646.080000
    376    378     1   0.10969 276646.080000
    379    380     1   0.10969 276646.080000
    379    381     1   0.10969 276646.080000
    382    383     1   0.10969 276646.080000
    382    384     1   0.10969 276646.080000
    389    390     1   0.10129 337397.760000
    391    392     1   0.10969 276646.080000
    391    393     1   0.10969 276646.080000
    394    395     1   0.10969 276646.080000
    394    396     1   0.10969 276646.080000
    398    399     1   0.10969 276646.080000
    398    400     1   0.10969 276646.080000
    401    402     1   0.10969 276646.080000
    401    403     1   0.10969 276646.080000
    404    405     1   0.10969 276646.080000
    404    406     1   0.10969 276646.080000
    407    408     1   0.10969 276646.080000
    407    409     1   0.10969 276646.080000
    414    415     1   0.10129 337397.760000
    416    417     1   0.10969 276646.080000
    416    418     1   0.10969 276646.080000
    419    420     1   0.10969 276646.080000
    419    421     1   0.10969 276646.080000
    423    424     1   0.10969 276646.080000
    423    425     1   0.10969 276646.080000
    426    427     1   0.10969 276646.080000
    426    428     1   0.10969 276646.080000
    429    430     1   0.10969 276646.080000
    429    431     1   0.10969 276646.080000
    432    433     1   0.10969 276646.080000
    432    434     1   0.10969 276646.080000
    439    440     1   0.10129 337397.760000
    441    442     1   0.10969 276646.080000
    441    443     1   0.10969 276646.080000
    444    445     1   0.10969 276646.080000
    444    446     1   0.10969 276646.080000
    448    449     1   0.10969 276646.080000
    448    450     1   0.10969 276646.080000
    451    452     1   0.10969 276646.080000
    451    453     1   0.10969 276646.080000
    454    455     1   0.10969 276646.080000
    454    456     1   0.10969 276646.080000
    457    458     1   0.10969 276646.080000
    457    459     1   0.10969 276646.080000
    464    465     1   0.10129 337397.760000
    466    467     1   0.10969 276646.080000
    466    468     1   0.10969 276646.080000
    469    470     1   0.10969 276646.080000
    469    471     1   0.10969 276646.080000
    473    474     1   0.10969 276646.080000
    473    475     1   0.10969 276646.080000
    476    477     1   0.10969 276646.080000
    476    478     1   0.10969 276646.080000
    479    480     1   0.10969 276646.080000
    479    481     1   0.10969 276646.080000
    482    483     1   0.10969 276646.080000
    482    484     1   0.10969 276646.080000
    489    490     1   0.10129 337397.760000
    491    492     1   0.10969 276646.080000
    491    493     1   0.10969 276646.080000
    494    495     1   0.10969 276646.080000
    494    496     1   0.10969 276646.080000
    498    499     1   0.10969 276646.080000
    498    500     1   0.10969 276646.080000
    501    502     1   0.10969 276646.080000
    501    503     1   0.10969 276646.080000
    504    505     1   0.10969 276646.080000
    504    506     1   0.10969 276646.080000
    507    508     1   0.10969 276646.080000
    507    509     1   0.10969 276646.080000
    514    515     1   0.10129 337397.760000
    516    517     1   0.10969 276646.080000
    516    518     1   0.10969 276646.080000
    519    520     1   0.10969 276646.080000
    519    521     1   0.10969 276646.080000
    523    524     1   0.10969 276646.080000
    523    525     1   0.10969 276646.080000
    526    527     1   0.10969 276646.080000
    526    528     1   0.10969 276646.080000
    529    530     1   0.10969 276646.080000
    529    531     1   0.10969 276646.080000
    532    533     1   0.10969 276646.080000
    532    534     1   0.10969 276646.080000
    539    540     1   0.10129 337397.760000
    541    542     1   0.10969 276646.080000
    541    543     1   0.10969 276646.080000
    544    545     1   0.10969 276646.080000
    544    546     1   0.10969 276646.080000
    548    549     1   0.10969 276646.080000
    548    550     1   0.10969 276646.080000
    551    552     1   0.10969 276646.080000
    551    553     1   0.10969 276646.080000
    554    555     1   0.10969 276646.080000
    554    556     1   0.10969 276646.080000
    557    558     1   0.10969 276646.080000
    557    559     1   0.10969 276646.080000
    564    565     1   0.10129 337397.760000
    566    567     1   0.10969 276646.080000
    566    568     1   0.10969 276646.080000
    569    570     1   0.10969 276646.080000
    569    571     1   0.10969 276646.080000
    573    574     1   0.10969 276646.080000
    573    575     1   0.10969 276646.080000
    576    577     1   0.10969 276646.080000
    576    578     1   0.10969 276646.080000
    579    580     1   0.10969 276646.080000
    579    581     1   0.10969 276646.080000
    582    583     1   0.10969 276646.080000
    582    584     1   0.10969 276646.080000
    589    590     1   0.10129 337397.760000
    591    592     1   0.10969 276646.080000
    591    593     1   0.10969 276646.080000
    594    595     1   0.10969 276646.080000
    594    596     1   0.10969 276646.080000
    598    599     1   0.10969 276646.080000
    598    600     1   0.10969 276646.080000
    601    602     1   0.10969 276646.080000
    601    603     1   0.10969 276646.080000
    604    605     1   0.10969 276646.080000
    604    606     1   0.10969 276646.080000
    607    608     1   0.10969 276646.080000
    607    609     1   0.10969 276646.080000
    614    615     1   0.10129 337397.760000
    616    617     1   0.10969 276646.080000
    616    618     1   0.10969 276646.080000
    619    620     1   0.10969 276646.080000
    619    621     1   0.10969 276646.080000
    623    624     1   0.10969 276646.080000
    623    625     1   0.10969 276646.080000
    626    627     1   0.10969 276646.080000
    626    628     1   0.10969 276646.080000
    629    630     1   0.10969 276646.080000
    629    631     1   0.10969 276646.080000
    632    633     1   0.10969 276646.080000
    632    634     1   0.10969 276646.080000
    639    640     1   0.10129 337397.760000
    641    642     1   0.10969 276646.080000
    641    643     1   0.10969 276646.080000
    644    645     1   0.10969 276646.080000
    644    646     1   0.10969 276646.080000
    648    649     1   0.10969 276646.080000
    648    650     1   0.10969 276646.080000
    651    652     1   0.10969 276646.080000
    651    653     1   0.10969 276646.080000
    654    655     1   0.10969 276646.080000
    654    656     1   0.10969 276646.080000
    657    658     1   0.10969 276646.080000
    657    659     1   0.10969 276646.080000
    664    665     1   0.10129 337397.760000
    666    667     1   0.10969 276646.080000
    666    668     1   0.10969 276646.080000
    669    670     1   0.10969 276646.080000
    669    671     1   0.10969 276646.080000
    673    674     1   0.10969 276646.080000
    673    675     1   0.10969 276646.080000
    676    677     1   0.10969 276646.080000
    676    678     1   0.10969 276646.080000
    679    680     1   0.10969 276646.080000
    679    681     1   0.10969 276646.080000
    682    683     1   0.10969 276646.080000
    682    684     1   0.10969 276646.080000
    689    690     1   0.10129 337397.760000
    691    692     1   0.10969 276646.080000
    691    693     1   0.10969 276646.080000
    694    695     1   0.10969 276646.080000
    694    696     1   0.10969 276646.080000
    698    699     1   0.10969 276646.080000
    698    700     1   0.10969 276646.080000
    701    702     1   0.10969 276646.080000
    701    703     1   0.10969 276646.080000
    704    705     1   0.10969 276646.080000
    704    706     1   0.10969 276646.080000
    707    708     1   0.10969 276646.080000
    707    709     1   0.10969 276646.080000
    714    715     1   0.10129 337397.760000
    716    717     1   0.10969 276646.080000
    716    718     1   0.10969 276646.080000
    719    720     1   0.10969 276646.080000
    719    721     1   0.10969 276646.080000
    723    724     1   0.10969 276646.080000
    723    725     1   0.10969 276646.080000
    726    727     1   0.10969 276646.080000
    726    728     1   0.10969 276646.080000
    729    730     1   0.10969 276646.080000
    729    731     1   0.10969 276646.080000
    732    733     1   0.10969 276646.080000
    732    734     1   0.10969 276646.080000
    739    740     1   0.10129 337397.760000
    741    742     1   0.10129 337397.760000
    743    744     1   0.10969 276646.080000
    743    746     1   0.10969 276646.080000
    745    747     1   0.10969 276646.080000
    745    748     1   0.10969 276646.080000
    750    759     1   0.10969 276646.080000
    750    760     1   0.10969 276646.080000
    751    752     1   0.10969 276646.080000
    751    754     1   0.10969 276646.080000
    753    755     1   0.10969 276646.080000
    753    756     1   0.10969 276646.080000
    761    762     1   0.10969 276646.080000
    761    763     1   0.10969 276646.080000
    766    768     1   0.10969 276646.080000
    767    786     1   0.10969 276646.080000
    769    773     1   0.10969 276646.080000
    770    772     1   0.10969 276646.080000
    771    774     1   0.10961 277566.560000
    775    785     1   0.09730 310787.520000
    776    778     1   0.09730 310787.520000
    777    780     1   0.10969 276646.080000
    777    781     1   0.10969 276646.080000
    779    789     1   0.10190 328360.320000
    782    783     1   0.09730 310787.520000
    787    788     1   0.09730 310787.520000
    790    792     1   0.10969 276646.080000
    791    810     1   0.10969 276646.080000
    793    797     1   0.10969 276646.080000
    794    796     1   0.10969 276646.080000
    795    798     1   0.10961 277566.560000
    799    809     1   0.09730 310787.520000
    800    802     1   0.09730 310787.520000
    801    804     1   0.10969 276646.080000
    801    805     1   0.10969 276646.080000
    803    813     1   0.10190 328360.320000
    806    807     1   0.09730 310787.520000
    811    812     1   0.09730 310787.520000
    814    815     1   0.10129 337397.760000
    816    817     1   0.10969 276646.080000
    816    819     1   0.10969 276646.080000
    818    820     1   0.10969 276646.080000
    818    821     1   0.10969 276646.080000
    823    832     1   0.10969 276646.080000
    823    833     1   0.10969 276646.080000
    824    825     1   0.10969 276646.080000
    824    827     1   0.10969 276646.080000
    826    828     1   0.10969 276646.080000
    826    829     1   0.10969 276646.080000
    834    835     1   0.10969 276646.080000
    834    836     1   0.10969 276646.080000
    839    841     1   0.10969 276646.080000
    840    859     1   0.10969 276646.080000
    842    846     1   0.10969 276646.080000
    843    845     1   0.10969 276646.080000
    844    847     1   0.10961 277566.560000
    848    858     1   0.09730 310787.520000
    849    851     1   0.09730 310787.520000
    850    853     1   0.10969 276646.080000
    850    854     1   0.10969 276646.080000
    852    862     1   0.10190 328360.320000
    855    856     1   0.09730 310787.520000
    860    861     1   0.09730 310787.520000
    863    865     1   0.10969 276646.080000
    864    883     1   0.10969 276646.080000
    866    870     1   0.10969 276646.080000
    867    869     1   0.10969 276646.080000
    868    871     1   0.10961 277566.560000
    872    882     1   0.09730 310787.520000
    873    875     1   0.09730 310787.520000
    874    877     1   0.10969 276646.080000
    874    878     1   0.10969 276646.080000
    876    886     1   0.10190 328360.320000
    879    880     1   0.09730 310787.520000
    884    885     1   0.09730 310787.520000
    887    888     1   0.10129 337397.760000
    889    890     1   0.10969 276646.080000
    889    892     1   0.10969 276646.080000
    891    893     1   0.10969 276646.080000
    891    894     1   0.10969 276646.080000
    896    905     1   0.10969 276646.080000
    896    906     1   0.10969 276646.080000
    897    898     1   0.10969 276646.080000
    897    900     1   0.10969 276646.080000
    899    901     1   0.10969 276646.080000
    899    902     1   0.10969 276646.080000
    907    908     1   0.10969 276646.080000
    907    909     1   0.10969 276646.080000
    912    914     1   0.10969 276646.080000
    913    932     1   0.10969 276646.080000
    915    919     1   0.10969 276646.080000
    916    918     1   0.10969 276646.080000
    917    920     1   0.10961 277566.560000
    921    931     1   0.09730 310787.520000
    922    924     1   0.09730 310787.520000
    923    926     1   0.10969 276646.080000
    923    927     1   0.10969 276646.080000
    925    935     1   0.10190 328360.320000
    928    929     1   0.09730 310787.520000
    933    934     1   0.09730 310787.520000
    936    938     1   0.10969 276646.080000
    937    956     1   0.10969 276646.080000
    939    943     1   0.10969 276646.080000
    940    942     1   0.10969 276646.080000
    941    944     1   0.10961 277566.560000
    945    955     1   0.09730 310787.520000
    946    948     1   0.09730 310787.520000
    947    950     1   0.10969 276646.080000
    947    951     1   0.10969 276646.080000
    949    959     1   0.10190 328360.320000
    952    953     1   0.09730 310787.520000
    957    958     1   0.09730 310787.520000
    960    961     1   0.10129 337397.760000
    962    963     1   0.10969 276646.080000
    962    965     1   0.10969 276646.080000
    964    966     1   0.10969 276646.080000
    964    967     1   0.10969 276646.080000
    969    978     1   0.10969 276646.080000
    969    979     1   0.10969 276646.080000
    970    971     1   0.10969 276646.080000
    970    973     1   0.10969 276646.080000
    972    974     1   0.10969 276646.080000
    972    975     1   0.10969 276646.080000
    980    981     1   0.10969 276646.080000
    980    982     1   0.10969 276646.080000
    985    987     1   0.10969 276646.080000
    986   1005     1   0.10969 276646.080000
    988    992     1   0.10969 276646.080000
    989    991     1   0.10969 276646.080000
    990    993     1   0.10961 277566.560000
    994   1004     1   0.09730 310787.520000
    995    997     1   0.09730 310787.520000
    996    999     1   0.10969 276646.080000
    996   1000     1   0.10969 276646.080000
    998   1008     1   0.10190 328360.320000
   1001   1002     1   0.09730 310787.520000
   1006   1007     1   0.09730 310787.520000
   1009   1011     1   0.10969 276646.080000
   1010   1029     1   0.10969 276646.080000
   1012   1016     1   0.10969 276646.080000
   1013   1015     1   0.10969 276646.080000
   1014   1017     1   0.10961 277566.560000
   1018   1028     1   0.09730 310787.520000
   1019   1021     1   0.09730 310787.520000
   1020   1023     1   0.10969 276646.080000
   1020   1024     1   0.10969 276646.080000
   1022   1032     1   0.10190 328360.320000
   1025   1026     1   0.09730 310787.520000
   1030   1031     1   0.09730 310787.520000
   1033   1034     1   0.10129 337397.760000
   1035   1036     1   0.10969 276646.080000
   1035   1038     1   0.10969 276646.080000
   1037   1039     1   0.10969 276646.080000
   1037   1040     1   0.10969 276646.080000
   1042   1051     1   0.10969 276646.080000
   1042   1052     1   0.10969 276646.080000
   1043   1044     1   0.10969 276646.080000
   1043   1046     1   0.10969 276646.080000
   1045   1047     1   0.10969 276646.080000
   1045   1048     1   0.10969 276646.080000
   1053   1054     1   0.10969 276646.080000
   1053   1055     1   0.10969 276646.080000
   1058   1060     1   0.10969 276646.080000
   1059   1078     1   0.10969 276646.080000
   1061   1065     1   0.10969 276646.080000
   1062   1064     1   0.10969 276646.080000
   1063   1066     1   0.10961 277566.560000
   1067   1077     1   0.09730 310787.520000
   1068   1070     1   0.09730 310787.520000
   1069   1072     1   0.10969 276646.080000
   1069   1073     1   0.10969 276646.080000
   1071   1081     1   0.10190 328360.320000
   1074   1075     1   0.09730 310787.520000
   1079   1080     1   0.09730 310787.520000
   1082   1084     1   0.10969 276646.080000
   1083   1102     1   0.10969 276646.080000
   1085   1089     1   0.10969 276646.080000
   1086   1088     1   0.10969 276646.080000
   1087   1090     1   0.10961 277566.560000
   1091   1101     1   0.09730 310787.520000
   1092   1094     1   0.09730 310787.520000
   1093   1096     1   0.10969 276646.080000
   1093   1097     1   0.10969 276646.080000
   1095   1105     1   0.10190 328360.320000
   1098   1099     1   0.09730 310787.520000
   1103   1104     1   0.09730 310787.520000
   1106   1107     1   0.10129 337397.760000
   1108   1109     1   0.10969 276646.080000
   1108   1111     1   0.10969 276646.080000
   1110   1112     1   0.10969 276646.080000
   1110   1113     1   0.10969 276646.080000
   1115   1124     1   0.10969 276646.080000
   1115   1125     1   0.10969 276646.080000
   1116   1117     1   0.10969 276646.080000
   1116   1119     1   0.10969 276646.080000
   1118   1120     1   0.10969 276646.080000
   1118   1121     1   0.10969 276646.080000
   1126   1127     1   0.10969 276646.080000
   1126   1128     1   0.10969 276646.080000
   1131   1133     1   0.10969 276646.080000
   1132   1151     1   0.10969 276646.080000
   1134   1138     1   0.10969 276646.080000
   1135   1137     1   0.10969 276646.080000
   1136   1139     1   0.10961 277566.560000
   1140   1150     1   0.09730 310787.520000
   1141   1143     1   0.09730 310787.520000
   1142   1145     1   0.10969 276646.080000
   1142   1146     1   0.10969 276646.080000
   1144   1154     1   0.10190 328360.320000
   1147   1148     1   0.09730 310787.520000
   1152   1153     1   0.09730 310787.520000
   1155   1157     1   0.10969 276646.080000
   1156   1175     1   0.10969 276646.080000
   1158   1162     1   0.10969 276646.080000
   1159   1161     1   0.10969 276646.080000
   1160   1163     1   0.10961 277566.560000
   1164   1174     1   0.09730 310787.520000
   1165   1167     1   0.09730 310787.520000
   1166   1169     1   0.10969 276646.080000
   1166   1170     1   0.10969 276646.080000
   1168   1178     1   0.10190 328360.320000
   1171   1172     1   0.09730 310787.520000
   1176   1177     1   0.09730 310787.520000
   1179   1180     1   0.10129 337397.760000
   1181   1182     1   0.10969 276646.080000
   1181   1184     1   0.10969 276646.080000
   1183   1185     1   0.10969 276646.080000
   1183   1186     1   0.10969 276646.080000
   1188   1197     1   0.10969 276646.080000
   1188   1198     1   0.10969 276646.080000
   1189   1190     1   0.10969 276646.080000
   1189   1192     1   0.10969 276646.080000
   1191   1193     1   0.10969 276646.080000
   1191   1194     1   0.10969 276646.080000
   1199   1200     1   0.10969 276646.080000
   1199   1201     1   0.10969 276646.080000
   1204   1206     1   0.10969 276646.080000
   1205   1224     1   0.10969 276646.080000
   1207   1211     1   0.10969 276646.080000
   1208   1210     1   0.10969 276646.080000
   1209   1212     1   0.10961 277566.560000
   1213   1223     1   0.09730 310787.520000
   1214   1216     1   0.09730 310787.520000
   1215   1218     1   0.10969 276646.080000
   1215   1219     1   0.10969 276646.080000
   1217   1227     1   0.10190 328360.320000
   1220   1221     1   0.09730 310787.520000
   1225   1226     1   0.09730 310787.520000
   1228   1230     1   0.10969 276646.080000
   1229   1248     1   0.10969 276646.080000
   1231   1235     1   0.10969 276646.080000
   1232   1234     1   0.10969 276646.080000
   1233   1236     1   0.10961 277566.560000
   1237   1247     1   0.09730 310787.520000
   1238   1240     1   0.09730 310787.520000
   1239   1242     1   0.10969 276646.080000
   1239   1243     1   0.10969 276646.080000
   1241   1251     1   0.10190 328360.320000
   1244   1245     1   0.09730 310787.520000
   1249   1250     1   0.09730 310787.520000
   1252   1253     1   0.10129 337397.760000
   1254   1255     1   0.10969 276646.080000
   1254   1257     1   0.10969 276646.080000
   1256   1258     1   0.10969 276646.080000
   1256   1259     1   0.10969 276646.080000
   1261   1270     1   0.10969 276646.080000
   1261   1271     1   0.10969 276646.080000
   1262   1263     1   0.10969 276646.080000
   1262   1265     1   0.10969 276646.080000
   1264   1266     1   0.10969 276646.080000
   1264   1267     1   0.10969 276646.080000
   1272   1273     1   0.10969 276646.080000
   1272   1274     1   0.10969 276646.080000
   1277   1279     1   0.10969 276646.080000
   1278   1297     1   0.10969 276646.080000
   1280   1284     1   0.10969 276646.080000
   1281   1283     1   0.10969 276646.080000
   1282   1285     1   0.10961 277566.560000
   1286   1296     1   0.09730 310787.520000
   1287   1289     1   0.09730 310787.520000
   1288   1291     1   0.10969 276646.080000
   1288   1292     1   0.10969 276646.080000
   1290   1300     1   0.10190 328360.320000
   1293   1294     1   0.09730 310787.520000
   1298   1299     1   0.09730 310787.520000
   1301   1303     1   0.10969 276646.080000
   1302   1321     1   0.10969 276646.080000
   1304   1308     1   0.10969 276646.080000
   1305   1307     1   0.10969 276646.080000
   1306   1309     1   0.10961 277566.560000
   1310   1320     1   0.09730 310787.520000
   1311   1313     1   0.09730 310787.520000
   1312   1315     1   0.10969 276646.080000
   1312   1316     1   0.10969 276646.080000
   1314   1324     1   0.10190 328360.320000
   1317   1318     1   0.09730 310787.520000
   1322   1323     1   0.09730 310787.520000
   1325   1326     1   0.10129 337397.760000
   1327   1328     1   0.10969 276646.080000
   1327   1330     1   0.10969 276646.080000
   1329   1331     1   0.10969 276646.080000
   1329   1332     1   0.10969 276646.080000
   1334   1343     1   0.10969 276646.080000
   1334   1344     1   0.10969 276646.080000
   1335   1336     1   0.10969 276646.080000
   1335   1338     1   0.10969 276646.080000
   1337   1339     1   0.10969 276646.080000
   1337   1340     1   0.10969 276646.080000
   1345   1346     1   0.10969 276646.080000
   1345   1347     1   0.10969 276646.080000
   1350   1352     1   0.10969 276646.080000
   1351   1370     1   0.10969 276646.080000
   1353   1357     1   0.10969 276646.080000
   1354   1356     1   0.10969 276646.080000
   1355   1358     1   0.10961 277566.560000
   1359   1369     1   0.09730 310787.520000
   1360   1362     1   0.09730 310787.520000
   1361   1364     1   0.10969 276646.080000
   1361   1365     1   0.10969 276646.080000
   1363   1373     1   0.10190 328360.320000
   1366   1367     1   0.09730 310787.520000
   1371   1372     1   0.09730 310787.520000
   1374   1376     1   0.10969 276646.080000
   1375   1394     1   0.10969 276646.080000
   1377   1381     1   0.10969 276646.080000
   1378   1380     1   0.10969 276646.080000
   1379   1382     1   0.10961 277566.560000
   1383   1393     1   0.09730 310787.520000
   1384   1386     1   0.09730 310787.520000
   1385   1388     1   0.10969 276646.080000
   1385   1389     1   0.10969 276646.080000
   1387   1397     1   0.10190 328360.320000
   1390   1391     1   0.09730 310787.520000
   1395   1396     1   0.09730 310787.520000
   1398   1399     1   0.10129 337397.760000
   1400   1401     1   0.10969 276646.080000
   1400   1403     1   0.10969 276646.080000
   1402   1404     1   0.10969 276646.080000
   1402   1405     1   0.10969 276646.080000
   1407   1416     1   0.10969 276646.080000
   1407   1417     1   0.10969 276646.080000
   1408   1409     1   0.10969 276646.080000
   1408   1411     1   0.10969 276646.080000
   1410   1412     1   0.10969 276646.080000
   1410   1413     1   0.10969 276646.080000
   1418   1419     1   0.10969 276646.080000
   1418   1420     1   0.10969 276646.080000
   1423   1425     1   0.10969 276646.080000
   1424   1443     1   0.10969 276646.080000
   1426   1430     1   0.10969 276646.080000
   1427   1429     1   0.10969 276646.080000
   1428   1431     1   0.10961 277566.560000
   1432   1442     1   0.09730 310787.520000
   1433   1435     1   0.09730 310787.520000
   1434   1437     1   0.10969 276646.080000
   1434   1438     1   0.10969 276646.080000
   1436   1446     1   0.10190 328360.320000
   1439   1440     1   0.09730 310787.520000
   1444   1445     1   0.09730 310787.520000
   1447   1449     1   0.10969 276646.080000
   1448   1467     1   0.10969 276646.080000
   1450   1454     1   0.10969 276646.080000
   1451   1453     1   0.10969 276646.080000
   1452   1455     1   0.10961 277566.560000
   1456   1466     1   0.09730 310787.520000
   1457   1459     1   0.09730 310787.520000
   1458   1461     1   0.10969 276646.080000
   1458   1462     1   0.10969 276646.080000
   1460   1470     1   0.10190 328360.320000
   1463   1464     1   0.09730 310787.520000
   1468   1469     1   0.09730 310787.520000
   1471   1472     1   0.10129 337397.760000
   1473   1474     1   0.10969 276646.080000
   1473   1476     1   0.10969 276646.080000
   1475   1477     1   0.10969 276646.080000
   1475   1478     1   0.10969 276646.080000
   1480   1489     1   0.10969 276646.080000
   1480   1490     1   0.10969 276646.080000
   1481   1482     1   0.10969 276646.080000
   1481   1484     1   0.10969 276646.080000
   1483   1485     1   0.10969 276646.080000
   1483   1486     1   0.10969 276646.080000
   1491   1492     1   0.10969 276646.080000
   1491   1493     1   0.10969 276646.080000
   1496   1498     1   0.10969 276646.080000
   1497   1516     1   0.10969 276646.080000
   1499   1503     1   0.10969 276646.080000
   1500   1502     1   0.10969 276646.080000
   1501   1504     1   0.10961 277566.560000
   1505   1515     1   0.09730 310787.520000
   1506   1508     1   0.09730 310787.520000
   1507   1510     1   0.10969 276646.080000
   1507   1511     1   0.10969 276646.080000
   1509   1519     1   0.10190 328360.320000
   1512   1513     1   0.09730 310787.520000
   1517   1518     1   0.09730 310787.520000
   1520   1522     1   0.10969 276646.080000
   1521   1540     1   0.10969 276646.080000
   1523   1527     1   0.10969 276646.080000
   1524   1526     1   0.10969 276646.080000
   1525   1528     1   0.10961 277566.560000
   1529   1539     1   0.09730 310787.520000
   1530   1532     1   0.09730 310787.520000
   1531   1534     1   0.10969 276646.080000
   1531   1535     1   0.10969 276646.080000
   1533   1543     1   0.10190 328360.320000
   1536   1537     1   0.09730 310787.520000
   1541   1542     1   0.09730 310787.520000
   1544   1545     1   0.10129 337397.760000
   1546   1547     1   0.10969 276646.080000
   1546   1549     1   0.10969 276646.080000
   1548   1550     1   0.10969 276646.080000
   1548   1551     1   0.10969 276646.080000
   1553   1562     1   0.10969 276646.080000
   1553   1563     1   0.10969 276646.080000
   1554   1555     1   0.10969 276646.080000
   1554   1557     1   0.10969 276646.080000
   1556   1558     1   0.10969 276646.080000
   1556   1559     1   0.10969 276646.080000
   1564   1565     1   0.10969 276646.080000
   1564   1566     1   0.10969 276646.080000
   1569   1571     1   0.10969 276646.080000
   1570   1589     1   0.10969 276646.080000
   1572   1576     1   0.10969 276646.080000
   1573   1575     1   0.10969 276646.080000
   1574   1577     1   0.10961 277566.560000
   1578   1588     1   0.09730 310787.520000
   1579   1581     1   0.09730 310787.520000
   1580   1583     1   0.10969 276646.080000
   1580   1584     1   0.10969 276646.080000
   1582   1592     1   0.10190 328360.320000
   1585   1586     1   0.09730 310787.520000
   1590   1591     1   0.09730 310787.520000
   1593   1595     1   0.10969 276646.080000
   1594   1613     1   0.10969 276646.080000
   1596   1600     1   0.10969 276646.080000
   1597   1599     1   0.10969 276646.080000
   1598   1601     1   0.10961 277566.560000
   1602   1612     1   0.09730 310787.520000
   1603   1605     1   0.09730 310787.520000
   1604   1607     1   0.10969 276646.080000
   1604   1608     1   0.10969 276646.080000
   1606   1616     1   0.10190 328360.320000
   1609   1610     1   0.09730 310787.520000
   1614   1615     1   0.09730 310787.520000
   1617   1618     1   0.10129 337397.760000
   1619   1620     1   0.10969 276646.080000
   1619   1622     1   0.10969 276646.080000
   1621   1623     1   0.10969 276646.080000
   1621   1624     1   0.10969 276646.080000
   1626   1635     1   0.10969 276646.080000
   1626   1636     1   0.10969 276646.080000
   1627   1628     1   0.10969 276646.080000
   1627   1630     1   0.10969 276646.080000
   1629   1631     1   0.10969 276646.080000
   1629   1632     1   0.10969 276646.080000
   1637   1638     1   0.10969 276646.080000
   1637   1639     1   0.10969 276646.080000
   1642   1644     1   0.10969 276646.080000
   1643   1662     1   0.10969 276646.080000
   1645   1649     1   0.10969 276646.080000
   1646   1648     1   0.10969 276646.080000
   1647   1650     1   0.10961 277566.560000
   1651   1661     1   0.09730 310787.520000
   1652   1654     1   0.09730 310787.520000
   1653   1656     1   0.10969 276646.080000
   1653   1657     1   0.10969 276646.080000
   1655   1665     1   0.10190 328360.320000
   1658   1659     1   0.09730 310787.520000
   1663   1664     1   0.09730 310787.520000
   1666   1668     1   0.10969 276646.080000
   1667   1686     1   0.10969 276646.080000
   1669   1673     1   0.10969 276646.080000
   1670   1672     1   0.10969 276646.080000
   1671   1674     1   0.10961 277566.560000
   1675   1685     1   0.09730 310787.520000
   1676   1678     1   0.09730 310787.520000
   1677   1680     1   0.10969 276646.080000
   1677   1681     1   0.10969 276646.080000
   1679   1689     1   0.10190 328360.320000
   1682   1683     1   0.09730 310787.520000
   1687   1688     1   0.09730 310787.520000
   1690   1691     1   0.10129 337397.760000
   1692   1693     1   0.10969 276646.080000
   1692   1695     1   0.10969 276646.080000
   1694   1696     1   0.10969 276646.080000
   1694   1697     1   0.10969 276646.080000
   1699   1708     1   0.10969 276646.080000
   1699   1709     1   0.10969 276646.080000
   1700   1701     1   0.10969 276646.080000
   1700   1703     1   0.10969 276646.080000
   1702   1704     1   0.10969 276646.080000
   1702   1705     1   0.10969 276646.080000
   1710   1711     1   0.10969 276646.080000
   1710   1712     1   0.10969 276646.080000
   1715   1717     1   0.10969 276646.080000
   1716   1735     1   0.10969 276646.080000
   1718   1722     1   0.10969 276646.080000
   1719   1721     1   0.10969 276646.080000
   1720   1723     1   0.10961 277566.560000
   1724   1734     1   0.09730 310787.520000
   1725   1727     1   0.09730 310787.520000
   1726   1729     1   0.10969 276646.080000
   1726   1730     1   0.10969 276646.080000
   1728   1738     1   0.10190 328360.320000
   1731   1732     1   0.09730 310787.520000
   1736   1737     1   0.09730 310787.520000
   1739   1741     1   0.10969 276646.080000
   1740   1759     1   0.10969 276646.080000
   1742   1746     1   0.10969 276646.080000
   1743   1745     1   0.10969 276646.080000
   1744   1747     1   0.10961 277566.560000
   1748   1758     1   0.09730 310787.520000
   1749   1751     1   0.09730 310787.520000
   1750   1753     1   0.10969 276646.080000
   1750   1754     1   0.10969 276646.080000
   1752   1762     1   0.10190 328360.320000
   1755   1756     1   0.09730 310787.520000
   1760   1761     1   0.09730 310787.520000
   1763   1764     1   0.10129 337397.760000
   1765   1766     1   0.10969 276646.080000
   1765   1768     1   0.10969 276646.080000
   1767   1769     1   0.10969 276646.080000
   1767   1770     1   0.10969 276646.080000
   1772   1781     1   0.10969 276646.080000
   1772   1782     1   0.10969 276646.080000
   1773   1774     1   0.10969 276646.080000
   1773   1776     1   0.10969 276646.080000
   1775   1777     1   0.10969 276646.080000
   1775   1778     1   0.10969 276646.080000
   1783   1784     1   0.10969 276646.080000
   1783   1785     1   0.10969 276646.080000
   1788   1790     1   0.10969 276646.080000
   1789   1808     1   0.10969 276646.080000
   1791   1795     1   0.10969 276646.080000
   1792   1794     1   0.10969 276646.080000
   1793   1796     1   0.10961 277566.560000
   1797   1807     1   0.09730 310787.520000
   1798   1800     1   0.09730 310787.520000
   1799   1802     1   0.10969 276646.080000
   1799   1803     1   0.10969 276646.080000
   1801   1811     1   0.10190 328360.320000
   1804   1805     1   0.09730 310787.520000
   1809   1810     1   0.09730 310787.520000
   1812   1814     1   0.10969 276646.080000
   1813   1832     1   0.10969 276646.080000
   1815   1819     1   0.10969 276646.080000
   1816   1818     1   0.10969 276646.080000
   1817   1820     1   0.10961 277566.560000
   1821   1831     1   0.09730 310787.520000
   1822   1824     1   0.09730 310787.520000
   1823   1826     1   0.10969 276646.080000
   1823   1827     1   0.10969 276646.080000
   1825   1835     1   0.10190 328360.320000
   1828   1829     1   0.09730 310787.520000
   1833   1834     1   0.09730 310787.520000
   1836   1837     1   0.10129 337397.760000
   1838   1839     1   0.10969 276646.080000
   1838   1841     1   0.10969 276646.080000
   1840   1842     1   0.10969 276646.080000
   1840   1843     1   0.10969 276646.080000
   1845   1854     1   0.10969 276646.080000
   1845   1855     1   0.10969 276646.080000
   1846   1847     1   0.10969 276646.080000
   1846   1849     1   0.10969 276646.080000
   1848   1850     1   0.10969 276646.080000
   1848   1851     1   0.10969 276646.080000
   1856   1857     1   0.10969 276646.080000
   1856   1858     1   0.10969 276646.080000
   1861   1863     1   0.10969 276646.080000
   1862   1881     1   0.10969 276646.080000
   1864   1868     1   0.10969 276646.080000
   1865   1867     1   0.10969 276646.080000
   1866   1869     1   0.10961 277566.560000
   1870   1880     1   0.09730 310787.520000
   1871   1873     1   0.09730 310787.520000
   1872   1875     1   0.10969 276646.080000
   1872   1876     1   0.10969 276646.080000
   1874   1884     1   0.10190 328360.320000
   1877   1878     1   0.09730 310787.520000
   1882   1883     1   0.09730 310787.520000
   1885   1887     1   0.10969 276646.080000
   1886   1905     1   0.10969 276646.080000
   1888   1892     1   0.10969 276646.080000
   1889   1891     1   0.10969 276646.080000
   1890   1893     1   0.10961 277566.560000
   1894   1904     1   0.09730 310787.520000
   1895   1897     1   0.09730 310787.520000
   1896   1899     1   0.10969 276646.080000
   1896   1900     1   0.10969 276646.080000
   1898   1908     1   0.10190 328360.320000
   1901   1902     1   0.09730 310787.520000
   1906   1907     1   0.09730 310787.520000
   1909   1910     1   0.10129 337397.760000
   1911   1912     1   0.10969 276646.080000
   1911   1914     1   0.10969 276646.080000
   1913   1915     1   0.10969 276646.080000
   1913   1916     1   0.10969 276646.080000
   1918   1927     1   0.10969 276646.080000
   1918   1928     1   0.10969 276646.080000
   1919   1920     1   0.10969 276646.080000
   1919   1922     1   0.10969 276646.080000
   1921   1923     1   0.10969 276646.080000
   1921   1924     1   0.10969 276646.080000
   1929   1930     1   0.10969 276646.080000
   1929   1931     1   0.10969 276646.080000
   1934   1936     1   0.10969 276646.080000
   1935   1954     1   0.10969 276646.080000
   1937   1941     1   0.10969 276646.080000
   1938   1940     1   0.10969 276646.080000
   1939   1942     1   0.10961 277566.560000
   1943   1953     1   0.09730 310787.520000
   1944   1946     1   0.09730 310787.520000
   1945   1948     1   0.10969 276646.080000
   1945   1949     1   0.10969 276646.080000
   1947   1957     1   0.10190 328360.320000
   1950   1951     1   0.09730 310787.520000
   1955   1956     1   0.09730 310787.520000
   1958   1960     1   0.10969 276646.080000
   1959   1978     1   0.10969 276646.080000
   1961   1965     1   0.10969 276646.080000
   1962   1964     1   0.10969 276646.080000
   1963   1966     1   0.10961 277566.560000
   1967   1977     1   0.09730 310787.520000
   1968   1970     1   0.09730 310787.520000
   1969   1972     1   0.10969 276646.080000
   1969   1973     1   0.10969 276646.080000
   1971   1981     1   0.10190 328360.320000
   1974   1975     1   0.09730 310787.520000
   1979   1980     1   0.09730 310787.520000
   1982   1983     1   0.10129 337397.760000
   1984   1985     1   0.10969 276646.080000
   1984   1987     1   0.10969 276646.080000
   1986   1988     1   0.10969 276646.080000
   1986   1989     1   0.10969 276646.080000
   1991   2000     1   0.10969 276646.080000
   1991   2001     1   0.10969 276646.080000
   1992   1993     1   0.10969 276646.080000
   1992   1995     1   0.10969 276646.080000
   1994   1996     1   0.10969 276646.080000
   1994   1997     1   0.10969 276646.080000
   2002   2003     1   0.10969 276646.080000
   2002   2004     1   0.10969 276646.080000
   2007   2009     1   0.10969 276646.080000
   2008   2027     1   0.10969 276646.080000
   2010   2014     1   0.10969 276646.080000
   2011   2013     1   0.10969 276646.080000
   2012   2015     1   0.10961 277566.560000
   2016   2026     1   0.09730 310787.520000
   2017   2019     1   0.09730 310787.520000
   2018   2021     1   0.10969 276646.080000
   2018   2022     1   0.10969 276646.080000
   2020   2030     1   0.10190 328360.320000
   2023   2024     1   0.09730 310787.520000
   2028   2029     1   0.09730 310787.520000
   2031   2033     1   0.10969 276646.080000
   2032   2051     1   0.10969 276646.080000
   2034   2038     1   0.10969 276646.080000
   2035   2037     1   0.10969 276646.080000
   2036   2039     1   0.10961 277566.560000
   2040   2050     1   0.09730 310787.520000
   2041   2043     1   0.09730 310787.520000
   2042   2045     1   0.10969 276646.080000
   2042   2046     1   0.10969 276646.080000
   2044   2054     1   0.10190 328360.320000
   2047   2048     1   0.09730 310787.520000
   2052   2053     1   0.09730 310787.520000
   2055   2056     1   0.10129 337397.760000
   2057   2058     1   0.10969 276646.080000
   2057   2060     1   0.10969 276646.080000
   2059   2061     1   0.10969 276646.080000
   2059   2062     1   0.10969 276646.080000
   2064   2073     1   0.10969 276646.080000
   2064   2074     1   0.10969 276646.080000
   2065   2066     1   0.10969 276646.080000
   2065   2068     1   0.10969 276646.080000
   2067   2069     1   0.10969 276646.080000
   2067   2070     1   0.10969 276646.080000
   2075   2076     1   0.10969 276646.080000
   2075   2077     1   0.10969 276646.080000
   2080   2082     1   0.10969 276646.080000
   2081   2100     1   0.10969 276646.080000
   2083   2087     1   0.10969 276646.080000
   2084   2086     1   0.10969 276646.080000
   2085   2088     1   0.10961 277566.560000
   2089   2099     1   0.09730 310787.520000
   2090   2092     1   0.09730 310787.520000
   2091   2094     1   0.10969 276646.080000
   2091   2095     1   0.10969 276646.080000
   2093   2103     1   0.10190 328360.320000
   2096   2097     1   0.09730 310787.520000
   2101   2102     1   0.09730 310787.520000
   2104   2106     1   0.10969 276646.080000
   2105   2124     1   0.10969 276646.080000
   2107   2111     1   0.10969 276646.080000
   2108   2110     1   0.10969 276646.080000
   2109   2112     1   0.10961 277566.560000
   2113   2123     1   0.09730 310787.520000
   2114   2116     1   0.09730 310787.520000
   2115   2118     1   0.10969 276646.080000
   2115   2119     1   0.10969 276646.080000
   2117   2127     1   0.10190 328360.320000
   2120   2121     1   0.09730 310787.520000
   2125   2126     1   0.09730 310787.520000
   2128   2129     1   0.10129 337397.760000
   2130   2131     1   0.10969 276646.080000
   2130   2133     1   0.10969 276646.080000
   2132   2134     1   0.10969 276646.080000
   2132   2135     1   0.10969 276646.080000
   2137   2146     1   0.10969 276646.080000
   2137   2147     1   0.10969 276646.080000
   2138   2139     1   0.10969 276646.080000
   2138   2141     1   0.10969 276646.080000
   2140   2142     1   0.10969 276646.080000
   2140   2143     1   0.10969 276646.080000
   2148   2149     1   0.10969 276646.080000
   2148   2150     1   0.10969 276646.080000
   2153   2155     1   0.10969 276646.080000
   2154   2173     1   0.10969 276646.080000
   2156   2160     1   0.10969 276646.080000
   2157   2159     1   0.10969 276646.080000
   2158   2161     1   0.10961 277566.560000
   2162   2172     1   0.09730 310787.520000
   2163   2165     1   0.09730 310787.520000
   2164   2167     1   0.10969 276646.080000
   2164   2168     1   0.10969 276646.080000
   2166   2176     1   0.10190 328360.320000
   2169   2170     1   0.09730 310787.520000
   2174   2175     1   0.09730 310787.520000
   2177   2179     1   0.10969 276646.080000
   2178   2197     1   0.10969 276646.080000
   2180   2184     1   0.10969 276646.080000
   2181   2183     1   0.10969 276646.080000
   2182   2185     1   0.10961 277566.560000
   2186   2196     1   0.09730 310787.520000
   2187   2189     1   0.09730 310787.520000
   2188   2191     1   0.10969 276646.080000
   2188   2192     1   0.10969 276646.080000
   2190   2200     1   0.10190 328360.320000
   2193   2194     1   0.09730 310787.520000
   2198   2199     1   0.09730 310787.520000
   2201   2202     1   0.10129 337397.760000
   2203   2204     1   0.10969 276646.080000
   2203   2206     1   0.10969 276646.080000
   2205   2207     1   0.10969 276646.080000
   2205   2208     1   0.10969 276646.080000
   2210   2219     1   0.10969 276646.080000
   2210   2220     1   0.10969 276646.080000
   2211   2212     1   0.10969 276646.080000
   2211   2214     1   0.10969 276646.080000
   2213   2215     1   0.10969 276646.080000
   2213   2216     1   0.10969 276646.080000
   2221   2222     1   0.10969 276646.080000
   2221   2223     1   0.10969 276646.080000
   2226   2228     1   0.10969 276646.080000
   2227   2246     1   0.10969 276646.080000
   2229   2233     1   0.10969 276646.080000
   2230   2232     1   0.10969 276646.080000
   2231   2234     1   0.10961 277566.560000
   2235   2245     1   0.09730 310787.520000
   2236   2238     1   0.09730 310787.520000
   2237   2240     1   0.10969 276646.080000
   2237   2241     1   0.10969 276646.080000
   2239   2249     1   0.10190 328360.320000
   2242   2243     1   0.09730 310787.520000
   2247   2248     1   0.09730 310787.520000
   2250   2252     1   0.10969 276646.080000
   2251   2270     1   0.10969 276646.080000
   2253   2257     1   0.10969 276646.080000
   2254   2256     1   0.10969 276646.080000
   2255   2258     1   0.10961 277566.560000
   2259   2269     1   0.09730 310787.520000
   2260   2262     1   0.09730 310787.520000
   2261   2264     1   0.10969 276646.080000
   2261   2265     1   0.10969 276646.080000
   2263   2273     1   0.10190 328360.320000
   2266   2267     1   0.09730 310787.520000
   2271   2272     1   0.09730 310787.520000
   2274   2275     1   0.10129 337397.760000
   2276   2277     1   0.10969 276646.080000
   2276   2279     1   0.10969 276646.080000
   2278   2280     1   0.10969 276646.080000
   2278   2281     1   0.10969 276646.080000
   2283   2292     1   0.10969 276646.080000
   2283   2293     1   0.10969 276646.080000
   2284   2285     1   0.10969 276646.080000
   2284   2287     1   0.10969 276646.080000
   2286   2288     1   0.10969 276646.080000
   2286   2289     1   0.10969 276646.080000
   2294   2295     1   0.10969 276646.080000
   2294   2296     1   0.10969 276646.080000
   2299   2301     1   0.10969 276646.080000
   2300   2319     1   0.10969 276646.080000
   2302   2306     1   0.10969 276646.080000
   2303   2305     1   0.10969 276646.080000
   2304   2307     1   0.10961 277566.560000
   2308   2318     1   0.09730 310787.520000
   2309   2311     1   0.09730 310787.520000
   2310   2313     1   0.10969 276646.080000
   2310   2314     1   0.10969 276646.080000
   2312   2322     1   0.10190 328360.320000
   2315   2316     1   0.09730 310787.520000
   2320   2321     1   0.09730 310787.520000
   2323   2325     1   0.10969 276646.080000
   2324   2343     1   0.10969 276646.080000
   2326   2330     1   0.10969 276646.080000
   2327   2329     1   0.10969 276646.080000
   2328   2331     1   0.10961 277566.560000
   2332   2342     1   0.09730 310787.520000
   2333   2335     1   0.09730 310787.520000
   2334   2337     1   0.10969 276646.080000
   2334   2338     1   0.10969 276646.080000
   2336   2346     1   0.10190 328360.320000
   2339   2340     1   0.09730 310787.520000
   2344   2345     1   0.09730 310787.520000
   2347   2348     1   0.10129 337397.760000
   2349   2350     1   0.10969 276646.080000
   2349   2352     1   0.10969 276646.080000
   2351   2353     1   0.10969 276646.080000
   2351   2354     1   0.10969 276646.080000
   2356   2365     1   0.10969 276646.080000
   2356   2366     1   0.10969 276646.080000
   2357   2358     1   0.10969 276646.080000
   2357   2360     1   0.10969 276646.080000
   2359   2361     1   0.10969 276646.080000
   2359   2362     1   0.10969 276646.080000
   2367   2368     1   0.10969 276646.080000
   2367   2369     1   0.10969 276646.080000
   2372   2374     1   0.10969 276646.080000
   2373   2392     1   0.10969 276646.080000
   2375   2379     1   0.10969 276646.080000
   2376   2378     1   0.10969 276646.080000
   2377   2380     1   0.10961 277566.560000
   2381   2391     1   0.09730 310787.520000
   2382   2384     1   0.09730 310787.520000
   2383   2386     1   0.10969 276646.080000
   2383   2387     1   0.10969 276646.080000
   2385   2395     1   0.10190 328360.320000
   2388   2389     1   0.09730 310787.520000
   2393   2394     1   0.09730 310787.520000
   2396   2398     1   0.10969 276646.080000
   2397   2416     1   0.10969 276646.080000
   2399   2403     1   0.10969 276646.080000
   2400   2402     1   0.10969 276646.080000
   2401   2404     1   0.10961 277566.560000
   2405   2415     1   0.09730 310787.520000
   2406   2408     1   0.09730 310787.520000
   2407   2410     1   0.10969 276646.080000
   2407   2411     1   0.10969 276646.080000
   2409   2419     1   0.10190 328360.320000
   2412   2413     1   0.09730 310787.520000
   2417   2418     1   0.09730 310787.520000
   2420   2421     1   0.10129 337397.760000
   2422   2423     1   0.10969 276646.080000
   2422   2425     1   0.10969 276646.080000
   2424   2426     1   0.10969 276646.080000
   2424   2427     1   0.10969 276646.080000
   2429   2438     1   0.10969 276646.080000
   2429   2439     1   0.10969 276646.080000
   2430   2431     1   0.10969 276646.080000
   2430   2433     1   0.10969 276646.080000
   2432   2434     1   0.10969 276646.080000
   2432   2435     1   0.10969 276646.080000
   2440   2441     1   0.10969 276646.080000
   2440   2442     1   0.10969 276646.080000
   2445   2447     1   0.10969 276646.080000
   2446   2465     1   0.10969 276646.080000
   2448   2452     1   0.10969 276646.080000
   2449   2451     1   0.10969 276646.080000
   2450   2453     1   0.10961 277566.560000
   2454   2464     1   0.09730 310787.520000
   2455   2457     1   0.09730 310787.520000
   2456   2459     1   0.10969 276646.080000
   2456   2460     1   0.10969 276646.080000
   2458   2468     1   0.10190 328360.320000
   2461   2462     1   0.09730 310787.520000
   2466   2467     1   0.09730 310787.520000
   2469   2471     1   0.10969 276646.080000
   2470   2489     1   0.10969 276646.080000
   2472   2476     1   0.10969 276646.080000
   2473   2475     1   0.10969 276646.080000
   2474   2477     1   0.10961 277566.560000
   2478   2488     1   0.09730 310787.520000
   2479   2481     1   0.09730 310787.520000
   2480   2483     1   0.10969 276646.080000
   2480   2484     1   0.10969 276646.080000
   2482   2492     1   0.10190 328360.320000
   2485   2486     1   0.09730 310787.520000
   2490   2491     1   0.09730 310787.520000
   2493   2494     1   0.10129 337397.760000
   2495   2496     1   0.10969 276646.080000
   2495   2498     1   0.10969 276646.080000
   2497   2499     1   0.10969 276646.080000
   2497   2500     1   0.10969 276646.080000
   2502   2511     1   0.10969 276646.080000
   2502   2512     1   0.10969 276646.080000
   2503   2504     1   0.10969 276646.080000
   2503   2506     1   0.10969 276646.080000
   2505   2507     1   0.10969 276646.080000
   2505   2508     1   0.10969 276646.080000
   2513   2514     1   0.10969 276646.080000
   2513   2515     1   0.10969 276646.080000
   2518   2520     1   0.10969 276646.080000
   2519   2538     1   0.10969 276646.080000
   2521   2525     1   0.10969 276646.080000
   2522   2524     1   0.10969 276646.080000
   2523   2526     1   0.10961 277566.560000
   2527   2537     1   0.09730 310787.520000
   2528   2530     1   0.09730 310787.520000
   2529   2532     1   0.10969 276646.080000
   2529   2533     1   0.10969 276646.080000
   2531   2541     1   0.10190 328360.320000
   2534   2535     1   0.09730 310787.520000
   2539   2540     1   0.09730 310787.520000
   2542   2544     1   0.10969 276646.080000
   2543   2562     1   0.10969 276646.080000
   2545   2549     1   0.10969 276646.080000
   2546   2548     1   0.10969 276646.080000
   2547   2550     1   0.10961 277566.560000
   2551   2561     1   0.09730 310787.520000
   2552   2554     1   0.09730 310787.520000
   2553   2556     1   0.10969 276646.080000
   2553   2557     1   0.10969 276646.080000
   2555   2565     1   0.10190 328360.320000
   2558   2559     1   0.09730 310787.520000
   2563   2564     1   0.09730 310787.520000
   2566   2567     1   0.10129 337397.760000
   2568   2569     1   0.10969 276646.080000
   2568   2571     1   0.10969 276646.080000
   2570   2572     1   0.10969 276646.080000
   2570   2573     1   0.10969 276646.080000
   2575   2584     1   0.10969 276646.080000
   2575   2585     1   0.10969 276646.080000
   2576   2577     1   0.10969 276646.080000
   2576   2579     1   0.10969 276646.080000
   2578   2580     1   0.10969 276646.080000
   2578   2581     1   0.10969 276646.080000
   2586   2587     1   0.10969 276646.080000
   2586   2588     1   0.10969 276646.080000
   2591   2593     1   0.10969 276646.080000
   2592   2611     1   0.10969 276646.080000
   2594   2598     1   0.10969 276646.080000
   2595   2597     1   0.10969 276646.080000
   2596   2599     1   0.10961 277566.560000
   2600   2610     1   0.09730 310787.520000
   2601   2603     1   0.09730 310787.520000
   2602   2605     1   0.10969 276646.080000
   2602   2606     1   0.10969 276646.080000
   2604   2614     1   0.10190 328360.320000
   2607   2608     1   0.09730 310787.520000
   2612   2613     1   0.09730 310787.520000
   2615   2617     1   0.10969 276646.080000
   2616   2635     1   0.10969 276646.080000
   2618   2622     1   0.10969 276646.080000
   2619   2621     1   0.10969 276646.080000
   2620   2623     1   0.10961 277566.560000
   2624   2634     1   0.09730 310787.520000
   2625   2627     1   0.09730 310787.520000
   2626   2629     1   0.10969 276646.080000
   2626   2630     1   0.10969 276646.080000
   2628   2638     1   0.10190 328360.320000
   2631   2632     1   0.09730 310787.520000
   2636   2637     1   0.09730 310787.520000
   2639   2640     1   0.10129 337397.760000
   2641   2642     1   0.10969 276646.080000
   2641   2644     1   0.10969 276646.080000
   2643   2645     1   0.10969 276646.080000
   2643   2646     1   0.10969 276646.080000
   2648   2657     1   0.10969 276646.080000
   2648   2658     1   0.10969 276646.080000
   2649   2650     1   0.10969 276646.080000
   2649   2652     1   0.10969 276646.080000
   2651   2653     1   0.10969 276646.080000
   2651   2654     1   0.10969 276646.080000
   2659   2660     1   0.10969 276646.080000
   2659   2661     1   0.10969 276646.080000
   2664   2666     1   0.10969 276646.080000
   2665   2684     1   0.10969 276646.080000
   2667   2671     1   0.10969 276646.080000
   2668   2670     1   0.10969 276646.080000
   2669   2672     1   0.10961 277566.560000
   2673   2683     1   0.09730 310787.520000
   2674   2676     1   0.09730 310787.520000
   2675   2678     1   0.10969 276646.080000
   2675   2679     1   0.10969 276646.080000
   2677   2687     1   0.10190 328360.320000
   2680   2681     1   0.09730 310787.520000
   2685   2686     1   0.09730 310787.520000
   2688   2690     1   0.10969 276646.080000
   2689   2708     1   0.10969 276646.080000
   2691   2695     1   0.10969 276646.080000
   2692   2694     1   0.10969 276646.080000
   2693   2696     1   0.10961 277566.560000
   2697   2707     1   0.09730 310787.520000
   2698   2700     1   0.09730 310787.520000
   2699   2702     1   0.10969 276646.080000
   2699   2703     1   0.10969 276646.080000
   2701   2711     1   0.10190 328360.320000
   2704   2705     1   0.09730 310787.520000
   2709   2710     1   0.09730 310787.520000
   2712   2713     1   0.10129 337397.760000
   2714   2715     1   0.10969 276646.080000
   2714   2717     1   0.10969 276646.080000
   2716   2718     1   0.10969 276646.080000
   2716   2719     1   0.10969 276646.080000
   2721   2730     1   0.10969 276646.080000
   2721   2731     1   0.10969 276646.080000
   2722   2723     1   0.10969 276646.080000
   2722   2725     1   0.10969 276646.080000
   2724   2726     1   0.10969 276646.080000
   2724   2727     1   0.10969 276646.080000
   2732   2733     1   0.10969 276646.080000
   2732   2734     1   0.10969 276646.080000
   2737   2739     1   0.10969 276646.080000
   2738   2757     1   0.10969 276646.080000
   2740   2744     1   0.10969 276646.080000
   2741   2743     1   0.10969 276646.080000
   2742   2745     1   0.10961 277566.560000
   2746   2756     1   0.09730 310787.520000
   2747   2749     1   0.09730 310787.520000
   2748   2751     1   0.10969 276646.080000
   2748   2752     1   0.10969 276646.080000
   2750   2760     1   0.10190 328360.320000
   2753   2754     1   0.09730 310787.520000
   2758   2759     1   0.09730 310787.520000
   2761   2763     1   0.10969 276646.080000
   2762   2781     1   0.10969 276646.080000
   2764   2768     1   0.10969 276646.080000
   2765   2767     1   0.10969 276646.080000
   2766   2769     1   0.10961 277566.560000
   2770   2780     1   0.09730 310787.520000
   2771   2773     1   0.09730 310787.520000
   2772   2775     1   0.10969 276646.080000
   2772   2776     1   0.10969 276646.080000
   2774   2784     1   0.10190 328360.320000
   2777   2778     1   0.09730 310787.520000
   2782   2783     1   0.09730 310787.520000
   2785   2786     1   0.10129 337397.760000
   2787   2788     1   0.10969 276646.080000
   2787   2790     1   0.10969 276646.080000
   2789   2791     1   0.10969 276646.080000
   2789   2792     1   0.10969 276646.080000
   2794   2803     1   0.10969 276646.080000
   2794   2804     1   0.10969 276646.080000
   2795   2796     1   0.10969 276646.080000
   2795   2798     1   0.10969 276646.080000
   2797   2799     1   0.10969 276646.080000
   2797   2800     1   0.10969 276646.080000
   2805   2806     1   0.10969 276646.080000
   2805   2807     1   0.10969 276646.080000
   2810   2812     1   0.10969 276646.080000
   2811   2830     1   0.10969 276646.080000
   2813   2817     1   0.10969 276646.080000
   2814   2816     1   0.10969 276646.080000
   2815   2818     1   0.10961 277566.560000
   2819   2829     1   0.09730 310787.520000
   2820   2822     1   0.09730 310787.520000
   2821   2824     1   0.10969 276646.080000
   2821   2825     1   0.10969 276646.080000
   2823   2833     1   0.10190 328360.320000
   2826   2827     1   0.09730 310787.520000
   2831   2832     1   0.09730 310787.520000
   2834   2836     1   0.10969 276646.080000
   2835   2854     1   0.10969 276646.080000
   2837   2841     1   0.10969 276646.080000
   2838   2840     1   0.10969 276646.080000
   2839   2842     1   0.10961 277566.560000
   2843   2853     1   0.09730 310787.520000
   2844   2846     1   0.09730 310787.520000
   2845   2848     1   0.10969 276646.080000
   2845   2849     1   0.10969 276646.080000
   2847   2857     1   0.10190 328360.320000
   2850   2851     1   0.09730 310787.520000
   2855   2856     1   0.09730 310787.520000
   2858   2859     1   0.10129 337397.760000
   2860   2861     1   0.10969 276646.080000
   2860   2863     1   0.10969 276646.080000
   2862   2864     1   0.10969 276646.080000
   2862   2865     1   0.10969 276646.080000
   2867   2876     1   0.10969 276646.080000
   2867   2877     1   0.10969 276646.080000
   2868   2869     1   0.10969 276646.080000
   2868   2871     1   0.10969 276646.080000
   2870   2872     1   0.10969 276646.080000
   2870   2873     1   0.10969 276646.080000
   2878   2879     1   0.10969 276646.080000
   2878   2880     1   0.10969 276646.080000
   2883   2885     1   0.10969 276646.080000
   2884   2903     1   0.10969 276646.080000
   2886   2890     1   0.10969 276646.080000
   2887   2889     1   0.10969 276646.080000
   2888   2891     1   0.10961 277566.560000
   2892   2902     1   0.09730 310787.520000
   2893   2895     1   0.09730 310787.520000
   2894   2897     1   0.10969 276646.080000
   2894   2898     1   0.10969 276646.080000
   2896   2906     1   0.10190 328360.320000
   2899   2900     1   0.09730 310787.520000
   2904   2905     1   0.09730 310787.520000
   2907   2909     1   0.10969 276646.080000
   2908   2927     1   0.10969 276646.080000
   2910   2914     1   0.10969 276646.080000
   2911   2913     1   0.10969 276646.080000
   2912   2915     1   0.10961 277566.560000
   2916   2926     1   0.09730 310787.520000
   2917   2919     1   0.09730 310787.520000
   2918   2921     1   0.10969 276646.080000
   2918   2922     1   0.10969 276646.080000
   2920   2930     1   0.10190 328360.320000
   2923   2924     1   0.09730 310787.520000
   2928   2929     1   0.09730 310787.520000
   2931   2932     1   0.10129 337397.760000
   2933   2934     1   0.10969 276646.080000
   2933   2936     1   0.10969 276646.080000
   2935   2937     1   0.10969 276646.080000
   2935   2938     1   0.10969 276646.080000
   2940   2949     1   0.10969 276646.080000
   2940   2950     1   0.10969 276646.080000
   2941   2942     1   0.10969 276646.080000
   2941   2944     1   0.10969 276646.080000
   2943   2945     1   0.10969 276646.080000
   2943   2946     1   0.10969 276646.080000
   2951   2952     1   0.10969 276646.080000
   2951   2953     1   0.10969 276646.080000
   2956   2958     1   0.10969 276646.080000
   2957   2976     1   0.10969 276646.080000
   2959   2963     1   0.10969 276646.080000
   2960   2962     1   0.10969 276646.080000
   2961   2964     1   0.10961 277566.560000
   2965   2975     1   0.09730 310787.520000
   2966   2968     1   0.09730 310787.520000
   2967   2970     1   0.10969 276646.080000
   2967   2971     1   0.10969 276646.080000
   2969   2979     1   0.10190 328360.320000
   2972   2973     1   0.09730 310787.520000
   2977   2978     1   0.09730 310787.520000
   2980   2982     1   0.10969 276646.080000
   2981   3000     1   0.10969 276646.080000
   2983   2987     1   0.10969 276646.080000
   2984   2986     1   0.10969 276646.080000
   2985   2988     1   0.10961 277566.560000
   2989   2999     1   0.09730 310787.520000
   2990   2992     1   0.09730 310787.520000
   2991   2994     1   0.10969 276646.080000
   2991   2995     1   0.10969 276646.080000
   2993   3003     1   0.10190 328360.320000
   2996   2997     1   0.09730 310787.520000
   3001   3002     1   0.09730 310787.520000
   3004   3005     1   0.10129 337397.760000
   3006   3007     1   0.10969 276646.080000
   3006   3009     1   0.10969 276646.080000
   3008   3010     1   0.10969 276646.080000
   3008   3011     1   0.10969 276646.080000
   3013   3022     1   0.10969 276646.080000
   3013   3023     1   0.10969 276646.080000
   3014   3015     1   0.10969 276646.080000
   3014   3017     1   0.10969 276646.080000
   3016   3018     1   0.10969 276646.080000
   3016   3019     1   0.10969 276646.080000
   3024   3025     1   0.10969 276646.080000
   3024   3026     1   0.10969 276646.080000
   3029   3031     1   0.10969 276646.080000
   3030   3049     1   0.10969 276646.080000
   3032   3036     1   0.10969 276646.080000
   3033   3035     1   0.10969 276646.080000
   3034   3037     1   0.10961 277566.560000
   3038   3048     1   0.09730 310787.520000
   3039   3041     1   0.09730 310787.520000
   3040   3043     1   0.10969 276646.080000
   3040   3044     1   0.10969 276646.080000
   3042   3052     1   0.10190 328360.320000
   3045   3046     1   0.09730 310787.520000
   3050   3051     1   0.09730 310787.520000
   3053   3055     1   0.10969 276646.080000
   3054   3073     1   0.10969 276646.080000
   3056   3060     1   0.10969 276646.080000
   3057   3059     1   0.10969 276646.080000
   3058   3061     1   0.10961 277566.560000
   3062   3072     1   0.09730 310787.520000
   3063   3065     1   0.09730 310787.520000
   3064   3067     1   0.10969 276646.080000
   3064   3068     1   0.10969 276646.080000
   3066   3076     1   0.10190 328360.320000
   3069   3070     1   0.09730 310787.520000
   3074   3075     1   0.09730 310787.520000

[ pairs ]
;    ai     aj funct         c0         c1         c2         c3
      1     15     1
      1     18     1
      1     30     1
      1     27     1
      4      9     1
      4     12     1
      4     21     1
      4     24     1
      8      7     1
      7     35     1
      7     36     1
      8     34     1
      8     33     1
      9     27     1
      9     40     1
      9     89     1
     12     30     1
     12     37     1
     12     64     1
     15     24     1
     15     38     1
     15    114     1
     18     21     1
     18     39     1
     18    139     1
     21     94     1
     24    119     1
     27     44     1
     30     69     1
     33     41     1
     34     66     1
     35     91     1
     36    116     1
     37     44     1
     38     94     1
     39    119     1
     40     69     1
     41     57     1
     41     54     1
     44     48     1
     44     51     1
     47     64     1
     47     61     1
     47     60     1
     48     54     1
     48     63     1
     48    189     1
     51     57     1
     51     62     1
     51    164     1
     54    144     1
     57    169     1
     60    141     1
     61    166     1
     62    144     1
     63    169     1
     66     82     1
     66     79     1
     69     73     1
     69     76     1
     72     89     1
     72     86     1
     72     85     1
     73     79     1
     73     88     1
     73    239     1
     76     82     1
     76     87     1
     76    214     1
     79    194     1
     82    219     1
     85    191     1
     86    216     1
     87    194     1
     88    219     1
     91    107     1
     91    104     1
     94     98     1
     94    101     1
     97    114     1
     97    111     1
     97    110     1
     98    104     1
     98    113     1
     98    289     1
    101    107     1
    101    112     1
    101    264     1
    104    244     1
    107    269     1
    110    241     1
    111    266     1
    112    244     1
    113    269     1
    116    132     1
    116    129     1
    119    123     1
    119    126     1
    122    139     1
    122    136     1
    122    135     1
    123    129     1
    123    138     1
    123    339     1
    126    132     1
    126    137     1
    126    314     1
    129    294     1
    132    319     1
    135    291     1
    136    316     1
    137    294     1
    138    319     1
    141    157     1
    141    154     1
    144    148     1
    144    151     1
    147    164     1
    147    161     1
    147    160     1
    148    154     1
    148    163     1
    148    389     1
    151    157     1
    151    162     1
    151    364     1
    154    344     1
    157    369     1
    160    341     1
    161    366     1
    162    344     1
    163    369     1
    166    182     1
    166    179     1
    169    173     1
    169    176     1
    172    189     1
    172    186     1
    172    185     1
    173    179     1
    173    188     1
    173    439     1
    176    182     1
    176    187     1
    176    414     1
    179    394     1
    182    419     1
    185    391     1
    186    416     1
    187    394     1
    188    419     1
    191    207     1
    191    204     1
    194    198     1
    194    201     1
    197    214     1
    197    211     1
    197    210     1
    198    204     1
    198    213     1
    198    489     1
    201    207     1
    201    212     1
    201    464     1
    204    444     1
    207    469     1
    210    441     1
    211    466     1
    212    444     1
    213    469     1
    216    232     1
    216    229     1
    219    223     1
    219    226     1
    222    239     1
    222    236     1
    222    235     1
    223    229     1
    223    238     1
    223    539     1
    226    232     1
    226    237     1
    226    514     1
    229    494     1
    232    519     1
    235    491     1
    236    516     1
    237    494     1
    238    519     1
    241    257     1
    241    254     1
    244    248     1
    244    251     1
    247    264     1
    247    261     1
    247    260     1
    248    254     1
    248    263     1
    248    589     1
    251    257     1
    251    262     1
    251    564     1
    254    544     1
    257    569     1
    260    541     1
    261    566     1
    262    544     1
    263    569     1
    266    282     1
    266    279     1
    269    273     1
    269    276     1
    272    289     1
    272    286     1
    272    285     1
    273    279     1
    273    288     1
    273    639     1
    276    282     1
    276    287     1
    276    614     1
    279    594     1
    282    619     1
    285    591     1
    286    616     1
    287    594     1
    288    619     1
    291    307     1
    291    304     1
    294    298     1
    294    301     1
    297    314     1
    297    311     1
    297    310     1
    298    304     1
    298    313     1
    298    689     1
    301    307     1
    301    312     1
    301    664     1
    304    644     1
    307    669     1
    310    641     1
    311    666     1
    312    644     1
    313    669     1
    316    332     1
    316    329     1
    319    323     1
    319    326     1
    322    339     1
    322    336     1
    322    335     1
    323    329     1
    323    338     1
    323    739     1
    326    332     1
    326    337     1
    326    714     1
    329    694     1
    332    719     1
    335    691     1
    336    716     1
    337    694     1
    338    719     1
    341    357     1
    341    354     1
    344    348     1
    344    351     1
    347    364     1
    347    361     1
    347    360     1
    348    354     1
    348    363     1
    348    814     1
    351    357     1
    351    741     1
    351    362     1
    354    743     1
    357    816     1
    360    745     1
    361    818     1
    362    743     1
    363    816     1
    366    382     1
    366    379     1
    369    373     1
    369    376     1
    372    389     1
    372    386     1
    372    385     1
    373    379     1
    373    388     1
    373    960     1
    376    382     1
    376    887     1
    376    387     1
    379    889     1
    382    962     1
    385    891     1
    386    964     1
    387    889     1
    388    962     1
    391    407     1
    391    404     1
    394    398     1
    394    401     1
    397    414     1
    397    411     1
    397    410     1
    398    404     1
    398    413     1
    398   1106     1
    401    407     1
    401   1033     1
    401    412     1
    404   1035     1
    407   1108     1
    410   1037     1
    411   1110     1
    412   1035     1
    413   1108     1
    416    432     1
    416    429     1
    419    423     1
    419    426     1
    422    439     1
    422    436     1
    422    435     1
    423    429     1
    423    438     1
    423   1252     1
    426    432     1
    426   1179     1
    426    437     1
    429   1181     1
    432   1254     1
    435   1183     1
    436   1256     1
    437   1181     1
    438   1254     1
    441    457     1
    441    454     1
    444    448     1
    444    451     1
    447    464     1
    447    461     1
    447    460     1
    448    454     1
    448    463     1
    448   1398     1
    451    457     1
    451   1325     1
    451    462     1
    454   1327     1
    457   1400     1
    460   1329     1
    461   1402     1
    462   1327     1
    463   1400     1
    466    482     1
    466    479     1
    469    473     1
    469    476     1
    472    489     1
    472    486     1
    472    485     1
    473    479     1
    473    488     1
    473   1544     1
    476    482     1
    476   1471     1
    476    487     1
    479   1473     1
    482   1546     1
    485   1475     1
    486   1548     1
    487   1473     1
    488   1546     1
    491    507     1
    491    504     1
    494    498     1
    494    501     1
    497    514     1
    497    511     1
    497    510     1
    498    504     1
    498    513     1
    498   1690     1
    501    507     1
    501   1617     1
    501    512     1
    504   1619     1
    507   1692     1
    510   1621     1
    511   1694     1
    512   1619     1
    513   1692     1
    516    532     1
    516    529     1
    519    523     1
    519    526     1
    522    539     1
    522    536     1
    522    535     1
    523    529     1
    523    538     1
    523   1836     1
    526    532     1
    526   1763     1
    526    537     1
    529   1765     1
    532   1838     1
    535   1767     1
    536   1840     1
    537   1765     1
    538   1838     1
    541    557     1
    541    554     1
    544    548     1
    544    551     1
    547    564     1
    547    561     1
    547    560     1
    548    554     1
    548    563     1
    548   1982     1
    551    557     1
    551   1909     1
    551    562     1
    554   1911     1
    557   1984     1
    560   1913     1
    561   1986     1
    562   1911     1
    563   1984     1
    566    582     1
    566    579     1
    569    573     1
    569    576     1
    572    589     1
    572    586     1
    572    585     1
    573    579     1
    573    588     1
    573   2128     1
    576    582     1
    576   2055     1
    576    587     1
    579   2057     1
    582   2130     1
    585   2059     1
    586   2132     1
    587   2057     1
    588   2130     1
    591    607     1
    591    604     1
    594    598     1
    594    601     1
    597    614     1
    597    611     1
    597    610     1
    598    604     1
    598    613     1
    598   2274     1
    601    607     1
    601   2201     1
    601    612     1
    604   2203     1
    607   2276     1
    610   2205     1
    611   2278     1
    612   2203     1
    613   2276     1
    616    632     1
    616    629     1
    619    623     1
    619    626     1
    622    639     1
    622    636     1
    622    635     1
    623    629     1
    623    638     1
    623   2420     1
    626    632     1
    626   2347     1
    626    637     1
    629   2349     1
    632   2422     1
    635   2351     1
    636   2424     1
    637   2349     1
    638   2422     1
    641    657     1
    641    654     1
    644    648     1
    644    651     1
    647    664     1
    647    661     1
    647    660     1
    648    654     1
    648    663     1
    648   2566     1
    651    657     1
    651   2493     1
    651    662     1
    654   2495     1
    657   2568     1
    660   2497     1
    661   2570     1
    662   2495     1
    663   2568     1
    666    682     1
    666    679     1
    669    673     1
    669    676     1
    672    689     1
    672    686     1
    672    685     1
    673    679     1
    673    688     1
    673   2712     1
    676    682     1
    676   2639     1
    676    687     1
    679   2641     1
    682   2714     1
    685   2643     1
    686   2716     1
    687   2641     1
    688   2714     1
    691    707     1
    691    704     1
    694    698     1
    694    701     1
    697    714     1
    697    711     1
    697    710     1
    698    704     1
    698    713     1
    698   2858     1
    701    707     1
    701   2785     1
    701    712     1
    704   2787     1
    707   2860     1
    710   2789     1
    711   2862     1
    712   2787     1
    713   2860     1
    716    732     1
    716    729     1
    719    723     1
    719    726     1
    722    739     1
    722    736     1
    722    735     1
    723    729     1
    723   3004     1
    723    738     1
    726    732     1
    726   2931     1
    726    737     1
    729   2933     1
    732   3006     1
    735   2935     1
    736   3008     1
    737   2933     1
    738   3006     1
    741    749     1
    743    750     1
    743    751     1
    745    761     1
    745    753     1
    749    764     1
    749    757     1
    750    753     1
    750    765     1
    750    813     1
    751    761     1
    751    758     1
    751    789     1
    753    770     1
    757    769     1
    757    771     1
    758    770     1
    761    794     1
    764    793     1
    764    795     1
    765    794     1
    766    770     1
    766    776     1
    766    775     1
    767    782     1
    767    771     1
    767    789     1
    769    777     1
    769    784     1
    769    775     1
    770    787     1
    771    776     1
    771    777     1
    775    789     1
    776    787     1
    776    789     1
    777    787     1
    782    784     1
    784    787     1
    784    789     1
    790    794     1
    790    800     1
    790    799     1
    791    806     1
    791    795     1
    791    813     1
    793    801     1
    793    808     1
    793    799     1
    794    811     1
    795    800     1
    795    801     1
    799    813     1
    800    811     1
    800    813     1
    801    811     1
    806    808     1
    808    811     1
    808    813     1
    814    822     1
    816    823     1
    816    824     1
    818    834     1
    818    826     1
    822    837     1
    822    830     1
    823    838     1
    823    886     1
    823    826     1
    824    831     1
    824    862     1
    824    834     1
    826    843     1
    830    844     1
    830    842     1
    831    843     1
    834    867     1
    837    868     1
    837    866     1
    838    867     1
    839    843     1
    839    849     1
    839    848     1
    840    844     1
    840    862     1
    840    855     1
    842    848     1
    842    857     1
    842    850     1
    843    860     1
    844    850     1
    844    849     1
    848    862     1
    849    862     1
    849    860     1
    850    860     1
    855    857     1
    857    862     1
    857    860     1
    863    867     1
    863    873     1
    863    872     1
    864    868     1
    864    886     1
    864    879     1
    866    872     1
    866    881     1
    866    874     1
    867    884     1
    868    874     1
    868    873     1
    872    886     1
    873    886     1
    873    884     1
    874    884     1
    879    881     1
    881    886     1
    881    884     1
    887    895     1
    889    896     1
    889    897     1
    891    907     1
    891    899     1
    895    910     1
    895    903     1
    896    899     1
    896    911     1
    896    959     1
    897    907     1
    897    904     1
    897    935     1
    899    916     1
    903    915     1
    903    917     1
    904    916     1
    907    940     1
    910    939     1
    910    941     1
    911    940     1
    912    916     1
    912    922     1
    912    921     1
    913    928     1
    913    917     1
    913    935     1
    915    923     1
    915    930     1
    915    921     1
    916    933     1
    917    922     1
    917    923     1
    921    935     1
    922    933     1
    922    935     1
    923    933     1
    928    930     1
    930    933     1
    930    935     1
    936    940     1
    936    946     1
    936    945     1
    937    952     1
    937    941     1
    937    959     1
    939    947     1
    939    954     1
    939    945     1
    940    957     1
    941    946     1
    941    947     1
    945    959     1
    946    957     1
    946    959     1
    947    957     1
    952    954     1
    954    957     1
    954    959     1
    960    968     1
    962    969     1
    962    970     1
    964    980     1
    964    972     1
    968    983     1
    968    976     1
    969    984     1
    969   1032     1
    969    972     1
    970    977     1
    970   1008     1
    970    980     1
    972    989     1
    976    990     1
    976    988     1
    977    989     1
    980   1013     1
    983   1014     1
    983   1012     1
    984   1013     1
    985    989     1
    985    995     1
    985    994     1
    986    990     1
    986   1008     1
    986   1001     1
    988    994     1
    988   1003     1
    988    996     1
    989   1006     1
    990    996     1
    990    995     1
    994   1008     1
    995   1008     1
    995   1006     1
    996   1006     1
   1001   1003     1
   1003   1008     1
   1003   1006     1
   1009   1013     1
   1009   1019     1
   1009   1018     1
   1010   1014     1
   1010   1032     1
   1010   1025     1
   1012   1018     1
   1012   1027     1
   1012   1020     1
   1013   1030     1
   1014   1020     1
   1014   1019     1
   1018   1032     1
   1019   1032     1
   1019   1030     1
   1020   1030     1
   1025   1027     1
   1027   1032     1
   1027   1030     1
   1033   1041     1
   1035   1042     1
   1035   1043     1
   1037   1053     1
   1037   1045     1
   1041   1056     1
   1041   1049     1
   1042   1045     1
   1042   1057     1
   1042   1105     1
   1043   1053     1
   1043   1050     1
   1043   1081     1
   1045   1062     1
   1049   1061     1
   1049   1063     1
   1050   1062     1
   1053   1086     1
   1056   1085     1
   1056   1087     1
   1057   1086     1
   1058   1062     1
   1058   1068     1
   1058   1067     1
   1059   1074     1
   1059   1063     1
   1059   1081     1
   1061   1069     1
   1061   1076     1
   1061   1067     1
   1062   1079     1
   1063   1068     1
   1063   1069     1
   1067   1081     1
   1068   1079     1
   1068   1081     1
   1069   1079     1
   1074   1076     1
   1076   1079     1
   1076   1081     1
   1082   1086     1
   1082   1092     1
   1082   1091     1
   1083   1098     1
   1083   1087     1
   1083   1105     1
   1085   1093     1
   1085   1100     1
   1085   1091     1
   1086   1103     1
   1087   1092     1
   1087   1093     1
   1091   1105     1
   1092   1103     1
   1092   1105     1
   1093   1103     1
   1098   1100     1
   1100   1103     1
   1100   1105     1
   1106   1114     1
   1108   1115     1
   1108   1116     1
   1110   1126     1
   1110   1118     1
   1114   1129     1
   1114   1122     1
   1115   1130     1
   1115   1178     1
   1115   1118     1
   1116   1123     1
   1116   1154     1
   1116   1126     1
   1118   1135     1
   1122   1136     1
   1122   1134     1
   1123   1135     1
   1126   1159     1
   1129   1160     1
   1129   1158     1
   1130   1159     1
   1131   1135     1
   1131   1141     1
   1131   1140     1
   1132   1136     1
   1132   1154     1
   1132   1147     1
   1134   1140     1
   1134   1149     1
   1134   1142     1
   1135   1152     1
   1136   1142     1
   1136   1141     1
   1140   1154     1
   1141   1154     1
   1141   1152     1
   1142   1152     1
   1147   1149     1
   1149   1154     1
   1149   1152     1
   1155   1159     1
   1155   1165     1
   1155   1164     1
   1156   1160     1
   1156   1178     1
   1156   1171     1
   1158   1164     1
   1158   1173     1
   1158   1166     1
   1159   1176     1
   1160   1166     1
   1160   1165     1
   1164   1178     1
   1165   1178     1
   1165   1176     1
   1166   1176     1
   1171   1173     1
   1173   1178     1
   1173   1176     1
   1179   1187     1
   1181   1188     1
   1181   1189     1
   1183   1199     1
   1183   1191     1
   1187   1202     1
   1187   1195     1
   1188   1191     1
   1188   1203     1
   1188   1251     1
   1189   1199     1
   1189   1196     1
   1189   1227     1
   1191   1208     1
   1195   1207     1
   1195   1209     1
   1196   1208     1
   1199   1232     1
   1202   1231     1
   1202   1233     1
   1203   1232     1
   1204   1208     1
   1204   1214     1
   1204   1213     1
   1205   1220     1
   1205   1209     1
   1205   1227     1
   1207   1215     1
   1207   1222     1
   1207   1213     1
   1208   1225     1
   1209   1214     1
   1209   1215     1
   1213   1227     1
   1214   1225     1
   1214   1227     1
   1215   1225     1
   1220   1222     1
   1222   1225     1
   1222   1227     1
   1228   1232     1
   1228   1238     1
   1228   1237     1
   1229   1244     1
   1229   1233     1
   1229   1251     1
   1231   1239     1
   1231   1246     1
   1231   1237     1
   1232   1249     1
   1233   1238     1
   1233   1239     1
   1237   1251     1
   1238   1249     1
   1238   1251     1
   1239   1249     1
   1244   1246     1
   1246   1249     1
   1246   1251     1
   1252   1260     1
   1254   1261     1
   1254   1262     1
   1256   1272     1
   1256   1264     1
   1260   1275     1
   1260   1268     1
   1261   1276     1
   1261   1324     1
   1261   1264     1
   1262   1269     1
   1262   1300     1
   1262   1272     1
   1264   1281     1
   1268   1282     1
   1268   1280     1
   1269   1281     1
   1272   1305     1
   1275   1306     1
   1275   1304     1
   1276   1305     1
   1277   1281     1
   1277   1287     1
   1277   1286     1
   1278   1282     1
   1278   1300     1
   1278   1293     1
   1280   1286     1
   1280   1295     1
   1280   1288     1
   1281   1298     1
   1282   1288     1
   1282   1287     1
   1286   1300     1
   1287   1300     1
   1287   1298     1
   1288   1298     1
   1293   1295     1
   1295   1300     1
   1295   1298     1
   1301   1305     1
   1301   1311     1
   1301   1310     1
   1302   1306     1
   1302   1324     1
   1302   1317     1
   1304   1310     1
   1304   1319     1
   1304   1312     1
   1305   1322     1
   1306   1312     1
   1306   1311     1
   1310   1324     1
   1311   1324     1
   1311   1322     1
   1312   1322     1
   1317   1319     1
   1319   1324     1
   1319   1322     1
   1325   1333     1
   1327   1334     1
   1327   1335     1
   1329   1345     1
   1329   1337     1
   1333   1348     1
   1333   1341     1
   1334   1337     1
   1334   1349     1
   1334   1397     1
   1335   1345     1
   1335   1342     1
   1335   1373     1
   1337   1354     1
   1341   1353     1
   1341   1355     1
   1342   1354     1
   1345   1378     1
   1348   1377     1
   1348   1379     1
   1349   1378     1
   1350   1354     1
   1350   1360     1
   1350   1359     1
   1351   1366     1
   1351   1355     1
   1351   1373     1
   1353   1361     1
   1353   1368     1
   1353   1359     1
   1354   1371     1
   1355   1360     1
   1355   1361     1
   1359   1373     1
   1360   1371     1
   1360   1373     1
   1361   1371     1
   1366   1368     1
   1368   1371     1
   1368   1373     1
   1374   1378     1
   1374   1384     1
   1374   1383     1
   1375   1390     1
   1375   1379     1
   1375   1397     1
   1377   1385     1
   1377   1392     1
   1377   1383     1
   1378   1395     1
   1379   1384     1
   1379   1385     1
   1383   1397     1
   1384   1395     1
   1384   1397     1
   1385   1395     1
   1390   1392     1
   1392   1395     1
   1392   1397     1
   1398   1406     1
   1400   1407     1
   1400   1408     1
   1402   1418     1
   1402   1410     1
   1406   1421     1
   1406   1414     1
   1407   1422     1
   1407   1470     1
   1407   1410     1
   1408   1415     1
   1408   1446     1
   1408   1418     1
   1410   1427     1
   1414   1428     1
   1414   1426     1
   1415   1427     1
   1418   1451     1
   1421   1452     1
   1421   1450     1
   1422   1451     1
   1423   1427     1
   1423   1433     1
   1423   1432     1
   1424   1428     1
   1424   1446     1
   1424   1439     1
   1426   1432     1
   1426   1441     1
   1426   1434     1
   1427   1444     1
   1428   1434     1
   1428   1433     1
   1432   1446     1
   1433   1446     1
   1433   1444     1
   1434   1444     1
   1439   1441     1
   1441   1446     1
   1441   1444     1
   1447   1451     1
   1447   1457     1
   1447   1456     1
   1448   1452     1
   1448   1470     1
   1448   1463     1
   1450   1456     1
   1450   1465     1
   1450   1458     1
   1451   1468     1
   1452   1458     1
   1452   1457     1
   1456   1470     1
   1457   1470     1
   1457   1468     1
   1458   1468     1
   1463   1465     1
   1465   1470     1
   1465   1468     1
   1471   1479     1
   1473   1480     1
   1473   1481     1
   1475   1491     1
   1475   1483     1
   1479   1494     1
   1479   1487     1
   1480   1483     1
   1480   1495     1
   1480   1543     1
   1481   1491     1
   1481   1488     1
   1481   1519     1
   1483   1500     1
   1487   1499     1
   1487   1501     1
   1488   1500     1
   1491   1524     1
   1494   1523     1
   1494   1525     1
   1495   1524     1
   1496   1500     1
   1496   1506     1
   1496   1505     1
   1497   1512     1
   1497   1501     1
   1497   1519     1
   1499   1507     1
   1499   1514     1
   1499   1505     1
   1500   1517     1
   1501   1506     1
   1501   1507     1
   1505   1519     1
   1506   1517     1
   1506   1519     1
   1507   1517     1
   1512   1514     1
   1514   1517     1
   1514   1519     1
   1520   1524     1
   1520   1530     1
   1520   1529     1
   1521   1536     1
   1521   1525     1
   1521   1543     1
   1523   1531     1
   1523   1538     1
   1523   1529     1
   1524   1541     1
   1525   1530     1
   1525   1531     1
   1529   1543     1
   1530   1541     1
   1530   1543     1
   1531   1541     1
   1536   1538     1
   1538   1541     1
   1538   1543     1
   1544   1552     1
   1546   1553     1
   1546   1554     1
   1548   1564     1
   1548   1556     1
   1552   1567     1
   1552   1560     1
   1553   1568     1
   1553   1616     1
   1553   1556     1
   1554   1561     1
   1554   1592     1
   1554   1564     1
   1556   1573     1
   1560   1574     1
   1560   1572     1
   1561   1573     1
   1564   1597     1
   1567   1598     1
   1567   1596     1
   1568   1597     1
   1569   1573     1
   1569   1579     1
   1569   1578     1
   1570   1574     1
   1570   1592     1
   1570   1585     1
   1572   1578     1
   1572   1587     1
   1572   1580     1
   1573   1590     1
   1574   1580     1
   1574   1579     1
   1578   1592     1
   1579   1592     1
   1579   1590     1
   1580   1590     1
   1585   1587     1
   1587   1592     1
   1587   1590     1
   1593   1597     1
   1593   1603     1
   1593   1602     1
   1594   1598     1
   1594   1616     1
   1594   1609     1
   1596   1602     1
   1596   1611     1
   1596   1604     1
   1597   1614     1
   1598   1604     1
   1598   1603     1
   1602   1616     1
   1603   1616     1
   1603   1614     1
   1604   1614     1
   1609   1611     1
   1611   1616     1
   1611   1614     1
   1617   1625     1
   1619   1626     1
   1619   1627     1
   1621   1637     1
   1621   1629     1
   1625   1640     1
   1625   1633     1
   1626   1629     1
   1626   1641     1
   1626   1689     1
   1627   1637     1
   1627   1634     1
   1627   1665     1
   1629   1646     1
   1633   1645     1
   1633   1647     1
   1634   1646     1
   1637   1670     1
   1640   1669     1
   1640   1671     1
   1641   1670     1
   1642   1646     1
   1642   1652     1
   1642   1651     1
   1643   1658     1
   1643   1647     1
   1643   1665     1
   1645   1653     1
   1645   1660     1
   1645   1651     1
   1646   1663     1
   1647   1652     1
   1647   1653     1
   1651   1665     1
   1652   1663     1
   1652   1665     1
   1653   1663     1
   1658   1660     1
   1660   1663     1
   1660   1665     1
   1666   1670     1
   1666   1676     1
   1666   1675     1
   1667   1682     1
   1667   1671     1
   1667   1689     1
   1669   1677     1
   1669   1684     1
   1669   1675     1
   1670   1687     1
   1671   1676     1
   1671   1677     1
   1675   1689     1
   1676   1687     1
   1676   1689     1
   1677   1687     1
   1682   1684     1
   1684   1687     1
   1684   1689     1
   1690   1698     1
   1692   1699     1
   1692   1700     1
   1694   1710     1
   1694   1702     1
   1698   1713     1
   1698   1706     1
   1699   1714     1
   1699   1762     1
   1699   1702     1
   1700   1707     1
   1700   1738     1
   1700   1710     1
   1702   1719     1
   1706   1720     1
   1706   1718     1
   1707   1719     1
   1710   1743     1
   1713   1744     1
   1713   1742     1
   1714   1743     1
   1715   1719     1
   1715   1725     1
   1715   1724     1
   1716   1720     1
   1716   1738     1
   1716   1731     1
   1718   1724     1
   1718   1733     1
   1718   1726     1
   1719   1736     1
   1720   1726     1
   1720   1725     1
   1724   1738     1
   1725   1738     1
   1725   1736     1
   1726   1736     1
   1731   1733     1
   1733   1738     1
   1733   1736     1
   1739   1743     1
   1739   1749     1
   1739   1748     1
   1740   1744     1
   1740   1762     1
   1740   1755     1
   1742   1748     1
   1742   1757     1
   1742   1750     1
   1743   1760     1
   1744   1750     1
   1744   1749     1
   1748   1762     1
   1749   1762     1
   1749   1760     1
   1750   1760     1
   1755   1757     1
   1757   1762     1
   1757   1760     1
   1763   1771     1
   1765   1772     1
   1765   1773     1
   1767   1783     1
   1767   1775     1
   1771   1786     1
   1771   1779     1
   1772   1775     1
   1772   1787     1
   1772   1835     1
   1773   1783     1
   1773   1780     1
   1773   1811     1
   1775   1792     1
   1779   1791     1
   1779   1793     1
   1780   1792     1
   1783   1816     1
   1786   1815     1
   1786   1817     1
   1787   1816     1
   1788   1792     1
   1788   1798     1
   1788   1797     1
   1789   1804     1
   1789   1793     1
   1789   1811     1
   1791   1799     1
   1791   1806     1
   1791   1797     1
   1792   1809     1
   1793   1798     1
   1793   1799     1
   1797   1811     1
   1798   1809     1
   1798   1811     1
   1799   1809     1
   1804   1806     1
   1806   1809     1
   1806   1811     1
   1812   1816     1
   1812   1822     1
   1812   1821     1
   1813   1828     1
   1813   1817     1
   1813   1835     1
   1815   1823     1
   1815   1830     1
   1815   1821     1
   1816   1833     1
   1817   1822     1
   1817   1823     1
   1821   1835     1
   1822   1833     1
   1822   1835     1
   1823   1833     1
   1828   1830     1
   1830   1833     1
   1830   1835     1
   1836   1844     1
   1838   1845     1
   1838   1846     1
   1840   1856     1
   1840   1848     1
   1844   1859     1
   1844   1852     1
   1845   1860     1
   1845   1908     1
   1845   1848     1
   1846   1853     1
   1846   1884     1
   1846   1856     1
   1848   1865     1
   1852   1866     1
   1852   1864     1
   1853   1865     1
   1856   1889     1
   1859   1890     1
   1859   1888     1
   1860   1889     1
   1861   1865     1
   1861   1871     1
   1861   1870     1
   1862   1866     1
   1862   1884     1
   1862   1877     1
   1864   1870     1
   1864   1879     1
   1864   1872     1
   1865   1882     1
   1866   1872     1
   1866   1871     1
   1870   1884     1
   1871   1884     1
   1871   1882     1
   1872   1882     1
   1877   1879     1
   1879   1884     1
   1879   1882     1
   1885   1889     1
   1885   1895     1
   1885   1894     1
   1886   1890     1
   1886   1908     1
   1886   1901     1
   1888   1894     1
   1888   1903     1
   1888   1896     1
   1889   1906     1
   1890   1896     1
   1890   1895     1
   1894   1908     1
   1895   1908     1
   1895   1906     1
   1896   1906     1
   1901   1903     1
   1903   1908     1
   1903   1906     1
   1909   1917     1
   1911   1918     1
   1911   1919     1
   1913   1929     1
   1913   1921     1
   1917   1932     1
   1917   1925     1
   1918   1921     1
   1918   1933     1
   1918   1981     1
   1919   1929     1
   1919   1926     1
   1919   1957     1
   1921   1938     1
   1925   1937     1
   1925   1939     1
   1926   1938     1
   1929   1962     1
   1932   1961     1
   1932   1963     1
   1933   1962     1
   1934   1938     1
   1934   1944     1
   1934   1943     1
   1935   1950     1
   1935   1939     1
   1935   1957     1
   1937   1945     1
   1937   1952     1
   1937   1943     1
   1938   1955     1
   1939   1944     1
   1939   1945     1
   1943   1957     1
   1944   1955     1
   1944   1957     1
   1945   1955     1
   1950   1952     1
   1952   1955     1
   1952   1957     1
   1958   1962     1
   1958   1968     1
   1958   1967     1
   1959   1974     1
   1959   1963     1
   1959   1981     1
   1961   1969     1
   1961   1976     1
   1961   1967     1
   1962   1979     1
   1963   1968     1
   1963   1969     1
   1967   1981     1
   1968   1979     1
   1968   1981     1
   1969   1979     1
   1974   1976     1
   1976   1979     1
   1976   1981     1
   1982   1990     1
   1984   1991     1
   1984   1992     1
   1986   2002     1
   1986   1994     1
   1990   2005     1
   1990   1998     1
   1991   2006     1
   1991   2054     1
   1991   1994     1
   1992   1999     1
   1992   2030     1
   1992   2002     1
   1994   2011     1
   1998   2012     1
   1998   2010     1
   1999   2011     1
   2002   2035     1
   2005   2036     1
   2005   2034     1
   2006   2035     1
   2007   2011     1
   2007   2017     1
   2007   2016     1
   2008   2012     1
   2008   2030     1
   2008   2023     1
   2010   2016     1
   2010   2025     1
   2010   2018     1
   2011   2028     1
   2012   2018     1
   2012   2017     1
   2016   2030     1
   2017   2030     1
   2017   2028     1
   2018   2028     1
   2023   2025     1
   2025   2030     1
   2025   2028     1
   2031   2035     1
   2031   2041     1
   2031   2040     1
   2032   2036     1
   2032   2054     1
   2032   2047     1
   2034   2040     1
   2034   2049     1
   2034   2042     1
   2035   2052     1
   2036   2042     1
   2036   2041     1
   2040   2054     1
   2041   2054     1
   2041   2052     1
   2042   2052     1
   2047   2049     1
   2049   2054     1
   2049   2052     1
   2055   2063     1
   2057   2064     1
   2057   2065     1
   2059   2075     1
   2059   2067     1
   2063   2078     1
   2063   2071     1
   2064   2067     1
   2064   2079     1
   2064   2127     1
   2065   2075     1
   2065   2072     1
   2065   2103     1
   2067   2084     1
   2071   2083     1
   2071   2085     1
   2072   2084     1
   2075   2108     1
   2078   2107     1
   2078   2109     1
   2079   2108     1
   2080   2084     1
   2080   2090     1
   2080   2089     1
   2081   2096     1
   2081   2085     1
   2081   2103     1
   2083   2091     1
   2083   2098     1
   2083   2089     1
   2084   2101     1
   2085   2090     1
   2085   2091     1
   2089   2103     1
   2090   2101     1
   2090   2103     1
   2091   2101     1
   2096   2098     1
   2098   2101     1
   2098   2103     1
   2104   2108     1
   2104   2114     1
   2104   2113     1
   2105   2120     1
   2105   2109     1
   2105   2127     1
   2107   2115     1
   2107   2122     1
   2107   2113     1
   2108   2125     1
   2109   2114     1
   2109   2115     1
   2113   2127     1
   2114   2125     1
   2114   2127     1
   2115   2125     1
   2120   2122     1
   2122   2125     1
   2122   2127     1
   2128   2136     1
   2130   2137     1
   2130   2138     1
   2132   2148     1
   2132   2140     1
   2136   2151     1
   2136   2144     1
   2137   2152     1
   2137   2200     1
   2137   2140     1
   2138   2145     1
   2138   2176     1
   2138   2148     1
   2140   2157     1
   2144   2158     1
   2144   2156     1
   2145   2157     1
   2148   2181     1
   2151   2182     1
   2151   2180     1
   2152   2181     1
   2153   2157     1
   2153   2163     1
   2153   2162     1
   2154   2158     1
   2154   2176     1
   2154   2169     1
   2156   2162     1
   2156   2171     1
   2156   2164     1
   2157   2174     1
   2158   2164     1
   2158   2163     1
   2162   2176     1
   2163   2176     1
   2163   2174     1
   2164   2174     1
   2169   2171     1
   2171   2176     1
   2171   2174     1
   2177   2181     1
   2177   2187     1
   2177   2186     1
   2178   2182     1
   2178   2200     1
   2178   2193     1
   2180   2186     1
   2180   2195     1
   2180   2188     1
   2181   2198     1
   2182   2188     1
   2182   2187     1
   2186   2200     1
   2187   2200     1
   2187   2198     1
   2188   2198     1
   2193   2195     1
   2195   2200     1
   2195   2198     1
   2201   2209     1
   2203   2210     1
   2203   2211     1
   2205   2221     1
   2205   2213     1
   2209   2224     1
   2209   2217     1
   2210   2213     1
   2210   2225     1
   2210   2273     1
   2211   2221     1
   2211   2218     1
   2211   2249     1
   2213   2230     1
   2217   2229     1
   2217   2231     1
   2218   2230     1
   2221   2254     1
   2224   2253     1
   2224   2255     1
   2225   2254     1
   2226   2230     1
   2226   2236     1
   2226   2235     1
   2227   2242     1
   2227   2231     1
   2227   2249     1
   2229   2237     1
   2229   2244     1
   2229   2235     1
   2230   2247     1
   2231   2236     1
   2231   2237     1
   2235   2249     1
   2236   2247     1
   2236   2249     1
   2237   2247     1
   2242   2244     1
   2244   2247     1
   2244   2249     1
   2250   2254     1
   2250   2260     1
   2250   2259     1
   2251   2266     1
   2251   2255     1
   2251   2273     1
   2253   2261     1
   2253   2268     1
   2253   2259     1
   2254   2271     1
   2255   2260     1
   2255   2261     1
   2259   2273     1
   2260   2271     1
   2260   2273     1
   2261   2271     1
   2266   2268     1
   2268   2271     1
   2268   2273     1
   2274   2282     1
   2276   2283     1
   2276   2284     1
   2278   2294     1
   2278   2286     1
   2282   2297     1
   2282   2290     1
   2283   2298     1
   2283   2346     1
   2283   2286     1
   2284   2291     1
   2284   2322     1
   2284   2294     1
   2286   2303     1
   2290   2304     1
   2290   2302     1
   2291   2303     1
   2294   2327     1
   2297   2328     1
   2297   2326     1
   2298   2327     1
   2299   2303     1
   2299   2309     1
   2299   2308     1
   2300   2304     1
   2300   2322     1
   2300   2315     1
   2302   2308     1
   2302   2317     1
   2302   2310     1
   2303   2320     1
   2304   2310     1
   2304   2309     1
   2308   2322     1
   2309   2322     1
   2309   2320     1
   2310   2320     1
   2315   2317     1
   2317   2322     1
   2317   2320     1
   2323   2327     1
   2323   2333     1
   2323   2332     1
   2324   2328     1
   2324   2346     1
   2324   2339     1
   2326   2332     1
   2326   2341     1
   2326   2334     1
   2327   2344     1
   2328   2334     1
   2328   2333     1
   2332   2346     1
   2333   2346     1
   2333   2344     1
   2334   2344     1
   2339   2341     1
   2341   2346     1
   2341   2344     1
   2347   2355     1
   2349   2356     1
   2349   2357     1
   2351   2367     1
   2351   2359     1
   2355   2370     1
   2355   2363     1
   2356   2359     1
   2356   2371     1
   2356   2419     1
   2357   2367     1
   2357   2364     1
   2357   2395     1
   2359   2376     1
   2363   2375     1
   2363   2377     1
   2364   2376     1
   2367   2400     1
   2370   2399     1
   2370   2401     1
   2371   2400     1
   2372   2376     1
   2372   2382     1
   2372   2381     1
   2373   2388     1
   2373   2377     1
   2373   2395     1
   2375   2383     1
   2375   2390     1
   2375   2381     1
   2376   2393     1
   2377   2382     1
   2377   2383     1
   2381   2395     1
   2382   2393     1
   2382   2395     1
   2383   2393     1
   2388   2390     1
   2390   2393     1
   2390   2395     1
   2396   2400     1
   2396   2406     1
   2396   2405     1
   2397   2412     1
   2397   2401     1
   2397   2419     1
   2399   2407     1
   2399   2414     1
   2399   2405     1
   2400   2417     1
   2401   2406     1
   2401   2407     1
   2405   2419     1
   2406   2417     1
   2406   2419     1
   2407   2417     1
   2412   2414     1
   2414   2417     1
   2414   2419     1
   2420   2428     1
   2422   2429     1
   2422   2430     1
   2424   2440     1
   2424   2432     1
   2428   2443     1
   2428   2436     1
   2429   2444     1
   2429   2492     1
   2429   2432     1
   2430   2437     1
   2430   2468     1
   2430   2440     1
   2432   2449     1
   2436   2450     1
   2436   2448     1
   2437   2449     1
   2440   2473     1
   2443   2474     1
   2443   2472     1
   2444   2473     1
   2445   2449     1
   2445   2455     1
   2445   2454     1
   2446   2450     1
   2446   2468     1
   2446   2461     1
   2448   2454     1
   2448   2463     1
   2448   2456     1
   2449   2466     1
   2450   2456     1
   2450   2455     1
   2454   2468     1
   2455   2468     1
   2455   2466     1
   2456   2466     1
   2461   2463     1
   2463   2468     1
   2463   2466     1
   2469   2473     1
   2469   2479     1
   2469   2478     1
   2470   2474     1
   2470   2492     1
   2470   2485     1
   2472   2478     1
   2472   2487     1
   2472   2480     1
   2473   2490     1
   2474   2480     1
   2474   2479     1
   2478   2492     1
   2479   2492     1
   2479   2490     1
   2480   2490     1
   2485   2487     1
   2487   2492     1
   2487   2490     1
   2493   2501     1
   2495   2502     1
   2495   2503     1
   2497   2513     1
   2497   2505     1
   2501   2516     1
   2501   2509     1
   2502   2505     1
   2502   2517     1
   2502   2565     1
   2503   2513     1
   2503   2510     1
   2503   2541     1
   2505   2522     1
   2509   2521     1
   2509   2523     1
   2510   2522     1
   2513   2546     1
   2516   2545     1
   2516   2547     1
   2517   2546     1
   2518   2522     1
   2518   2528     1
   2518   2527     1
   2519   2534     1
   2519   2523     1
   2519   2541     1
   2521   2529     1
   2521   2536     1
   2521   2527     1
   2522   2539     1
   2523   2528     1
   2523   2529     1
   2527   2541     1
   2528   2539     1
   2528   2541     1
   2529   2539     1
   2534   2536     1
   2536   2539     1
   2536   2541     1
   2542   2546     1
   2542   2552     1
   2542   2551     1
   2543   2558     1
   2543   2547     1
   2543   2565     1
   2545   2553     1
   2545   2560     1
   2545   2551     1
   2546   2563     1
   2547   2552     1
   2547   2553     1
   2551   2565     1
   2552   2563     1
   2552   2565     1
   2553   2563     1
   2558   2560     1
   2560   2563     1
   2560   2565     1
   2566   2574     1
   2568   2575     1
   2568   2576     1
   2570   2586     1
   2570   2578     1
   2574   2589     1
   2574   2582     1
   2575   2590     1
   2575   2638     1
   2575   2578     1
   2576   2583     1
   2576   2614     1
   2576   2586     1
   2578   2595     1
   2582   2596     1
   2582   2594     1
   2583   2595     1
   2586   2619     1
   2589   2620     1
   2589   2618     1
   2590   2619     1
   2591   2595     1
   2591   2601     1
   2591   2600     1
   2592   2596     1
   2592   2614     1
   2592   2607     1
   2594   2600     1
   2594   2609     1
   2594   2602     1
   2595   2612     1
   2596   2602     1
   2596   2601     1
   2600   2614     1
   2601   2614     1
   2601   2612     1
   2602   2612     1
   2607   2609     1
   2609   2614     1
   2609   2612     1
   2615   2619     1
   2615   2625     1
   2615   2624     1
   2616   2620     1
   2616   2638     1
   2616   2631     1
   2618   2624     1
   2618   2633     1
   2618   2626     1
   2619   2636     1
   2620   2626     1
   2620   2625     1
   2624   2638     1
   2625   2638     1
   2625   2636     1
   2626   2636     1
   2631   2633     1
   2633   2638     1
   2633   2636     1
   2639   2647     1
   2641   2648     1
   2641   2649     1
   2643   2659     1
   2643   2651     1
   2647   2662     1
   2647   2655     1
   2648   2651     1
   2648   2663     1
   2648   2711     1
   2649   2659     1
   2649   2656     1
   2649   2687     1
   2651   2668     1
   2655   2667     1
   2655   2669     1
   2656   2668     1
   2659   2692     1
   2662   2691     1
   2662   2693     1
   2663   2692     1
   2664   2668     1
   2664   2674     1
   2664   2673     1
   2665   2680     1
   2665   2669     1
   2665   2687     1
   2667   2675     1
   2667   2682     1
   2667   2673     1
   2668   2685     1
   2669   2674     1
   2669   2675     1
   2673   2687     1
   2674   2685     1
   2674   2687     1
   2675   2685     1
   2680   2682     1
   2682   2685     1
   2682   2687     1
   2688   2692     1
   2688   2698     1
   2688   2697     1
   2689   2704     1
   2689   2693     1
   2689   2711     1
   2691   2699     1
   2691   2706     1
   2691   2697     1
   2692   2709     1
   2693   2698     1
   2693   2699     1
   2697   2711     1
   2698   2709     1
   2698   2711     1
   2699   2709     1
   2704   2706     1
   2706   2709     1
   2706   2711     1
   2712   2720     1
   2714   2721     1
   2714   2722     1
   2716   2732     1
   2716   2724     1
   2720   2735     1
   2720   2728     1
   2721   2736     1
   2721   2784     1
   2721   2724     1
   2722   2729     1
   2722   2760     1
   2722   2732     1
   2724   2741     1
   2728   2742     1
   2728   2740     1
   2729   2741     1
   2732   2765     1
   2735   2766     1
   2735   2764     1
   2736   2765     1
   2737   2741     1
   2737   2747     1
   2737   2746     1
   2738   2742     1
   2738   2760     1
   2738   2753     1
   2740   2746     1
   2740   2755     1
   2740   2748     1
   2741   2758     1
   2742   2748     1
   2742   2747     1
   2746   2760     1
   2747   2760     1
   2747   2758     1
   2748   2758     1
   2753   2755     1
   2755   2760     1
   2755   2758     1
   2761   2765     1
   2761   2771     1
   2761   2770     1
   2762   2766     1
   2762   2784     1
   2762   2777     1
   2764   2770     1
   2764   2779     1
   2764   2772     1
   2765   2782     1
   2766   2772     1
   2766   2771     1
   2770   2784     1
   2771   2784     1
   2771   2782     1
   2772   2782     1
   2777   2779     1
   2779   2784     1
   2779   2782     1
   2785   2793     1
   2787   2794     1
   2787   2795     1
   2789   2805     1
   2789   2797     1
   2793   2808     1
   2793   2801     1
   2794   2797     1
   2794   2809     1
   2794   2857     1
   2795   2805     1
   2795   2802     1
   2795   2833     1
   2797   2814     1
   2801   2813     1
   2801   2815     1
   2802   2814     1
   2805   2838     1
   2808   2837     1
   2808   2839     1
   2809   2838     1
   2810   2814     1
   2810   2820     1
   2810   2819     1
   2811   2826     1
   2811   2815     1
   2811   2833     1
   2813   2821     1
   2813   2828     1
   2813   2819     1
   2814   2831     1
   2815   2820     1
   2815   2821     1
   2819   2833     1
   2820   2831     1
   2820   2833     1
   2821   2831     1
   2826   2828     1
   2828   2831     1
   2828   2833     1
   2834   2838     1
   2834   2844     1
   2834   2843     1
   2835   2850     1
   2835   2839     1
   2835   2857     1
   2837   2845     1
   2837   2852     1
   2837   2843     1
   2838   2855     1
   2839   2844     1
   2839   2845     1
   2843   2857     1
   2844   2855     1
   2844   2857     1
   2845   2855     1
   2850   2852     1
   2852   2855     1
   2852   2857     1
   2858   2866     1
   2860   2867     1
   2860   2868     1
   2862   2878     1
   2862   2870     1
   2866   2881     1
   2866   2874     1
   2867   2882     1
   2867   2930     1
   2867   2870     1
   2868   2875     1
   2868   2906     1
   2868   2878     1
   2870   2887     1
   2874   2888     1
   2874   2886     1
   2875   2887     1
   2878   2911     1
   2881   2912     1
   2881   2910     1
   2882   2911     1
   2883   2887     1
   2883   2893     1
   2883   2892     1
   2884   2888     1
   2884   2906     1
   2884   2899     1
   2886   2892     1
   2886   2901     1
   2886   2894     1
   2887   2904     1
   2888   2894     1
   2888   2893     1
   2892   2906     1
   2893   2906     1
   2893   2904     1
   2894   2904     1
   2899   2901     1
   2901   2906     1
   2901   2904     1
   2907   2911     1
   2907   2917     1
   2907   2916     1
   2908   2912     1
   2908   2930     1
   2908   2923     1
   2910   2916     1
   2910   2925     1
   2910   2918     1
   2911   2928     1
   2912   2918     1
   2912   2917     1
   2916   2930     1
   2917   2930     1
   2917   2928     1
   2918   2928     1
   2923   2925     1
   2925   2930     1
   2925   2928     1
   2931   2939     1
   2933   2940     1
   2933   2941     1
   2935   2951     1
   2935   2943     1
   2939   2954     1
   2939   2947     1
   2940   2943     1
   2940   2955     1
   2940   3003     1
   2941   2951     1
   2941   2948     1
   2941   2979     1
   2943   2960     1
   2947   2959     1
   2947   2961     1
   2948   2960     1
   2951   2984     1
   2954   2983     1
   2954   2985     1
   2955   2984     1
   2956   2960     1
   2956   2966     1
   2956   2965     1
   2957   2972     1
   2957   2961     1
   2957   2979     1
   2959   2967     1
   2959   2974     1
   2959   2965     1
   2960   2977     1
   2961   2966     1
   2961   2967     1
   2965   2979     1
   2966   2977     1
   2966   2979     1
   2967   2977     1
   2972   2974     1
   2974   2977     1
   2974   2979     1
   2980   2984     1
   2980   2990     1
   2980   2989     1
   2981   2996     1
   2981   2985     1
   2981   3003     1
   2983   2991     1
   2983   2998     1
   2983   2989     1
   2984   3001     1
   2985   2990     1
   2985   2991     1
   2989   3003     1
   2990   3001     1
   2990   3003     1
   2991   3001     1
   2996   2998     1
   2998   3001     1
   2998   3003     1
   3004   3012     1
   3006   3013     1
   3006   3014     1
   3008   3024     1
   3008   3016     1
   3012   3027     1
   3012   3020     1
   3013   3028     1
   3013   3076     1
   3013   3016     1
   3014   3021     1
   3014   3052     1
   3014   3024     1
   3016   3033     1
   3020   3034     1
   3020   3032     1
   3021   3033     1
   3024   3057     1
   3027   3058     1
   3027   3056     1
   3028   3057     1
   3029   3033     1
   3029   3039     1
   3029   3038     1
   3030   3034     1
   3030   3052     1
   3030   3045     1
   3032   3038     1
   3032   3047     1
   3032   3040     1
   3033   3050     1
   3034   3040     1
   3034   3039     1
   3038   3052     1
   3039   3052     1
   3039   3050     1
   3040   3050     1
   3045   3047     1
   3047   3052     1
   3047   3050     1
   3053   3057     1
   3053   3063     1
   3053   3062     1
   3054   3058     1
   3054   3076     1
   3054   3069     1
   3056   3062     1
   3056   3071     1
   3056   3064     1
   3057   3074     1
   3058   3064     1
   3058   3063     1
   3062   3076     1
   3063   3076     1
   3063   3074     1
   3064   3074     1
   3069   3071     1
   3071   3076     1
   3071   3074     1
      1     10     1
      1     11     1
      1     13     1
      1     14     1
      2      7     1
      2      5     1
      2      6     1
      2      9     1
      2     12     1
      3      7     1
      3      5     1
      3      6     1
      3      9     1
      3     12     1
      4     16     1
      4     17     1
      4     19     1
      4     20     1
      8      5     1
      5     15     1
      5     18     1
      8      6     1
      6     15     1
      6     18     1
      7     22     1
      7     23     1
      7     25     1
      7     26     1
      8     31     1
      8     32     1
      8     28     1
      8     29     1
      9     13     1
      9     14     1
     10     12     1
     10     34     1
     10     31     1
     10     32     1
     11     12     1
     11     34     1
     11     31     1
     11     32     1
     13     33     1
     13     28     1
     13     29     1
     14     33     1
     14     28     1
     14     29     1
     15     19     1
     15     20     1
     16     18     1
     16     35     1
     16     22     1
     16     23     1
     17     18     1
     17     35     1
     17     22     1
     17     23     1
     19     36     1
     19     25     1
     19     26     1
     20     36     1
     20     25     1
     20     26     1
     21    115     1
     22     38     1
     22    114     1
     23     38     1
     23    114     1
     24    140     1
     25     39     1
     25    139     1
     26     39     1
     26    139     1
     27     65     1
     28     37     1
     28     64     1
     29     37     1
     29     64     1
     30     90     1
     31     40     1
     31     89     1
     32     40     1
     32     89     1
     33     45     1
     33     46     1
     34     70     1
     34     71     1
     35     95     1
     35     96     1
     36    120     1
     36    121     1
     37     65     1
     38    115     1
     39    140     1
     40     90     1
     41     65     1
     41     49     1
     41     50     1
     41     52     1
     41     53     1
     42     64     1
     42     45     1
     42     46     1
     42     48     1
     42     51     1
     43     64     1
     43     45     1
     43     46     1
     43     48     1
     43     51     1
     45     47     1
     45     65     1
     46     47     1
     46     65     1
     47     58     1
     47     59     1
     47     55     1
     47     56     1
     48     52     1
     48     53     1
     49     51     1
     49     61     1
     49     58     1
     49     59     1
     50     51     1
     50     61     1
     50     58     1
     50     59     1
     52     60     1
     52     55     1
     52     56     1
     53     60     1
     53     55     1
     53     56     1
     54    165     1
     55     62     1
     55    164     1
     56     62     1
     56    164     1
     57    190     1
     58     63     1
     58    189     1
     59     63     1
     59    189     1
     60    145     1
     60    146     1
     61    170     1
     61    171     1
     62    165     1
     63    190     1
     66     90     1
     66     74     1
     66     75     1
     66     77     1
     66     78     1
     67     89     1
     67     70     1
     67     71     1
     67     73     1
     67     76     1
     68     89     1
     68     70     1
     68     71     1
     68     73     1
     68     76     1
     70     72     1
     70     90     1
     71     72     1
     71     90     1
     72     83     1
     72     84     1
     72     80     1
     72     81     1
     73     77     1
     73     78     1
     74     76     1
     74     86     1
     74     83     1
     74     84     1
     75     76     1
     75     86     1
     75     83     1
     75     84     1
     77     85     1
     77     80     1
     77     81     1
     78     85     1
     78     80     1
     78     81     1
     79    215     1
     80     87     1
     80    214     1
     81     87     1
     81    214     1
     82    240     1
     83     88     1
     83    239     1
     84     88     1
     84    239     1
     85    195     1
     85    196     1
     86    220     1
     86    221     1
     87    215     1
     88    240     1
     91    115     1
     91     99     1
     91    100     1
     91    102     1
     91    103     1
     92    114     1
     92     95     1
     92     96     1
     92     98     1
     92    101     1
     93    114     1
     93     95     1
     93     96     1
     93     98     1
     93    101     1
     95     97     1
     95    115     1
     96     97     1
     96    115     1
     97    108     1
     97    109     1
     97    105     1
     97    106     1
     98    102     1
     98    103     1
     99    101     1
     99    111     1
     99    108     1
     99    109     1
    100    101     1
    100    111     1
    100    108     1
    100    109     1
    102    110     1
    102    105     1
    102    106     1
    103    110     1
    103    105     1
    103    106     1
    104    265     1
    105    112     1
    105    264     1
    106    112     1
    106    264     1
    107    290     1
    108    113     1
    108    289     1
    109    113     1
    109    289     1
    110    245     1
    110    246     1
    111    270     1
    111    271     1
    112    265     1
    113    290     1
    116    140     1
    116    124     1
    116    125     1
    116    127     1
    116    128     1
    117    139     1
    117    120     1
    117    121     1
    117    123     1
    117    126     1
    118    139     1
    118    120     1
    118    121     1
    118    123     1
    118    126     1
    120    122     1
    120    140     1
    121    122     1
    121    140     1
    122    133     1
    122    134     1
    122    130     1
    122    131     1
    123    127     1
    123    128     1
    124    126     1
    124    136     1
    124    133     1
    124    134     1
    125    126     1
    125    136     1
    125    133     1
    125    134     1
    127    135     1
    127    130     1
    127    131     1
    128    135     1
    128    130     1
    128    131     1
    129    315     1
    130    137     1
    130    314     1
    131    137     1
    131    314     1
    132    340     1
    133    138     1
    133    339     1
    134    138     1
    134    339     1
    135    295     1
    135    296     1
    136    320     1
    136    321     1
    137    315     1
    138    340     1
    141    165     1
    141    149     1
    141    150     1
    141    152     1
    141    153     1
    142    164     1
    142    145     1
    142    146     1
    142    148     1
    142    151     1
    143    164     1
    143    145     1
    143    146     1
    143    148     1
    143    151     1
    145    147     1
    145    165     1
    146    147     1
    146    165     1
    147    158     1
    147    159     1
    147    155     1
    147    156     1
    148    152     1
    148    153     1
    149    151     1
    149    161     1
    149    158     1
    149    159     1
    150    151     1
    150    161     1
    150    158     1
    150    159     1
    152    160     1
    152    155     1
    152    156     1
    153    160     1
    153    155     1
    153    156     1
    154    365     1
    155    162     1
    155    364     1
    156    162     1
    156    364     1
    157    390     1
    158    163     1
    158    389     1
    159    163     1
    159    389     1
    160    345     1
    160    346     1
    161    370     1
    161    371     1
    162    365     1
    163    390     1
    166    190     1
    166    174     1
    166    175     1
    166    177     1
    166    178     1
    167    189     1
    167    170     1
    167    171     1
    167    173     1
    167    176     1
    168    189     1
    168    170     1
    168    171     1
    168    173     1
    168    176     1
    170    172     1
    170    190     1
    171    172     1
    171    190     1
    172    183     1
    172    184     1
    172    180     1
    172    181     1
    173    177     1
    173    178     1
    174    176     1
    174    186     1
    174    183     1
    174    184     1
    175    176     1
    175    186     1
    175    183     1
    175    184     1
    177    185     1
    177    180     1
    177    181     1
    178    185     1
    178    180     1
    178    181     1
    179    415     1
    180    187     1
    180    414     1
    181    187     1
    181    414     1
    182    440     1
    183    188     1
    183    439     1
    184    188     1
    184    439     1
    185    395     1
    185    396     1
    186    420     1
    186    421     1
    187    415     1
    188    440     1
    191    215     1
    191    199     1
    191    200     1
    191    202     1
    191    203     1
    192    214     1
    192    195     1
    192    196     1
    192    198     1
    192    201     1
    193    214     1
    193    195     1
    193    196     1
    193    198     1
    193    201     1
    195    197     1
    195    215     1
    196    197     1
    196    215     1
    197    208     1
    197    209     1
    197    205     1
    197    206     1
    198    202     1
    198    203     1
    199    201     1
    199    211     1
    199    208     1
    199    209     1
    200    201     1
    200    211     1
    200    208     1
    200    209     1
    202    210     1
    202    205     1
    202    206     1
    203    210     1
    203    205     1
    203    206     1
    204    465     1
    205    212     1
    205    464     1
    206    212     1
    206    464     1
    207    490     1
    208    213     1
    208    489     1
    209    213     1
    209    489     1
    210    445     1
    210    446     1
    211    470     1
    211    471     1
    212    465     1
    213    490     1
    216    240     1
    216    224     1
    216    225     1
    216    227     1
    216    228     1
    217    239     1
    217    220     1
    217    221     1
    217    223     1
    217    226     1
    218    239     1
    218    220     1
    218    221     1
    218    223     1
    218    226     1
    220    222     1
    220    240     1
    221    222     1
    221    240     1
    222    233     1
    222    234     1
    222    230     1
    222    231     1
    223    227     1
    223    228     1
    224    226     1
    224    236     1
    224    233     1
    224    234     1
    225    226     1
    225    236     1
    225    233     1
    225    234     1
    227    235     1
    227    230     1
    227    231     1
    228    235     1
    228    230     1
    228    231     1
    229    515     1
    230    237     1
    230    514     1
    231    237     1
    231    514     1
    232    540     1
    233    238     1
    233    539     1
    234    238     1
    234    539     1
    235    495     1
    235    496     1
    236    520     1
    236    521     1
    237    515     1
    238    540     1
    241    265     1
    241    249     1
    241    250     1
    241    252     1
    241    253     1
    242    264     1
    242    245     1
    242    246     1
    242    248     1
    242    251     1
    243    264     1
    243    245     1
    243    246     1
    243    248     1
    243    251     1
    245    247     1
    245    265     1
    246    247     1
    246    265     1
    247    258     1
    247    259     1
    247    255     1
    247    256     1
    248    252     1
    248    253     1
    249    251     1
    249    261     1
    249    258     1
    249    259     1
    250    251     1
    250    261     1
    250    258     1
    250    259     1
    252    260     1
    252    255     1
    252    256     1
    253    260     1
    253    255     1
    253    256     1
    254    565     1
    255    262     1
    255    564     1
    256    262     1
    256    564     1
    257    590     1
    258    263     1
    258    589     1
    259    263     1
    259    589     1
    260    545     1
    260    546     1
    261    570     1
    261    571     1
    262    565     1
    263    590     1
    266    290     1
    266    274     1
    266    275     1
    266    277     1
    266    278     1
    267    289     1
    267    270     1
    267    271     1
    267    273     1
    267    276     1
    268    289     1
    268    270     1
    268    271     1
    268    273     1
    268    276     1
    270    272     1
    270    290     1
    271    272     1
    271    290     1
    272    283     1
    272    284     1
    272    280     1
    272    281     1
    273    277     1
    273    278     1
    274    276     1
    274    286     1
    274    283     1
    274    284     1
    275    276     1
    275    286     1
    275    283     1
    275    284     1
    277    285     1
    277    280     1
    277    281     1
    278    285     1
    278    280     1
    278    281     1
    279    615     1
    280    287     1
    280    614     1
    281    287     1
    281    614     1
    282    640     1
    283    288     1
    283    639     1
    284    288     1
    284    639     1
    285    595     1
    285    596     1
    286    620     1
    286    621     1
    287    615     1
    288    640     1
    291    315     1
    291    299     1
    291    300     1
    291    302     1
    291    303     1
    292    314     1
    292    295     1
    292    296     1
    292    298     1
    292    301     1
    293    314     1
    293    295     1
    293    296     1
    293    298     1
    293    301     1
    295    297     1
    295    315     1
    296    297     1
    296    315     1
    297    308     1
    297    309     1
    297    305     1
    297    306     1
    298    302     1
    298    303     1
    299    301     1
    299    311     1
    299    308     1
    299    309     1
    300    301     1
    300    311     1
    300    308     1
    300    309     1
    302    310     1
    302    305     1
    302    306     1
    303    310     1
    303    305     1
    303    306     1
    304    665     1
    305    312     1
    305    664     1
    306    312     1
    306    664     1
    307    690     1
    308    313     1
    308    689     1
    309    313     1
    309    689     1
    310    645     1
    310    646     1
    311    670     1
    311    671     1
    312    665     1
    313    690     1
    316    340     1
    316    324     1
    316    325     1
    316    327     1
    316    328     1
    317    339     1
    317    320     1
    317    321     1
    317    323     1
    317    326     1
    318    339     1
    318    320     1
    318    321     1
    318    323     1
    318    326     1
    320    322     1
    320    340     1
    321    322     1
    321    340     1
    322    333     1
    322    334     1
    322    330     1
    322    331     1
    323    327     1
    323    328     1
    324    326     1
    324    336     1
    324    333     1
    324    334     1
    325    326     1
    325    336     1
    325    333     1
    325    334     1
    327    335     1
    327    330     1
    327    331     1
    328    335     1
    328    330     1
    328    331     1
    329    715     1
    330    337     1
    330    714     1
    331    337     1
    331    714     1
    332    740     1
    333    338     1
    333    739     1
    334    338     1
    334    739     1
    335    695     1
    335    696     1
    336    720     1
    336    721     1
    337    715     1
    338    740     1
    341    365     1
    341    349     1
    341    350     1
    341    352     1
    341    353     1
    342    364     1
    342    345     1
    342    346     1
    342    348     1
    342    351     1
    343    364     1
    343    345     1
    343    346     1
    343    348     1
    343    351     1
    345    347     1
    345    365     1
    346    347     1
    346    365     1
    347    358     1
    347    359     1
    347    355     1
    347    356     1
    348    352     1
    348    353     1
    349    351     1
    349    361     1
    349    358     1
    349    359     1
    350    351     1
    350    361     1
    350    358     1
    350    359     1
    352    360     1
    352    355     1
    352    356     1
    353    360     1
    353    355     1
    353    356     1
    354    742     1
    355    741     1
    355    362     1
    356    741     1
    356    362     1
    357    815     1
    358    363     1
    358    814     1
    359    363     1
    359    814     1
    360    744     1
    360    746     1
    361    817     1
    361    819     1
    362    742     1
    363    815     1
    366    390     1
    366    374     1
    366    375     1
    366    377     1
    366    378     1
    367    389     1
    367    370     1
    367    371     1
    367    373     1
    367    376     1
    368    389     1
    368    370     1
    368    371     1
    368    373     1
    368    376     1
    370    372     1
    370    390     1
    371    372     1
    371    390     1
    372    383     1
    372    384     1
    372    380     1
    372    381     1
    373    377     1
    373    378     1
    374    376     1
    374    386     1
    374    383     1
    374    384     1
    375    376     1
    375    386     1
    375    383     1
    375    384     1
    377    385     1
    377    380     1
    377    381     1
    378    385     1
    378    380     1
    378    381     1
    379    888     1
    380    887     1
    380    387     1
    381    887     1
    381    387     1
    382    961     1
    383    388     1
    383    960     1
    384    388     1
    384    960     1
    385    890     1
    385    892     1
    386    963     1
    386    965     1
    387    888     1
    388    961     1
    391    415     1
    391    399     1
    391    400     1
    391    402     1
    391    403     1
    392    414     1
    392    395     1
    392    396     1
    392    398     1
    392    401     1
    393    414     1
    393    395     1
    393    396     1
    393    398     1
    393    401     1
    395    397     1
    395    415     1
    396    397     1
    396    415     1
    397    408     1
    397    409     1
    397    405     1
    397    406     1
    398    402     1
    398    403     1
    399    401     1
    399    411     1
    399    408     1
    399    409     1
    400    401     1
    400    411     1
    400    408     1
    400    409     1
    402    410     1
    402    405     1
    402    406     1
    403    410     1
    403    405     1
    403    406     1
    404   1034     1
    405   1033     1
    405    412     1
    406   1033     1
    406    412     1
    407   1107     1
    408    413     1
    408   1106     1
    409    413     1
    409   1106     1
    410   1036     1
    410   1038     1
    411   1109     1
    411   1111     1
    412   1034     1
    413   1107     1
    416    440     1
    416    424     1
    416    425     1
    416    427     1
    416    428     1
    417    439     1
    417    420     1
    417    421     1
    417    423     1
    417    426     1
    418    439     1
    418    420     1
    418    421     1
    418    423     1
    418    426     1
    420    422     1
    420    440     1
    421    422     1
    421    440     1
    422    433     1
    422    434     1
    422    430     1
    422    431     1
    423    427     1
    423    428     1
    424    426     1
    424    436     1
    424    433     1
    424    434     1
    425    426     1
    425    436     1
    425    433     1
    425    434     1
    427    435     1
    427    430     1
    427    431     1
    428    435     1
    428    430     1
    428    431     1
    429   1180     1
    430   1179     1
    430    437     1
    431   1179     1
    431    437     1
    432   1253     1
    433    438     1
    433   1252     1
    434    438     1
    434   1252     1
    435   1182     1
    435   1184     1
    436   1255     1
    436   1257     1
    437   1180     1
    438   1253     1
    441    465     1
    441    449     1
    441    450     1
    441    452     1
    441    453     1
    442    464     1
    442    445     1
    442    446     1
    442    448     1
    442    451     1
    443    464     1
    443    445     1
    443    446     1
    443    448     1
    443    451     1
    445    447     1
    445    465     1
    446    447     1
    446    465     1
    447    458     1
    447    459     1
    447    455     1
    447    456     1
    448    452     1
    448    453     1
    449    451     1
    449    461     1
    449    458     1
    449    459     1
    450    451     1
    450    461     1
    450    458     1
    450    459     1
    452    460     1
    452    455     1
    452    456     1
    453    460     1
    453    455     1
    453    456     1
    454   1326     1
    455   1325     1
    455    462     1
    456   1325     1
    456    462     1
    457   1399     1
    458    463     1
    458   1398     1
    459    463     1
    459   1398     1
    460   1328     1
    460   1330     1
    461   1401     1
    461   1403     1
    462   1326     1
    463   1399     1
    466    490     1
    466    474     1
    466    475     1
    466    477     1
    466    478     1
    467    489     1
    467    470     1
    467    471     1
    467    473     1
    467    476     1
    468    489     1
    468    470     1
    468    471     1
    468    473     1
    468    476     1
    470    472     1
    470    490     1
    471    472     1
    471    490     1
    472    483     1
    472    484     1
    472    480     1
    472    481     1
    473    477     1
    473    478     1
    474    476     1
    474    486     1
    474    483     1
    474    484     1
    475    476     1
    475    486     1
    475    483     1
    475    484     1
    477    485     1
    477    480     1
    477    481     1
    478    485     1
    478    480     1
    478    481     1
    479   1472     1
    480   1471     1
    480    487     1
    481   1471     1
    481    487     1
    482   1545     1
    483    488     1
    483   1544     1
    484    488     1
    484   1544     1
    485   1474     1
    485   1476     1
    486   1547     1
    486   1549     1
    487   1472     1
    488   1545     1
    491    515     1
    491    499     1
    491    500     1
    491    502     1
    491    503     1
    492    514     1
    492    495     1
    492    496     1
    492    498     1
    492    501     1
    493    514     1
    493    495     1
    493    496     1
    493    498     1
    493    501     1
    495    497     1
    495    515     1
    496    497     1
    496    515     1
    497    508     1
    497    509     1
    497    505     1
    497    506     1
    498    502     1
    498    503     1
    499    501     1
    499    511     1
    499    508     1
    499    509     1
    500    501     1
    500    511     1
    500    508     1
    500    509     1
    502    510     1
    502    505     1
    502    506     1
    503    510     1
    503    505     1
    503    506     1
    504   1618     1
    505   1617     1
    505    512     1
    506   1617     1
    506    512     1
    507   1691     1
    508    513     1
    508   1690     1
    509    513     1
    509   1690     1
    510   1620     1
    510   1622     1
    511   1693     1
    511   1695     1
    512   1618     1
    513   1691     1
    516    540     1
    516    524     1
    516    525     1
    516    527     1
    516    528     1
    517    539     1
    517    520     1
    517    521     1
    517    523     1
    517    526     1
    518    539     1
    518    520     1
    518    521     1
    518    523     1
    518    526     1
    520    522     1
    520    540     1
    521    522     1
    521    540     1
    522    533     1
    522    534     1
    522    530     1
    522    531     1
    523    527     1
    523    528     1
    524    526     1
    524    536     1
    524    533     1
    524    534     1
    525    526     1
    525    536     1
    525    533     1
    525    534     1
    527    535     1
    527    530     1
    527    531     1
    528    535     1
    528    530     1
    528    531     1
    529   1764     1
    530   1763     1
    530    537     1
    531   1763     1
    531    537     1
    532   1837     1
    533    538     1
    533   1836     1
    534    538     1
    534   1836     1
    535   1766     1
    535   1768     1
    536   1839     1
    536   1841     1
    537   1764     1
    538   1837     1
    541    565     1
    541    549     1
    541    550     1
    541    552     1
    541    553     1
    542    564     1
    542    545     1
    542    546     1
    542    548     1
    542    551     1
    543    564     1
    543    545     1
    543    546     1
    543    548     1
    543    551     1
    545    547     1
    545    565     1
    546    547     1
    546    565     1
    547    558     1
    547    559     1
    547    555     1
    547    556     1
    548    552     1
    548    553     1
    549    551     1
    549    561     1
    549    558     1
    549    559     1
    550    551     1
    550    561     1
    550    558     1
    550    559     1
    552    560     1
    552    555     1
    552    556     1
    553    560     1
    553    555     1
    553    556     1
    554   1910     1
    555   1909     1
    555    562     1
    556   1909     1
    556    562     1
    557   1983     1
    558    563     1
    558   1982     1
    559    563     1
    559   1982     1
    560   1912     1
    560   1914     1
    561   1985     1
    561   1987     1
    562   1910     1
    563   1983     1
    566    590     1
    566    574     1
    566    575     1
    566    577     1
    566    578     1
    567    589     1
    567    570     1
    567    571     1
    567    573     1
    567    576     1
    568    589     1
    568    570     1
    568    571     1
    568    573     1
    568    576     1
    570    572     1
    570    590     1
    571    572     1
    571    590     1
    572    583     1
    572    584     1
    572    580     1
    572    581     1
    573    577     1
    573    578     1
    574    576     1
    574    586     1
    574    583     1
    574    584     1
    575    576     1
    575    586     1
    575    583     1
    575    584     1
    577    585     1
    577    580     1
    577    581     1
    578    585     1
    578    580     1
    578    581     1
    579   2056     1
    580   2055     1
    580    587     1
    581   2055     1
    581    587     1
    582   2129     1
    583    588     1
    583   2128     1
    584    588     1
    584   2128     1
    585   2058     1
    585   2060     1
    586   2131     1
    586   2133     1
    587   2056     1
    588   2129     1
    591    615     1
    591    599     1
    591    600     1
    591    602     1
    591    603     1
    592    614     1
    592    595     1
    592    596     1
    592    598     1
    592    601     1
    593    614     1
    593    595     1
    593    596     1
    593    598     1
    593    601     1
    595    597     1
    595    615     1
    596    597     1
    596    615     1
    597    608     1
    597    609     1
    597    605     1
    597    606     1
    598    602     1
    598    603     1
    599    601     1
    599    611     1
    599    608     1
    599    609     1
    600    601     1
    600    611     1
    600    608     1
    600    609     1
    602    610     1
    602    605     1
    602    606     1
    603    610     1
    603    605     1
    603    606     1
    604   2202     1
    605   2201     1
    605    612     1
    606   2201     1
    606    612     1
    607   2275     1
    608    613     1
    608   2274     1
    609    613     1
    609   2274     1
    610   2204     1
    610   2206     1
    611   2277     1
    611   2279     1
    612   2202     1
    613   2275     1
    616    640     1
    616    624     1
    616    625     1
    616    627     1
    616    628     1
    617    639     1
    617    620     1
    617    621     1
    617    623     1
    617    626     1
    618    639     1
    618    620     1
    618    621     1
    618    623     1
    618    626     1
    620    622     1
    620    640     1
    621    622     1
    621    640     1
    622    633     1
    622    634     1
    622    630     1
    622    631     1
    623    627     1
    623    628     1
    624    626     1
    624    636     1
    624    633     1
    624    634     1
    625    626     1
    625    636     1
    625    633     1
    625    634     1
    627    635     1
    627    630     1
    627    631     1
    628    635     1
    628    630     1
    628    631     1
    629   2348     1
    630   2347     1
    630    637     1
    631   2347     1
    631    637     1
    632   2421     1
    633    638     1
    633   2420     1
    634    638     1
    634   2420     1
    635   2350     1
    635   2352     1
    636   2423     1
    636   2425     1
    637   2348     1
    638   2421     1
    641    665     1
    641    649     1
    641    650     1
    641    652     1
    641    653     1
    642    664     1
    642    645     1
    642    646     1
    642    648     1
    642    651     1
    643    664     1
    643    645     1
    643    646     1
    643    648     1
    643    651     1
    645    647     1
    645    665     1
    646    647     1
    646    665     1
    647    658     1
    647    659     1
    647    655     1
    647    656     1
    648    652     1
    648    653     1
    649    651     1
    649    661     1
    649    658     1
    649    659     1
    650    651     1
    650    661     1
    650    658     1
    650    659     1
    652    660     1
    652    655     1
    652    656     1
    653    660     1
    653    655     1
    653    656     1
    654   2494     1
    655   2493     1
    655    662     1
    656   2493     1
    656    662     1
    657   2567     1
    658    663     1
    658   2566     1
    659    663     1
    659   2566     1
    660   2496     1
    660   2498     1
    661   2569     1
    661   2571     1
    662   2494     1
    663   2567     1
    666    690     1
    666    674     1
    666    675     1
    666    677     1
    666    678     1
    667    689     1
    667    670     1
    667    671     1
    667    673     1
    667    676     1
    668    689     1
    668    670     1
    668    671     1
    668    673     1
    668    676     1
    670    672     1
    670    690     1
    671    672     1
    671    690     1
    672    683     1
    672    684     1
    672    680     1
    672    681     1
    673    677     1
    673    678     1
    674    676     1
    674    686     1
    674    683     1
    674    684     1
    675    676     1
    675    686     1
    675    683     1
    675    684     1
    677    685     1
    677    680     1
    677    681     1
    678    685     1
    678    680     1
    678    681     1
    679   2640     1
    680   2639     1
    680    687     1
    681   2639     1
    681    687     1
    682   2713     1
    683    688     1
    683   2712     1
    684    688     1
    684   2712     1
    685   2642     1
    685   2644     1
    686   2715     1
    686   2717     1
    687   2640     1
    688   2713     1
    691    715     1
    691    699     1
    691    700     1
    691    702     1
    691    703     1
    692    714     1
    692    695     1
    692    696     1
    692    698     1
    692    701     1
    693    714     1
    693    695     1
    693    696     1
    693    698     1
    693    701     1
    695    697     1
    695    715     1
    696    697     1
    696    715     1
    697    708     1
    697    709     1
    697    705     1
    697    706     1
    698    702     1
    698    703     1
    699    701     1
    699    711     1
    699    708     1
    699    709     1
    700    701     1
    700    711     1
    700    708     1
    700    709     1
    702    710     1
    702    705     1
    702    706     1
    703    710     1
    703    705     1
    703    706     1
    704   2786     1
    705   2785     1
    705    712     1
    706   2785     1
    706    712     1
    707   2859     1
    708    713     1
    708   2858     1
    709    713     1
    709   2858     1
    710   2788     1
    710   2790     1
    711   2861     1
    711   2863     1
    712   2786     1
    713   2859     1
    716    740     1
    716    724     1
    716    725     1
    716    727     1
    716    728     1
    717    739     1
    717    720     1
    717    721     1
    717    723     1
    717    726     1
    718    739     1
    718    720     1
    718    721     1
    718    723     1
    718    726     1
    720    722     1
    720    740     1
    721    722     1
    721    740     1
    722    733     1
    722    734     1
    722    730     1
    722    731     1
    723    727     1
    723    728     1
    724    726     1
    724    736     1
    724    733     1
    724    734     1
    725    726     1
    725    736     1
    725    733     1
    725    734     1
    727    735     1
    727    730     1
    727    731     1
    728    735     1
    728    730     1
    728    731     1
    729   2932     1
    730   2931     1
    730    737     1
    731   2931     1
    731    737     1
    732   3005     1
    733   3004     1
    733    738     1
    734   3004     1
    734    738     1
    735   2934     1
    735   2936     1
    736   3007     1
    736   3009     1
    737   2932     1
    738   3005     1
    741    747     1
    741    748     1
    742    745     1
    742    744     1
    742    746     1
    744    749     1
    744    747     1
    744    748     1
    745    759     1
    745    760     1
    745    752     1
    745    754     1
    746    749     1
    746    747     1
    746    748     1
    747    750     1
    747    751     1
    748    750     1
    748    751     1
    749    762     1
    749    763     1
    749    755     1
    749    756     1
    750    752     1
    750    754     1
    751    759     1
    751    760     1
    752    757     1
    752    755     1
    752    756     1
    753    779     1
    754    757     1
    754    755     1
    754    756     1
    755    758     1
    755    789     1
    756    758     1
    756    789     1
    757    772     1
    758    779     1
    759    764     1
    759    762     1
    759    763     1
    760    764     1
    760    762     1
    760    763     1
    761    803     1
    762    765     1
    762    813     1
    763    765     1
    763    813     1
    764    796     1
    765    803     1
    766    773     1
    766    788     1
    766    783     1
    766    774     1
    767    780     1
    767    781     1
    767    772     1
    767    778     1
    768    769     1
    768    787     1
    768    786     1
    768    782     1
    768    780     1
    768    781     1
    768    771     1
    769    788     1
    769    774     1
    769    779     1
    770    786     1
    770    778     1
    770    785     1
    771    773     1
    771    779     1
    772    776     1
    772    773     1
    772    775     1
    772    784     1
    772    774     1
    772    779     1
    773    787     1
    773    786     1
    773    789     1
    773    778     1
    774    789     1
    774    785     1
    776    786     1
    777    786     1
    780    784     1
    780    783     1
    781    784     1
    781    783     1
    784    786     1
    784    785     1
    786    788     1
    790    797     1
    790    812     1
    790    807     1
    790    798     1
    791    804     1
    791    805     1
    791    796     1
    791    802     1
    792    793     1
    792    811     1
    792    810     1
    792    806     1
    792    804     1
    792    805     1
    792    795     1
    793    812     1
    793    798     1
    793    803     1
    794    810     1
    794    802     1
    794    809     1
    795    797     1
    795    803     1
    796    800     1
    796    797     1
    796    799     1
    796    808     1
    796    798     1
    796    803     1
    797    811     1
    797    810     1
    797    813     1
    797    802     1
    798    813     1
    798    809     1
    800    810     1
    801    810     1
    804    808     1
    804    807     1
    805    808     1
    805    807     1
    808    810     1
    808    809     1
    810    812     1
    814    820     1
    814    821     1
    815    818     1
    815    817     1
    815    819     1
    817    822     1
    817    820     1
    817    821     1
    818    832     1
    818    833     1
    818    825     1
    818    827     1
    819    822     1
    819    820     1
    819    821     1
    820    823     1
    820    824     1
    821    823     1
    821    824     1
    822    835     1
    822    836     1
    822    828     1
    822    829     1
    823    825     1
    823    827     1
    824    832     1
    824    833     1
    825    830     1
    825    828     1
    825    829     1
    826    852     1
    827    830     1
    827    828     1
    827    829     1
    828    831     1
    828    862     1
    829    831     1
    829    862     1
    830    845     1
    831    852     1
    832    837     1
    832    835     1
    832    836     1
    833    837     1
    833    835     1
    833    836     1
    834    876     1
    835    838     1
    835    886     1
    836    838     1
    836    886     1
    837    869     1
    838    876     1
    839    846     1
    839    861     1
    839    856     1
    839    847     1
    840    845     1
    840    851     1
    840    853     1
    840    854     1
    841    842     1
    841    860     1
    841    859     1
    841    855     1
    841    853     1
    841    854     1
    841    844     1
    842    847     1
    842    852     1
    842    861     1
    843    858     1
    843    851     1
    843    859     1
    844    852     1
    844    846     1
    845    848     1
    845    857     1
    845    847     1
    845    852     1
    845    849     1
    845    846     1
    846    862     1
    846    851     1
    846    860     1
    846    859     1
    847    858     1
    847    862     1
    849    859     1
    850    859     1
    853    856     1
    853    857     1
    854    856     1
    854    857     1
    857    858     1
    857    859     1
    859    861     1
    863    870     1
    863    885     1
    863    880     1
    863    871     1
    864    869     1
    864    875     1
    864    877     1
    864    878     1
    865    866     1
    865    884     1
    865    883     1
    865    879     1
    865    877     1
    865    878     1
    865    868     1
    866    871     1
    866    876     1
    866    885     1
    867    882     1
    867    875     1
    867    883     1
    868    876     1
    868    870     1
    869    872     1
    869    881     1
    869    871     1
    869    876     1
    869    873     1
    869    870     1
    870    886     1
    870    875     1
    870    884     1
    870    883     1
    871    882     1
    871    886     1
    873    883     1
    874    883     1
    877    880     1
    877    881     1
    878    880     1
    878    881     1
    881    882     1
    881    883     1
    883    885     1
    887    893     1
    887    894     1
    888    891     1
    888    890     1
    888    892     1
    890    895     1
    890    893     1
    890    894     1
    891    905     1
    891    906     1
    891    898     1
    891    900     1
    892    895     1
    892    893     1
    892    894     1
    893    896     1
    893    897     1
    894    896     1
    894    897     1
    895    908     1
    895    909     1
    895    901     1
    895    902     1
    896    898     1
    896    900     1
    897    905     1
    897    906     1
    898    903     1
    898    901     1
    898    902     1
    899    925     1
    900    903     1
    900    901     1
    900    902     1
    901    904     1
    901    935     1
    902    904     1
    902    935     1
    903    918     1
    904    925     1
    905    910     1
    905    908     1
    905    909     1
    906    910     1
    906    908     1
    906    909     1
    907    949     1
    908    911     1
    908    959     1
    909    911     1
    909    959     1
    910    942     1
    911    949     1
    912    919     1
    912    934     1
    912    929     1
    912    920     1
    913    926     1
    913    927     1
    913    918     1
    913    924     1
    914    915     1
    914    933     1
    914    932     1
    914    928     1
    914    926     1
    914    927     1
    914    917     1
    915    934     1
    915    920     1
    915    925     1
    916    932     1
    916    924     1
    916    931     1
    917    919     1
    917    925     1
    918    922     1
    918    919     1
    918    921     1
    918    930     1
    918    920     1
    918    925     1
    919    933     1
    919    932     1
    919    935     1
    919    924     1
    920    935     1
    920    931     1
    922    932     1
    923    932     1
    926    930     1
    926    929     1
    927    930     1
    927    929     1
    930    932     1
    930    931     1
    932    934     1
    936    943     1
    936    958     1
    936    953     1
    936    944     1
    937    950     1
    937    951     1
    937    942     1
    937    948     1
    938    939     1
    938    957     1
    938    956     1
    938    952     1
    938    950     1
    938    951     1
    938    941     1
    939    958     1
    939    944     1
    939    949     1
    940    956     1
    940    948     1
    940    955     1
    941    943     1
    941    949     1
    942    946     1
    942    943     1
    942    945     1
    942    954     1
    942    944     1
    942    949     1
    943    957     1
    943    956     1
    943    959     1
    943    948     1
    944    959     1
    944    955     1
    946    956     1
    947    956     1
    950    954     1
    950    953     1
    951    954     1
    951    953     1
    954    956     1
    954    955     1
    956    958     1
    960    966     1
    960    967     1
    961    964     1
    961    963     1
    961    965     1
    963    968     1
    963    966     1
    963    967     1
    964    978     1
    964    979     1
    964    971     1
    964    973     1
    965    968     1
    965    966     1
    965    967     1
    966    969     1
    966    970     1
    967    969     1
    967    970     1
    968    981     1
    968    982     1
    968    974     1
    968    975     1
    969    971     1
    969    973     1
    970    978     1
    970    979     1
    971    976     1
    971    974     1
    971    975     1
    972    998     1
    973    976     1
    973    974     1
    973    975     1
    974    977     1
    974   1008     1
    975    977     1
    975   1008     1
    976    991     1
    977    998     1
    978    983     1
    978    981     1
    978    982     1
    979    983     1
    979    981     1
    979    982     1
    980   1022     1
    981    984     1
    981   1032     1
    982    984     1
    982   1032     1
    983   1015     1
    984   1022     1
    985    992     1
    985   1007     1
    985   1002     1
    985    993     1
    986    991     1
    986    997     1
    986    999     1
    986   1000     1
    987    988     1
    987   1006     1
    987   1005     1
    987   1001     1
    987    999     1
    987   1000     1
    987    990     1
    988    993     1
    988    998     1
    988   1007     1
    989   1004     1
    989    997     1
    989   1005     1
    990    998     1
    990    992     1
    991    994     1
    991   1003     1
    991    993     1
    991    998     1
    991    995     1
    991    992     1
    992   1008     1
    992    997     1
    992   1006     1
    992   1005     1
    993   1004     1
    993   1008     1
    995   1005     1
    996   1005     1
    999   1002     1
    999   1003     1
   1000   1002     1
   1000   1003     1
   1003   1004     1
   1003   1005     1
   1005   1007     1
   1009   1016     1
   1009   1031     1
   1009   1026     1
   1009   1017     1
   1010   1015     1
   1010   1021     1
   1010   1023     1
   1010   1024     1
   1011   1012     1
   1011   1030     1
   1011   1029     1
   1011   1025     1
   1011   1023     1
   1011   1024     1
   1011   1014     1
   1012   1017     1
   1012   1022     1
   1012   1031     1
   1013   1028     1
   1013   1021     1
   1013   1029     1
   1014   1022     1
   1014   1016     1
   1015   1018     1
   1015   1027     1
   1015   1017     1
   1015   1022     1
   1015   1019     1
   1015   1016     1
   1016   1032     1
   1016   1021     1
   1016   1030     1
   1016   1029     1
   1017   1028     1
   1017   1032     1
   1019   1029     1
   1020   1029     1
   1023   1026     1
   1023   1027     1
   1024   1026     1
   1024   1027     1
   1027   1028     1
   1027   1029     1
   1029   1031     1
   1033   1039     1
   1033   1040     1
   1034   1037     1
   1034   1036     1
   1034   1038     1
   1036   1041     1
   1036   1039     1
   1036   1040     1
   1037   1051     1
   1037   1052     1
   1037   1044     1
   1037   1046     1
   1038   1041     1
   1038   1039     1
   1038   1040     1
   1039   1042     1
   1039   1043     1
   1040   1042     1
   1040   1043     1
   1041   1054     1
   1041   1055     1
   1041   1047     1
   1041   1048     1
   1042   1044     1
   1042   1046     1
   1043   1051     1
   1043   1052     1
   1044   1049     1
   1044   1047     1
   1044   1048     1
   1045   1071     1
   1046   1049     1
   1046   1047     1
   1046   1048     1
   1047   1050     1
   1047   1081     1
   1048   1050     1
   1048   1081     1
   1049   1064     1
   1050   1071     1
   1051   1056     1
   1051   1054     1
   1051   1055     1
   1052   1056     1
   1052   1054     1
   1052   1055     1
   1053   1095     1
   1054   1057     1
   1054   1105     1
   1055   1057     1
   1055   1105     1
   1056   1088     1
   1057   1095     1
   1058   1065     1
   1058   1080     1
   1058   1075     1
   1058   1066     1
   1059   1072     1
   1059   1073     1
   1059   1064     1
   1059   1070     1
   1060   1061     1
   1060   1079     1
   1060   1078     1
   1060   1074     1
   1060   1072     1
   1060   1073     1
   1060   1063     1
   1061   1080     1
   1061   1066     1
   1061   1071     1
   1062   1078     1
   1062   1070     1
   1062   1077     1
   1063   1065     1
   1063   1071     1
   1064   1068     1
   1064   1065     1
   1064   1067     1
   1064   1076     1
   1064   1066     1
   1064   1071     1
   1065   1079     1
   1065   1078     1
   1065   1081     1
   1065   1070     1
   1066   1081     1
   1066   1077     1
   1068   1078     1
   1069   1078     1
   1072   1076     1
   1072   1075     1
   1073   1076     1
   1073   1075     1
   1076   1078     1
   1076   1077     1
   1078   1080     1
   1082   1089     1
   1082   1104     1
   1082   1099     1
   1082   1090     1
   1083   1096     1
   1083   1097     1
   1083   1088     1
   1083   1094     1
   1084   1085     1
   1084   1103     1
   1084   1102     1
   1084   1098     1
   1084   1096     1
   1084   1097     1
   1084   1087     1
   1085   1104     1
   1085   1090     1
   1085   1095     1
   1086   1102     1
   1086   1094     1
   1086   1101     1
   1087   1089     1
   1087   1095     1
   1088   1092     1
   1088   1089     1
   1088   1091     1
   1088   1100     1
   1088   1090     1
   1088   1095     1
   1089   1103     1
   1089   1102     1
   1089   1105     1
   1089   1094     1
   1090   1105     1
   1090   1101     1
   1092   1102     1
   1093   1102     1
   1096   1100     1
   1096   1099     1
   1097   1100     1
   1097   1099     1
   1100   1102     1
   1100   1101     1
   1102   1104     1
   1106   1112     1
   1106   1113     1
   1107   1110     1
   1107   1109     1
   1107   1111     1
   1109   1114     1
   1109   1112     1
   1109   1113     1
   1110   1124     1
   1110   1125     1
   1110   1117     1
   1110   1119     1
   1111   1114     1
   1111   1112     1
   1111   1113     1
   1112   1115     1
   1112   1116     1
   1113   1115     1
   1113   1116     1
   1114   1127     1
   1114   1128     1
   1114   1120     1
   1114   1121     1
   1115   1117     1
   1115   1119     1
   1116   1124     1
   1116   1125     1
   1117   1122     1
   1117   1120     1
   1117   1121     1
   1118   1144     1
   1119   1122     1
   1119   1120     1
   1119   1121     1
   1120   1123     1
   1120   1154     1
   1121   1123     1
   1121   1154     1
   1122   1137     1
   1123   1144     1
   1124   1129     1
   1124   1127     1
   1124   1128     1
   1125   1129     1
   1125   1127     1
   1125   1128     1
   1126   1168     1
   1127   1130     1
   1127   1178     1
   1128   1130     1
   1128   1178     1
   1129   1161     1
   1130   1168     1
   1131   1138     1
   1131   1153     1
   1131   1148     1
   1131   1139     1
   1132   1137     1
   1132   1143     1
   1132   1145     1
   1132   1146     1
   1133   1134     1
   1133   1152     1
   1133   1151     1
   1133   1147     1
   1133   1145     1
   1133   1146     1
   1133   1136     1
   1134   1139     1
   1134   1144     1
   1134   1153     1
   1135   1150     1
   1135   1143     1
   1135   1151     1
   1136   1144     1
   1136   1138     1
   1137   1140     1
   1137   1149     1
   1137   1139     1
   1137   1144     1
   1137   1141     1
   1137   1138     1
   1138   1154     1
   1138   1143     1
   1138   1152     1
   1138   1151     1
   1139   1150     1
   1139   1154     1
   1141   1151     1
   1142   1151     1
   1145   1148     1
   1145   1149     1
   1146   1148     1
   1146   1149     1
   1149   1150     1
   1149   1151     1
   1151   1153     1
   1155   1162     1
   1155   1177     1
   1155   1172     1
   1155   1163     1
   1156   1161     1
   1156   1167     1
   1156   1169     1
   1156   1170     1
   1157   1158     1
   1157   1176     1
   1157   1175     1
   1157   1171     1
   1157   1169     1
   1157   1170     1
   1157   1160     1
   1158   1163     1
   1158   1168     1
   1158   1177     1
   1159   1174     1
   1159   1167     1
   1159   1175     1
   1160   1168     1
   1160   1162     1
   1161   1164     1
   1161   1173     1
   1161   1163     1
   1161   1168     1
   1161   1165     1
   1161   1162     1
   1162   1178     1
   1162   1167     1
   1162   1176     1
   1162   1175     1
   1163   1174     1
   1163   1178     1
   1165   1175     1
   1166   1175     1
   1169   1172     1
   1169   1173     1
   1170   1172     1
   1170   1173     1
   1173   1174     1
   1173   1175     1
   1175   1177     1
   1179   1185     1
   1179   1186     1
   1180   1183     1
   1180   1182     1
   1180   1184     1
   1182   1187     1
   1182   1185     1
   1182   1186     1
   1183   1197     1
   1183   1198     1
   1183   1190     1
   1183   1192     1
   1184   1187     1
   1184   1185     1
   1184   1186     1
   1185   1188     1
   1185   1189     1
   1186   1188     1
   1186   1189     1
   1187   1200     1
   1187   1201     1
   1187   1193     1
   1187   1194     1
   1188   1190     1
   1188   1192     1
   1189   1197     1
   1189   1198     1
   1190   1195     1
   1190   1193     1
   1190   1194     1
   1191   1217     1
   1192   1195     1
   1192   1193     1
   1192   1194     1
   1193   1196     1
   1193   1227     1
   1194   1196     1
   1194   1227     1
   1195   1210     1
   1196   1217     1
   1197   1202     1
   1197   1200     1
   1197   1201     1
   1198   1202     1
   1198   1200     1
   1198   1201     1
   1199   1241     1
   1200   1203     1
   1200   1251     1
   1201   1203     1
   1201   1251     1
   1202   1234     1
   1203   1241     1
   1204   1211     1
   1204   1226     1
   1204   1221     1
   1204   1212     1
   1205   1218     1
   1205   1219     1
   1205   1210     1
   1205   1216     1
   1206   1207     1
   1206   1225     1
   1206   1224     1
   1206   1220     1
   1206   1218     1
   1206   1219     1
   1206   1209     1
   1207   1226     1
   1207   1212     1
   1207   1217     1
   1208   1224     1
   1208   1216     1
   1208   1223     1
   1209   1211     1
   1209   1217     1
   1210   1214     1
   1210   1211     1
   1210   1213     1
   1210   1222     1
   1210   1212     1
   1210   1217     1
   1211   1225     1
   1211   1224     1
   1211   1227     1
   1211   1216     1
   1212   1227     1
   1212   1223     1
   1214   1224     1
   1215   1224     1
   1218   1222     1
   1218   1221     1
   1219   1222     1
   1219   1221     1
   1222   1224     1
   1222   1223     1
   1224   1226     1
   1228   1235     1
   1228   1250     1
   1228   1245     1
   1228   1236     1
   1229   1242     1
   1229   1243     1
   1229   1234     1
   1229   1240     1
   1230   1231     1
   1230   1249     1
   1230   1248     1
   1230   1244     1
   1230   1242     1
   1230   1243     1
   1230   1233     1
   1231   1250     1
   1231   1236     1
   1231   1241     1
   1232   1248     1
   1232   1240     1
   1232   1247     1
   1233   1235     1
   1233   1241     1
   1234   1238     1
   1234   1235     1
   1234   1237     1
   1234   1246     1
   1234   1236     1
   1234   1241     1
   1235   1249     1
   1235   1248     1
   1235   1251     1
   1235   1240     1
   1236   1251     1
   1236   1247     1
   1238   1248     1
   1239   1248     1
   1242   1246     1
   1242   1245     1
   1243   1246     1
   1243   1245     1
   1246   1248     1
   1246   1247     1
   1248   1250     1
   1252   1258     1
   1252   1259     1
   1253   1256     1
   1253   1255     1
   1253   1257     1
   1255   1260     1
   1255   1258     1
   1255   1259     1
   1256   1270     1
   1256   1271     1
   1256   1263     1
   1256   1265     1
   1257   1260     1
   1257   1258     1
   1257   1259     1
   1258   1261     1
   1258   1262     1
   1259   1261     1
   1259   1262     1
   1260   1273     1
   1260   1274     1
   1260   1266     1
   1260   1267     1
   1261   1263     1
   1261   1265     1
   1262   1270     1
   1262   1271     1
   1263   1268     1
   1263   1266     1
   1263   1267     1
   1264   1290     1
   1265   1268     1
   1265   1266     1
   1265   1267     1
   1266   1269     1
   1266   1300     1
   1267   1269     1
   1267   1300     1
   1268   1283     1
   1269   1290     1
   1270   1275     1
   1270   1273     1
   1270   1274     1
   1271   1275     1
   1271   1273     1
   1271   1274     1
   1272   1314     1
   1273   1276     1
   1273   1324     1
   1274   1276     1
   1274   1324     1
   1275   1307     1
   1276   1314     1
   1277   1284     1
   1277   1299     1
   1277   1294     1
   1277   1285     1
   1278   1283     1
   1278   1289     1
   1278   1291     1
   1278   1292     1
   1279   1280     1
   1279   1298     1
   1279   1297     1
   1279   1293     1
   1279   1291     1
   1279   1292     1
   1279   1282     1
   1280   1285     1
   1280   1290     1
   1280   1299     1
   1281   1296     1
   1281   1289     1
   1281   1297     1
   1282   1290     1
   1282   1284     1
   1283   1286     1
   1283   1295     1
   1283   1285     1
   1283   1290     1
   1283   1287     1
   1283   1284     1
   1284   1300     1
   1284   1289     1
   1284   1298     1
   1284   1297     1
   1285   1296     1
   1285   1300     1
   1287   1297     1
   1288   1297     1
   1291   1294     1
   1291   1295     1
   1292   1294     1
   1292   1295     1
   1295   1296     1
   1295   1297     1
   1297   1299     1
   1301   1308     1
   1301   1323     1
   1301   1318     1
   1301   1309     1
   1302   1307     1
   1302   1313     1
   1302   1315     1
   1302   1316     1
   1303   1304     1
   1303   1322     1
   1303   1321     1
   1303   1317     1
   1303   1315     1
   1303   1316     1
   1303   1306     1
   1304   1309     1
   1304   1314     1
   1304   1323     1
   1305   1320     1
   1305   1313     1
   1305   1321     1
   1306   1314     1
   1306   1308     1
   1307   1310     1
   1307   1319     1
   1307   1309     1
   1307   1314     1
   1307   1311     1
   1307   1308     1
   1308   1324     1
   1308   1313     1
   1308   1322     1
   1308   1321     1
   1309   1320     1
   1309   1324     1
   1311   1321     1
   1312   1321     1
   1315   1318     1
   1315   1319     1
   1316   1318     1
   1316   1319     1
   1319   1320     1
   1319   1321     1
   1321   1323     1
   1325   1331     1
   1325   1332     1
   1326   1329     1
   1326   1328     1
   1326   1330     1
   1328   1333     1
   1328   1331     1
   1328   1332     1
   1329   1343     1
   1329   1344     1
   1329   1336     1
   1329   1338     1
   1330   1333     1
   1330   1331     1
   1330   1332     1
   1331   1334     1
   1331   1335     1
   1332   1334     1
   1332   1335     1
   1333   1346     1
   1333   1347     1
   1333   1339     1
   1333   1340     1
   1334   1336     1
   1334   1338     1
   1335   1343     1
   1335   1344     1
   1336   1341     1
   1336   1339     1
   1336   1340     1
   1337   1363     1
   1338   1341     1
   1338   1339     1
   1338   1340     1
   1339   1342     1
   1339   1373     1
   1340   1342     1
   1340   1373     1
   1341   1356     1
   1342   1363     1
   1343   1348     1
   1343   1346     1
   1343   1347     1
   1344   1348     1
   1344   1346     1
   1344   1347     1
   1345   1387     1
   1346   1349     1
   1346   1397     1
   1347   1349     1
   1347   1397     1
   1348   1380     1
   1349   1387     1
   1350   1357     1
   1350   1372     1
   1350   1367     1
   1350   1358     1
   1351   1364     1
   1351   1365     1
   1351   1356     1
   1351   1362     1
   1352   1353     1
   1352   1371     1
   1352   1370     1
   1352   1366     1
   1352   1364     1
   1352   1365     1
   1352   1355     1
   1353   1372     1
   1353   1358     1
   1353   1363     1
   1354   1370     1
   1354   1362     1
   1354   1369     1
   1355   1357     1
   1355   1363     1
   1356   1360     1
   1356   1357     1
   1356   1359     1
   1356   1368     1
   1356   1358     1
   1356   1363     1
   1357   1371     1
   1357   1370     1
   1357   1373     1
   1357   1362     1
   1358   1373     1
   1358   1369     1
   1360   1370     1
   1361   1370     1
   1364   1368     1
   1364   1367     1
   1365   1368     1
   1365   1367     1
   1368   1370     1
   1368   1369     1
   1370   1372     1
   1374   1381     1
   1374   1396     1
   1374   1391     1
   1374   1382     1
   1375   1388     1
   1375   1389     1
   1375   1380     1
   1375   1386     1
   1376   1377     1
   1376   1395     1
   1376   1394     1
   1376   1390     1
   1376   1388     1
   1376   1389     1
   1376   1379     1
   1377   1396     1
   1377   1382     1
   1377   1387     1
   1378   1394     1
   1378   1386     1
   1378   1393     1
   1379   1381     1
   1379   1387     1
   1380   1384     1
   1380   1381     1
   1380   1383     1
   1380   1392     1
   1380   1382     1
   1380   1387     1
   1381   1395     1
   1381   1394     1
   1381   1397     1
   1381   1386     1
   1382   1397     1
   1382   1393     1
   1384   1394     1
   1385   1394     1
   1388   1392     1
   1388   1391     1
   1389   1392     1
   1389   1391     1
   1392   1394     1
   1392   1393     1
   1394   1396     1
   1398   1404     1
   1398   1405     1
   1399   1402     1
   1399   1401     1
   1399   1403     1
   1401   1406     1
   1401   1404     1
   1401   1405     1
   1402   1416     1
   1402   1417     1
   1402   1409     1
   1402   1411     1
   1403   1406     1
   1403   1404     1
   1403   1405     1
   1404   1407     1
   1404   1408     1
   1405   1407     1
   1405   1408     1
   1406   1419     1
   1406   1420     1
   1406   1412     1
   1406   1413     1
   1407   1409     1
   1407   1411     1
   1408   1416     1
   1408   1417     1
   1409   1414     1
   1409   1412     1
   1409   1413     1
   1410   1436     1
   1411   1414     1
   1411   1412     1
   1411   1413     1
   1412   1415     1
   1412   1446     1
   1413   1415     1
   1413   1446     1
   1414   1429     1
   1415   1436     1
   1416   1421     1
   1416   1419     1
   1416   1420     1
   1417   1421     1
   1417   1419     1
   1417   1420     1
   1418   1460     1
   1419   1422     1
   1419   1470     1
   1420   1422     1
   1420   1470     1
   1421   1453     1
   1422   1460     1
   1423   1430     1
   1423   1445     1
   1423   1440     1
   1423   1431     1
   1424   1429     1
   1424   1435     1
   1424   1437     1
   1424   1438     1
   1425   1426     1
   1425   1444     1
   1425   1443     1
   1425   1439     1
   1425   1437     1
   1425   1438     1
   1425   1428     1
   1426   1431     1
   1426   1436     1
   1426   1445     1
   1427   1442     1
   1427   1435     1
   1427   1443     1
   1428   1436     1
   1428   1430     1
   1429   1432     1
   1429   1441     1
   1429   1431     1
   1429   1436     1
   1429   1433     1
   1429   1430     1
   1430   1446     1
   1430   1435     1
   1430   1444     1
   1430   1443     1
   1431   1442     1
   1431   1446     1
   1433   1443     1
   1434   1443     1
   1437   1440     1
   1437   1441     1
   1438   1440     1
   1438   1441     1
   1441   1442     1
   1441   1443     1
   1443   1445     1
   1447   1454     1
   1447   1469     1
   1447   1464     1
   1447   1455     1
   1448   1453     1
   1448   1459     1
   1448   1461     1
   1448   1462     1
   1449   1450     1
   1449   1468     1
   1449   1467     1
   1449   1463     1
   1449   1461     1
   1449   1462     1
   1449   1452     1
   1450   1455     1
   1450   1460     1
   1450   1469     1
   1451   1466     1
   1451   1459     1
   1451   1467     1
   1452   1460     1
   1452   1454     1
   1453   1456     1
   1453   1465     1
   1453   1455     1
   1453   1460     1
   1453   1457     1
   1453   1454     1
   1454   1470     1
   1454   1459     1
   1454   1468     1
   1454   1467     1
   1455   1466     1
   1455   1470     1
   1457   1467     1
   1458   1467     1
   1461   1464     1
   1461   1465     1
   1462   1464     1
   1462   1465     1
   1465   1466     1
   1465   1467     1
   1467   1469     1
   1471   1477     1
   1471   1478     1
   1472   1475     1
   1472   1474     1
   1472   1476     1
   1474   1479     1
   1474   1477     1
   1474   1478     1
   1475   1489     1
   1475   1490     1
   1475   1482     1
   1475   1484     1
   1476   1479     1
   1476   1477     1
   1476   1478     1
   1477   1480     1
   1477   1481     1
   1478   1480     1
   1478   1481     1
   1479   1492     1
   1479   1493     1
   1479   1485     1
   1479   1486     1
   1480   1482     1
   1480   1484     1
   1481   1489     1
   1481   1490     1
   1482   1487     1
   1482   1485     1
   1482   1486     1
   1483   1509     1
   1484   1487     1
   1484   1485     1
   1484   1486     1
   1485   1488     1
   1485   1519     1
   1486   1488     1
   1486   1519     1
   1487   1502     1
   1488   1509     1
   1489   1494     1
   1489   1492     1
   1489   1493     1
   1490   1494     1
   1490   1492     1
   1490   1493     1
   1491   1533     1
   1492   1495     1
   1492   1543     1
   1493   1495     1
   1493   1543     1
   1494   1526     1
   1495   1533     1
   1496   1503     1
   1496   1518     1
   1496   1513     1
   1496   1504     1
   1497   1510     1
   1497   1511     1
   1497   1502     1
   1497   1508     1
   1498   1499     1
   1498   1517     1
   1498   1516     1
   1498   1512     1
   1498   1510     1
   1498   1511     1
   1498   1501     1
   1499   1518     1
   1499   1504     1
   1499   1509     1
   1500   1516     1
   1500   1508     1
   1500   1515     1
   1501   1503     1
   1501   1509     1
   1502   1506     1
   1502   1503     1
   1502   1505     1
   1502   1514     1
   1502   1504     1
   1502   1509     1
   1503   1517     1
   1503   1516     1
   1503   1519     1
   1503   1508     1
   1504   1519     1
   1504   1515     1
   1506   1516     1
   1507   1516     1
   1510   1514     1
   1510   1513     1
   1511   1514     1
   1511   1513     1
   1514   1516     1
   1514   1515     1
   1516   1518     1
   1520   1527     1
   1520   1542     1
   1520   1537     1
   1520   1528     1
   1521   1534     1
   1521   1535     1
   1521   1526     1
   1521   1532     1
   1522   1523     1
   1522   1541     1
   1522   1540     1
   1522   1536     1
   1522   1534     1
   1522   1535     1
   1522   1525     1
   1523   1542     1
   1523   1528     1
   1523   1533     1
   1524   1540     1
   1524   1532     1
   1524   1539     1
   1525   1527     1
   1525   1533     1
   1526   1530     1
   1526   1527     1
   1526   1529     1
   1526   1538     1
   1526   1528     1
   1526   1533     1
   1527   1541     1
   1527   1540     1
   1527   1543     1
   1527   1532     1
   1528   1543     1
   1528   1539     1
   1530   1540     1
   1531   1540     1
   1534   1538     1
   1534   1537     1
   1535   1538     1
   1535   1537     1
   1538   1540     1
   1538   1539     1
   1540   1542     1
   1544   1550     1
   1544   1551     1
   1545   1548     1
   1545   1547     1
   1545   1549     1
   1547   1552     1
   1547   1550     1
   1547   1551     1
   1548   1562     1
   1548   1563     1
   1548   1555     1
   1548   1557     1
   1549   1552     1
   1549   1550     1
   1549   1551     1
   1550   1553     1
   1550   1554     1
   1551   1553     1
   1551   1554     1
   1552   1565     1
   1552   1566     1
   1552   1558     1
   1552   1559     1
   1553   1555     1
   1553   1557     1
   1554   1562     1
   1554   1563     1
   1555   1560     1
   1555   1558     1
   1555   1559     1
   1556   1582     1
   1557   1560     1
   1557   1558     1
   1557   1559     1
   1558   1561     1
   1558   1592     1
   1559   1561     1
   1559   1592     1
   1560   1575     1
   1561   1582     1
   1562   1567     1
   1562   1565     1
   1562   1566     1
   1563   1567     1
   1563   1565     1
   1563   1566     1
   1564   1606     1
   1565   1568     1
   1565   1616     1
   1566   1568     1
   1566   1616     1
   1567   1599     1
   1568   1606     1
   1569   1576     1
   1569   1591     1
   1569   1586     1
   1569   1577     1
   1570   1575     1
   1570   1581     1
   1570   1583     1
   1570   1584     1
   1571   1572     1
   1571   1590     1
   1571   1589     1
   1571   1585     1
   1571   1583     1
   1571   1584     1
   1571   1574     1
   1572   1577     1
   1572   1582     1
   1572   1591     1
   1573   1588     1
   1573   1581     1
   1573   1589     1
   1574   1582     1
   1574   1576     1
   1575   1578     1
   1575   1587     1
   1575   1577     1
   1575   1582     1
   1575   1579     1
   1575   1576     1
   1576   1592     1
   1576   1581     1
   1576   1590     1
   1576   1589     1
   1577   1588     1
   1577   1592     1
   1579   1589     1
   1580   1589     1
   1583   1586     1
   1583   1587     1
   1584   1586     1
   1584   1587     1
   1587   1588     1
   1587   1589     1
   1589   1591     1
   1593   1600     1
   1593   1615     1
   1593   1610     1
   1593   1601     1
   1594   1599     1
   1594   1605     1
   1594   1607     1
   1594   1608     1
   1595   1596     1
   1595   1614     1
   1595   1613     1
   1595   1609     1
   1595   1607     1
   1595   1608     1
   1595   1598     1
   1596   1601     1
   1596   1606     1
   1596   1615     1
   1597   1612     1
   1597   1605     1
   1597   1613     1
   1598   1606     1
   1598   1600     1
   1599   1602     1
   1599   1611     1
   1599   1601     1
   1599   1606     1
   1599   1603     1
   1599   1600     1
   1600   1616     1
   1600   1605     1
   1600   1614     1
   1600   1613     1
   1601   1612     1
   1601   1616     1
   1603   1613     1
   1604   1613     1
   1607   1610     1
   1607   1611     1
   1608   1610     1
   1608   1611     1
   1611   1612     1
   1611   1613     1
   1613   1615     1
   1617   1623     1
   1617   1624     1
   1618   1621     1
   1618   1620     1
   1618   1622     1
   1620   1625     1
   1620   1623     1
   1620   1624     1
   1621   1635     1
   1621   1636     1
   1621   1628     1
   1621   1630     1
   1622   1625     1
   1622   1623     1
   1622   1624     1
   1623   1626     1
   1623   1627     1
   1624   1626     1
   1624   1627     1
   1625   1638     1
   1625   1639     1
   1625   1631     1
   1625   1632     1
   1626   1628     1
   1626   1630     1
   1627   1635     1
   1627   1636     1
   1628   1633     1
   1628   1631     1
   1628   1632     1
   1629   1655     1
   1630   1633     1
   1630   1631     1
   1630   1632     1
   1631   1634     1
   1631   1665     1
   1632   1634     1
   1632   1665     1
   1633   1648     1
   1634   1655     1
   1635   1640     1
   1635   1638     1
   1635   1639     1
   1636   1640     1
   1636   1638     1
   1636   1639     1
   1637   1679     1
   1638   1641     1
   1638   1689     1
   1639   1641     1
   1639   1689     1
   1640   1672     1
   1641   1679     1
   1642   1649     1
   1642   1664     1
   1642   1659     1
   1642   1650     1
   1643   1656     1
   1643   1657     1
   1643   1648     1
   1643   1654     1
   1644   1645     1
   1644   1663     1
   1644   1662     1
   1644   1658     1
   1644   1656     1
   1644   1657     1
   1644   1647     1
   1645   1664     1
   1645   1650     1
   1645   1655     1
   1646   1662     1
   1646   1654     1
   1646   1661     1
   1647   1649     1
   1647   1655     1
   1648   1652     1
   1648   1649     1
   1648   1651     1
   1648   1660     1
   1648   1650     1
   1648   1655     1
   1649   1663     1
   1649   1662     1
   1649   1665     1
   1649   1654     1
   1650   1665     1
   1650   1661     1
   1652   1662     1
   1653   1662     1
   1656   1660     1
   1656   1659     1
   1657   1660     1
   1657   1659     1
   1660   1662     1
   1660   1661     1
   1662   1664     1
   1666   1673     1
   1666   1688     1
   1666   1683     1
   1666   1674     1
   1667   1680     1
   1667   1681     1
   1667   1672     1
   1667   1678     1
   1668   1669     1
   1668   1687     1
   1668   1686     1
   1668   1682     1
   1668   1680     1
   1668   1681     1
   1668   1671     1
   1669   1688     1
   1669   1674     1
   1669   1679     1
   1670   1686     1
   1670   1678     1
   1670   1685     1
   1671   1673     1
   1671   1679     1
   1672   1676     1
   1672   1673     1
   1672   1675     1
   1672   1684     1
   1672   1674     1
   1672   1679     1
   1673   1687     1
   1673   1686     1
   1673   1689     1
   1673   1678     1
   1674   1689     1
   1674   1685     1
   1676   1686     1
   1677   1686     1
   1680   1684     1
   1680   1683     1
   1681   1684     1
   1681   1683     1
   1684   1686     1
   1684   1685     1
   1686   1688     1
   1690   1696     1
   1690   1697     1
   1691   1694     1
   1691   1693     1
   1691   1695     1
   1693   1698     1
   1693   1696     1
   1693   1697     1
   1694   1708     1
   1694   1709     1
   1694   1701     1
   1694   1703     1
   1695   1698     1
   1695   1696     1
   1695   1697     1
   1696   1699     1
   1696   1700     1
   1697   1699     1
   1697   1700     1
   1698   1711     1
   1698   1712     1
   1698   1704     1
   1698   1705     1
   1699   1701     1
   1699   1703     1
   1700   1708     1
   1700   1709     1
   1701   1706     1
   1701   1704     1
   1701   1705     1
   1702   1728     1
   1703   1706     1
   1703   1704     1
   1703   1705     1
   1704   1707     1
   1704   1738     1
   1705   1707     1
   1705   1738     1
   1706   1721     1
   1707   1728     1
   1708   1713     1
   1708   1711     1
   1708   1712     1
   1709   1713     1
   1709   1711     1
   1709   1712     1
   1710   1752     1
   1711   1714     1
   1711   1762     1
   1712   1714     1
   1712   1762     1
   1713   1745     1
   1714   1752     1
   1715   1722     1
   1715   1737     1
   1715   1732     1
   1715   1723     1
   1716   1721     1
   1716   1727     1
   1716   1729     1
   1716   1730     1
   1717   1718     1
   1717   1736     1
   1717   1735     1
   1717   1731     1
   1717   1729     1
   1717   1730     1
   1717   1720     1
   1718   1723     1
   1718   1728     1
   1718   1737     1
   1719   1734     1
   1719   1727     1
   1719   1735     1
   1720   1728     1
   1720   1722     1
   1721   1724     1
   1721   1733     1
   1721   1723     1
   1721   1728     1
   1721   1725     1
   1721   1722     1
   1722   1738     1
   1722   1727     1
   1722   1736     1
   1722   1735     1
   1723   1734     1
   1723   1738     1
   1725   1735     1
   1726   1735     1
   1729   1732     1
   1729   1733     1
   1730   1732     1
   1730   1733     1
   1733   1734     1
   1733   1735     1
   1735   1737     1
   1739   1746     1
   1739   1761     1
   1739   1756     1
   1739   1747     1
   1740   1745     1
   1740   1751     1
   1740   1753     1
   1740   1754     1
   1741   1742     1
   1741   1760     1
   1741   1759     1
   1741   1755     1
   1741   1753     1
   1741   1754     1
   1741   1744     1
   1742   1747     1
   1742   1752     1
   1742   1761     1
   1743   1758     1
   1743   1751     1
   1743   1759     1
   1744   1752     1
   1744   1746     1
   1745   1748     1
   1745   1757     1
   1745   1747     1
   1745   1752     1
   1745   1749     1
   1745   1746     1
   1746   1762     1
   1746   1751     1
   1746   1760     1
   1746   1759     1
   1747   1758     1
   1747   1762     1
   1749   1759     1
   1750   1759     1
   1753   1756     1
   1753   1757     1
   1754   1756     1
   1754   1757     1
   1757   1758     1
   1757   1759     1
   1759   1761     1
   1763   1769     1
   1763   1770     1
   1764   1767     1
   1764   1766     1
   1764   1768     1
   1766   1771     1
   1766   1769     1
   1766   1770     1
   1767   1781     1
   1767   1782     1
   1767   1774     1
   1767   1776     1
   1768   1771     1
   1768   1769     1
   1768   1770     1
   1769   1772     1
   1769   1773     1
   1770   1772     1
   1770   1773     1
   1771   1784     1
   1771   1785     1
   1771   1777     1
   1771   1778     1
   1772   1774     1
   1772   1776     1
   1773   1781     1
   1773   1782     1
   1774   1779     1
   1774   1777     1
   1774   1778     1
   1775   1801     1
   1776   1779     1
   1776   1777     1
   1776   1778     1
   1777   1780     1
   1777   1811     1
   1778   1780     1
   1778   1811     1
   1779   1794     1
   1780   1801     1
   1781   1786     1
   1781   1784     1
   1781   1785     1
   1782   1786     1
   1782   1784     1
   1782   1785     1
   1783   1825     1
   1784   1787     1
   1784   1835     1
   1785   1787     1
   1785   1835     1
   1786   1818     1
   1787   1825     1
   1788   1795     1
   1788   1810     1
   1788   1805     1
   1788   1796     1
   1789   1802     1
   1789   1803     1
   1789   1794     1
   1789   1800     1
   1790   1791     1
   1790   1809     1
   1790   1808     1
   1790   1804     1
   1790   1802     1
   1790   1803     1
   1790   1793     1
   1791   1810     1
   1791   1796     1
   1791   1801     1
   1792   1808     1
   1792   1800     1
   1792   1807     1
   1793   1795     1
   1793   1801     1
   1794   1798     1
   1794   1795     1
   1794   1797     1
   1794   1806     1
   1794   1796     1
   1794   1801     1
   1795   1809     1
   1795   1808     1
   1795   1811     1
   1795   1800     1
   1796   1811     1
   1796   1807     1
   1798   1808     1
   1799   1808     1
   1802   1806     1
   1802   1805     1
   1803   1806     1
   1803   1805     1
   1806   1808     1
   1806   1807     1
   1808   1810     1
   1812   1819     1
   1812   1834     1
   1812   1829     1
   1812   1820     1
   1813   1826     1
   1813   1827     1
   1813   1818     1
   1813   1824     1
   1814   1815     1
   1814   1833     1
   1814   1832     1
   1814   1828     1
   1814   1826     1
   1814   1827     1
   1814   1817     1
   1815   1834     1
   1815   1820     1
   1815   1825     1
   1816   1832     1
   1816   1824     1
   1816   1831     1
   1817   1819     1
   1817   1825     1
   1818   1822     1
   1818   1819     1
   1818   1821     1
   1818   1830     1
   1818   1820     1
   1818   1825     1
   1819   1833     1
   1819   1832     1
   1819   1835     1
   1819   1824     1
   1820   1835     1
   1820   1831     1
   1822   1832     1
   1823   1832     1
   1826   1830     1
   1826   1829     1
   1827   1830     1
   1827   1829     1
   1830   1832     1
   1830   1831     1
   1832   1834     1
   1836   1842     1
   1836   1843     1
   1837   1840     1
   1837   1839     1
   1837   1841     1
   1839   1844     1
   1839   1842     1
   1839   1843     1
   1840   1854     1
   1840   1855     1
   1840   1847     1
   1840   1849     1
   1841   1844     1
   1841   1842     1
   1841   1843     1
   1842   1845     1
   1842   1846     1
   1843   1845     1
   1843   1846     1
   1844   1857     1
   1844   1858     1
   1844   1850     1
   1844   1851     1
   1845   1847     1
   1845   1849     1
   1846   1854     1
   1846   1855     1
   1847   1852     1
   1847   1850     1
   1847   1851     1
   1848   1874     1
   1849   1852     1
   1849   1850     1
   1849   1851     1
   1850   1853     1
   1850   1884     1
   1851   1853     1
   1851   1884     1
   1852   1867     1
   1853   1874     1
   1854   1859     1
   1854   1857     1
   1854   1858     1
   1855   1859     1
   1855   1857     1
   1855   1858     1
   1856   1898     1
   1857   1860     1
   1857   1908     1
   1858   1860     1
   1858   1908     1
   1859   1891     1
   1860   1898     1
   1861   1868     1
   1861   1883     1
   1861   1878     1
   1861   1869     1
   1862   1867     1
   1862   1873     1
   1862   1875     1
   1862   1876     1
   1863   1864     1
   1863   1882     1
   1863   1881     1
   1863   1877     1
   1863   1875     1
   1863   1876     1
   1863   1866     1
   1864   1869     1
   1864   1874     1
   1864   1883     1
   1865   1880     1
   1865   1873     1
   1865   1881     1
   1866   1874     1
   1866   1868     1
   1867   1870     1
   1867   1879     1
   1867   1869     1
   1867   1874     1
   1867   1871     1
   1867   1868     1
   1868   1884     1
   1868   1873     1
   1868   1882     1
   1868   1881     1
   1869   1880     1
   1869   1884     1
   1871   1881     1
   1872   1881     1
   1875   1878     1
   1875   1879     1
   1876   1878     1
   1876   1879     1
   1879   1880     1
   1879   1881     1
   1881   1883     1
   1885   1892     1
   1885   1907     1
   1885   1902     1
   1885   1893     1
   1886   1891     1
   1886   1897     1
   1886   1899     1
   1886   1900     1
   1887   1888     1
   1887   1906     1
   1887   1905     1
   1887   1901     1
   1887   1899     1
   1887   1900     1
   1887   1890     1
   1888   1893     1
   1888   1898     1
   1888   1907     1
   1889   1904     1
   1889   1897     1
   1889   1905     1
   1890   1898     1
   1890   1892     1
   1891   1894     1
   1891   1903     1
   1891   1893     1
   1891   1898     1
   1891   1895     1
   1891   1892     1
   1892   1908     1
   1892   1897     1
   1892   1906     1
   1892   1905     1
   1893   1904     1
   1893   1908     1
   1895   1905     1
   1896   1905     1
   1899   1902     1
   1899   1903     1
   1900   1902     1
   1900   1903     1
   1903   1904     1
   1903   1905     1
   1905   1907     1
   1909   1915     1
   1909   1916     1
   1910   1913     1
   1910   1912     1
   1910   1914     1
   1912   1917     1
   1912   1915     1
   1912   1916     1
   1913   1927     1
   1913   1928     1
   1913   1920     1
   1913   1922     1
   1914   1917     1
   1914   1915     1
   1914   1916     1
   1915   1918     1
   1915   1919     1
   1916   1918     1
   1916   1919     1
   1917   1930     1
   1917   1931     1
   1917   1923     1
   1917   1924     1
   1918   1920     1
   1918   1922     1
   1919   1927     1
   1919   1928     1
   1920   1925     1
   1920   1923     1
   1920   1924     1
   1921   1947     1
   1922   1925     1
   1922   1923     1
   1922   1924     1
   1923   1926     1
   1923   1957     1
   1924   1926     1
   1924   1957     1
   1925   1940     1
   1926   1947     1
   1927   1932     1
   1927   1930     1
   1927   1931     1
   1928   1932     1
   1928   1930     1
   1928   1931     1
   1929   1971     1
   1930   1933     1
   1930   1981     1
   1931   1933     1
   1931   1981     1
   1932   1964     1
   1933   1971     1
   1934   1941     1
   1934   1956     1
   1934   1951     1
   1934   1942     1
   1935   1948     1
   1935   1949     1
   1935   1940     1
   1935   1946     1
   1936   1937     1
   1936   1955     1
   1936   1954     1
   1936   1950     1
   1936   1948     1
   1936   1949     1
   1936   1939     1
   1937   1956     1
   1937   1942     1
   1937   1947     1
   1938   1954     1
   1938   1946     1
   1938   1953     1
   1939   1941     1
   1939   1947     1
   1940   1944     1
   1940   1941     1
   1940   1943     1
   1940   1952     1
   1940   1942     1
   1940   1947     1
   1941   1955     1
   1941   1954     1
   1941   1957     1
   1941   1946     1
   1942   1957     1
   1942   1953     1
   1944   1954     1
   1945   1954     1
   1948   1952     1
   1948   1951     1
   1949   1952     1
   1949   1951     1
   1952   1954     1
   1952   1953     1
   1954   1956     1
   1958   1965     1
   1958   1980     1
   1958   1975     1
   1958   1966     1
   1959   1972     1
   1959   1973     1
   1959   1964     1
   1959   1970     1
   1960   1961     1
   1960   1979     1
   1960   1978     1
   1960   1974     1
   1960   1972     1
   1960   1973     1
   1960   1963     1
   1961   1980     1
   1961   1966     1
   1961   1971     1
   1962   1978     1
   1962   1970     1
   1962   1977     1
   1963   1965     1
   1963   1971     1
   1964   1968     1
   1964   1965     1
   1964   1967     1
   1964   1976     1
   1964   1966     1
   1964   1971     1
   1965   1979     1
   1965   1978     1
   1965   1981     1
   1965   1970     1
   1966   1981     1
   1966   1977     1
   1968   1978     1
   1969   1978     1
   1972   1976     1
   1972   1975     1
   1973   1976     1
   1973   1975     1
   1976   1978     1
   1976   1977     1
   1978   1980     1
   1982   1988     1
   1982   1989     1
   1983   1986     1
   1983   1985     1
   1983   1987     1
   1985   1990     1
   1985   1988     1
   1985   1989     1
   1986   2000     1
   1986   2001     1
   1986   1993     1
   1986   1995     1
   1987   1990     1
   1987   1988     1
   1987   1989     1
   1988   1991     1
   1988   1992     1
   1989   1991     1
   1989   1992     1
   1990   2003     1
   1990   2004     1
   1990   1996     1
   1990   1997     1
   1991   1993     1
   1991   1995     1
   1992   2000     1
   1992   2001     1
   1993   1998     1
   1993   1996     1
   1993   1997     1
   1994   2020     1
   1995   1998     1
   1995   1996     1
   1995   1997     1
   1996   1999     1
   1996   2030     1
   1997   1999     1
   1997   2030     1
   1998   2013     1
   1999   2020     1
   2000   2005     1
   2000   2003     1
   2000   2004     1
   2001   2005     1
   2001   2003     1
   2001   2004     1
   2002   2044     1
   2003   2006     1
   2003   2054     1
   2004   2006     1
   2004   2054     1
   2005   2037     1
   2006   2044     1
   2007   2014     1
   2007   2029     1
   2007   2024     1
   2007   2015     1
   2008   2013     1
   2008   2019     1
   2008   2021     1
   2008   2022     1
   2009   2010     1
   2009   2028     1
   2009   2027     1
   2009   2023     1
   2009   2021     1
   2009   2022     1
   2009   2012     1
   2010   2015     1
   2010   2020     1
   2010   2029     1
   2011   2026     1
   2011   2019     1
   2011   2027     1
   2012   2020     1
   2012   2014     1
   2013   2016     1
   2013   2025     1
   2013   2015     1
   2013   2020     1
   2013   2017     1
   2013   2014     1
   2014   2030     1
   2014   2019     1
   2014   2028     1
   2014   2027     1
   2015   2026     1
   2015   2030     1
   2017   2027     1
   2018   2027     1
   2021   2024     1
   2021   2025     1
   2022   2024     1
   2022   2025     1
   2025   2026     1
   2025   2027     1
   2027   2029     1
   2031   2038     1
   2031   2053     1
   2031   2048     1
   2031   2039     1
   2032   2037     1
   2032   2043     1
   2032   2045     1
   2032   2046     1
   2033   2034     1
   2033   2052     1
   2033   2051     1
   2033   2047     1
   2033   2045     1
   2033   2046     1
   2033   2036     1
   2034   2039     1
   2034   2044     1
   2034   2053     1
   2035   2050     1
   2035   2043     1
   2035   2051     1
   2036   2044     1
   2036   2038     1
   2037   2040     1
   2037   2049     1
   2037   2039     1
   2037   2044     1
   2037   2041     1
   2037   2038     1
   2038   2054     1
   2038   2043     1
   2038   2052     1
   2038   2051     1
   2039   2050     1
   2039   2054     1
   2041   2051     1
   2042   2051     1
   2045   2048     1
   2045   2049     1
   2046   2048     1
   2046   2049     1
   2049   2050     1
   2049   2051     1
   2051   2053     1
   2055   2061     1
   2055   2062     1
   2056   2059     1
   2056   2058     1
   2056   2060     1
   2058   2063     1
   2058   2061     1
   2058   2062     1
   2059   2073     1
   2059   2074     1
   2059   2066     1
   2059   2068     1
   2060   2063     1
   2060   2061     1
   2060   2062     1
   2061   2064     1
   2061   2065     1
   2062   2064     1
   2062   2065     1
   2063   2076     1
   2063   2077     1
   2063   2069     1
   2063   2070     1
   2064   2066     1
   2064   2068     1
   2065   2073     1
   2065   2074     1
   2066   2071     1
   2066   2069     1
   2066   2070     1
   2067   2093     1
   2068   2071     1
   2068   2069     1
   2068   2070     1
   2069   2072     1
   2069   2103     1
   2070   2072     1
   2070   2103     1
   2071   2086     1
   2072   2093     1
   2073   2078     1
   2073   2076     1
   2073   2077     1
   2074   2078     1
   2074   2076     1
   2074   2077     1
   2075   2117     1
   2076   2079     1
   2076   2127     1
   2077   2079     1
   2077   2127     1
   2078   2110     1
   2079   2117     1
   2080   2087     1
   2080   2102     1
   2080   2097     1
   2080   2088     1
   2081   2094     1
   2081   2095     1
   2081   2086     1
   2081   2092     1
   2082   2083     1
   2082   2101     1
   2082   2100     1
   2082   2096     1
   2082   2094     1
   2082   2095     1
   2082   2085     1
   2083   2102     1
   2083   2088     1
   2083   2093     1
   2084   2100     1
   2084   2092     1
   2084   2099     1
   2085   2087     1
   2085   2093     1
   2086   2090     1
   2086   2087     1
   2086   2089     1
   2086   2098     1
   2086   2088     1
   2086   2093     1
   2087   2101     1
   2087   2100     1
   2087   2103     1
   2087   2092     1
   2088   2103     1
   2088   2099     1
   2090   2100     1
   2091   2100     1
   2094   2098     1
   2094   2097     1
   2095   2098     1
   2095   2097     1
   2098   2100     1
   2098   2099     1
   2100   2102     1
   2104   2111     1
   2104   2126     1
   2104   2121     1
   2104   2112     1
   2105   2118     1
   2105   2119     1
   2105   2110     1
   2105   2116     1
   2106   2107     1
   2106   2125     1
   2106   2124     1
   2106   2120     1
   2106   2118     1
   2106   2119     1
   2106   2109     1
   2107   2126     1
   2107   2112     1
   2107   2117     1
   2108   2124     1
   2108   2116     1
   2108   2123     1
   2109   2111     1
   2109   2117     1
   2110   2114     1
   2110   2111     1
   2110   2113     1
   2110   2122     1
   2110   2112     1
   2110   2117     1
   2111   2125     1
   2111   2124     1
   2111   2127     1
   2111   2116     1
   2112   2127     1
   2112   2123     1
   2114   2124     1
   2115   2124     1
   2118   2122     1
   2118   2121     1
   2119   2122     1
   2119   2121     1
   2122   2124     1
   2122   2123     1
   2124   2126     1
   2128   2134     1
   2128   2135     1
   2129   2132     1
   2129   2131     1
   2129   2133     1
   2131   2136     1
   2131   2134     1
   2131   2135     1
   2132   2146     1
   2132   2147     1
   2132   2139     1
   2132   2141     1
   2133   2136     1
   2133   2134     1
   2133   2135     1
   2134   2137     1
   2134   2138     1
   2135   2137     1
   2135   2138     1
   2136   2149     1
   2136   2150     1
   2136   2142     1
   2136   2143     1
   2137   2139     1
   2137   2141     1
   2138   2146     1
   2138   2147     1
   2139   2144     1
   2139   2142     1
   2139   2143     1
   2140   2166     1
   2141   2144     1
   2141   2142     1
   2141   2143     1
   2142   2145     1
   2142   2176     1
   2143   2145     1
   2143   2176     1
   2144   2159     1
   2145   2166     1
   2146   2151     1
   2146   2149     1
   2146   2150     1
   2147   2151     1
   2147   2149     1
   2147   2150     1
   2148   2190     1
   2149   2152     1
   2149   2200     1
   2150   2152     1
   2150   2200     1
   2151   2183     1
   2152   2190     1
   2153   2160     1
   2153   2175     1
   2153   2170     1
   2153   2161     1
   2154   2159     1
   2154   2165     1
   2154   2167     1
   2154   2168     1
   2155   2156     1
   2155   2174     1
   2155   2173     1
   2155   2169     1
   2155   2167     1
   2155   2168     1
   2155   2158     1
   2156   2161     1
   2156   2166     1
   2156   2175     1
   2157   2172     1
   2157   2165     1
   2157   2173     1
   2158   2166     1
   2158   2160     1
   2159   2162     1
   2159   2171     1
   2159   2161     1
   2159   2166     1
   2159   2163     1
   2159   2160     1
   2160   2176     1
   2160   2165     1
   2160   2174     1
   2160   2173     1
   2161   2172     1
   2161   2176     1
   2163   2173     1
   2164   2173     1
   2167   2170     1
   2167   2171     1
   2168   2170     1
   2168   2171     1
   2171   2172     1
   2171   2173     1
   2173   2175     1
   2177   2184     1
   2177   2199     1
   2177   2194     1
   2177   2185     1
   2178   2183     1
   2178   2189     1
   2178   2191     1
   2178   2192     1
   2179   2180     1
   2179   2198     1
   2179   2197     1
   2179   2193     1
   2179   2191     1
   2179   2192     1
   2179   2182     1
   2180   2185     1
   2180   2190     1
   2180   2199     1
   2181   2196     1
   2181   2189     1
   2181   2197     1
   2182   2190     1
   2182   2184     1
   2183   2186     1
   2183   2195     1
   2183   2185     1
   2183   2190     1
   2183   2187     1
   2183   2184     1
   2184   2200     1
   2184   2189     1
   2184   2198     1
   2184   2197     1
   2185   2196     1
   2185   2200     1
   2187   2197     1
   2188   2197     1
   2191   2194     1
   2191   2195     1
   2192   2194     1
   2192   2195     1
   2195   2196     1
   2195   2197     1
   2197   2199     1
   2201   2207     1
   2201   2208     1
   2202   2205     1
   2202   2204     1
   2202   2206     1
   2204   2209     1
   2204   2207     1
   2204   2208     1
   2205   2219     1
   2205   2220     1
   2205   2212     1
   2205   2214     1
   2206   2209     1
   2206   2207     1
   2206   2208     1
   2207   2210     1
   2207   2211     1
   2208   2210     1
   2208   2211     1
   2209   2222     1
   2209   2223     1
   2209   2215     1
   2209   2216     1
   2210   2212     1
   2210   2214     1
   2211   2219     1
   2211   2220     1
   2212   2217     1
   2212   2215     1
   2212   2216     1
   2213   2239     1
   2214   2217     1
   2214   2215     1
   2214   2216     1
   2215   2218     1
   2215   2249     1
   2216   2218     1
   2216   2249     1
   2217   2232     1
   2218   2239     1
   2219   2224     1
   2219   2222     1
   2219   2223     1
   2220   2224     1
   2220   2222     1
   2220   2223     1
   2221   2263     1
   2222   2225     1
   2222   2273     1
   2223   2225     1
   2223   2273     1
   2224   2256     1
   2225   2263     1
   2226   2233     1
   2226   2248     1
   2226   2243     1
   2226   2234     1
   2227   2240     1
   2227   2241     1
   2227   2232     1
   2227   2238     1
   2228   2229     1
   2228   2247     1
   2228   2246     1
   2228   2242     1
   2228   2240     1
   2228   2241     1
   2228   2231     1
   2229   2248     1
   2229   2234     1
   2229   2239     1
   2230   2246     1
   2230   2238     1
   2230   2245     1
   2231   2233     1
   2231   2239     1
   2232   2236     1
   2232   2233     1
   2232   2235     1
   2232   2244     1
   2232   2234     1
   2232   2239     1
   2233   2247     1
   2233   2246     1
   2233   2249     1
   2233   2238     1
   2234   2249     1
   2234   2245     1
   2236   2246     1
   2237   2246     1
   2240   2244     1
   2240   2243     1
   2241   2244     1
   2241   2243     1
   2244   2246     1
   2244   2245     1
   2246   2248     1
   2250   2257     1
   2250   2272     1
   2250   2267     1
   2250   2258     1
   2251   2264     1
   2251   2265     1
   2251   2256     1
   2251   2262     1
   2252   2253     1
   2252   2271     1
   2252   2270     1
   2252   2266     1
   2252   2264     1
   2252   2265     1
   2252   2255     1
   2253   2272     1
   2253   2258     1
   2253   2263     1
   2254   2270     1
   2254   2262     1
   2254   2269     1
   2255   2257     1
   2255   2263     1
   2256   2260     1
   2256   2257     1
   2256   2259     1
   2256   2268     1
   2256   2258     1
   2256   2263     1
   2257   2271     1
   2257   2270     1
   2257   2273     1
   2257   2262     1
   2258   2273     1
   2258   2269     1
   2260   2270     1
   2261   2270     1
   2264   2268     1
   2264   2267     1
   2265   2268     1
   2265   2267     1
   2268   2270     1
   2268   2269     1
   2270   2272     1
   2274   2280     1
   2274   2281     1
   2275   2278     1
   2275   2277     1
   2275   2279     1
   2277   2282     1
   2277   2280     1
   2277   2281     1
   2278   2292     1
   2278   2293     1
   2278   2285     1
   2278   2287     1
   2279   2282     1
   2279   2280     1
   2279   2281     1
   2280   2283     1
   2280   2284     1
   2281   2283     1
   2281   2284     1
   2282   2295     1
   2282   2296     1
   2282   2288     1
   2282   2289     1
   2283   2285     1
   2283   2287     1
   2284   2292     1
   2284   2293     1
   2285   2290     1
   2285   2288     1
   2285   2289     1
   2286   2312     1
   2287   2290     1
   2287   2288     1
   2287   2289     1
   2288   2291     1
   2288   2322     1
   2289   2291     1
   2289   2322     1
   2290   2305     1
   2291   2312     1
   2292   2297     1
   2292   2295     1
   2292   2296     1
   2293   2297     1
   2293   2295     1
   2293   2296     1
   2294   2336     1
   2295   2298     1
   2295   2346     1
   2296   2298     1
   2296   2346     1
   2297   2329     1
   2298   2336     1
   2299   2306     1
   2299   2321     1
   2299   2316     1
   2299   2307     1
   2300   2305     1
   2300   2311     1
   2300   2313     1
   2300   2314     1
   2301   2302     1
   2301   2320     1
   2301   2319     1
   2301   2315     1
   2301   2313     1
   2301   2314     1
   2301   2304     1
   2302   2307     1
   2302   2312     1
   2302   2321     1
   2303   2318     1
   2303   2311     1
   2303   2319     1
   2304   2312     1
   2304   2306     1
   2305   2308     1
   2305   2317     1
   2305   2307     1
   2305   2312     1
   2305   2309     1
   2305   2306     1
   2306   2322     1
   2306   2311     1
   2306   2320     1
   2306   2319     1
   2307   2318     1
   2307   2322     1
   2309   2319     1
   2310   2319     1
   2313   2316     1
   2313   2317     1
   2314   2316     1
   2314   2317     1
   2317   2318     1
   2317   2319     1
   2319   2321     1
   2323   2330     1
   2323   2345     1
   2323   2340     1
   2323   2331     1
   2324   2329     1
   2324   2335     1
   2324   2337     1
   2324   2338     1
   2325   2326     1
   2325   2344     1
   2325   2343     1
   2325   2339     1
   2325   2337     1
   2325   2338     1
   2325   2328     1
   2326   2331     1
   2326   2336     1
   2326   2345     1
   2327   2342     1
   2327   2335     1
   2327   2343     1
   2328   2336     1
   2328   2330     1
   2329   2332     1
   2329   2341     1
   2329   2331     1
   2329   2336     1
   2329   2333     1
   2329   2330     1
   2330   2346     1
   2330   2335     1
   2330   2344     1
   2330   2343     1
   2331   2342     1
   2331   2346     1
   2333   2343     1
   2334   2343     1
   2337   2340     1
   2337   2341     1
   2338   2340     1
   2338   2341     1
   2341   2342     1
   2341   2343     1
   2343   2345     1
   2347   2353     1
   2347   2354     1
   2348   2351     1
   2348   2350     1
   2348   2352     1
   2350   2355     1
   2350   2353     1
   2350   2354     1
   2351   2365     1
   2351   2366     1
   2351   2358     1
   2351   2360     1
   2352   2355     1
   2352   2353     1
   2352   2354     1
   2353   2356     1
   2353   2357     1
   2354   2356     1
   2354   2357     1
   2355   2368     1
   2355   2369     1
   2355   2361     1
   2355   2362     1
   2356   2358     1
   2356   2360     1
   2357   2365     1
   2357   2366     1
   2358   2363     1
   2358   2361     1
   2358   2362     1
   2359   2385     1
   2360   2363     1
   2360   2361     1
   2360   2362     1
   2361   2364     1
   2361   2395     1
   2362   2364     1
   2362   2395     1
   2363   2378     1
   2364   2385     1
   2365   2370     1
   2365   2368     1
   2365   2369     1
   2366   2370     1
   2366   2368     1
   2366   2369     1
   2367   2409     1
   2368   2371     1
   2368   2419     1
   2369   2371     1
   2369   2419     1
   2370   2402     1
   2371   2409     1
   2372   2379     1
   2372   2394     1
   2372   2389     1
   2372   2380     1
   2373   2386     1
   2373   2387     1
   2373   2378     1
   2373   2384     1
   2374   2375     1
   2374   2393     1
   2374   2392     1
   2374   2388     1
   2374   2386     1
   2374   2387     1
   2374   2377     1
   2375   2394     1
   2375   2380     1
   2375   2385     1
   2376   2392     1
   2376   2384     1
   2376   2391     1
   2377   2379     1
   2377   2385     1
   2378   2382     1
   2378   2379     1
   2378   2381     1
   2378   2390     1
   2378   2380     1
   2378   2385     1
   2379   2393     1
   2379   2392     1
   2379   2395     1
   2379   2384     1
   2380   2395     1
   2380   2391     1
   2382   2392     1
   2383   2392     1
   2386   2390     1
   2386   2389     1
   2387   2390     1
   2387   2389     1
   2390   2392     1
   2390   2391     1
   2392   2394     1
   2396   2403     1
   2396   2418     1
   2396   2413     1
   2396   2404     1
   2397   2410     1
   2397   2411     1
   2397   2402     1
   2397   2408     1
   2398   2399     1
   2398   2417     1
   2398   2416     1
   2398   2412     1
   2398   2410     1
   2398   2411     1
   2398   2401     1
   2399   2418     1
   2399   2404     1
   2399   2409     1
   2400   2416     1
   2400   2408     1
   2400   2415     1
   2401   2403     1
   2401   2409     1
   2402   2406     1
   2402   2403     1
   2402   2405     1
   2402   2414     1
   2402   2404     1
   2402   2409     1
   2403   2417     1
   2403   2416     1
   2403   2419     1
   2403   2408     1
   2404   2419     1
   2404   2415     1
   2406   2416     1
   2407   2416     1
   2410   2414     1
   2410   2413     1
   2411   2414     1
   2411   2413     1
   2414   2416     1
   2414   2415     1
   2416   2418     1
   2420   2426     1
   2420   2427     1
   2421   2424     1
   2421   2423     1
   2421   2425     1
   2423   2428     1
   2423   2426     1
   2423   2427     1
   2424   2438     1
   2424   2439     1
   2424   2431     1
   2424   2433     1
   2425   2428     1
   2425   2426     1
   2425   2427     1
   2426   2429     1
   2426   2430     1
   2427   2429     1
   2427   2430     1
   2428   2441     1
   2428   2442     1
   2428   2434     1
   2428   2435     1
   2429   2431     1
   2429   2433     1
   2430   2438     1
   2430   2439     1
   2431   2436     1
   2431   2434     1
   2431   2435     1
   2432   2458     1
   2433   2436     1
   2433   2434     1
   2433   2435     1
   2434   2437     1
   2434   2468     1
   2435   2437     1
   2435   2468     1
   2436   2451     1
   2437   2458     1
   2438   2443     1
   2438   2441     1
   2438   2442     1
   2439   2443     1
   2439   2441     1
   2439   2442     1
   2440   2482     1
   2441   2444     1
   2441   2492     1
   2442   2444     1
   2442   2492     1
   2443   2475     1
   2444   2482     1
   2445   2452     1
   2445   2467     1
   2445   2462     1
   2445   2453     1
   2446   2451     1
   2446   2457     1
   2446   2459     1
   2446   2460     1
   2447   2448     1
   2447   2466     1
   2447   2465     1
   2447   2461     1
   2447   2459     1
   2447   2460     1
   2447   2450     1
   2448   2453     1
   2448   2458     1
   2448   2467     1
   2449   2464     1
   2449   2457     1
   2449   2465     1
   2450   2458     1
   2450   2452     1
   2451   2454     1
   2451   2463     1
   2451   2453     1
   2451   2458     1
   2451   2455     1
   2451   2452     1
   2452   2468     1
   2452   2457     1
   2452   2466     1
   2452   2465     1
   2453   2464     1
   2453   2468     1
   2455   2465     1
   2456   2465     1
   2459   2462     1
   2459   2463     1
   2460   2462     1
   2460   2463     1
   2463   2464     1
   2463   2465     1
   2465   2467     1
   2469   2476     1
   2469   2491     1
   2469   2486     1
   2469   2477     1
   2470   2475     1
   2470   2481     1
   2470   2483     1
   2470   2484     1
   2471   2472     1
   2471   2490     1
   2471   2489     1
   2471   2485     1
   2471   2483     1
   2471   2484     1
   2471   2474     1
   2472   2477     1
   2472   2482     1
   2472   2491     1
   2473   2488     1
   2473   2481     1
   2473   2489     1
   2474   2482     1
   2474   2476     1
   2475   2478     1
   2475   2487     1
   2475   2477     1
   2475   2482     1
   2475   2479     1
   2475   2476     1
   2476   2492     1
   2476   2481     1
   2476   2490     1
   2476   2489     1
   2477   2488     1
   2477   2492     1
   2479   2489     1
   2480   2489     1
   2483   2486     1
   2483   2487     1
   2484   2486     1
   2484   2487     1
   2487   2488     1
   2487   2489     1
   2489   2491     1
   2493   2499     1
   2493   2500     1
   2494   2497     1
   2494   2496     1
   2494   2498     1
   2496   2501     1
   2496   2499     1
   2496   2500     1
   2497   2511     1
   2497   2512     1
   2497   2504     1
   2497   2506     1
   2498   2501     1
   2498   2499     1
   2498   2500     1
   2499   2502     1
   2499   2503     1
   2500   2502     1
   2500   2503     1
   2501   2514     1
   2501   2515     1
   2501   2507     1
   2501   2508     1
   2502   2504     1
   2502   2506     1
   2503   2511     1
   2503   2512     1
   2504   2509     1
   2504   2507     1
   2504   2508     1
   2505   2531     1
   2506   2509     1
   2506   2507     1
   2506   2508     1
   2507   2510     1
   2507   2541     1
   2508   2510     1
   2508   2541     1
   2509   2524     1
   2510   2531     1
   2511   2516     1
   2511   2514     1
   2511   2515     1
   2512   2516     1
   2512   2514     1
   2512   2515     1
   2513   2555     1
   2514   2517     1
   2514   2565     1
   2515   2517     1
   2515   2565     1
   2516   2548     1
   2517   2555     1
   2518   2525     1
   2518   2540     1
   2518   2535     1
   2518   2526     1
   2519   2532     1
   2519   2533     1
   2519   2524     1
   2519   2530     1
   2520   2521     1
   2520   2539     1
   2520   2538     1
   2520   2534     1
   2520   2532     1
   2520   2533     1
   2520   2523     1
   2521   2540     1
   2521   2526     1
   2521   2531     1
   2522   2538     1
   2522   2530     1
   2522   2537     1
   2523   2525     1
   2523   2531     1
   2524   2528     1
   2524   2525     1
   2524   2527     1
   2524   2536     1
   2524   2526     1
   2524   2531     1
   2525   2539     1
   2525   2538     1
   2525   2541     1
   2525   2530     1
   2526   2541     1
   2526   2537     1
   2528   2538     1
   2529   2538     1
   2532   2536     1
   2532   2535     1
   2533   2536     1
   2533   2535     1
   2536   2538     1
   2536   2537     1
   2538   2540     1
   2542   2549     1
   2542   2564     1
   2542   2559     1
   2542   2550     1
   2543   2556     1
   2543   2557     1
   2543   2548     1
   2543   2554     1
   2544   2545     1
   2544   2563     1
   2544   2562     1
   2544   2558     1
   2544   2556     1
   2544   2557     1
   2544   2547     1
   2545   2564     1
   2545   2550     1
   2545   2555     1
   2546   2562     1
   2546   2554     1
   2546   2561     1
   2547   2549     1
   2547   2555     1
   2548   2552     1
   2548   2549     1
   2548   2551     1
   2548   2560     1
   2548   2550     1
   2548   2555     1
   2549   2563     1
   2549   2562     1
   2549   2565     1
   2549   2554     1
   2550   2565     1
   2550   2561     1
   2552   2562     1
   2553   2562     1
   2556   2560     1
   2556   2559     1
   2557   2560     1
   2557   2559     1
   2560   2562     1
   2560   2561     1
   2562   2564     1
   2566   2572     1
   2566   2573     1
   2567   2570     1
   2567   2569     1
   2567   2571     1
   2569   2574     1
   2569   2572     1
   2569   2573     1
   2570   2584     1
   2570   2585     1
   2570   2577     1
   2570   2579     1
   2571   2574     1
   2571   2572     1
   2571   2573     1
   2572   2575     1
   2572   2576     1
   2573   2575     1
   2573   2576     1
   2574   2587     1
   2574   2588     1
   2574   2580     1
   2574   2581     1
   2575   2577     1
   2575   2579     1
   2576   2584     1
   2576   2585     1
   2577   2582     1
   2577   2580     1
   2577   2581     1
   2578   2604     1
   2579   2582     1
   2579   2580     1
   2579   2581     1
   2580   2583     1
   2580   2614     1
   2581   2583     1
   2581   2614     1
   2582   2597     1
   2583   2604     1
   2584   2589     1
   2584   2587     1
   2584   2588     1
   2585   2589     1
   2585   2587     1
   2585   2588     1
   2586   2628     1
   2587   2590     1
   2587   2638     1
   2588   2590     1
   2588   2638     1
   2589   2621     1
   2590   2628     1
   2591   2598     1
   2591   2613     1
   2591   2608     1
   2591   2599     1
   2592   2597     1
   2592   2603     1
   2592   2605     1
   2592   2606     1
   2593   2594     1
   2593   2612     1
   2593   2611     1
   2593   2607     1
   2593   2605     1
   2593   2606     1
   2593   2596     1
   2594   2599     1
   2594   2604     1
   2594   2613     1
   2595   2610     1
   2595   2603     1
   2595   2611     1
   2596   2604     1
   2596   2598     1
   2597   2600     1
   2597   2609     1
   2597   2599     1
   2597   2604     1
   2597   2601     1
   2597   2598     1
   2598   2614     1
   2598   2603     1
   2598   2612     1
   2598   2611     1
   2599   2610     1
   2599   2614     1
   2601   2611     1
   2602   2611     1
   2605   2608     1
   2605   2609     1
   2606   2608     1
   2606   2609     1
   2609   2610     1
   2609   2611     1
   2611   2613     1
   2615   2622     1
   2615   2637     1
   2615   2632     1
   2615   2623     1
   2616   2621     1
   2616   2627     1
   2616   2629     1
   2616   2630     1
   2617   2618     1
   2617   2636     1
   2617   2635     1
   2617   2631     1
   2617   2629     1
   2617   2630     1
   2617   2620     1
   2618   2623     1
   2618   2628     1
   2618   2637     1
   2619   2634     1
   2619   2627     1
   2619   2635     1
   2620   2628     1
   2620   2622     1
   2621   2624     1
   2621   2633     1
   2621   2623     1
   2621   2628     1
   2621   2625     1
   2621   2622     1
   2622   2638     1
   2622   2627     1
   2622   2636     1
   2622   2635     1
   2623   2634     1
   2623   2638     1
   2625   2635     1
   2626   2635     1
   2629   2632     1
   2629   2633     1
   2630   2632     1
   2630   2633     1
   2633   2634     1
   2633   2635     1
   2635   2637     1
   2639   2645     1
   2639   2646     1
   2640   2643     1
   2640   2642     1
   2640   2644     1
   2642   2647     1
   2642   2645     1
   2642   2646     1
   2643   2657     1
   2643   2658     1
   2643   2650     1
   2643   2652     1
   2644   2647     1
   2644   2645     1
   2644   2646     1
   2645   2648     1
   2645   2649     1
   2646   2648     1
   2646   2649     1
   2647   2660     1
   2647   2661     1
   2647   2653     1
   2647   2654     1
   2648   2650     1
   2648   2652     1
   2649   2657     1
   2649   2658     1
   2650   2655     1
   2650   2653     1
   2650   2654     1
   2651   2677     1
   2652   2655     1
   2652   2653     1
   2652   2654     1
   2653   2656     1
   2653   2687     1
   2654   2656     1
   2654   2687     1
   2655   2670     1
   2656   2677     1
   2657   2662     1
   2657   2660     1
   2657   2661     1
   2658   2662     1
   2658   2660     1
   2658   2661     1
   2659   2701     1
   2660   2663     1
   2660   2711     1
   2661   2663     1
   2661   2711     1
   2662   2694     1
   2663   2701     1
   2664   2671     1
   2664   2686     1
   2664   2681     1
   2664   2672     1
   2665   2678     1
   2665   2679     1
   2665   2670     1
   2665   2676     1
   2666   2667     1
   2666   2685     1
   2666   2684     1
   2666   2680     1
   2666   2678     1
   2666   2679     1
   2666   2669     1
   2667   2686     1
   2667   2672     1
   2667   2677     1
   2668   2684     1
   2668   2676     1
   2668   2683     1
   2669   2671     1
   2669   2677     1
   2670   2674     1
   2670   2671     1
   2670   2673     1
   2670   2682     1
   2670   2672     1
   2670   2677     1
   2671   2685     1
   2671   2684     1
   2671   2687     1
   2671   2676     1
   2672   2687     1
   2672   2683     1
   2674   2684     1
   2675   2684     1
   2678   2682     1
   2678   2681     1
   2679   2682     1
   2679   2681     1
   2682   2684     1
   2682   2683     1
   2684   2686     1
   2688   2695     1
   2688   2710     1
   2688   2705     1
   2688   2696     1
   2689   2702     1
   2689   2703     1
   2689   2694     1
   2689   2700     1
   2690   2691     1
   2690   2709     1
   2690   2708     1
   2690   2704     1
   2690   2702     1
   2690   2703     1
   2690   2693     1
   2691   2710     1
   2691   2696     1
   2691   2701     1
   2692   2708     1
   2692   2700     1
   2692   2707     1
   2693   2695     1
   2693   2701     1
   2694   2698     1
   2694   2695     1
   2694   2697     1
   2694   2706     1
   2694   2696     1
   2694   2701     1
   2695   2709     1
   2695   2708     1
   2695   2711     1
   2695   2700     1
   2696   2711     1
   2696   2707     1
   2698   2708     1
   2699   2708     1
   2702   2706     1
   2702   2705     1
   2703   2706     1
   2703   2705     1
   2706   2708     1
   2706   2707     1
   2708   2710     1
   2712   2718     1
   2712   2719     1
   2713   2716     1
   2713   2715     1
   2713   2717     1
   2715   2720     1
   2715   2718     1
   2715   2719     1
   2716   2730     1
   2716   2731     1
   2716   2723     1
   2716   2725     1
   2717   2720     1
   2717   2718     1
   2717   2719     1
   2718   2721     1
   2718   2722     1
   2719   2721     1
   2719   2722     1
   2720   2733     1
   2720   2734     1
   2720   2726     1
   2720   2727     1
   2721   2723     1
   2721   2725     1
   2722   2730     1
   2722   2731     1
   2723   2728     1
   2723   2726     1
   2723   2727     1
   2724   2750     1
   2725   2728     1
   2725   2726     1
   2725   2727     1
   2726   2729     1
   2726   2760     1
   2727   2729     1
   2727   2760     1
   2728   2743     1
   2729   2750     1
   2730   2735     1
   2730   2733     1
   2730   2734     1
   2731   2735     1
   2731   2733     1
   2731   2734     1
   2732   2774     1
   2733   2736     1
   2733   2784     1
   2734   2736     1
   2734   2784     1
   2735   2767     1
   2736   2774     1
   2737   2744     1
   2737   2759     1
   2737   2754     1
   2737   2745     1
   2738   2743     1
   2738   2749     1
   2738   2751     1
   2738   2752     1
   2739   2740     1
   2739   2758     1
   2739   2757     1
   2739   2753     1
   2739   2751     1
   2739   2752     1
   2739   2742     1
   2740   2745     1
   2740   2750     1
   2740   2759     1
   2741   2756     1
   2741   2749     1
   2741   2757     1
   2742   2750     1
   2742   2744     1
   2743   2746     1
   2743   2755     1
   2743   2745     1
   2743   2750     1
   2743   2747     1
   2743   2744     1
   2744   2760     1
   2744   2749     1
   2744   2758     1
   2744   2757     1
   2745   2756     1
   2745   2760     1
   2747   2757     1
   2748   2757     1
   2751   2754     1
   2751   2755     1
   2752   2754     1
   2752   2755     1
   2755   2756     1
   2755   2757     1
   2757   2759     1
   2761   2768     1
   2761   2783     1
   2761   2778     1
   2761   2769     1
   2762   2767     1
   2762   2773     1
   2762   2775     1
   2762   2776     1
   2763   2764     1
   2763   2782     1
   2763   2781     1
   2763   2777     1
   2763   2775     1
   2763   2776     1
   2763   2766     1
   2764   2769     1
   2764   2774     1
   2764   2783     1
   2765   2780     1
   2765   2773     1
   2765   2781     1
   2766   2774     1
   2766   2768     1
   2767   2770     1
   2767   2779     1
   2767   2769     1
   2767   2774     1
   2767   2771     1
   2767   2768     1
   2768   2784     1
   2768   2773     1
   2768   2782     1
   2768   2781     1
   2769   2780     1
   2769   2784     1
   2771   2781     1
   2772   2781     1
   2775   2778     1
   2775   2779     1
   2776   2778     1
   2776   2779     1
   2779   2780     1
   2779   2781     1
   2781   2783     1
   2785   2791     1
   2785   2792     1
   2786   2789     1
   2786   2788     1
   2786   2790     1
   2788   2793     1
   2788   2791     1
   2788   2792     1
   2789   2803     1
   2789   2804     1
   2789   2796     1
   2789   2798     1
   2790   2793     1
   2790   2791     1
   2790   2792     1
   2791   2794     1
   2791   2795     1
   2792   2794     1
   2792   2795     1
   2793   2806     1
   2793   2807     1
   2793   2799     1
   2793   2800     1
   2794   2796     1
   2794   2798     1
   2795   2803     1
   2795   2804     1
   2796   2801     1
   2796   2799     1
   2796   2800     1
   2797   2823     1
   2798   2801     1
   2798   2799     1
   2798   2800     1
   2799   2802     1
   2799   2833     1
   2800   2802     1
   2800   2833     1
   2801   2816     1
   2802   2823     1
   2803   2808     1
   2803   2806     1
   2803   2807     1
   2804   2808     1
   2804   2806     1
   2804   2807     1
   2805   2847     1
   2806   2809     1
   2806   2857     1
   2807   2809     1
   2807   2857     1
   2808   2840     1
   2809   2847     1
   2810   2817     1
   2810   2832     1
   2810   2827     1
   2810   2818     1
   2811   2824     1
   2811   2825     1
   2811   2816     1
   2811   2822     1
   2812   2813     1
   2812   2831     1
   2812   2830     1
   2812   2826     1
   2812   2824     1
   2812   2825     1
   2812   2815     1
   2813   2832     1
   2813   2818     1
   2813   2823     1
   2814   2830     1
   2814   2822     1
   2814   2829     1
   2815   2817     1
   2815   2823     1
   2816   2820     1
   2816   2817     1
   2816   2819     1
   2816   2828     1
   2816   2818     1
   2816   2823     1
   2817   2831     1
   2817   2830     1
   2817   2833     1
   2817   2822     1
   2818   2833     1
   2818   2829     1
   2820   2830     1
   2821   2830     1
   2824   2828     1
   2824   2827     1
   2825   2828     1
   2825   2827     1
   2828   2830     1
   2828   2829     1
   2830   2832     1
   2834   2841     1
   2834   2856     1
   2834   2851     1
   2834   2842     1
   2835   2848     1
   2835   2849     1
   2835   2840     1
   2835   2846     1
   2836   2837     1
   2836   2855     1
   2836   2854     1
   2836   2850     1
   2836   2848     1
   2836   2849     1
   2836   2839     1
   2837   2856     1
   2837   2842     1
   2837   2847     1
   2838   2854     1
   2838   2846     1
   2838   2853     1
   2839   2841     1
   2839   2847     1
   2840   2844     1
   2840   2841     1
   2840   2843     1
   2840   2852     1
   2840   2842     1
   2840   2847     1
   2841   2855     1
   2841   2854     1
   2841   2857     1
   2841   2846     1
   2842   2857     1
   2842   2853     1
   2844   2854     1
   2845   2854     1
   2848   2852     1
   2848   2851     1
   2849   2852     1
   2849   2851     1
   2852   2854     1
   2852   2853     1
   2854   2856     1
   2858   2864     1
   2858   2865     1
   2859   2862     1
   2859   2861     1
   2859   2863     1
   2861   2866     1
   2861   2864     1
   2861   2865     1
   2862   2876     1
   2862   2877     1
   2862   2869     1
   2862   2871     1
   2863   2866     1
   2863   2864     1
   2863   2865     1
   2864   2867     1
   2864   2868     1
   2865   2867     1
   2865   2868     1
   2866   2879     1
   2866   2880     1
   2866   2872     1
   2866   2873     1
   2867   2869     1
   2867   2871     1
   2868   2876     1
   2868   2877     1
   2869   2874     1
   2869   2872     1
   2869   2873     1
   2870   2896     1
   2871   2874     1
   2871   2872     1
   2871   2873     1
   2872   2875     1
   2872   2906     1
   2873   2875     1
   2873   2906     1
   2874   2889     1
   2875   2896     1
   2876   2881     1
   2876   2879     1
   2876   2880     1
   2877   2881     1
   2877   2879     1
   2877   2880     1
   2878   2920     1
   2879   2882     1
   2879   2930     1
   2880   2882     1
   2880   2930     1
   2881   2913     1
   2882   2920     1
   2883   2890     1
   2883   2905     1
   2883   2900     1
   2883   2891     1
   2884   2889     1
   2884   2895     1
   2884   2897     1
   2884   2898     1
   2885   2886     1
   2885   2904     1
   2885   2903     1
   2885   2899     1
   2885   2897     1
   2885   2898     1
   2885   2888     1
   2886   2891     1
   2886   2896     1
   2886   2905     1
   2887   2902     1
   2887   2895     1
   2887   2903     1
   2888   2896     1
   2888   2890     1
   2889   2892     1
   2889   2901     1
   2889   2891     1
   2889   2896     1
   2889   2893     1
   2889   2890     1
   2890   2906     1
   2890   2895     1
   2890   2904     1
   2890   2903     1
   2891   2902     1
   2891   2906     1
   2893   2903     1
   2894   2903     1
   2897   2900     1
   2897   2901     1
   2898   2900     1
   2898   2901     1
   2901   2902     1
   2901   2903     1
   2903   2905     1
   2907   2914     1
   2907   2929     1
   2907   2924     1
   2907   2915     1
   2908   2913     1
   2908   2919     1
   2908   2921     1
   2908   2922     1
   2909   2910     1
   2909   2928     1
   2909   2927     1
   2909   2923     1
   2909   2921     1
   2909   2922     1
   2909   2912     1
   2910   2915     1
   2910   2920     1
   2910   2929     1
   2911   2926     1
   2911   2919     1
   2911   2927     1
   2912   2920     1
   2912   2914     1
   2913   2916     1
   2913   2925     1
   2913   2915     1
   2913   2920     1
   2913   2917     1
   2913   2914     1
   2914   2930     1
   2914   2919     1
   2914   2928     1
   2914   2927     1
   2915   2926     1
   2915   2930     1
   2917   2927     1
   2918   2927     1
   2921   2924     1
   2921   2925     1
   2922   2924     1
   2922   2925     1
   2925   2926     1
   2925   2927     1
   2927   2929     1
   2931   2937     1
   2931   2938     1
   2932   2935     1
   2932   2934     1
   2932   2936     1
   2934   2939     1
   2934   2937     1
   2934   2938     1
   2935   2949     1
   2935   2950     1
   2935   2942     1
   2935   2944     1
   2936   2939     1
   2936   2937     1
   2936   2938     1
   2937   2940     1
   2937   2941     1
   2938   2940     1
   2938   2941     1
   2939   2952     1
   2939   2953     1
   2939   2945     1
   2939   2946     1
   2940   2942     1
   2940   2944     1
   2941   2949     1
   2941   2950     1
   2942   2947     1
   2942   2945     1
   2942   2946     1
   2943   2969     1
   2944   2947     1
   2944   2945     1
   2944   2946     1
   2945   2948     1
   2945   2979     1
   2946   2948     1
   2946   2979     1
   2947   2962     1
   2948   2969     1
   2949   2954     1
   2949   2952     1
   2949   2953     1
   2950   2954     1
   2950   2952     1
   2950   2953     1
   2951   2993     1
   2952   2955     1
   2952   3003     1
   2953   2955     1
   2953   3003     1
   2954   2986     1
   2955   2993     1
   2956   2963     1
   2956   2978     1
   2956   2973     1
   2956   2964     1
   2957   2970     1
   2957   2971     1
   2957   2962     1
   2957   2968     1
   2958   2959     1
   2958   2977     1
   2958   2976     1
   2958   2972     1
   2958   2970     1
   2958   2971     1
   2958   2961     1
   2959   2978     1
   2959   2964     1
   2959   2969     1
   2960   2976     1
   2960   2968     1
   2960   2975     1
   2961   2963     1
   2961   2969     1
   2962   2966     1
   2962   2963     1
   2962   2965     1
   2962   2974     1
   2962   2964     1
   2962   2969     1
   2963   2977     1
   2963   2976     1
   2963   2979     1
   2963   2968     1
   2964   2979     1
   2964   2975     1
   2966   2976     1
   2967   2976     1
   2970   2974     1
   2970   2973     1
   2971   2974     1
   2971   2973     1
   2974   2976     1
   2974   2975     1
   2976   2978     1
   2980   2987     1
   2980   3002     1
   2980   2997     1
   2980   2988     1
   2981   2994     1
   2981   2995     1
   2981   2986     1
   2981   2992     1
   2982   2983     1
   2982   3001     1
   2982   3000     1
   2982   2996     1
   2982   2994     1
   2982   2995     1
   2982   2985     1
   2983   3002     1
   2983   2988     1
   2983   2993     1
   2984   3000     1
   2984   2992     1
   2984   2999     1
   2985   2987     1
   2985   2993     1
   2986   2990     1
   2986   2987     1
   2986   2989     1
   2986   2998     1
   2986   2988     1
   2986   2993     1
   2987   3001     1
   2987   3000     1
   2987   3003     1
   2987   2992     1
   2988   3003     1
   2988   2999     1
   2990   3000     1
   2991   3000     1
   2994   2998     1
   2994   2997     1
   2995   2998     1
   2995   2997     1
   2998   3000     1
   2998   2999     1
   3000   3002     1
   3004   3010     1
   3004   3011     1
   3005   3008     1
   3005   3007     1
   3005   3009     1
   3007   3012     1
   3007   3010     1
   3007   3011     1
   3008   3022     1
   3008   3023     1
   3008   3015     1
   3008   3017     1
   3009   3012     1
   3009   3010     1
   3009   3011     1
   3010   3013     1
   3010   3014     1
   3011   3013     1
   3011   3014     1
   3012   3025     1
   3012   3026     1
   3012   3018     1
   3012   3019     1
   3013   3015     1
   3013   3017     1
   3014   3022     1
   3014   3023     1
   3015   3020     1
   3015   3018     1
   3015   3019     1
   3016   3042     1
   3017   3020     1
   3017   3018     1
   3017   3019     1
   3018   3021     1
   3018   3052     1
   3019   3021     1
   3019   3052     1
   3020   3035     1
   3021   3042     1
   3022   3027     1
   3022   3025     1
   3022   3026     1
   3023   3027     1
   3023   3025     1
   3023   3026     1
   3024   3066     1
   3025   3028     1
   3025   3076     1
   3026   3028     1
   3026   3076     1
   3027   3059     1
   3028   3066     1
   3029   3036     1
   3029   3051     1
   3029   3046     1
   3029   3037     1
   3030   3035     1
   3030   3041     1
   3030   3043     1
   3030   3044     1
   3031   3032     1
   3031   3050     1
   3031   3049     1
   3031   3045     1
   3031   3043     1
   3031   3044     1
   3031   3034     1
   3032   3037     1
   3032   3042     1
   3032   3051     1
   3033   3048     1
   3033   3041     1
   3033   3049     1
   3034   3042     1
   3034   3036     1
   3035   3038     1
   3035   3047     1
   3035   3037     1
   3035   3042     1
   3035   3039     1
   3035   3036     1
   3036   3052     1
   3036   3041     1
   3036   3050     1
   3036   3049     1
   3037   3048     1
   3037   3052     1
   3039   3049     1
   3040   3049     1
   3043   3046     1
   3043   3047     1
   3044   3046     1
   3044   3047     1
   3047   3048     1
   3047   3049     1
   3049   3051     1
   3053   3060     1
   3053   3075     1
   3053   3070     1
   3053   3061     1
   3054   3059     1
   3054   3065     1
   3054   3067     1
   3054   3068     1
   3055   3056     1
   3055   3074     1
   3055   3073     1
   3055   3069     1
   3055   3067     1
   3055   3068     1
   3055   3058     1
   3056   3061     1
   3056   3066     1
   3056   3075     1
   3057   3072     1
   3057   3065     1
   3057   3073     1
   3058   3066     1
   3058   3060     1
   3059   3062     1
   3059   3071     1
   3059   3061     1
   3059   3066     1
   3059   3063     1
   3059   3060     1
   3060   3076     1
   3060   3065     1
   3060   3074     1
   3060   3073     1
   3061   3072     1
   3061   3076     1
   3063   3073     1
   3064   3073     1
   3067   3070     1
   3067   3071     1
   3068   3070     1
   3068   3071     1
   3071   3072     1
   3071   3073     1
   3073   3075     1

[ angles ]
;    ai     aj     ak funct         c0         c1         c2         c3
      1      4      7     1   111.0400475 552.288000
      1      8      9     1   112.3500484 533.878400
      1      8     12     1   112.3500484 533.878400
      4      1      8     1   111.0400475 552.288000
      4      7     15     1   112.3500484 533.878400
      4      7     18     1   112.3500484 533.878400
      7     15     21     1   111.0400475 552.288000
      7     18     24     1   111.0400475 552.288000
      8      9     30     1   111.0400475 552.288000
      8     12     27     1   111.0400475 552.288000
      9      8     12     1   112.3500484 533.878400
      9     30     34     1   111.0400475 529.694400
     12     27     33     1   111.0400475 529.694400
     15      7     18     1   112.3500484 533.878400
     15     21     35     1   111.0400475 529.694400
     18     24     36     1   111.0400475 529.694400
     21     35     38     1   123.2000528 564.003200
     21     35    114     1   115.1800491 558.982400
     24     36     39     1   123.2000528 564.003200
     24     36    139     1   115.1800491 558.982400
     27     33     37     1   123.2000528 564.003200
     27     33     64     1   115.1800491 558.982400
     30     34     40     1   123.2000528 564.003200
     30     34     89     1   115.1800491 558.982400
     33     64     44     1   120.6900519 530.531200
     34     89     69     1   120.6900519 530.531200
     35    114     94     1   120.6900519 530.531200
     36    139    119     1   120.6900519 530.531200
     37     33     64     1   123.0500530 620.905600
     38     35    114     1   123.0500530 620.905600
     39     36    139     1   123.0500530 620.905600
     40     34     89     1   123.0500530 620.905600
     41     44     64     1   111.6100477 551.451200
     41     47     48     1   112.3500484 533.878400
     41     47     51     1   112.3500484 533.878400
     44     41     47     1   111.0400475 552.288000
     47     48     57     1   111.0400475 552.288000
     47     51     54     1   111.0400475 552.288000
     48     47     51     1   112.3500484 533.878400
     48     57     61     1   111.0400475 529.694400
     51     54     60     1   111.0400475 529.694400
     54     60     62     1   123.2000528 564.003200
     54     60    164     1   115.1800491 558.982400
     57     61     63     1   123.2000528 564.003200
     57     61    189     1   115.1800491 558.982400
     60    164    144     1   120.6900519 530.531200
     61    189    169     1   120.6900519 530.531200
     62     60    164     1   123.0500530 620.905600
     63     61    189     1   123.0500530 620.905600
     66     69     89     1   111.6100477 551.451200
     66     72     73     1   112.3500484 533.878400
     66     72     76     1   112.3500484 533.878400
     69     66     72     1   111.0400475 552.288000
     72     73     82     1   111.0400475 552.288000
     72     76     79     1   111.0400475 552.288000
     73     72     76     1   112.3500484 533.878400
     73     82     86     1   111.0400475 529.694400
     76     79     85     1   111.0400475 529.694400
     79     85     87     1   123.2000528 564.003200
     79     85    214     1   115.1800491 558.982400
     82     86     88     1   123.2000528 564.003200
     82     86    239     1   115.1800491 558.982400
     85    214    194     1   120.6900519 530.531200
     86    239    219     1   120.6900519 530.531200
     87     85    214     1   123.0500530 620.905600
     88     86    239     1   123.0500530 620.905600
     91     94    114     1   111.6100477 551.451200
     91     97     98     1   112.3500484 533.878400
     91     97    101     1   112.3500484 533.878400
     94     91     97     1   111.0400475 552.288000
     97     98    107     1   111.0400475 552.288000
     97    101    104     1   111.0400475 552.288000
     98     97    101     1   112.3500484 533.878400
     98    107    111     1   111.0400475 529.694400
    101    104    110     1   111.0400475 529.694400
    104    110    112     1   123.2000528 564.003200
    104    110    264     1   115.1800491 558.982400
    107    111    113     1   123.2000528 564.003200
    107    111    289     1   115.1800491 558.982400
    110    264    244     1   120.6900519 530.531200
    111    289    269     1   120.6900519 530.531200
    112    110    264     1   123.0500530 620.905600
    113    111    289     1   123.0500530 620.905600
    116    119    139     1   111.6100477 551.451200
    116    122    123     1   112.3500484 533.878400
    116    122    126     1   112.3500484 533.878400
    119    116    122     1   111.0400475 552.288000
    122    123    132     1   111.0400475 552.288000
    122    126    129     1   111.0400475 552.288000
    123    122    126     1   112.3500484 533.878400
    123    132    136     1   111.0400475 529.694400
    126    129    135     1   111.0400475 529.694400
    129    135    137     1   123.2000528 564.003200
    129    135    314     1   115.1800491 558.982400
    132    136    138     1   123.2000528 564.003200
    132    136    339     1   115.1800491 558.982400
    135    314    294     1   120.6900519 530.531200
    136    339    319     1   120.6900519 530.531200
    137    135    314     1   123.0500530 620.905600
    138    136    339     1   123.0500530 620.905600
    141    144    164     1   111.6100477 551.451200
    141    147    148     1   112.3500484 533.878400
    141    147    151     1   112.3500484 533.878400
    144    141    147     1   111.0400475 552.288000
    147    148    157     1   111.0400475 552.288000
    147    151    154     1   111.0400475 552.288000
    148    147    151     1   112.3500484 533.878400
    148    157    161     1   111.0400475 529.694400
    151    154    160     1   111.0400475 529.694400
    154    160    162     1   123.2000528 564.003200
    154    160    364     1   115.1800491 558.982400
    157    161    163     1   123.2000528 564.003200
    157    161    389     1   115.1800491 558.982400
    160    364    344     1   120.6900519 530.531200
    161    389    369     1   120.6900519 530.531200
    162    160    364     1   123.0500530 620.905600
    163    161    389     1   123.0500530 620.905600
    166    169    189     1   111.6100477 551.451200
    166    172    173     1   112.3500484 533.878400
    166    172    176     1   112.3500484 533.878400
    169    166    172     1   111.0400475 552.288000
    172    173    182     1   111.0400475 552.288000
    172    176    179     1   111.0400475 552.288000
    173    172    176     1   112.3500484 533.878400
    173    182    186     1   111.0400475 529.694400
    176    179    185     1   111.0400475 529.694400
    179    185    187     1   123.2000528 564.003200
    179    185    414     1   115.1800491 558.982400
    182    186    188     1   123.2000528 564.003200
    182    186    439     1   115.1800491 558.982400
    185    414    394     1   120.6900519 530.531200
    186    439    419     1   120.6900519 530.531200
    187    185    414     1   123.0500530 620.905600
    188    186    439     1   123.0500530 620.905600
    191    194    214     1   111.6100477 551.451200
    191    197    198     1   112.3500484 533.878400
    191    197    201     1   112.3500484 533.878400
    194    191    197     1   111.0400475 552.288000
    197    198    207     1   111.0400475 552.288000
    197    201    204     1   111.0400475 552.288000
    198    197    201     1   112.3500484 533.878400
    198    207    211     1   111.0400475 529.694400
    201    204    210     1   111.0400475 529.694400
    204    210    212     1   123.2000528 564.003200
    204    210    464     1   115.1800491 558.982400
    207    211    213     1   123.2000528 564.003200
    207    211    489     1   115.1800491 558.982400
    210    464    444     1   120.6900519 530.531200
    211    489    469     1   120.6900519 530.531200
    212    210    464     1   123.0500530 620.905600
    213    211    489     1   123.0500530 620.905600
    216    219    239     1   111.6100477 551.451200
    216    222    223     1   112.3500484 533.878400
    216    222    226     1   112.3500484 533.878400
    219    216    222     1   111.0400475 552.288000
    222    223    232     1   111.0400475 552.288000
    222    226    229     1   111.0400475 552.288000
    223    222    226     1   112.3500484 533.878400
    223    232    236     1   111.0400475 529.694400
    226    229    235     1   111.0400475 529.694400
    229    235    237     1   123.2000528 564.003200
    229    235    514     1   115.1800491 558.982400
    232    236    238     1   123.2000528 564.003200
    232    236    539     1   115.1800491 558.982400
    235    514    494     1   120.6900519 530.531200
    236    539    519     1   120.6900519 530.531200
    237    235    514     1   123.0500530 620.905600
    238    236    539     1   123.0500530 620.905600
    241    244    264     1   111.6100477 551.451200
    241    247    248     1   112.3500484 533.878400
    241    247    251     1   112.3500484 533.878400
    244    241    247     1   111.0400475 552.288000
    247    248    257     1   111.0400475 552.288000
    247    251    254     1   111.0400475 552.288000
    248    247    251     1   112.3500484 533.878400
    248    257    261     1   111.0400475 529.694400
    251    254    260     1   111.0400475 529.694400
    254    260    262     1   123.2000528 564.003200
    254    260    564     1   115.1800491 558.982400
    257    261    263     1   123.2000528 564.003200
    257    261    589     1   115.1800491 558.982400
    260    564    544     1   120.6900519 530.531200
    261    589    569     1   120.6900519 530.531200
    262    260    564     1   123.0500530 620.905600
    263    261    589     1   123.0500530 620.905600
    266    269    289     1   111.6100477 551.451200
    266    272    273     1   112.3500484 533.878400
    266    272    276     1   112.3500484 533.878400
    269    266    272     1   111.0400475 552.288000
    272    273    282     1   111.0400475 552.288000
    272    276    279     1   111.0400475 552.288000
    273    272    276     1   112.3500484 533.878400
    273    282    286     1   111.0400475 529.694400
    276    279    285     1   111.0400475 529.694400
    279    285    287     1   123.2000528 564.003200
    279    285    614     1   115.1800491 558.982400
    282    286    288     1   123.2000528 564.003200
    282    286    639     1   115.1800491 558.982400
    285    614    594     1   120.6900519 530.531200
    286    639    619     1   120.6900519 530.531200
    287    285    614     1   123.0500530 620.905600
    288    286    639     1   123.0500530 620.905600
    291    294    314     1   111.6100477 551.451200
    291    297    298     1   112.3500484 533.878400
    291    297    301     1   112.3500484 533.878400
    294    291    297     1   111.0400475 552.288000
    297    298    307     1   111.0400475 552.288000
    297    301    304     1   111.0400475 552.288000
    298    297    301     1   112.3500484 533.878400
    298    307    311     1   111.0400475 529.694400
    301    304    310     1   111.0400475 529.694400
    304    310    312     1   123.2000528 564.003200
    304    310    664     1   115.1800491 558.982400
    307    311    313     1   123.2000528 564.003200
    307    311    689     1   115.1800491 558.982400
    310    664    644     1   120.6900519 530.531200
    311    689    669     1   120.6900519 530.531200
    312    310    664     1   123.0500530 620.905600
    313    311    689     1   123.0500530 620.905600
    316    319    339     1   111.6100477 551.451200
    316    322    323     1   112.3500484 533.878400
    316    322    326     1   112.3500484 533.878400
    319    316    322     1   111.0400475 552.288000
    322    323    332     1   111.0400475 552.288000
    322    326    329     1   111.0400475 552.288000
    323    322    326     1   112.3500484 533.878400
    323    332    336     1   111.0400475 529.694400
    326    329    335     1   111.0400475 529.694400
    329    335    337     1   123.2000528 564.003200
    329    335    714     1   115.1800491 558.982400
    332    336    338     1   123.2000528 564.003200
    332    336    739     1   115.1800491 558.982400
    335    714    694     1   120.6900519 530.531200
    336    739    719     1   120.6900519 530.531200
    337    335    714     1   123.0500530 620.905600
    338    336    739     1   123.0500530 620.905600
    341    344    364     1   111.6100477 551.451200
    341    347    348     1   112.3500484 533.878400
    341    347    351     1   112.3500484 533.878400
    344    341    347     1   111.0400475 552.288000
    347    348    357     1   111.0400475 552.288000
    347    351    354     1   111.0400475 552.288000
    348    347    351     1   112.3500484 533.878400
    348    357    361     1   111.0400475 529.694400
    351    354    360     1   111.0400475 529.694400
    354    360    741     1   115.1800491 558.982400
    354    360    362     1   123.2000528 564.003200
    357    361    363     1   123.2000528 564.003200
    357    361    814     1   115.1800491 558.982400
    360    741    743     1   120.6900519 530.531200
    361    814    816     1   120.6900519 530.531200
    362    360    741     1   123.0500530 620.905600
    363    361    814     1   123.0500530 620.905600
    366    369    389     1   111.6100477 551.451200
    366    372    373     1   112.3500484 533.878400
    366    372    376     1   112.3500484 533.878400
    369    366    372     1   111.0400475 552.288000
    372    373    382     1   111.0400475 552.288000
    372    376    379     1   111.0400475 552.288000
    373    372    376     1   112.3500484 533.878400
    373    382    386     1   111.0400475 529.694400
    376    379    385     1   111.0400475 529.694400
    379    385    887     1   115.1800491 558.982400
    379    385    387     1   123.2000528 564.003200
    382    386    388     1   123.2000528 564.003200
    382    386    960     1   115.1800491 558.982400
    385    887    889     1   120.6900519 530.531200
    386    960    962     1   120.6900519 530.531200
    387    385    887     1   123.0500530 620.905600
    388    386    960     1   123.0500530 620.905600
    391    394    414     1   111.6100477 551.451200
    391    397    398     1   112.3500484 533.878400
    391    397    401     1   112.3500484 533.878400
    394    391    397     1   111.0400475 552.288000
    397    398    407     1   111.0400475 552.288000
    397    401    404     1   111.0400475 552.288000
    398    397    401     1   112.3500484 533.878400
    398    407    411     1   111.0400475 529.694400
    401    404    410     1   111.0400475 529.694400
    404    410   1033     1   115.1800491 558.982400
    404    410    412     1   123.2000528 564.003200
    407    411    413     1   123.2000528 564.003200
    407    411   1106     1   115.1800491 558.982400
    410   1033   1035     1   120.6900519 530.531200
    411   1106   1108     1   120.6900519 530.531200
    412    410   1033     1   123.0500530 620.905600
    413    411   1106     1   123.0500530 620.905600
    416    419    439     1   111.6100477 551.451200
    416    422    423     1   112.3500484 533.878400
    416    422    426     1   112.3500484 533.878400
    419    416    422     1   111.0400475 552.288000
    422    423    432     1   111.0400475 552.288000
    422    426    429     1   111.0400475 552.288000
    423    422    426     1   112.3500484 533.878400
    423    432    436     1   111.0400475 529.694400
    426    429    435     1   111.0400475 529.694400
    429    435   1179     1   115.1800491 558.982400
    429    435    437     1   123.2000528 564.003200
    432    436    438     1   123.2000528 564.003200
    432    436   1252     1   115.1800491 558.982400
    435   1179   1181     1   120.6900519 530.531200
    436   1252   1254     1   120.6900519 530.531200
    437    435   1179     1   123.0500530 620.905600
    438    436   1252     1   123.0500530 620.905600
    441    444    464     1   111.6100477 551.451200
    441    447    448     1   112.3500484 533.878400
    441    447    451     1   112.3500484 533.878400
    444    441    447     1   111.0400475 552.288000
    447    448    457     1   111.0400475 552.288000
    447    451    454     1   111.0400475 552.288000
    448    447    451     1   112.3500484 533.878400
    448    457    461     1   111.0400475 529.694400
    451    454    460     1   111.0400475 529.694400
    454    460   1325     1   115.1800491 558.982400
    454    460    462     1   123.2000528 564.003200
    457    461    463     1   123.2000528 564.003200
    457    461   1398     1   115.1800491 558.982400
    460   1325   1327     1   120.6900519 530.531200
    461   1398   1400     1   120.6900519 530.531200
    462    460   1325     1   123.0500530 620.905600
    463    461   1398     1   123.0500530 620.905600
    466    469    489     1   111.6100477 551.451200
    466    472    473     1   112.3500484 533.878400
    466    472    476     1   112.3500484 533.878400
    469    466    472     1   111.0400475 552.288000
    472    473    482     1   111.0400475 552.288000
    472    476    479     1   111.0400475 552.288000
    473    472    476     1   112.3500484 533.878400
    473    482    486     1   111.0400475 529.694400
    476    479    485     1   111.0400475 529.694400
    479    485   1471     1   115.1800491 558.982400
    479    485    487     1   123.2000528 564.003200
    482    486    488     1   123.2000528 564.003200
    482    486   1544     1   115.1800491 558.982400
    485   1471   1473     1   120.6900519 530.531200
    486   1544   1546     1   120.6900519 530.531200
    487    485   1471     1   123.0500530 620.905600
    488    486   1544     1   123.0500530 620.905600
    491    494    514     1   111.6100477 551.451200
    491    497    498     1   112.3500484 533.878400
    491    497    501     1   112.3500484 533.878400
    494    491    497     1   111.0400475 552.288000
    497    498    507     1   111.0400475 552.288000
    497    501    504     1   111.0400475 552.288000
    498    497    501     1   112.3500484 533.878400
    498    507    511     1   111.0400475 529.694400
    501    504    510     1   111.0400475 529.694400
    504    510   1617     1   115.1800491 558.982400
    504    510    512     1   123.2000528 564.003200
    507    511    513     1   123.2000528 564.003200
    507    511   1690     1   115.1800491 558.982400
    510   1617   1619     1   120.6900519 530.531200
    511   1690   1692     1   120.6900519 530.531200
    512    510   1617     1   123.0500530 620.905600
    513    511   1690     1   123.0500530 620.905600
    516    519    539     1   111.6100477 551.451200
    516    522    523     1   112.3500484 533.878400
    516    522    526     1   112.3500484 533.878400
    519    516    522     1   111.0400475 552.288000
    522    523    532     1   111.0400475 552.288000
    522    526    529     1   111.0400475 552.288000
    523    522    526     1   112.3500484 533.878400
    523    532    536     1   111.0400475 529.694400
    526    529    535     1   111.0400475 529.694400
    529    535   1763     1   115.1800491 558.982400
    529    535    537     1   123.2000528 564.003200
    532    536    538     1   123.2000528 564.003200
    532    536   1836     1   115.1800491 558.982400
    535   1763   1765     1   120.6900519 530.531200
    536   1836   1838     1   120.6900519 530.531200
    537    535   1763     1   123.0500530 620.905600
    538    536   1836     1   123.0500530 620.905600
    541    544    564     1   111.6100477 551.451200
    541    547    548     1   112.3500484 533.878400
    541    547    551     1   112.3500484 533.878400
    544    541    547     1   111.0400475 552.288000
    547    548    557     1   111.0400475 552.288000
    547    551    554     1   111.0400475 552.288000
    548    547    551     1   112.3500484 533.878400
    548    557    561     1   111.0400475 529.694400
    551    554    560     1   111.0400475 529.694400
    554    560   1909     1   115.1800491 558.982400
    554    560    562     1   123.2000528 564.003200
    557    561    563     1   123.2000528 564.003200
    557    561   1982     1   115.1800491 558.982400
    560   1909   1911     1   120.6900519 530.531200
    561   1982   1984     1   120.6900519 530.531200
    562    560   1909     1   123.0500530 620.905600
    563    561   1982     1   123.0500530 620.905600
    566    569    589     1   111.6100477 551.451200
    566    572    573     1   112.3500484 533.878400
    566    572    576     1   112.3500484 533.878400
    569    566    572     1   111.0400475 552.288000
    572    573    582     1   111.0400475 552.288000
    572    576    579     1   111.0400475 552.288000
    573    572    576     1   112.3500484 533.878400
    573    582    586     1   111.0400475 529.694400
    576    579    585     1   111.0400475 529.694400
    579    585   2055     1   115.1800491 558.982400
    579    585    587     1   123.2000528 564.003200
    582    586    588     1   123.2000528 564.003200
    582    586   2128     1   115.1800491 558.982400
    585   2055   2057     1   120.6900519 530.531200
    586   2128   2130     1   120.6900519 530.531200
    587    585   2055     1   123.0500530 620.905600
    588    586   2128     1   123.0500530 620.905600
    591    594    614     1   111.6100477 551.451200
    591    597    598     1   112.3500484 533.878400
    591    597    601     1   112.3500484 533.878400
    594    591    597     1   111.0400475 552.288000
    597    598    607     1   111.0400475 552.288000
    597    601    604     1   111.0400475 552.288000
    598    597    601     1   112.3500484 533.878400
    598    607    611     1   111.0400475 529.694400
    601    604    610     1   111.0400475 529.694400
    604    610   2201     1   115.1800491 558.982400
    604    610    612     1   123.2000528 564.003200
    607    611    613     1   123.2000528 564.003200
    607    611   2274     1   115.1800491 558.982400
    610   2201   2203     1   120.6900519 530.531200
    611   2274   2276     1   120.6900519 530.531200
    612    610   2201     1   123.0500530 620.905600
    613    611   2274     1   123.0500530 620.905600
    616    619    639     1   111.6100477 551.451200
    616    622    623     1   112.3500484 533.878400
    616    622    626     1   112.3500484 533.878400
    619    616    622     1   111.0400475 552.288000
    622    623    632     1   111.0400475 552.288000
    622    626    629     1   111.0400475 552.288000
    623    622    626     1   112.3500484 533.878400
    623    632    636     1   111.0400475 529.694400
    626    629    635     1   111.0400475 529.694400
    629    635   2347     1   115.1800491 558.982400
    629    635    637     1   123.2000528 564.003200
    632    636    638     1   123.2000528 564.003200
    632    636   2420     1   115.1800491 558.982400
    635   2347   2349     1   120.6900519 530.531200
    636   2420   2422     1   120.6900519 530.531200
    637    635   2347     1   123.0500530 620.905600
    638    636   2420     1   123.0500530 620.905600
    641    644    664     1   111.6100477 551.451200
    641    647    648     1   112.3500484 533.878400
    641    647    651     1   112.3500484 533.878400
    644    641    647     1   111.0400475 552.288000
    647    648    657     1   111.0400475 552.288000
    647    651    654     1   111.0400475 552.288000
    648    647    651     1   112.3500484 533.878400
    648    657    661     1   111.0400475 529.694400
    651    654    660     1   111.0400475 529.694400
    654    660   2493     1   115.1800491 558.982400
    654    660    662     1   123.2000528 564.003200
    657    661    663     1   123.2000528 564.003200
    657    661   2566     1   115.1800491 558.982400
    660   2493   2495     1   120.6900519 530.531200
    661   2566   2568     1   120.6900519 530.531200
    662    660   2493     1   123.0500530 620.905600
    663    661   2566     1   123.0500530 620.905600
    666    669    689     1   111.6100477 551.451200
    666    672    673     1   112.3500484 533.878400
    666    672    676     1   112.3500484 533.878400
    669    666    672     1   111.0400475 552.288000
    672    673    682     1   111.0400475 552.288000
    672    676    679     1   111.0400475 552.288000
    673    672    676     1   112.3500484 533.878400
    673    682    686     1   111.0400475 529.694400
    676    679    685     1   111.0400475 529.694400
    679    685   2639     1   115.1800491 558.982400
    679    685    687     1   123.2000528 564.003200
    682    686    688     1   123.2000528 564.003200
    682    686   2712     1   115.1800491 558.982400
    685   2639   2641     1   120.6900519 530.531200
    686   2712   2714     1   120.6900519 530.531200
    687    685   2639     1   123.0500530 620.905600
    688    686   2712     1   123.0500530 620.905600
    691    694    714     1   111.6100477 551.451200
    691    697    698     1   112.3500484 533.878400
    691    697    701     1   112.3500484 533.878400
    694    691    697     1   111.0400475 552.288000
    697    698    707     1   111.0400475 552.288000
    697    701    704     1   111.0400475 552.288000
    698    697    701     1   112.3500484 533.878400
    698    707    711     1   111.0400475 529.694400
    701    704    710     1   111.0400475 529.694400
    704    710   2785     1   115.1800491 558.982400
    704    710    712     1   123.2000528 564.003200
    707    711    713     1   123.2000528 564.003200
    707    711   2858     1   115.1800491 558.982400
    710   2785   2787     1   120.6900519 530.531200
    711   2858   2860     1   120.6900519 530.531200
    712    710   2785     1   123.0500530 620.905600
    713    711   2858     1   123.0500530 620.905600
    716    719    739     1   111.6100477 551.451200
    716    722    723     1   112.3500484 533.878400
    716    722    726     1   112.3500484 533.878400
    719    716    722     1   111.0400475 552.288000
    722    723    732     1   111.0400475 552.288000
    722    726    729     1   111.0400475 552.288000
    723    722    726     1   112.3500484 533.878400
    723    732    736     1   111.0400475 529.694400
    726    729    735     1   111.0400475 529.694400
    729    735   2931     1   115.1800491 558.982400
    729    735    737     1   123.2000528 564.003200
    732    736   3004     1   115.1800491 558.982400
    732    736    738     1   123.2000528 564.003200
    735   2931   2933     1   120.6900519 530.531200
    736   3004   3006     1   120.6900519 530.531200
    737    735   2931     1   123.0500530 620.905600
    738    736   3004     1   123.0500530 620.905600
    741    743    745     1   111.6100477 551.451200
    743    745    749     1   111.0400475 552.288000
    745    749    750     1   112.3500484 533.878400
    745    749    751     1   112.3500484 533.878400
    749    750    761     1   111.0400475 552.288000
    749    751    753     1   111.0400475 552.288000
    750    749    751     1   112.3500484 533.878400
    750    761    764     1   111.0400475 529.694400
    751    753    757     1   111.0400475 529.694400
    753    757    758     1   123.2000528 564.003200
    753    757    789     1   112.2600482 538.062400
    757    789    770     1   118.5150508 540.957728
    758    757    789     1   118.8300510 581.576000
    761    764    765     1   123.2000528 564.003200
    761    764    813     1   112.2600482 538.062400
    764    813    794     1   118.5150508 540.957728
    765    764    813     1   118.8300510 581.576000
    766    767    769     1   111.5100476 526.347200
    766    767    787     1   110.1900474 564.840000
    766    777    782     1   110.1900474 564.840000
    766    784    771     1   112.4800480 524.673600
    767    766    777     1   111.5100476 526.347200
    767    766    784     1   107.9700462 569.024000
    767    769    770     1   111.5100476 526.347200
    767    769    776     1   110.1900474 564.840000
    769    767    787     1   110.1900474 564.840000
    769    770    771     1   111.5100476 526.347200
    769    770    789     1   111.0400475 552.288000
    770    769    776     1   110.1900474 564.840000
    770    771    775     1   110.1900474 564.840000
    770    771    784     1   107.9700462 569.024000
    771    770    789     1   111.0400475 552.288000
    775    771    784     1   109.3800466 607.516800
    777    766    784     1   107.9700462 569.024000
    790    791    793     1   111.5100476 526.347200
    790    791    811     1   110.1900474 564.840000
    790    801    806     1   110.1900474 564.840000
    790    808    795     1   112.4800480 524.673600
    791    790    801     1   111.5100476 526.347200
    791    790    808     1   107.9700462 569.024000
    791    793    794     1   111.5100476 526.347200
    791    793    800     1   110.1900474 564.840000
    793    791    811     1   110.1900474 564.840000
    793    794    795     1   111.5100476 526.347200
    793    794    813     1   111.0400475 552.288000
    794    793    800     1   110.1900474 564.840000
    794    795    799     1   110.1900474 564.840000
    794    795    808     1   107.9700462 569.024000
    795    794    813     1   111.0400475 552.288000
    799    795    808     1   109.3800466 607.516800
    801    790    808     1   107.9700462 569.024000
    814    816    818     1   111.6100477 551.451200
    816    818    822     1   111.0400475 552.288000
    818    822    823     1   112.3500484 533.878400
    818    822    824     1   112.3500484 533.878400
    822    823    834     1   111.0400475 552.288000
    822    824    826     1   111.0400475 552.288000
    823    834    837     1   111.0400475 529.694400
    823    822    824     1   112.3500484 533.878400
    824    826    830     1   111.0400475 529.694400
    826    830    831     1   123.2000528 564.003200
    826    830    862     1   112.2600482 538.062400
    830    862    843     1   118.5150508 540.957728
    831    830    862     1   118.8300510 581.576000
    834    837    838     1   123.2000528 564.003200
    834    837    886     1   112.2600482 538.062400
    837    886    867     1   118.5150508 540.957728
    838    837    886     1   118.8300510 581.576000
    839    840    842     1   111.5100476 526.347200
    839    840    860     1   110.1900474 564.840000
    839    850    855     1   110.1900474 564.840000
    839    857    844     1   112.4800480 524.673600
    840    842    843     1   111.5100476 526.347200
    840    842    849     1   110.1900474 564.840000
    840    839    850     1   111.5100476 526.347200
    840    839    857     1   107.9700462 569.024000
    842    843    844     1   111.5100476 526.347200
    842    843    862     1   111.0400475 552.288000
    842    840    860     1   110.1900474 564.840000
    843    844    848     1   110.1900474 564.840000
    843    844    857     1   107.9700462 569.024000
    843    842    849     1   110.1900474 564.840000
    844    843    862     1   111.0400475 552.288000
    848    844    857     1   109.3800466 607.516800
    850    839    857     1   107.9700462 569.024000
    863    864    866     1   111.5100476 526.347200
    863    864    884     1   110.1900474 564.840000
    863    874    879     1   110.1900474 564.840000
    863    881    868     1   112.4800480 524.673600
    864    866    867     1   111.5100476 526.347200
    864    866    873     1   110.1900474 564.840000
    864    863    874     1   111.5100476 526.347200
    864    863    881     1   107.9700462 569.024000
    866    867    868     1   111.5100476 526.347200
    866    867    886     1   111.0400475 552.288000
    866    864    884     1   110.1900474 564.840000
    867    868    872     1   110.1900474 564.840000
    867    868    881     1   107.9700462 569.024000
    867    866    873     1   110.1900474 564.840000
    868    867    886     1   111.0400475 552.288000
    872    868    881     1   109.3800466 607.516800
    874    863    881     1   107.9700462 569.024000
    887    889    891     1   111.6100477 551.451200
    889    891    895     1   111.0400475 552.288000
    891    895    896     1   112.3500484 533.878400
    891    895    897     1   112.3500484 533.878400
    895    896    907     1   111.0400475 552.288000
    895    897    899     1   111.0400475 552.288000
    896    895    897     1   112.3500484 533.878400
    896    907    910     1   111.0400475 529.694400
    897    899    903     1   111.0400475 529.694400
    899    903    904     1   123.2000528 564.003200
    899    903    935     1   112.2600482 538.062400
    903    935    916     1   118.5150508 540.957728
    904    903    935     1   118.8300510 581.576000
    907    910    911     1   123.2000528 564.003200
    907    910    959     1   112.2600482 538.062400
    910    959    940     1   118.5150508 540.957728
    911    910    959     1   118.8300510 581.576000
    912    913    915     1   111.5100476 526.347200
    912    913    933     1   110.1900474 564.840000
    912    923    928     1   110.1900474 564.840000
    912    930    917     1   112.4800480 524.673600
    913    912    923     1   111.5100476 526.347200
    913    912    930     1   107.9700462 569.024000
    913    915    916     1   111.5100476 526.347200
    913    915    922     1   110.1900474 564.840000
    915    913    933     1   110.1900474 564.840000
    915    916    917     1   111.5100476 526.347200
    915    916    935     1   111.0400475 552.288000
    916    915    922     1   110.1900474 564.840000
    916    917    921     1   110.1900474 564.840000
    916    917    930     1   107.9700462 569.024000
    917    916    935     1   111.0400475 552.288000
    921    917    930     1   109.3800466 607.516800
    923    912    930     1   107.9700462 569.024000
    936    937    939     1   111.5100476 526.347200
    936    937    957     1   110.1900474 564.840000
    936    947    952     1   110.1900474 564.840000
    936    954    941     1   112.4800480 524.673600
    937    936    947     1   111.5100476 526.347200
    937    936    954     1   107.9700462 569.024000
    937    939    940     1   111.5100476 526.347200
    937    939    946     1   110.1900474 564.840000
    939    937    957     1   110.1900474 564.840000
    939    940    941     1   111.5100476 526.347200
    939    940    959     1   111.0400475 552.288000
    940    939    946     1   110.1900474 564.840000
    940    941    945     1   110.1900474 564.840000
    940    941    954     1   107.9700462 569.024000
    941    940    959     1   111.0400475 552.288000
    945    941    954     1   109.3800466 607.516800
    947    936    954     1   107.9700462 569.024000
    960    962    964     1   111.6100477 551.451200
    962    964    968     1   111.0400475 552.288000
    964    968    969     1   112.3500484 533.878400
    964    968    970     1   112.3500484 533.878400
    968    969    980     1   111.0400475 552.288000
    968    970    972     1   111.0400475 552.288000
    969    980    983     1   111.0400475 529.694400
    969    968    970     1   112.3500484 533.878400
    970    972    976     1   111.0400475 529.694400
    972    976    977     1   123.2000528 564.003200
    972    976   1008     1   112.2600482 538.062400
    976   1008    989     1   118.5150508 540.957728
    977    976   1008     1   118.8300510 581.576000
    980    983    984     1   123.2000528 564.003200
    980    983   1032     1   112.2600482 538.062400
    983   1032   1013     1   118.5150508 540.957728
    984    983   1032     1   118.8300510 581.576000
    985    986    988     1   111.5100476 526.347200
    985    986   1006     1   110.1900474 564.840000
    985    996   1001     1   110.1900474 564.840000
    985   1003    990     1   112.4800480 524.673600
    986    988    989     1   111.5100476 526.347200
    986    988    995     1   110.1900474 564.840000
    986    985    996     1   111.5100476 526.347200
    986    985   1003     1   107.9700462 569.024000
    988    989    990     1   111.5100476 526.347200
    988    989   1008     1   111.0400475 552.288000
    988    986   1006     1   110.1900474 564.840000
    989    990    994     1   110.1900474 564.840000
    989    990   1003     1   107.9700462 569.024000
    989    988    995     1   110.1900474 564.840000
    990    989   1008     1   111.0400475 552.288000
    994    990   1003     1   109.3800466 607.516800
    996    985   1003     1   107.9700462 569.024000
   1009   1010   1012     1   111.5100476 526.347200
   1009   1010   1030     1   110.1900474 564.840000
   1009   1020   1025     1   110.1900474 564.840000
   1009   1027   1014     1   112.4800480 524.673600
   1010   1012   1013     1   111.5100476 526.347200
   1010   1012   1019     1   110.1900474 564.840000
   1010   1009   1020     1   111.5100476 526.347200
   1010   1009   1027     1   107.9700462 569.024000
   1012   1013   1014     1   111.5100476 526.347200
   1012   1013   1032     1   111.0400475 552.288000
   1012   1010   1030     1   110.1900474 564.840000
   1013   1014   1018     1   110.1900474 564.840000
   1013   1014   1027     1   107.9700462 569.024000
   1013   1012   1019     1   110.1900474 564.840000
   1014   1013   1032     1   111.0400475 552.288000
   1018   1014   1027     1   109.3800466 607.516800
   1020   1009   1027     1   107.9700462 569.024000
   1033   1035   1037     1   111.6100477 551.451200
   1035   1037   1041     1   111.0400475 552.288000
   1037   1041   1042     1   112.3500484 533.878400
   1037   1041   1043     1   112.3500484 533.878400
   1041   1042   1053     1   111.0400475 552.288000
   1041   1043   1045     1   111.0400475 552.288000
   1042   1041   1043     1   112.3500484 533.878400
   1042   1053   1056     1   111.0400475 529.694400
   1043   1045   1049     1   111.0400475 529.694400
   1045   1049   1050     1   123.2000528 564.003200
   1045   1049   1081     1   112.2600482 538.062400
   1049   1081   1062     1   118.5150508 540.957728
   1050   1049   1081     1   118.8300510 581.576000
   1053   1056   1057     1   123.2000528 564.003200
   1053   1056   1105     1   112.2600482 538.062400
   1056   1105   1086     1   118.5150508 540.957728
   1057   1056   1105     1   118.8300510 581.576000
   1058   1059   1061     1   111.5100476 526.347200
   1058   1059   1079     1   110.1900474 564.840000
   1058   1069   1074     1   110.1900474 564.840000
   1058   1076   1063     1   112.4800480 524.673600
   1059   1058   1069     1   111.5100476 526.347200
   1059   1058   1076     1   107.9700462 569.024000
   1059   1061   1062     1   111.5100476 526.347200
   1059   1061   1068     1   110.1900474 564.840000
   1061   1059   1079     1   110.1900474 564.840000
   1061   1062   1063     1   111.5100476 526.347200
   1061   1062   1081     1   111.0400475 552.288000
   1062   1061   1068     1   110.1900474 564.840000
   1062   1063   1067     1   110.1900474 564.840000
   1062   1063   1076     1   107.9700462 569.024000
   1063   1062   1081     1   111.0400475 552.288000
   1067   1063   1076     1   109.3800466 607.516800
   1069   1058   1076     1   107.9700462 569.024000
   1082   1083   1085     1   111.5100476 526.347200
   1082   1083   1103     1   110.1900474 564.840000
   1082   1093   1098     1   110.1900474 564.840000
   1082   1100   1087     1   112.4800480 524.673600
   1083   1082   1093     1   111.5100476 526.347200
   1083   1082   1100     1   107.9700462 569.024000
   1083   1085   1086     1   111.5100476 526.347200
   1083   1085   1092     1   110.1900474 564.840000
   1085   1083   1103     1   110.1900474 564.840000
   1085   1086   1087     1   111.5100476 526.347200
   1085   1086   1105     1   111.0400475 552.288000
   1086   1085   1092     1   110.1900474 564.840000
   1086   1087   1091     1   110.1900474 564.840000
   1086   1087   1100     1   107.9700462 569.024000
   1087   1086   1105     1   111.0400475 552.288000
   1091   1087   1100     1   109.3800466 607.516800
   1093   1082   1100     1   107.9700462 569.024000
   1106   1108   1110     1   111.6100477 551.451200
   1108   1110   1114     1   111.0400475 552.288000
   1110   1114   1115     1   112.3500484 533.878400
   1110   1114   1116     1   112.3500484 533.878400
   1114   1115   1126     1   111.0400475 552.288000
   1114   1116   1118     1   111.0400475 552.288000
   1115   1126   1129     1   111.0400475 529.694400
   1115   1114   1116     1   112.3500484 533.878400
   1116   1118   1122     1   111.0400475 529.694400
   1118   1122   1123     1   123.2000528 564.003200
   1118   1122   1154     1   112.2600482 538.062400
   1122   1154   1135     1   118.5150508 540.957728
   1123   1122   1154     1   118.8300510 581.576000
   1126   1129   1130     1   123.2000528 564.003200
   1126   1129   1178     1   112.2600482 538.062400
   1129   1178   1159     1   118.5150508 540.957728
   1130   1129   1178     1   118.8300510 581.576000
   1131   1132   1134     1   111.5100476 526.347200
   1131   1132   1152     1   110.1900474 564.840000
   1131   1142   1147     1   110.1900474 564.840000
   1131   1149   1136     1   112.4800480 524.673600
   1132   1134   1135     1   111.5100476 526.347200
   1132   1134   1141     1   110.1900474 564.840000
   1132   1131   1142     1   111.5100476 526.347200
   1132   1131   1149     1   107.9700462 569.024000
   1134   1135   1136     1   111.5100476 526.347200
   1134   1135   1154     1   111.0400475 552.288000
   1134   1132   1152     1   110.1900474 564.840000
   1135   1136   1140     1   110.1900474 564.840000
   1135   1136   1149     1   107.9700462 569.024000
   1135   1134   1141     1   110.1900474 564.840000
   1136   1135   1154     1   111.0400475 552.288000
   1140   1136   1149     1   109.3800466 607.516800
   1142   1131   1149     1   107.9700462 569.024000
   1155   1156   1158     1   111.5100476 526.347200
   1155   1156   1176     1   110.1900474 564.840000
   1155   1166   1171     1   110.1900474 564.840000
   1155   1173   1160     1   112.4800480 524.673600
   1156   1158   1159     1   111.5100476 526.347200
   1156   1158   1165     1   110.1900474 564.840000
   1156   1155   1166     1   111.5100476 526.347200
   1156   1155   1173     1   107.9700462 569.024000
   1158   1159   1160     1   111.5100476 526.347200
   1158   1159   1178     1   111.0400475 552.288000
   1158   1156   1176     1   110.1900474 564.840000
   1159   1160   1164     1   110.1900474 564.840000
   1159   1160   1173     1   107.9700462 569.024000
   1159   1158   1165     1   110.1900474 564.840000
   1160   1159   1178     1   111.0400475 552.288000
   1164   1160   1173     1   109.3800466 607.516800
   1166   1155   1173     1   107.9700462 569.024000
   1179   1181   1183     1   111.6100477 551.451200
   1181   1183   1187     1   111.0400475 552.288000
   1183   1187   1188     1   112.3500484 533.878400
   1183   1187   1189     1   112.3500484 533.878400
   1187   1188   1199     1   111.0400475 552.288000
   1187   1189   1191     1   111.0400475 552.288000
   1188   1187   1189     1   112.3500484 533.878400
   1188   1199   1202     1   111.0400475 529.694400
   1189   1191   1195     1   111.0400475 529.694400
   1191   1195   1196     1   123.2000528 564.003200
   1191   1195   1227     1   112.2600482 538.062400
   1195   1227   1208     1   118.5150508 540.957728
   1196   1195   1227     1   118.8300510 581.576000
   1199   1202   1203     1   123.2000528 564.003200
   1199   1202   1251     1   112.2600482 538.062400
   1202   1251   1232     1   118.5150508 540.957728
   1203   1202   1251     1   118.8300510 581.576000
   1204   1205   1207     1   111.5100476 526.347200
   1204   1205   1225     1   110.1900474 564.840000
   1204   1215   1220     1   110.1900474 564.840000
   1204   1222   1209     1   112.4800480 524.673600
   1205   1204   1215     1   111.5100476 526.347200
   1205   1204   1222     1   107.9700462 569.024000
   1205   1207   1208     1   111.5100476 526.347200
   1205   1207   1214     1   110.1900474 564.840000
   1207   1205   1225     1   110.1900474 564.840000
   1207   1208   1209     1   111.5100476 526.347200
   1207   1208   1227     1   111.0400475 552.288000
   1208   1207   1214     1   110.1900474 564.840000
   1208   1209   1213     1   110.1900474 564.840000
   1208   1209   1222     1   107.9700462 569.024000
   1209   1208   1227     1   111.0400475 552.288000
   1213   1209   1222     1   109.3800466 607.516800
   1215   1204   1222     1   107.9700462 569.024000
   1228   1229   1231     1   111.5100476 526.347200
   1228   1229   1249     1   110.1900474 564.840000
   1228   1239   1244     1   110.1900474 564.840000
   1228   1246   1233     1   112.4800480 524.673600
   1229   1228   1239     1   111.5100476 526.347200
   1229   1228   1246     1   107.9700462 569.024000
   1229   1231   1232     1   111.5100476 526.347200
   1229   1231   1238     1   110.1900474 564.840000
   1231   1229   1249     1   110.1900474 564.840000
   1231   1232   1233     1   111.5100476 526.347200
   1231   1232   1251     1   111.0400475 552.288000
   1232   1231   1238     1   110.1900474 564.840000
   1232   1233   1237     1   110.1900474 564.840000
   1232   1233   1246     1   107.9700462 569.024000
   1233   1232   1251     1   111.0400475 552.288000
   1237   1233   1246     1   109.3800466 607.516800
   1239   1228   1246     1   107.9700462 569.024000
   1252   1254   1256     1   111.6100477 551.451200
   1254   1256   1260     1   111.0400475 552.288000
   1256   1260   1261     1   112.3500484 533.878400
   1256   1260   1262     1   112.3500484 533.878400
   1260   1261   1272     1   111.0400475 552.288000
   1260   1262   1264     1   111.0400475 552.288000
   1261   1272   1275     1   111.0400475 529.694400
   1261   1260   1262     1   112.3500484 533.878400
   1262   1264   1268     1   111.0400475 529.694400
   1264   1268   1269     1   123.2000528 564.003200
   1264   1268   1300     1   112.2600482 538.062400
   1268   1300   1281     1   118.5150508 540.957728
   1269   1268   1300     1   118.8300510 581.576000
   1272   1275   1276     1   123.2000528 564.003200
   1272   1275   1324     1   112.2600482 538.062400
   1275   1324   1305     1   118.5150508 540.957728
   1276   1275   1324     1   118.8300510 581.576000
   1277   1278   1280     1   111.5100476 526.347200
   1277   1278   1298     1   110.1900474 564.840000
   1277   1288   1293     1   110.1900474 564.840000
   1277   1295   1282     1   112.4800480 524.673600
   1278   1280   1281     1   111.5100476 526.347200
   1278   1280   1287     1   110.1900474 564.840000
   1278   1277   1288     1   111.5100476 526.347200
   1278   1277   1295     1   107.9700462 569.024000
   1280   1281   1282     1   111.5100476 526.347200
   1280   1281   1300     1   111.0400475 552.288000
   1280   1278   1298     1   110.1900474 564.840000
   1281   1282   1286     1   110.1900474 564.840000
   1281   1282   1295     1   107.9700462 569.024000
   1281   1280   1287     1   110.1900474 564.840000
   1282   1281   1300     1   111.0400475 552.288000
   1286   1282   1295     1   109.3800466 607.516800
   1288   1277   1295     1   107.9700462 569.024000
   1301   1302   1304     1   111.5100476 526.347200
   1301   1302   1322     1   110.1900474 564.840000
   1301   1312   1317     1   110.1900474 564.840000
   1301   1319   1306     1   112.4800480 524.673600
   1302   1304   1305     1   111.5100476 526.347200
   1302   1304   1311     1   110.1900474 564.840000
   1302   1301   1312     1   111.5100476 526.347200
   1302   1301   1319     1   107.9700462 569.024000
   1304   1305   1306     1   111.5100476 526.347200
   1304   1305   1324     1   111.0400475 552.288000
   1304   1302   1322     1   110.1900474 564.840000
   1305   1306   1310     1   110.1900474 564.840000
   1305   1306   1319     1   107.9700462 569.024000
   1305   1304   1311     1   110.1900474 564.840000
   1306   1305   1324     1   111.0400475 552.288000
   1310   1306   1319     1   109.3800466 607.516800
   1312   1301   1319     1   107.9700462 569.024000
   1325   1327   1329     1   111.6100477 551.451200
   1327   1329   1333     1   111.0400475 552.288000
   1329   1333   1334     1   112.3500484 533.878400
   1329   1333   1335     1   112.3500484 533.878400
   1333   1334   1345     1   111.0400475 552.288000
   1333   1335   1337     1   111.0400475 552.288000
   1334   1333   1335     1   112.3500484 533.878400
   1334   1345   1348     1   111.0400475 529.694400
   1335   1337   1341     1   111.0400475 529.694400
   1337   1341   1342     1   123.2000528 564.003200
   1337   1341   1373     1   112.2600482 538.062400
   1341   1373   1354     1   118.5150508 540.957728
   1342   1341   1373     1   118.8300510 581.576000
   1345   1348   1349     1   123.2000528 564.003200
   1345   1348   1397     1   112.2600482 538.062400
   1348   1397   1378     1   118.5150508 540.957728
   1349   1348   1397     1   118.8300510 581.576000
   1350   1351   1353     1   111.5100476 526.347200
   1350   1351   1371     1   110.1900474 564.840000
   1350   1361   1366     1   110.1900474 564.840000
   1350   1368   1355     1   112.4800480 524.673600
   1351   1350   1361     1   111.5100476 526.347200
   1351   1350   1368     1   107.9700462 569.024000
   1351   1353   1354     1   111.5100476 526.347200
   1351   1353   1360     1   110.1900474 564.840000
   1353   1351   1371     1   110.1900474 564.840000
   1353   1354   1355     1   111.5100476 526.347200
   1353   1354   1373     1   111.0400475 552.288000
   1354   1353   1360     1   110.1900474 564.840000
   1354   1355   1359     1   110.1900474 564.840000
   1354   1355   1368     1   107.9700462 569.024000
   1355   1354   1373     1   111.0400475 552.288000
   1359   1355   1368     1   109.3800466 607.516800
   1361   1350   1368     1   107.9700462 569.024000
   1374   1375   1377     1   111.5100476 526.347200
   1374   1375   1395     1   110.1900474 564.840000
   1374   1385   1390     1   110.1900474 564.840000
   1374   1392   1379     1   112.4800480 524.673600
   1375   1374   1385     1   111.5100476 526.347200
   1375   1374   1392     1   107.9700462 569.024000
   1375   1377   1378     1   111.5100476 526.347200
   1375   1377   1384     1   110.1900474 564.840000
   1377   1375   1395     1   110.1900474 564.840000
   1377   1378   1379     1   111.5100476 526.347200
   1377   1378   1397     1   111.0400475 552.288000
   1378   1377   1384     1   110.1900474 564.840000
   1378   1379   1383     1   110.1900474 564.840000
   1378   1379   1392     1   107.9700462 569.024000
   1379   1378   1397     1   111.0400475 552.288000
   1383   1379   1392     1   109.3800466 607.516800
   1385   1374   1392     1   107.9700462 569.024000
   1398   1400   1402     1   111.6100477 551.451200
   1400   1402   1406     1   111.0400475 552.288000
   1402   1406   1407     1   112.3500484 533.878400
   1402   1406   1408     1   112.3500484 533.878400
   1406   1407   1418     1   111.0400475 552.288000
   1406   1408   1410     1   111.0400475 552.288000
   1407   1418   1421     1   111.0400475 529.694400
   1407   1406   1408     1   112.3500484 533.878400
   1408   1410   1414     1   111.0400475 529.694400
   1410   1414   1415     1   123.2000528 564.003200
   1410   1414   1446     1   112.2600482 538.062400
   1414   1446   1427     1   118.5150508 540.957728
   1415   1414   1446     1   118.8300510 581.576000
   1418   1421   1422     1   123.2000528 564.003200
   1418   1421   1470     1   112.2600482 538.062400
   1421   1470   1451     1   118.5150508 540.957728
   1422   1421   1470     1   118.8300510 581.576000
   1423   1424   1426     1   111.5100476 526.347200
   1423   1424   1444     1   110.1900474 564.840000
   1423   1434   1439     1   110.1900474 564.840000
   1423   1441   1428     1   112.4800480 524.673600
   1424   1426   1427     1   111.5100476 526.347200
   1424   1426   1433     1   110.1900474 564.840000
   1424   1423   1434     1   111.5100476 526.347200
   1424   1423   1441     1   107.9700462 569.024000
   1426   1427   1428     1   111.5100476 526.347200
   1426   1427   1446     1   111.0400475 552.288000
   1426   1424   1444     1   110.1900474 564.840000
   1427   1428   1432     1   110.1900474 564.840000
   1427   1428   1441     1   107.9700462 569.024000
   1427   1426   1433     1   110.1900474 564.840000
   1428   1427   1446     1   111.0400475 552.288000
   1432   1428   1441     1   109.3800466 607.516800
   1434   1423   1441     1   107.9700462 569.024000
   1447   1448   1450     1   111.5100476 526.347200
   1447   1448   1468     1   110.1900474 564.840000
   1447   1458   1463     1   110.1900474 564.840000
   1447   1465   1452     1   112.4800480 524.673600
   1448   1450   1451     1   111.5100476 526.347200
   1448   1450   1457     1   110.1900474 564.840000
   1448   1447   1458     1   111.5100476 526.347200
   1448   1447   1465     1   107.9700462 569.024000
   1450   1451   1452     1   111.5100476 526.347200
   1450   1451   1470     1   111.0400475 552.288000
   1450   1448   1468     1   110.1900474 564.840000
   1451   1452   1456     1   110.1900474 564.840000
   1451   1452   1465     1   107.9700462 569.024000
   1451   1450   1457     1   110.1900474 564.840000
   1452   1451   1470     1   111.0400475 552.288000
   1456   1452   1465     1   109.3800466 607.516800
   1458   1447   1465     1   107.9700462 569.024000
   1471   1473   1475     1   111.6100477 551.451200
   1473   1475   1479     1   111.0400475 552.288000
   1475   1479   1480     1   112.3500484 533.878400
   1475   1479   1481     1   112.3500484 533.878400
   1479   1480   1491     1   111.0400475 552.288000
   1479   1481   1483     1   111.0400475 552.288000
   1480   1479   1481     1   112.3500484 533.878400
   1480   1491   1494     1   111.0400475 529.694400
   1481   1483   1487     1   111.0400475 529.694400
   1483   1487   1488     1   123.2000528 564.003200
   1483   1487   1519     1   112.2600482 538.062400
   1487   1519   1500     1   118.5150508 540.957728
   1488   1487   1519     1   118.8300510 581.576000
   1491   1494   1495     1   123.2000528 564.003200
   1491   1494   1543     1   112.2600482 538.062400
   1494   1543   1524     1   118.5150508 540.957728
   1495   1494   1543     1   118.8300510 581.576000
   1496   1497   1499     1   111.5100476 526.347200
   1496   1497   1517     1   110.1900474 564.840000
   1496   1507   1512     1   110.1900474 564.840000
   1496   1514   1501     1   112.4800480 524.673600
   1497   1496   1507     1   111.5100476 526.347200
   1497   1496   1514     1   107.9700462 569.024000
   1497   1499   1500     1   111.5100476 526.347200
   1497   1499   1506     1   110.1900474 564.840000
   1499   1497   1517     1   110.1900474 564.840000
   1499   1500   1501     1   111.5100476 526.347200
   1499   1500   1519     1   111.0400475 552.288000
   1500   1499   1506     1   110.1900474 564.840000
   1500   1501   1505     1   110.1900474 564.840000
   1500   1501   1514     1   107.9700462 569.024000
   1501   1500   1519     1   111.0400475 552.288000
   1505   1501   1514     1   109.3800466 607.516800
   1507   1496   1514     1   107.9700462 569.024000
   1520   1521   1523     1   111.5100476 526.347200
   1520   1521   1541     1   110.1900474 564.840000
   1520   1531   1536     1   110.1900474 564.840000
   1520   1538   1525     1   112.4800480 524.673600
   1521   1520   1531     1   111.5100476 526.347200
   1521   1520   1538     1   107.9700462 569.024000
   1521   1523   1524     1   111.5100476 526.347200
   1521   1523   1530     1   110.1900474 564.840000
   1523   1521   1541     1   110.1900474 564.840000
   1523   1524   1525     1   111.5100476 526.347200
   1523   1524   1543     1   111.0400475 552.288000
   1524   1523   1530     1   110.1900474 564.840000
   1524   1525   1529     1   110.1900474 564.840000
   1524   1525   1538     1   107.9700462 569.024000
   1525   1524   1543     1   111.0400475 552.288000
   1529   1525   1538     1   109.3800466 607.516800
   1531   1520   1538     1   107.9700462 569.024000
   1544   1546   1548     1   111.6100477 551.451200
   1546   1548   1552     1   111.0400475 552.288000
   1548   1552   1553     1   112.3500484 533.878400
   1548   1552   1554     1   112.3500484 533.878400
   1552   1553   1564     1   111.0400475 552.288000
   1552   1554   1556     1   111.0400475 552.288000
   1553   1564   1567     1   111.0400475 529.694400
   1553   1552   1554     1   112.3500484 533.878400
   1554   1556   1560     1   111.0400475 529.694400
   1556   1560   1561     1   123.2000528 564.003200
   1556   1560   1592     1   112.2600482 538.062400
   1560   1592   1573     1   118.5150508 540.957728
   1561   1560   1592     1   118.8300510 581.576000
   1564   1567   1568     1   123.2000528 564.003200
   1564   1567   1616     1   112.2600482 538.062400
   1567   1616   1597     1   118.5150508 540.957728
   1568   1567   1616     1   118.8300510 581.576000
   1569   1570   1572     1   111.5100476 526.347200
   1569   1570   1590     1   110.1900474 564.840000
   1569   1580   1585     1   110.1900474 564.840000
   1569   1587   1574     1   112.4800480 524.673600
   1570   1572   1573     1   111.5100476 526.347200
   1570   1572   1579     1   110.1900474 564.840000
   1570   1569   1580     1   111.5100476 526.347200
   1570   1569   1587     1   107.9700462 569.024000
   1572   1573   1574     1   111.5100476 526.347200
   1572   1573   1592     1   111.0400475 552.288000
   1572   1570   1590     1   110.1900474 564.840000
   1573   1574   1578     1   110.1900474 564.840000
   1573   1574   1587     1   107.9700462 569.024000
   1573   1572   1579     1   110.1900474 564.840000
   1574   1573   1592     1   111.0400475 552.288000
   1578   1574   1587     1   109.3800466 607.516800
   1580   1569   1587     1   107.9700462 569.024000
   1593   1594   1596     1   111.5100476 526.347200
   1593   1594   1614     1   110.1900474 564.840000
   1593   1604   1609     1   110.1900474 564.840000
   1593   1611   1598     1   112.4800480 524.673600
   1594   1596   1597     1   111.5100476 526.347200
   1594   1596   1603     1   110.1900474 564.840000
   1594   1593   1604     1   111.5100476 526.347200
   1594   1593   1611     1   107.9700462 569.024000
   1596   1597   1598     1   111.5100476 526.347200
   1596   1597   1616     1   111.0400475 552.288000
   1596   1594   1614     1   110.1900474 564.840000
   1597   1598   1602     1   110.1900474 564.840000
   1597   1598   1611     1   107.9700462 569.024000
   1597   1596   1603     1   110.1900474 564.840000
   1598   1597   1616     1   111.0400475 552.288000
   1602   1598   1611     1   109.3800466 607.516800
   1604   1593   1611     1   107.9700462 569.024000
   1617   1619   1621     1   111.6100477 551.451200
   1619   1621   1625     1   111.0400475 552.288000
   1621   1625   1626     1   112.3500484 533.878400
   1621   1625   1627     1   112.3500484 533.878400
   1625   1626   1637     1   111.0400475 552.288000
   1625   1627   1629     1   111.0400475 552.288000
   1626   1625   1627     1   112.3500484 533.878400
   1626   1637   1640     1   111.0400475 529.694400
   1627   1629   1633     1   111.0400475 529.694400
   1629   1633   1634     1   123.2000528 564.003200
   1629   1633   1665     1   112.2600482 538.062400
   1633   1665   1646     1   118.5150508 540.957728
   1634   1633   1665     1   118.8300510 581.576000
   1637   1640   1641     1   123.2000528 564.003200
   1637   1640   1689     1   112.2600482 538.062400
   1640   1689   1670     1   118.5150508 540.957728
   1641   1640   1689     1   118.8300510 581.576000
   1642   1643   1645     1   111.5100476 526.347200
   1642   1643   1663     1   110.1900474 564.840000
   1642   1653   1658     1   110.1900474 564.840000
   1642   1660   1647     1   112.4800480 524.673600
   1643   1642   1653     1   111.5100476 526.347200
   1643   1642   1660     1   107.9700462 569.024000
   1643   1645   1646     1   111.5100476 526.347200
   1643   1645   1652     1   110.1900474 564.840000
   1645   1643   1663     1   110.1900474 564.840000
   1645   1646   1647     1   111.5100476 526.347200
   1645   1646   1665     1   111.0400475 552.288000
   1646   1645   1652     1   110.1900474 564.840000
   1646   1647   1651     1   110.1900474 564.840000
   1646   1647   1660     1   107.9700462 569.024000
   1647   1646   1665     1   111.0400475 552.288000
   1651   1647   1660     1   109.3800466 607.516800
   1653   1642   1660     1   107.9700462 569.024000
   1666   1667   1669     1   111.5100476 526.347200
   1666   1667   1687     1   110.1900474 564.840000
   1666   1677   1682     1   110.1900474 564.840000
   1666   1684   1671     1   112.4800480 524.673600
   1667   1666   1677     1   111.5100476 526.347200
   1667   1666   1684     1   107.9700462 569.024000
   1667   1669   1670     1   111.5100476 526.347200
   1667   1669   1676     1   110.1900474 564.840000
   1669   1667   1687     1   110.1900474 564.840000
   1669   1670   1671     1   111.5100476 526.347200
   1669   1670   1689     1   111.0400475 552.288000
   1670   1669   1676     1   110.1900474 564.840000
   1670   1671   1675     1   110.1900474 564.840000
   1670   1671   1684     1   107.9700462 569.024000
   1671   1670   1689     1   111.0400475 552.288000
   1675   1671   1684     1   109.3800466 607.516800
   1677   1666   1684     1   107.9700462 569.024000
   1690   1692   1694     1   111.6100477 551.451200
   1692   1694   1698     1   111.0400475 552.288000
   1694   1698   1699     1   112.3500484 533.878400
   1694   1698   1700     1   112.3500484 533.878400
   1698   1699   1710     1   111.0400475 552.288000
   1698   1700   1702     1   111.0400475 552.288000
   1699   1710   1713     1   111.0400475 529.694400
   1699   1698   1700     1   112.3500484 533.878400
   1700   1702   1706     1   111.0400475 529.694400
   1702   1706   1707     1   123.2000528 564.003200
   1702   1706   1738     1   112.2600482 538.062400
   1706   1738   1719     1   118.5150508 540.957728
   1707   1706   1738     1   118.8300510 581.576000
   1710   1713   1714     1   123.2000528 564.003200
   1710   1713   1762     1   112.2600482 538.062400
   1713   1762   1743     1   118.5150508 540.957728
   1714   1713   1762     1   118.8300510 581.576000
   1715   1716   1718     1   111.5100476 526.347200
   1715   1716   1736     1   110.1900474 564.840000
   1715   1726   1731     1   110.1900474 564.840000
   1715   1733   1720     1   112.4800480 524.673600
   1716   1718   1719     1   111.5100476 526.347200
   1716   1718   1725     1   110.1900474 564.840000
   1716   1715   1726     1   111.5100476 526.347200
   1716   1715   1733     1   107.9700462 569.024000
   1718   1719   1720     1   111.5100476 526.347200
   1718   1719   1738     1   111.0400475 552.288000
   1718   1716   1736     1   110.1900474 564.840000
   1719   1720   1724     1   110.1900474 564.840000
   1719   1720   1733     1   107.9700462 569.024000
   1719   1718   1725     1   110.1900474 564.840000
   1720   1719   1738     1   111.0400475 552.288000
   1724   1720   1733     1   109.3800466 607.516800
   1726   1715   1733     1   107.9700462 569.024000
   1739   1740   1742     1   111.5100476 526.347200
   1739   1740   1760     1   110.1900474 564.840000
   1739   1750   1755     1   110.1900474 564.840000
   1739   1757   1744     1   112.4800480 524.673600
   1740   1742   1743     1   111.5100476 526.347200
   1740   1742   1749     1   110.1900474 564.840000
   1740   1739   1750     1   111.5100476 526.347200
   1740   1739   1757     1   107.9700462 569.024000
   1742   1743   1744     1   111.5100476 526.347200
   1742   1743   1762     1   111.0400475 552.288000
   1742   1740   1760     1   110.1900474 564.840000
   1743   1744   1748     1   110.1900474 564.840000
   1743   1744   1757     1   107.9700462 569.024000
   1743   1742   1749     1   110.1900474 564.840000
   1744   1743   1762     1   111.0400475 552.288000
   1748   1744   1757     1   109.3800466 607.516800
   1750   1739   1757     1   107.9700462 569.024000
   1763   1765   1767     1   111.6100477 551.451200
   1765   1767   1771     1   111.0400475 552.288000
   1767   1771   1772     1   112.3500484 533.878400
   1767   1771   1773     1   112.3500484 533.878400
   1771   1772   1783     1   111.0400475 552.288000
   1771   1773   1775     1   111.0400475 552.288000
   1772   1771   1773     1   112.3500484 533.878400
   1772   1783   1786     1   111.0400475 529.694400
   1773   1775   1779     1   111.0400475 529.694400
   1775   1779   1780     1   123.2000528 564.003200
   1775   1779   1811     1   112.2600482 538.062400
   1779   1811   1792     1   118.5150508 540.957728
   1780   1779   1811     1   118.8300510 581.576000
   1783   1786   1787     1   123.2000528 564.003200
   1783   1786   1835     1   112.2600482 538.062400
   1786   1835   1816     1   118.5150508 540.957728
   1787   1786   1835     1   118.8300510 581.576000
   1788   1789   1791     1   111.5100476 526.347200
   1788   1789   1809     1   110.1900474 564.840000
   1788   1799   1804     1   110.1900474 564.840000
   1788   1806   1793     1   112.4800480 524.673600
   1789   1788   1799     1   111.5100476 526.347200
   1789   1788   1806     1   107.9700462 569.024000
   1789   1791   1792     1   111.5100476 526.347200
   1789   1791   1798     1   110.1900474 564.840000
   1791   1789   1809     1   110.1900474 564.840000
   1791   1792   1793     1   111.5100476 526.347200
   1791   1792   1811     1   111.0400475 552.288000
   1792   1791   1798     1   110.1900474 564.840000
   1792   1793   1797     1   110.1900474 564.840000
   1792   1793   1806     1   107.9700462 569.024000
   1793   1792   1811     1   111.0400475 552.288000
   1797   1793   1806     1   109.3800466 607.516800
   1799   1788   1806     1   107.9700462 569.024000
   1812   1813   1815     1   111.5100476 526.347200
   1812   1813   1833     1   110.1900474 564.840000
   1812   1823   1828     1   110.1900474 564.840000
   1812   1830   1817     1   112.4800480 524.673600
   1813   1812   1823     1   111.5100476 526.347200
   1813   1812   1830     1   107.9700462 569.024000
   1813   1815   1816     1   111.5100476 526.347200
   1813   1815   1822     1   110.1900474 564.840000
   1815   1813   1833     1   110.1900474 564.840000
   1815   1816   1817     1   111.5100476 526.347200
   1815   1816   1835     1   111.0400475 552.288000
   1816   1815   1822     1   110.1900474 564.840000
   1816   1817   1821     1   110.1900474 564.840000
   1816   1817   1830     1   107.9700462 569.024000
   1817   1816   1835     1   111.0400475 552.288000
   1821   1817   1830     1   109.3800466 607.516800
   1823   1812   1830     1   107.9700462 569.024000
   1836   1838   1840     1   111.6100477 551.451200
   1838   1840   1844     1   111.0400475 552.288000
   1840   1844   1845     1   112.3500484 533.878400
   1840   1844   1846     1   112.3500484 533.878400
   1844   1845   1856     1   111.0400475 552.288000
   1844   1846   1848     1   111.0400475 552.288000
   1845   1856   1859     1   111.0400475 529.694400
   1845   1844   1846     1   112.3500484 533.878400
   1846   1848   1852     1   111.0400475 529.694400
   1848   1852   1853     1   123.2000528 564.003200
   1848   1852   1884     1   112.2600482 538.062400
   1852   1884   1865     1   118.5150508 540.957728
   1853   1852   1884     1   118.8300510 581.576000
   1856   1859   1860     1   123.2000528 564.003200
   1856   1859   1908     1   112.2600482 538.062400
   1859   1908   1889     1   118.5150508 540.957728
   1860   1859   1908     1   118.8300510 581.576000
   1861   1862   1864     1   111.5100476 526.347200
   1861   1862   1882     1   110.1900474 564.840000
   1861   1872   1877     1   110.1900474 564.840000
   1861   1879   1866     1   112.4800480 524.673600
   1862   1864   1865     1   111.5100476 526.347200
   1862   1864   1871     1   110.1900474 564.840000
   1862   1861   1872     1   111.5100476 526.347200
   1862   1861   1879     1   107.9700462 569.024000
   1864   1865   1866     1   111.5100476 526.347200
   1864   1865   1884     1   111.0400475 552.288000
   1864   1862   1882     1   110.1900474 564.840000
   1865   1866   1870     1   110.1900474 564.840000
   1865   1866   1879     1   107.9700462 569.024000
   1865   1864   1871     1   110.1900474 564.840000
   1866   1865   1884     1   111.0400475 552.288000
   1870   1866   1879     1   109.3800466 607.516800
   1872   1861   1879     1   107.9700462 569.024000
   1885   1886   1888     1   111.5100476 526.347200
   1885   1886   1906     1   110.1900474 564.840000
   1885   1896   1901     1   110.1900474 564.840000
   1885   1903   1890     1   112.4800480 524.673600
   1886   1888   1889     1   111.5100476 526.347200
   1886   1888   1895     1   110.1900474 564.840000
   1886   1885   1896     1   111.5100476 526.347200
   1886   1885   1903     1   107.9700462 569.024000
   1888   1889   1890     1   111.5100476 526.347200
   1888   1889   1908     1   111.0400475 552.288000
   1888   1886   1906     1   110.1900474 564.840000
   1889   1890   1894     1   110.1900474 564.840000
   1889   1890   1903     1   107.9700462 569.024000
   1889   1888   1895     1   110.1900474 564.840000
   1890   1889   1908     1   111.0400475 552.288000
   1894   1890   1903     1   109.3800466 607.516800
   1896   1885   1903     1   107.9700462 569.024000
   1909   1911   1913     1   111.6100477 551.451200
   1911   1913   1917     1   111.0400475 552.288000
   1913   1917   1918     1   112.3500484 533.878400
   1913   1917   1919     1   112.3500484 533.878400
   1917   1918   1929     1   111.0400475 552.288000
   1917   1919   1921     1   111.0400475 552.288000
   1918   1917   1919     1   112.3500484 533.878400
   1918   1929   1932     1   111.0400475 529.694400
   1919   1921   1925     1   111.0400475 529.694400
   1921   1925   1926     1   123.2000528 564.003200
   1921   1925   1957     1   112.2600482 538.062400
   1925   1957   1938     1   118.5150508 540.957728
   1926   1925   1957     1   118.8300510 581.576000
   1929   1932   1933     1   123.2000528 564.003200
   1929   1932   1981     1   112.2600482 538.062400
   1932   1981   1962     1   118.5150508 540.957728
   1933   1932   1981     1   118.8300510 581.576000
   1934   1935   1937     1   111.5100476 526.347200
   1934   1935   1955     1   110.1900474 564.840000
   1934   1945   1950     1   110.1900474 564.840000
   1934   1952   1939     1   112.4800480 524.673600
   1935   1934   1945     1   111.5100476 526.347200
   1935   1934   1952     1   107.9700462 569.024000
   1935   1937   1938     1   111.5100476 526.347200
   1935   1937   1944     1   110.1900474 564.840000
   1937   1935   1955     1   110.1900474 564.840000
   1937   1938   1939     1   111.5100476 526.347200
   1937   1938   1957     1   111.0400475 552.288000
   1938   1937   1944     1   110.1900474 564.840000
   1938   1939   1943     1   110.1900474 564.840000
   1938   1939   1952     1   107.9700462 569.024000
   1939   1938   1957     1   111.0400475 552.288000
   1943   1939   1952     1   109.3800466 607.516800
   1945   1934   1952     1   107.9700462 569.024000
   1958   1959   1961     1   111.5100476 526.347200
   1958   1959   1979     1   110.1900474 564.840000
   1958   1969   1974     1   110.1900474 564.840000
   1958   1976   1963     1   112.4800480 524.673600
   1959   1958   1969     1   111.5100476 526.347200
   1959   1958   1976     1   107.9700462 569.024000
   1959   1961   1962     1   111.5100476 526.347200
   1959   1961   1968     1   110.1900474 564.840000
   1961   1959   1979     1   110.1900474 564.840000
   1961   1962   1963     1   111.5100476 526.347200
   1961   1962   1981     1   111.0400475 552.288000
   1962   1961   1968     1   110.1900474 564.840000
   1962   1963   1967     1   110.1900474 564.840000
   1962   1963   1976     1   107.9700462 569.024000
   1963   1962   1981     1   111.0400475 552.288000
   1967   1963   1976     1   109.3800466 607.516800
   1969   1958   1976     1   107.9700462 569.024000
   1982   1984   1986     1   111.6100477 551.451200
   1984   1986   1990     1   111.0400475 552.288000
   1986   1990   1991     1   112.3500484 533.878400
   1986   1990   1992     1   112.3500484 533.878400
   1990   1991   2002     1   111.0400475 552.288000
   1990   1992   1994     1   111.0400475 552.288000
   1991   2002   2005     1   111.0400475 529.694400
   1991   1990   1992     1   112.3500484 533.878400
   1992   1994   1998     1   111.0400475 529.694400
   1994   1998   1999     1   123.2000528 564.003200
   1994   1998   2030     1   112.2600482 538.062400
   1998   2030   2011     1   118.5150508 540.957728
   1999   1998   2030     1   118.8300510 581.576000
   2002   2005   2006     1   123.2000528 564.003200
   2002   2005   2054     1   112.2600482 538.062400
   2005   2054   2035     1   118.5150508 540.957728
   2006   2005   2054     1   118.8300510 581.576000
   2007   2008   2010     1   111.5100476 526.347200
   2007   2008   2028     1   110.1900474 564.840000
   2007   2018   2023     1   110.1900474 564.840000
   2007   2025   2012     1   112.4800480 524.673600
   2008   2010   2011     1   111.5100476 526.347200
   2008   2010   2017     1   110.1900474 564.840000
   2008   2007   2018     1   111.5100476 526.347200
   2008   2007   2025     1   107.9700462 569.024000
   2010   2011   2012     1   111.5100476 526.347200
   2010   2011   2030     1   111.0400475 552.288000
   2010   2008   2028     1   110.1900474 564.840000
   2011   2012   2016     1   110.1900474 564.840000
   2011   2012   2025     1   107.9700462 569.024000
   2011   2010   2017     1   110.1900474 564.840000
   2012   2011   2030     1   111.0400475 552.288000
   2016   2012   2025     1   109.3800466 607.516800
   2018   2007   2025     1   107.9700462 569.024000
   2031   2032   2034     1   111.5100476 526.347200
   2031   2032   2052     1   110.1900474 564.840000
   2031   2042   2047     1   110.1900474 564.840000
   2031   2049   2036     1   112.4800480 524.673600
   2032   2034   2035     1   111.5100476 526.347200
   2032   2034   2041     1   110.1900474 564.840000
   2032   2031   2042     1   111.5100476 526.347200
   2032   2031   2049     1   107.9700462 569.024000
   2034   2035   2036     1   111.5100476 526.347200
   2034   2035   2054     1   111.0400475 552.288000
   2034   2032   2052     1   110.1900474 564.840000
   2035   2036   2040     1   110.1900474 564.840000
   2035   2036   2049     1   107.9700462 569.024000
   2035   2034   2041     1   110.1900474 564.840000
   2036   2035   2054     1   111.0400475 552.288000
   2040   2036   2049     1   109.3800466 607.516800
   2042   2031   2049     1   107.9700462 569.024000
   2055   2057   2059     1   111.6100477 551.451200
   2057   2059   2063     1   111.0400475 552.288000
   2059   2063   2064     1   112.3500484 533.878400
   2059   2063   2065     1   112.3500484 533.878400
   2063   2064   2075     1   111.0400475 552.288000
   2063   2065   2067     1   111.0400475 552.288000
   2064   2063   2065     1   112.3500484 533.878400
   2064   2075   2078     1   111.0400475 529.694400
   2065   2067   2071     1   111.0400475 529.694400
   2067   2071   2072     1   123.2000528 564.003200
   2067   2071   2103     1   112.2600482 538.062400
   2071   2103   2084     1   118.5150508 540.957728
   2072   2071   2103     1   118.8300510 581.576000
   2075   2078   2079     1   123.2000528 564.003200
   2075   2078   2127     1   112.2600482 538.062400
   2078   2127   2108     1   118.5150508 540.957728
   2079   2078   2127     1   118.8300510 581.576000
   2080   2081   2083     1   111.5100476 526.347200
   2080   2081   2101     1   110.1900474 564.840000
   2080   2091   2096     1   110.1900474 564.840000
   2080   2098   2085     1   112.4800480 524.673600
   2081   2080   2091     1   111.5100476 526.347200
   2081   2080   2098     1   107.9700462 569.024000
   2081   2083   2084     1   111.5100476 526.347200
   2081   2083   2090     1   110.1900474 564.840000
   2083   2081   2101     1   110.1900474 564.840000
   2083   2084   2085     1   111.5100476 526.347200
   2083   2084   2103     1   111.0400475 552.288000
   2084   2083   2090     1   110.1900474 564.840000
   2084   2085   2089     1   110.1900474 564.840000
   2084   2085   2098     1   107.9700462 569.024000
   2085   2084   2103     1   111.0400475 552.288000
   2089   2085   2098     1   109.3800466 607.516800
   2091   2080   2098     1   107.9700462 569.024000
   2104   2105   2107     1   111.5100476 526.347200
   2104   2105   2125     1   110.1900474 564.840000
   2104   2115   2120     1   110.1900474 564.840000
   2104   2122   2109     1   112.4800480 524.673600
   2105   2104   2115     1   111.5100476 526.347200
   2105   2104   2122     1   107.9700462 569.024000
   2105   2107   2108     1   111.5100476 526.347200
   2105   2107   2114     1   110.1900474 564.840000
   2107   2105   2125     1   110.1900474 564.840000
   2107   2108   2109     1   111.5100476 526.347200
   2107   2108   2127     1   111.0400475 552.288000
   2108   2107   2114     1   110.1900474 564.840000
   2108   2109   2113     1   110.1900474 564.840000
   2108   2109   2122     1   107.9700462 569.024000
   2109   2108   2127     1   111.0400475 552.288000
   2113   2109   2122     1   109.3800466 607.516800
   2115   2104   2122     1   107.9700462 569.024000
   2128   2130   2132     1   111.6100477 551.451200
   2130   2132   2136     1   111.0400475 552.288000
   2132   2136   2137     1   112.3500484 533.878400
   2132   2136   2138     1   112.3500484 533.878400
   2136   2137   2148     1   111.0400475 552.288000
   2136   2138   2140     1   111.0400475 552.288000
   2137   2148   2151     1   111.0400475 529.694400
   2137   2136   2138     1   112.3500484 533.878400
   2138   2140   2144     1   111.0400475 529.694400
   2140   2144   2145     1   123.2000528 564.003200
   2140   2144   2176     1   112.2600482 538.062400
   2144   2176   2157     1   118.5150508 540.957728
   2145   2144   2176     1   118.8300510 581.576000
   2148   2151   2152     1   123.2000528 564.003200
   2148   2151   2200     1   112.2600482 538.062400
   2151   2200   2181     1   118.5150508 540.957728
   2152   2151   2200     1   118.8300510 581.576000
   2153   2154   2156     1   111.5100476 526.347200
   2153   2154   2174     1   110.1900474 564.840000
   2153   2164   2169     1   110.1900474 564.840000
   2153   2171   2158     1   112.4800480 524.673600
   2154   2156   2157     1   111.5100476 526.347200
   2154   2156   2163     1   110.1900474 564.840000
   2154   2153   2164     1   111.5100476 526.347200
   2154   2153   2171     1   107.9700462 569.024000
   2156   2157   2158     1   111.5100476 526.347200
   2156   2157   2176     1   111.0400475 552.288000
   2156   2154   2174     1   110.1900474 564.840000
   2157   2158   2162     1   110.1900474 564.840000
   2157   2158   2171     1   107.9700462 569.024000
   2157   2156   2163     1   110.1900474 564.840000
   2158   2157   2176     1   111.0400475 552.288000
   2162   2158   2171     1   109.3800466 607.516800
   2164   2153   2171     1   107.9700462 569.024000
   2177   2178   2180     1   111.5100476 526.347200
   2177   2178   2198     1   110.1900474 564.840000
   2177   2188   2193     1   110.1900474 564.840000
   2177   2195   2182     1   112.4800480 524.673600
   2178   2180   2181     1   111.5100476 526.347200
   2178   2180   2187     1   110.1900474 564.840000
   2178   2177   2188     1   111.5100476 526.347200
   2178   2177   2195     1   107.9700462 569.024000
   2180   2181   2182     1   111.5100476 526.347200
   2180   2181   2200     1   111.0400475 552.288000
   2180   2178   2198     1   110.1900474 564.840000
   2181   2182   2186     1   110.1900474 564.840000
   2181   2182   2195     1   107.9700462 569.024000
   2181   2180   2187     1   110.1900474 564.840000
   2182   2181   2200     1   111.0400475 552.288000
   2186   2182   2195     1   109.3800466 607.516800
   2188   2177   2195     1   107.9700462 569.024000
   2201   2203   2205     1   111.6100477 551.451200
   2203   2205   2209     1   111.0400475 552.288000
   2205   2209   2210     1   112.3500484 533.878400
   2205   2209   2211     1   112.3500484 533.878400
   2209   2210   2221     1   111.0400475 552.288000
   2209   2211   2213     1   111.0400475 552.288000
   2210   2209   2211     1   112.3500484 533.878400
   2210   2221   2224     1   111.0400475 529.694400
   2211   2213   2217     1   111.0400475 529.694400
   2213   2217   2218     1   123.2000528 564.003200
   2213   2217   2249     1   112.2600482 538.062400
   2217   2249   2230     1   118.5150508 540.957728
   2218   2217   2249     1   118.8300510 581.576000
   2221   2224   2225     1   123.2000528 564.003200
   2221   2224   2273     1   112.2600482 538.062400
   2224   2273   2254     1   118.5150508 540.957728
   2225   2224   2273     1   118.8300510 581.576000
   2226   2227   2229     1   111.5100476 526.347200
   2226   2227   2247     1   110.1900474 564.840000
   2226   2237   2242     1   110.1900474 564.840000
   2226   2244   2231     1   112.4800480 524.673600
   2227   2226   2237     1   111.5100476 526.347200
   2227   2226   2244     1   107.9700462 569.024000
   2227   2229   2230     1   111.5100476 526.347200
   2227   2229   2236     1   110.1900474 564.840000
   2229   2227   2247     1   110.1900474 564.840000
   2229   2230   2231     1   111.5100476 526.347200
   2229   2230   2249     1   111.0400475 552.288000
   2230   2229   2236     1   110.1900474 564.840000
   2230   2231   2235     1   110.1900474 564.840000
   2230   2231   2244     1   107.9700462 569.024000
   2231   2230   2249     1   111.0400475 552.288000
   2235   2231   2244     1   109.3800466 607.516800
   2237   2226   2244     1   107.9700462 569.024000
   2250   2251   2253     1   111.5100476 526.347200
   2250   2251   2271     1   110.1900474 564.840000
   2250   2261   2266     1   110.1900474 564.840000
   2250   2268   2255     1   112.4800480 524.673600
   2251   2250   2261     1   111.5100476 526.347200
   2251   2250   2268     1   107.9700462 569.024000
   2251   2253   2254     1   111.5100476 526.347200
   2251   2253   2260     1   110.1900474 564.840000
   2253   2251   2271     1   110.1900474 564.840000
   2253   2254   2255     1   111.5100476 526.347200
   2253   2254   2273     1   111.0400475 552.288000
   2254   2253   2260     1   110.1900474 564.840000
   2254   2255   2259     1   110.1900474 564.840000
   2254   2255   2268     1   107.9700462 569.024000
   2255   2254   2273     1   111.0400475 552.288000
   2259   2255   2268     1   109.3800466 607.516800
   2261   2250   2268     1   107.9700462 569.024000
   2274   2276   2278     1   111.6100477 551.451200
   2276   2278   2282     1   111.0400475 552.288000
   2278   2282   2283     1   112.3500484 533.878400
   2278   2282   2284     1   112.3500484 533.878400
   2282   2283   2294     1   111.0400475 552.288000
   2282   2284   2286     1   111.0400475 552.288000
   2283   2294   2297     1   111.0400475 529.694400
   2283   2282   2284     1   112.3500484 533.878400
   2284   2286   2290     1   111.0400475 529.694400
   2286   2290   2291     1   123.2000528 564.003200
   2286   2290   2322     1   112.2600482 538.062400
   2290   2322   2303     1   118.5150508 540.957728
   2291   2290   2322     1   118.8300510 581.576000
   2294   2297   2298     1   123.2000528 564.003200
   2294   2297   2346     1   112.2600482 538.062400
   2297   2346   2327     1   118.5150508 540.957728
   2298   2297   2346     1   118.8300510 581.576000
   2299   2300   2302     1   111.5100476 526.347200
   2299   2300   2320     1   110.1900474 564.840000
   2299   2310   2315     1   110.1900474 564.840000
   2299   2317   2304     1   112.4800480 524.673600
   2300   2302   2303     1   111.5100476 526.347200
   2300   2302   2309     1   110.1900474 564.840000
   2300   2299   2310     1   111.5100476 526.347200
   2300   2299   2317     1   107.9700462 569.024000
   2302   2303   2304     1   111.5100476 526.347200
   2302   2303   2322     1   111.0400475 552.288000
   2302   2300   2320     1   110.1900474 564.840000
   2303   2304   2308     1   110.1900474 564.840000
   2303   2304   2317     1   107.9700462 569.024000
   2303   2302   2309     1   110.1900474 564.840000
   2304   2303   2322     1   111.0400475 552.288000
   2308   2304   2317     1   109.3800466 607.516800
   2310   2299   2317     1   107.9700462 569.024000
   2323   2324   2326     1   111.5100476 526.347200
   2323   2324   2344     1   110.1900474 564.840000
   2323   2334   2339     1   110.1900474 564.840000
   2323   2341   2328     1   112.4800480 524.673600
   2324   2326   2327     1   111.5100476 526.347200
   2324   2326   2333     1   110.1900474 564.840000
   2324   2323   2334     1   111.5100476 526.347200
   2324   2323   2341     1   107.9700462 569.024000
   2326   2327   2328     1   111.5100476 526.347200
   2326   2327   2346     1   111.0400475 552.288000
   2326   2324   2344     1   110.1900474 564.840000
   2327   2328   2332     1   110.1900474 564.840000
   2327   2328   2341     1   107.9700462 569.024000
   2327   2326   2333     1   110.1900474 564.840000
   2328   2327   2346     1   111.0400475 552.288000
   2332   2328   2341     1   109.3800466 607.516800
   2334   2323   2341     1   107.9700462 569.024000
   2347   2349   2351     1   111.6100477 551.451200
   2349   2351   2355     1   111.0400475 552.288000
   2351   2355   2356     1   112.3500484 533.878400
   2351   2355   2357     1   112.3500484 533.878400
   2355   2356   2367     1   111.0400475 552.288000
   2355   2357   2359     1   111.0400475 552.288000
   2356   2355   2357     1   112.3500484 533.878400
   2356   2367   2370     1   111.0400475 529.694400
   2357   2359   2363     1   111.0400475 529.694400
   2359   2363   2364     1   123.2000528 564.003200
   2359   2363   2395     1   112.2600482 538.062400
   2363   2395   2376     1   118.5150508 540.957728
   2364   2363   2395     1   118.8300510 581.576000
   2367   2370   2371     1   123.2000528 564.003200
   2367   2370   2419     1   112.2600482 538.062400
   2370   2419   2400     1   118.5150508 540.957728
   2371   2370   2419     1   118.8300510 581.576000
   2372   2373   2375     1   111.5100476 526.347200
   2372   2373   2393     1   110.1900474 564.840000
   2372   2383   2388     1   110.1900474 564.840000
   2372   2390   2377     1   112.4800480 524.673600
   2373   2372   2383     1   111.5100476 526.347200
   2373   2372   2390     1   107.9700462 569.024000
   2373   2375   2376     1   111.5100476 526.347200
   2373   2375   2382     1   110.1900474 564.840000
   2375   2373   2393     1   110.1900474 564.840000
   2375   2376   2377     1   111.5100476 526.347200
   2375   2376   2395     1   111.0400475 552.288000
   2376   2375   2382     1   110.1900474 564.840000
   2376   2377   2381     1   110.1900474 564.840000
   2376   2377   2390     1   107.9700462 569.024000
   2377   2376   2395     1   111.0400475 552.288000
   2381   2377   2390     1   109.3800466 607.516800
   2383   2372   2390     1   107.9700462 569.024000
   2396   2397   2399     1   111.5100476 526.347200
   2396   2397   2417     1   110.1900474 564.840000
   2396   2407   2412     1   110.1900474 564.840000
   2396   2414   2401     1   112.4800480 524.673600
   2397   2396   2407     1   111.5100476 526.347200
   2397   2396   2414     1   107.9700462 569.024000
   2397   2399   2400     1   111.5100476 526.347200
   2397   2399   2406     1   110.1900474 564.840000
   2399   2397   2417     1   110.1900474 564.840000
   2399   2400   2401     1   111.5100476 526.347200
   2399   2400   2419     1   111.0400475 552.288000
   2400   2399   2406     1   110.1900474 564.840000
   2400   2401   2405     1   110.1900474 564.840000
   2400   2401   2414     1   107.9700462 569.024000
   2401   2400   2419     1   111.0400475 552.288000
   2405   2401   2414     1   109.3800466 607.516800
   2407   2396   2414     1   107.9700462 569.024000
   2420   2422   2424     1   111.6100477 551.451200
   2422   2424   2428     1   111.0400475 552.288000
   2424   2428   2429     1   112.3500484 533.878400
   2424   2428   2430     1   112.3500484 533.878400
   2428   2429   2440     1   111.0400475 552.288000
   2428   2430   2432     1   111.0400475 552.288000
   2429   2440   2443     1   111.0400475 529.694400
   2429   2428   2430     1   112.3500484 533.878400
   2430   2432   2436     1   111.0400475 529.694400
   2432   2436   2437     1   123.2000528 564.003200
   2432   2436   2468     1   112.2600482 538.062400
   2436   2468   2449     1   118.5150508 540.957728
   2437   2436   2468     1   118.8300510 581.576000
   2440   2443   2444     1   123.2000528 564.003200
   2440   2443   2492     1   112.2600482 538.062400
   2443   2492   2473     1   118.5150508 540.957728
   2444   2443   2492     1   118.8300510 581.576000
   2445   2446   2448     1   111.5100476 526.347200
   2445   2446   2466     1   110.1900474 564.840000
   2445   2456   2461     1   110.1900474 564.840000
   2445   2463   2450     1   112.4800480 524.673600
   2446   2448   2449     1   111.5100476 526.347200
   2446   2448   2455     1   110.1900474 564.840000
   2446   2445   2456     1   111.5100476 526.347200
   2446   2445   2463     1   107.9700462 569.024000
   2448   2449   2450     1   111.5100476 526.347200
   2448   2449   2468     1   111.0400475 552.288000
   2448   2446   2466     1   110.1900474 564.840000
   2449   2450   2454     1   110.1900474 564.840000
   2449   2450   2463     1   107.9700462 569.024000
   2449   2448   2455     1   110.1900474 564.840000
   2450   2449   2468     1   111.0400475 552.288000
   2454   2450   2463     1   109.3800466 607.516800
   2456   2445   2463     1   107.9700462 569.024000
   2469   2470   2472     1   111.5100476 526.347200
   2469   2470   2490     1   110.1900474 564.840000
   2469   2480   2485     1   110.1900474 564.840000
   2469   2487   2474     1   112.4800480 524.673600
   2470   2472   2473     1   111.5100476 526.347200
   2470   2472   2479     1   110.1900474 564.840000
   2470   2469   2480     1   111.5100476 526.347200
   2470   2469   2487     1   107.9700462 569.024000
   2472   2473   2474     1   111.5100476 526.347200
   2472   2473   2492     1   111.0400475 552.288000
   2472   2470   2490     1   110.1900474 564.840000
   2473   2474   2478     1   110.1900474 564.840000
   2473   2474   2487     1   107.9700462 569.024000
   2473   2472   2479     1   110.1900474 564.840000
   2474   2473   2492     1   111.0400475 552.288000
   2478   2474   2487     1   109.3800466 607.516800
   2480   2469   2487     1   107.9700462 569.024000
   2493   2495   2497     1   111.6100477 551.451200
   2495   2497   2501     1   111.0400475 552.288000
   2497   2501   2502     1   112.3500484 533.878400
   2497   2501   2503     1   112.3500484 533.878400
   2501   2502   2513     1   111.0400475 552.288000
   2501   2503   2505     1   111.0400475 552.288000
   2502   2501   2503     1   112.3500484 533.878400
   2502   2513   2516     1   111.0400475 529.694400
   2503   2505   2509     1   111.0400475 529.694400
   2505   2509   2510     1   123.2000528 564.003200
   2505   2509   2541     1   112.2600482 538.062400
   2509   2541   2522     1   118.5150508 540.957728
   2510   2509   2541     1   118.8300510 581.576000
   2513   2516   2517     1   123.2000528 564.003200
   2513   2516   2565     1   112.2600482 538.062400
   2516   2565   2546     1   118.5150508 540.957728
   2517   2516   2565     1   118.8300510 581.576000
   2518   2519   2521     1   111.5100476 526.347200
   2518   2519   2539     1   110.1900474 564.840000
   2518   2529   2534     1   110.1900474 564.840000
   2518   2536   2523     1   112.4800480 524.673600
   2519   2518   2529     1   111.5100476 526.347200
   2519   2518   2536     1   107.9700462 569.024000
   2519   2521   2522     1   111.5100476 526.347200
   2519   2521   2528     1   110.1900474 564.840000
   2521   2519   2539     1   110.1900474 564.840000
   2521   2522   2523     1   111.5100476 526.347200
   2521   2522   2541     1   111.0400475 552.288000
   2522   2521   2528     1   110.1900474 564.840000
   2522   2523   2527     1   110.1900474 564.840000
   2522   2523   2536     1   107.9700462 569.024000
   2523   2522   2541     1   111.0400475 552.288000
   2527   2523   2536     1   109.3800466 607.516800
   2529   2518   2536     1   107.9700462 569.024000
   2542   2543   2545     1   111.5100476 526.347200
   2542   2543   2563     1   110.1900474 564.840000
   2542   2553   2558     1   110.1900474 564.840000
   2542   2560   2547     1   112.4800480 524.673600
   2543   2542   2553     1   111.5100476 526.347200
   2543   2542   2560     1   107.9700462 569.024000
   2543   2545   2546     1   111.5100476 526.347200
   2543   2545   2552     1   110.1900474 564.840000
   2545   2543   2563     1   110.1900474 564.840000
   2545   2546   2547     1   111.5100476 526.347200
   2545   2546   2565     1   111.0400475 552.288000
   2546   2545   2552     1   110.1900474 564.840000
   2546   2547   2551     1   110.1900474 564.840000
   2546   2547   2560     1   107.9700462 569.024000
   2547   2546   2565     1   111.0400475 552.288000
   2551   2547   2560     1   109.3800466 607.516800
   2553   2542   2560     1   107.9700462 569.024000
   2566   2568   2570     1   111.6100477 551.451200
   2568   2570   2574     1   111.0400475 552.288000
   2570   2574   2575     1   112.3500484 533.878400
   2570   2574   2576     1   112.3500484 533.878400
   2574   2575   2586     1   111.0400475 552.288000
   2574   2576   2578     1   111.0400475 552.288000
   2575   2586   2589     1   111.0400475 529.694400
   2575   2574   2576     1   112.3500484 533.878400
   2576   2578   2582     1   111.0400475 529.694400
   2578   2582   2583     1   123.2000528 564.003200
   2578   2582   2614     1   112.2600482 538.062400
   2582   2614   2595     1   118.5150508 540.957728
   2583   2582   2614     1   118.8300510 581.576000
   2586   2589   2590     1   123.2000528 564.003200
   2586   2589   2638     1   112.2600482 538.062400
   2589   2638   2619     1   118.5150508 540.957728
   2590   2589   2638     1   118.8300510 581.576000
   2591   2592   2594     1   111.5100476 526.347200
   2591   2592   2612     1   110.1900474 564.840000
   2591   2602   2607     1   110.1900474 564.840000
   2591   2609   2596     1   112.4800480 524.673600
   2592   2594   2595     1   111.5100476 526.347200
   2592   2594   2601     1   110.1900474 564.840000
   2592   2591   2602     1   111.5100476 526.347200
   2592   2591   2609     1   107.9700462 569.024000
   2594   2595   2596     1   111.5100476 526.347200
   2594   2595   2614     1   111.0400475 552.288000
   2594   2592   2612     1   110.1900474 564.840000
   2595   2596   2600     1   110.1900474 564.840000
   2595   2596   2609     1   107.9700462 569.024000
   2595   2594   2601     1   110.1900474 564.840000
   2596   2595   2614     1   111.0400475 552.288000
   2600   2596   2609     1   109.3800466 607.516800
   2602   2591   2609     1   107.9700462 569.024000
   2615   2616   2618     1   111.5100476 526.347200
   2615   2616   2636     1   110.1900474 564.840000
   2615   2626   2631     1   110.1900474 564.840000
   2615   2633   2620     1   112.4800480 524.673600
   2616   2618   2619     1   111.5100476 526.347200
   2616   2618   2625     1   110.1900474 564.840000
   2616   2615   2626     1   111.5100476 526.347200
   2616   2615   2633     1   107.9700462 569.024000
   2618   2619   2620     1   111.5100476 526.347200
   2618   2619   2638     1   111.0400475 552.288000
   2618   2616   2636     1   110.1900474 564.840000
   2619   2620   2624     1   110.1900474 564.840000
   2619   2620   2633     1   107.9700462 569.024000
   2619   2618   2625     1   110.1900474 564.840000
   2620   2619   2638     1   111.0400475 552.288000
   2624   2620   2633     1   109.3800466 607.516800
   2626   2615   2633     1   107.9700462 569.024000
   2639   2641   2643     1   111.6100477 551.451200
   2641   2643   2647     1   111.0400475 552.288000
   2643   2647   2648     1   112.3500484 533.878400
   2643   2647   2649     1   112.3500484 533.878400
   2647   2648   2659     1   111.0400475 552.288000
   2647   2649   2651     1   111.0400475 552.288000
   2648   2647   2649     1   112.3500484 533.878400
   2648   2659   2662     1   111.0400475 529.694400
   2649   2651   2655     1   111.0400475 529.694400
   2651   2655   2656     1   123.2000528 564.003200
   2651   2655   2687     1   112.2600482 538.062400
   2655   2687   2668     1   118.5150508 540.957728
   2656   2655   2687     1   118.8300510 581.576000
   2659   2662   2663     1   123.2000528 564.003200
   2659   2662   2711     1   112.2600482 538.062400
   2662   2711   2692     1   118.5150508 540.957728
   2663   2662   2711     1   118.8300510 581.576000
   2664   2665   2667     1   111.5100476 526.347200
   2664   2665   2685     1   110.1900474 564.840000
   2664   2675   2680     1   110.1900474 564.840000
   2664   2682   2669     1   112.4800480 524.673600
   2665   2664   2675     1   111.5100476 526.347200
   2665   2664   2682     1   107.9700462 569.024000
   2665   2667   2668     1   111.5100476 526.347200
   2665   2667   2674     1   110.1900474 564.840000
   2667   2665   2685     1   110.1900474 564.840000
   2667   2668   2669     1   111.5100476 526.347200
   2667   2668   2687     1   111.0400475 552.288000
   2668   2667   2674     1   110.1900474 564.840000
   2668   2669   2673     1   110.1900474 564.840000
   2668   2669   2682     1   107.9700462 569.024000
   2669   2668   2687     1   111.0400475 552.288000
   2673   2669   2682     1   109.3800466 607.516800
   2675   2664   2682     1   107.9700462 569.024000
   2688   2689   2691     1   111.5100476 526.347200
   2688   2689   2709     1   110.1900474 564.840000
   2688   2699   2704     1   110.1900474 564.840000
   2688   2706   2693     1   112.4800480 524.673600
   2689   2688   2699     1   111.5100476 526.347200
   2689   2688   2706     1   107.9700462 569.024000
   2689   2691   2692     1   111.5100476 526.347200
   2689   2691   2698     1   110.1900474 564.840000
   2691   2689   2709     1   110.1900474 564.840000
   2691   2692   2693     1   111.5100476 526.347200
   2691   2692   2711     1   111.0400475 552.288000
   2692   2691   2698     1   110.1900474 564.840000
   2692   2693   2697     1   110.1900474 564.840000
   2692   2693   2706     1   107.9700462 569.024000
   2693   2692   2711     1   111.0400475 552.288000
   2697   2693   2706     1   109.3800466 607.516800
   2699   2688   2706     1   107.9700462 569.024000
   2712   2714   2716     1   111.6100477 551.451200
   2714   2716   2720     1   111.0400475 552.288000
   2716   2720   2721     1   112.3500484 533.878400
   2716   2720   2722     1   112.3500484 533.878400
   2720   2721   2732     1   111.0400475 552.288000
   2720   2722   2724     1   111.0400475 552.288000
   2721   2732   2735     1   111.0400475 529.694400
   2721   2720   2722     1   112.3500484 533.878400
   2722   2724   2728     1   111.0400475 529.694400
   2724   2728   2729     1   123.2000528 564.003200
   2724   2728   2760     1   112.2600482 538.062400
   2728   2760   2741     1   118.5150508 540.957728
   2729   2728   2760     1   118.8300510 581.576000
   2732   2735   2736     1   123.2000528 564.003200
   2732   2735   2784     1   112.2600482 538.062400
   2735   2784   2765     1   118.5150508 540.957728
   2736   2735   2784     1   118.8300510 581.576000
   2737   2738   2740     1   111.5100476 526.347200
   2737   2738   2758     1   110.1900474 564.840000
   2737   2748   2753     1   110.1900474 564.840000
   2737   2755   2742     1   112.4800480 524.673600
   2738   2740   2741     1   111.5100476 526.347200
   2738   2740   2747     1   110.1900474 564.840000
   2738   2737   2748     1   111.5100476 526.347200
   2738   2737   2755     1   107.9700462 569.024000
   2740   2741   2742     1   111.5100476 526.347200
   2740   2741   2760     1   111.0400475 552.288000
   2740   2738   2758     1   110.1900474 564.840000
   2741   2742   2746     1   110.1900474 564.840000
   2741   2742   2755     1   107.9700462 569.024000
   2741   2740   2747     1   110.1900474 564.840000
   2742   2741   2760     1   111.0400475 552.288000
   2746   2742   2755     1   109.3800466 607.516800
   2748   2737   2755     1   107.9700462 569.024000
   2761   2762   2764     1   111.5100476 526.347200
   2761   2762   2782     1   110.1900474 564.840000
   2761   2772   2777     1   110.1900474 564.840000
   2761   2779   2766     1   112.4800480 524.673600
   2762   2764   2765     1   111.5100476 526.347200
   2762   2764   2771     1   110.1900474 564.840000
   2762   2761   2772     1   111.5100476 526.347200
   2762   2761   2779     1   107.9700462 569.024000
   2764   2765   2766     1   111.5100476 526.347200
   2764   2765   2784     1   111.0400475 552.288000
   2764   2762   2782     1   110.1900474 564.840000
   2765   2766   2770     1   110.1900474 564.840000
   2765   2766   2779     1   107.9700462 569.024000
   2765   2764   2771     1   110.1900474 564.840000
   2766   2765   2784     1   111.0400475 552.288000
   2770   2766   2779     1   109.3800466 607.516800
   2772   2761   2779     1   107.9700462 569.024000
   2785   2787   2789     1   111.6100477 551.451200
   2787   2789   2793     1   111.0400475 552.288000
   2789   2793   2794     1   112.3500484 533.878400
   2789   2793   2795     1   112.3500484 533.878400
   2793   2794   2805     1   111.0400475 552.288000
   2793   2795   2797     1   111.0400475 552.288000
   2794   2793   2795     1   112.3500484 533.878400
   2794   2805   2808     1   111.0400475 529.694400
   2795   2797   2801     1   111.0400475 529.694400
   2797   2801   2802     1   123.2000528 564.003200
   2797   2801   2833     1   112.2600482 538.062400
   2801   2833   2814     1   118.5150508 540.957728
   2802   2801   2833     1   118.8300510 581.576000
   2805   2808   2809     1   123.2000528 564.003200
   2805   2808   2857     1   112.2600482 538.062400
   2808   2857   2838     1   118.5150508 540.957728
   2809   2808   2857     1   118.8300510 581.576000
   2810   2811   2813     1   111.5100476 526.347200
   2810   2811   2831     1   110.1900474 564.840000
   2810   2821   2826     1   110.1900474 564.840000
   2810   2828   2815     1   112.4800480 524.673600
   2811   2810   2821     1   111.5100476 526.347200
   2811   2810   2828     1   107.9700462 569.024000
   2811   2813   2814     1   111.5100476 526.347200
   2811   2813   2820     1   110.1900474 564.840000
   2813   2811   2831     1   110.1900474 564.840000
   2813   2814   2815     1   111.5100476 526.347200
   2813   2814   2833     1   111.0400475 552.288000
   2814   2813   2820     1   110.1900474 564.840000
   2814   2815   2819     1   110.1900474 564.840000
   2814   2815   2828     1   107.9700462 569.024000
   2815   2814   2833     1   111.0400475 552.288000
   2819   2815   2828     1   109.3800466 607.516800
   2821   2810   2828     1   107.9700462 569.024000
   2834   2835   2837     1   111.5100476 526.347200
   2834   2835   2855     1   110.1900474 564.840000
   2834   2845   2850     1   110.1900474 564.840000
   2834   2852   2839     1   112.4800480 524.673600
   2835   2834   2845     1   111.5100476 526.347200
   2835   2834   2852     1   107.9700462 569.024000
   2835   2837   2838     1   111.5100476 526.347200
   2835   2837   2844     1   110.1900474 564.840000
   2837   2835   2855     1   110.1900474 564.840000
   2837   2838   2839     1   111.5100476 526.347200
   2837   2838   2857     1   111.0400475 552.288000
   2838   2837   2844     1   110.1900474 564.840000
   2838   2839   2843     1   110.1900474 564.840000
   2838   2839   2852     1   107.9700462 569.024000
   2839   2838   2857     1   111.0400475 552.288000
   2843   2839   2852     1   109.3800466 607.516800
   2845   2834   2852     1   107.9700462 569.024000
   2858   2860   2862     1   111.6100477 551.451200
   2860   2862   2866     1   111.0400475 552.288000
   2862   2866   2867     1   112.3500484 533.878400
   2862   2866   2868     1   112.3500484 533.878400
   2866   2867   2878     1   111.0400475 552.288000
   2866   2868   2870     1   111.0400475 552.288000
   2867   2878   2881     1   111.0400475 529.694400
   2867   2866   2868     1   112.3500484 533.878400
   2868   2870   2874     1   111.0400475 529.694400
   2870   2874   2875     1   123.2000528 564.003200
   2870   2874   2906     1   112.2600482 538.062400
   2874   2906   2887     1   118.5150508 540.957728
   2875   2874   2906     1   118.8300510 581.576000
   2878   2881   2882     1   123.2000528 564.003200
   2878   2881   2930     1   112.2600482 538.062400
   2881   2930   2911     1   118.5150508 540.957728
   2882   2881   2930     1   118.8300510 581.576000
   2883   2884   2886     1   111.5100476 526.347200
   2883   2884   2904     1   110.1900474 564.840000
   2883   2894   2899     1   110.1900474 564.840000
   2883   2901   2888     1   112.4800480 524.673600
   2884   2886   2887     1   111.5100476 526.347200
   2884   2886   2893     1   110.1900474 564.840000
   2884   2883   2894     1   111.5100476 526.347200
   2884   2883   2901     1   107.9700462 569.024000
   2886   2887   2888     1   111.5100476 526.347200
   2886   2887   2906     1   111.0400475 552.288000
   2886   2884   2904     1   110.1900474 564.840000
   2887   2888   2892     1   110.1900474 564.840000
   2887   2888   2901     1   107.9700462 569.024000
   2887   2886   2893     1   110.1900474 564.840000
   2888   2887   2906     1   111.0400475 552.288000
   2892   2888   2901     1   109.3800466 607.516800
   2894   2883   2901     1   107.9700462 569.024000
   2907   2908   2910     1   111.5100476 526.347200
   2907   2908   2928     1   110.1900474 564.840000
   2907   2918   2923     1   110.1900474 564.840000
   2907   2925   2912     1   112.4800480 524.673600
   2908   2910   2911     1   111.5100476 526.347200
   2908   2910   2917     1   110.1900474 564.840000
   2908   2907   2918     1   111.5100476 526.347200
   2908   2907   2925     1   107.9700462 569.024000
   2910   2911   2912     1   111.5100476 526.347200
   2910   2911   2930     1   111.0400475 552.288000
   2910   2908   2928     1   110.1900474 564.840000
   2911   2912   2916     1   110.1900474 564.840000
   2911   2912   2925     1   107.9700462 569.024000
   2911   2910   2917     1   110.1900474 564.840000
   2912   2911   2930     1   111.0400475 552.288000
   2916   2912   2925     1   109.3800466 607.516800
   2918   2907   2925     1   107.9700462 569.024000
   2931   2933   2935     1   111.6100477 551.451200
   2933   2935   2939     1   111.0400475 552.288000
   2935   2939   2940     1   112.3500484 533.878400
   2935   2939   2941     1   112.3500484 533.878400
   2939   2940   2951     1   111.0400475 552.288000
   2939   2941   2943     1   111.0400475 552.288000
   2940   2939   2941     1   112.3500484 533.878400
   2940   2951   2954     1   111.0400475 529.694400
   2941   2943   2947     1   111.0400475 529.694400
   2943   2947   2948     1   123.2000528 564.003200
   2943   2947   2979     1   112.2600482 538.062400
   2947   2979   2960     1   118.5150508 540.957728
   2948   2947   2979     1   118.8300510 581.576000
   2951   2954   2955     1   123.2000528 564.003200
   2951   2954   3003     1   112.2600482 538.062400
   2954   3003   2984     1   118.5150508 540.957728
   2955   2954   3003     1   118.8300510 581.576000
   2956   2957   2959     1   111.5100476 526.347200
   2956   2957   2977     1   110.1900474 564.840000
   2956   2967   2972     1   110.1900474 564.840000
   2956   2974   2961     1   112.4800480 524.673600
   2957   2956   2967     1   111.5100476 526.347200
   2957   2956   2974     1   107.9700462 569.024000
   2957   2959   2960     1   111.5100476 526.347200
   2957   2959   2966     1   110.1900474 564.840000
   2959   2957   2977     1   110.1900474 564.840000
   2959   2960   2961     1   111.5100476 526.347200
   2959   2960   2979     1   111.0400475 552.288000
   2960   2959   2966     1   110.1900474 564.840000
   2960   2961   2965     1   110.1900474 564.840000
   2960   2961   2974     1   107.9700462 569.024000
   2961   2960   2979     1   111.0400475 552.288000
   2965   2961   2974     1   109.3800466 607.516800
   2967   2956   2974     1   107.9700462 569.024000
   2980   2981   2983     1   111.5100476 526.347200
   2980   2981   3001     1   110.1900474 564.840000
   2980   2991   2996     1   110.1900474 564.840000
   2980   2998   2985     1   112.4800480 524.673600
   2981   2980   2991     1   111.5100476 526.347200
   2981   2980   2998     1   107.9700462 569.024000
   2981   2983   2984     1   111.5100476 526.347200
   2981   2983   2990     1   110.1900474 564.840000
   2983   2981   3001     1   110.1900474 564.840000
   2983   2984   2985     1   111.5100476 526.347200
   2983   2984   3003     1   111.0400475 552.288000
   2984   2983   2990     1   110.1900474 564.840000
   2984   2985   2989     1   110.1900474 564.840000
   2984   2985   2998     1   107.9700462 569.024000
   2985   2984   3003     1   111.0400475 552.288000
   2989   2985   2998     1   109.3800466 607.516800
   2991   2980   2998     1   107.9700462 569.024000
   3004   3006   3008     1   111.6100477 551.451200
   3006   3008   3012     1   111.0400475 552.288000
   3008   3012   3013     1   112.3500484 533.878400
   3008   3012   3014     1   112.3500484 533.878400
   3012   3013   3024     1   111.0400475 552.288000
   3012   3014   3016     1   111.0400475 552.288000
   3013   3024   3027     1   111.0400475 529.694400
   3013   3012   3014     1   112.3500484 533.878400
   3014   3016   3020     1   111.0400475 529.694400
   3016   3020   3021     1   123.2000528 564.003200
   3016   3020   3052     1   112.2600482 538.062400
   3020   3052   3033     1   118.5150508 540.957728
   3021   3020   3052     1   118.8300510 581.576000
   3024   3027   3028     1   123.2000528 564.003200
   3024   3027   3076     1   112.2600482 538.062400
   3027   3076   3057     1   118.5150508 540.957728
   3028   3027   3076     1   118.8300510 581.576000
   3029   3030   3032     1   111.5100476 526.347200
   3029   3030   3050     1   110.1900474 564.840000
   3029   3040   3045     1   110.1900474 564.840000
   3029   3047   3034     1   112.4800480 524.673600
   3030   3032   3033     1   111.5100476 526.347200
   3030   3032   3039     1   110.1900474 564.840000
   3030   3029   3040     1   111.5100476 526.347200
   3030   3029   3047     1   107.9700462 569.024000
   3032   3033   3034     1   111.5100476 526.347200
   3032   3033   3052     1   111.0400475 552.288000
   3032   3030   3050     1   110.1900474 564.840000
   3033   3034   3038     1   110.1900474 564.840000
   3033   3034   3047     1   107.9700462 569.024000
   3033   3032   3039     1   110.1900474 564.840000
   3034   3033   3052     1   111.0400475 552.288000
   3038   3034   3047     1   109.3800466 607.516800
   3040   3029   3047     1   107.9700462 569.024000
   3053   3054   3056     1   111.5100476 526.347200
   3053   3054   3074     1   110.1900474 564.840000
   3053   3064   3069     1   110.1900474 564.840000
   3053   3071   3058     1   112.4800480 524.673600
   3054   3056   3057     1   111.5100476 526.347200
   3054   3056   3063     1   110.1900474 564.840000
   3054   3053   3064     1   111.5100476 526.347200
   3054   3053   3071     1   107.9700462 569.024000
   3056   3057   3058     1   111.5100476 526.347200
   3056   3057   3076     1   111.0400475 552.288000
   3056   3054   3074     1   110.1900474 564.840000
   3057   3058   3062     1   110.1900474 564.840000
   3057   3058   3071     1   107.9700462 569.024000
   3057   3056   3063     1   110.1900474 564.840000
   3058   3057   3076     1   111.0400475 552.288000
   3062   3058   3071     1   109.3800466 607.516800
   3064   3053   3071     1   107.9700462 569.024000
      1      4      5     1   109.5600471 388.275200
      1      4      6     1   109.5600471 388.275200
      2      1      4     1   109.5600471 388.275200
      2      1      8     1   109.8800469 414.216000
      2      1      3     1   108.4600466 328.025600
      3      1      4     1   109.5600471 388.275200
      3      1      8     1   109.8800469 414.216000
      5      4      7     1   109.8800469 414.216000
      5      4      6     1   108.4600466 328.025600
      6      4      7     1   109.8800469 414.216000
      7     15     16     1   109.8800469 414.216000
      7     15     17     1   109.8800469 414.216000
      7     18     19     1   109.8800469 414.216000
      7     18     20     1   109.8800469 414.216000
      8      9     10     1   109.8800469 414.216000
      8      9     11     1   109.8800469 414.216000
      8     12     13     1   109.8800469 414.216000
      8     12     14     1   109.8800469 414.216000
      9     30     31     1   109.8000471 387.438400
      9     30     32     1   109.8000471 387.438400
     10      9     30     1   109.5600471 388.275200
     10      9     11     1   108.4600466 328.025600
     11      9     30     1   109.5600471 388.275200
     12     27     28     1   109.8000471 387.438400
     12     27     29     1   109.8000471 387.438400
     13     12     27     1   109.5600471 388.275200
     13     12     14     1   108.4600466 328.025600
     14     12     27     1   109.5600471 388.275200
     15     21     22     1   109.8000471 387.438400
     15     21     23     1   109.8000471 387.438400
     16     15     21     1   109.5600471 388.275200
     16     15     17     1   108.4600466 328.025600
     17     15     21     1   109.5600471 388.275200
     18     24     25     1   109.8000471 387.438400
     18     24     26     1   109.8000471 387.438400
     19     18     24     1   109.5600471 388.275200
     19     18     20     1   108.4600466 328.025600
     20     18     24     1   109.5600471 388.275200
     22     21     35     1   108.7700466 392.459200
     22     21     23     1   107.5800459 329.699200
     23     21     35     1   108.7700466 392.459200
     25     24     36     1   108.7700466 392.459200
     25     24     26     1   107.5800459 329.699200
     26     24     36     1   108.7700466 392.459200
     28     27     33     1   108.7700466 392.459200
     28     27     29     1   107.5800459 329.699200
     29     27     33     1   108.7700466 392.459200
     31     30     34     1   108.7700466 392.459200
     31     30     32     1   107.5800459 329.699200
     32     30     34     1   108.7700466 392.459200
     33     64     65     1   117.5500507 404.174400
     34     89     90     1   117.5500507 404.174400
     35    114    115     1   117.5500507 404.174400
     36    139    140     1   117.5500507 404.174400
     41     44     45     1   109.5600471 388.275200
     41     44     46     1   109.5600471 388.275200
     42     41     44     1   109.5600471 388.275200
     42     41     47     1   109.8800469 414.216000
     42     41     43     1   108.4600466 328.025600
     43     41     44     1   109.5600471 388.275200
     43     41     47     1   109.8800469 414.216000
     44     64     65     1   117.6800502 383.254400
     45     44     64     1   108.8800464 416.726400
     45     44     46     1   108.4600466 328.025600
     46     44     64     1   108.8800464 416.726400
     47     48     49     1   109.8800469 414.216000
     47     48     50     1   109.8800469 414.216000
     47     51     52     1   109.8800469 414.216000
     47     51     53     1   109.8800469 414.216000
     48     57     58     1   109.8000471 387.438400
     48     57     59     1   109.8000471 387.438400
     49     48     57     1   109.5600471 388.275200
     49     48     50     1   108.4600466 328.025600
     50     48     57     1   109.5600471 388.275200
     51     54     55     1   109.8000471 387.438400
     51     54     56     1   109.8000471 387.438400
     52     51     54     1   109.5600471 388.275200
     52     51     53     1   108.4600466 328.025600
     53     51     54     1   109.5600471 388.275200
     55     54     60     1   108.7700466 392.459200
     55     54     56     1   107.5800459 329.699200
     56     54     60     1   108.7700466 392.459200
     58     57     61     1   108.7700466 392.459200
     58     57     59     1   107.5800459 329.699200
     59     57     61     1   108.7700466 392.459200
     60    164    165     1   117.5500507 404.174400
     61    189    190     1   117.5500507 404.174400
     66     69     70     1   109.5600471 388.275200
     66     69     71     1   109.5600471 388.275200
     67     66     69     1   109.5600471 388.275200
     67     66     72     1   109.8800469 414.216000
     67     66     68     1   108.4600466 328.025600
     68     66     69     1   109.5600471 388.275200
     68     66     72     1   109.8800469 414.216000
     69     89     90     1   117.6800502 383.254400
     70     69     89     1   108.8800464 416.726400
     70     69     71     1   108.4600466 328.025600
     71     69     89     1   108.8800464 416.726400
     72     73     74     1   109.8800469 414.216000
     72     73     75     1   109.8800469 414.216000
     72     76     77     1   109.8800469 414.216000
     72     76     78     1   109.8800469 414.216000
     73     82     83     1   109.8000471 387.438400
     73     82     84     1   109.8000471 387.438400
     74     73     82     1   109.5600471 388.275200
     74     73     75     1   108.4600466 328.025600
     75     73     82     1   109.5600471 388.275200
     76     79     80     1   109.8000471 387.438400
     76     79     81     1   109.8000471 387.438400
     77     76     79     1   109.5600471 388.275200
     77     76     78     1   108.4600466 328.025600
     78     76     79     1   109.5600471 388.275200
     80     79     85     1   108.7700466 392.459200
     80     79     81     1   107.5800459 329.699200
     81     79     85     1   108.7700466 392.459200
     83     82     86     1   108.7700466 392.459200
     83     82     84     1   107.5800459 329.699200
     84     82     86     1   108.7700466 392.459200
     85    214    215     1   117.5500507 404.174400
     86    239    240     1   117.5500507 404.174400
     91     94     95     1   109.5600471 388.275200
     91     94     96     1   109.5600471 388.275200
     92     91     94     1   109.5600471 388.275200
     92     91     97     1   109.8800469 414.216000
     92     91     93     1   108.4600466 328.025600
     93     91     94     1   109.5600471 388.275200
     93     91     97     1   109.8800469 414.216000
     94    114    115     1   117.6800502 383.254400
     95     94    114     1   108.8800464 416.726400
     95     94     96     1   108.4600466 328.025600
     96     94    114     1   108.8800464 416.726400
     97     98     99     1   109.8800469 414.216000
     97     98    100     1   109.8800469 414.216000
     97    101    102     1   109.8800469 414.216000
     97    101    103     1   109.8800469 414.216000
     98    107    108     1   109.8000471 387.438400
     98    107    109     1   109.8000471 387.438400
     99     98    107     1   109.5600471 388.275200
     99     98    100     1   108.4600466 328.025600
    100     98    107     1   109.5600471 388.275200
    101    104    105     1   109.8000471 387.438400
    101    104    106     1   109.8000471 387.438400
    102    101    104     1   109.5600471 388.275200
    102    101    103     1   108.4600466 328.025600
    103    101    104     1   109.5600471 388.275200
    105    104    110     1   108.7700466 392.459200
    105    104    106     1   107.5800459 329.699200
    106    104    110     1   108.7700466 392.459200
    108    107    111     1   108.7700466 392.459200
    108    107    109     1   107.5800459 329.699200
    109    107    111     1   108.7700466 392.459200
    110    264    265     1   117.5500507 404.174400
    111    289    290     1   117.5500507 404.174400
    116    119    120     1   109.5600471 388.275200
    116    119    121     1   109.5600471 388.275200
    117    116    119     1   109.5600471 388.275200
    117    116    122     1   109.8800469 414.216000
    117    116    118     1   108.4600466 328.025600
    118    116    119     1   109.5600471 388.275200
    118    116    122     1   109.8800469 414.216000
    119    139    140     1   117.6800502 383.254400
    120    119    139     1   108.8800464 416.726400
    120    119    121     1   108.4600466 328.025600
    121    119    139     1   108.8800464 416.726400
    122    123    124     1   109.8800469 414.216000
    122    123    125     1   109.8800469 414.216000
    122    126    127     1   109.8800469 414.216000
    122    126    128     1   109.8800469 414.216000
    123    132    133     1   109.8000471 387.438400
    123    132    134     1   109.8000471 387.438400
    124    123    132     1   109.5600471 388.275200
    124    123    125     1   108.4600466 328.025600
    125    123    132     1   109.5600471 388.275200
    126    129    130     1   109.8000471 387.438400
    126    129    131     1   109.8000471 387.438400
    127    126    129     1   109.5600471 388.275200
    127    126    128     1   108.4600466 328.025600
    128    126    129     1   109.5600471 388.275200
    130    129    135     1   108.7700466 392.459200
    130    129    131     1   107.5800459 329.699200
    131    129    135     1   108.7700466 392.459200
    133    132    136     1   108.7700466 392.459200
    133    132    134     1   107.5800459 329.699200
    134    132    136     1   108.7700466 392.459200
    135    314    315     1   117.5500507 404.174400
    136    339    340     1   117.5500507 404.174400
    141    144    145     1   109.5600471 388.275200
    141    144    146     1   109.5600471 388.275200
    142    141    144     1   109.5600471 388.275200
    142    141    147     1   109.8800469 414.216000
    142    141    143     1   108.4600466 328.025600
    143    141    144     1   109.5600471 388.275200
    143    141    147     1   109.8800469 414.216000
    144    164    165     1   117.6800502 383.254400
    145    144    164     1   108.8800464 416.726400
    145    144    146     1   108.4600466 328.025600
    146    144    164     1   108.8800464 416.726400
    147    148    149     1   109.8800469 414.216000
    147    148    150     1   109.8800469 414.216000
    147    151    152     1   109.8800469 414.216000
    147    151    153     1   109.8800469 414.216000
    148    157    158     1   109.8000471 387.438400
    148    157    159     1   109.8000471 387.438400
    149    148    157     1   109.5600471 388.275200
    149    148    150     1   108.4600466 328.025600
    150    148    157     1   109.5600471 388.275200
    151    154    155     1   109.8000471 387.438400
    151    154    156     1   109.8000471 387.438400
    152    151    154     1   109.5600471 388.275200
    152    151    153     1   108.4600466 328.025600
    153    151    154     1   109.5600471 388.275200
    155    154    160     1   108.7700466 392.459200
    155    154    156     1   107.5800459 329.699200
    156    154    160     1   108.7700466 392.459200
    158    157    161     1   108.7700466 392.459200
    158    157    159     1   107.5800459 329.699200
    159    157    161     1   108.7700466 392.459200
    160    364    365     1   117.5500507 404.174400
    161    389    390     1   117.5500507 404.174400
    166    169    170     1   109.5600471 388.275200
    166    169    171     1   109.5600471 388.275200
    167    166    169     1   109.5600471 388.275200
    167    166    172     1   109.8800469 414.216000
    167    166    168     1   108.4600466 328.025600
    168    166    169     1   109.5600471 388.275200
    168    166    172     1   109.8800469 414.216000
    169    189    190     1   117.6800502 383.254400
    170    169    189     1   108.8800464 416.726400
    170    169    171     1   108.4600466 328.025600
    171    169    189     1   108.8800464 416.726400
    172    173    174     1   109.8800469 414.216000
    172    173    175     1   109.8800469 414.216000
    172    176    177     1   109.8800469 414.216000
    172    176    178     1   109.8800469 414.216000
    173    182    183     1   109.8000471 387.438400
    173    182    184     1   109.8000471 387.438400
    174    173    182     1   109.5600471 388.275200
    174    173    175     1   108.4600466 328.025600
    175    173    182     1   109.5600471 388.275200
    176    179    180     1   109.8000471 387.438400
    176    179    181     1   109.8000471 387.438400
    177    176    179     1   109.5600471 388.275200
    177    176    178     1   108.4600466 328.025600
    178    176    179     1   109.5600471 388.275200
    180    179    185     1   108.7700466 392.459200
    180    179    181     1   107.5800459 329.699200
    181    179    185     1   108.7700466 392.459200
    183    182    186     1   108.7700466 392.459200
    183    182    184     1   107.5800459 329.699200
    184    182    186     1   108.7700466 392.459200
    185    414    415     1   117.5500507 404.174400
    186    439    440     1   117.5500507 404.174400
    191    194    195     1   109.5600471 388.275200
    191    194    196     1   109.5600471 388.275200
    192    191    194     1   109.5600471 388.275200
    192    191    197     1   109.8800469 414.216000
    192    191    193     1   108.4600466 328.025600
    193    191    194     1   109.5600471 388.275200
    193    191    197     1   109.8800469 414.216000
    194    214    215     1   117.6800502 383.254400
    195    194    214     1   108.8800464 416.726400
    195    194    196     1   108.4600466 328.025600
    196    194    214     1   108.8800464 416.726400
    197    198    199     1   109.8800469 414.216000
    197    198    200     1   109.8800469 414.216000
    197    201    202     1   109.8800469 414.216000
    197    201    203     1   109.8800469 414.216000
    198    207    208     1   109.8000471 387.438400
    198    207    209     1   109.8000471 387.438400
    199    198    207     1   109.5600471 388.275200
    199    198    200     1   108.4600466 328.025600
    200    198    207     1   109.5600471 388.275200
    201    204    205     1   109.8000471 387.438400
    201    204    206     1   109.8000471 387.438400
    202    201    204     1   109.5600471 388.275200
    202    201    203     1   108.4600466 328.025600
    203    201    204     1   109.5600471 388.275200
    205    204    210     1   108.7700466 392.459200
    205    204    206     1   107.5800459 329.699200
    206    204    210     1   108.7700466 392.459200
    208    207    211     1   108.7700466 392.459200
    208    207    209     1   107.5800459 329.699200
    209    207    211     1   108.7700466 392.459200
    210    464    465     1   117.5500507 404.174400
    211    489    490     1   117.5500507 404.174400
    216    219    220     1   109.5600471 388.275200
    216    219    221     1   109.5600471 388.275200
    217    216    219     1   109.5600471 388.275200
    217    216    222     1   109.8800469 414.216000
    217    216    218     1   108.4600466 328.025600
    218    216    219     1   109.5600471 388.275200
    218    216    222     1   109.8800469 414.216000
    219    239    240     1   117.6800502 383.254400
    220    219    239     1   108.8800464 416.726400
    220    219    221     1   108.4600466 328.025600
    221    219    239     1   108.8800464 416.726400
    222    223    224     1   109.8800469 414.216000
    222    223    225     1   109.8800469 414.216000
    222    226    227     1   109.8800469 414.216000
    222    226    228     1   109.8800469 414.216000
    223    232    233     1   109.8000471 387.438400
    223    232    234     1   109.8000471 387.438400
    224    223    232     1   109.5600471 388.275200
    224    223    225     1   108.4600466 328.025600
    225    223    232     1   109.5600471 388.275200
    226    229    230     1   109.8000471 387.438400
    226    229    231     1   109.8000471 387.438400
    227    226    229     1   109.5600471 388.275200
    227    226    228     1   108.4600466 328.025600
    228    226    229     1   109.5600471 388.275200
    230    229    235     1   108.7700466 392.459200
    230    229    231     1   107.5800459 329.699200
    231    229    235     1   108.7700466 392.459200
    233    232    236     1   108.7700466 392.459200
    233    232    234     1   107.5800459 329.699200
    234    232    236     1   108.7700466 392.459200
    235    514    515     1   117.5500507 404.174400
    236    539    540     1   117.5500507 404.174400
    241    244    245     1   109.5600471 388.275200
    241    244    246     1   109.5600471 388.275200
    242    241    244     1   109.5600471 388.275200
    242    241    247     1   109.8800469 414.216000
    242    241    243     1   108.4600466 328.025600
    243    241    244     1   109.5600471 388.275200
    243    241    247     1   109.8800469 414.216000
    244    264    265     1   117.6800502 383.254400
    245    244    264     1   108.8800464 416.726400
    245    244    246     1   108.4600466 328.025600
    246    244    264     1   108.8800464 416.726400
    247    248    249     1   109.8800469 414.216000
    247    248    250     1   109.8800469 414.216000
    247    251    252     1   109.8800469 414.216000
    247    251    253     1   109.8800469 414.216000
    248    257    258     1   109.8000471 387.438400
    248    257    259     1   109.8000471 387.438400
    249    248    257     1   109.5600471 388.275200
    249    248    250     1   108.4600466 328.025600
    250    248    257     1   109.5600471 388.275200
    251    254    255     1   109.8000471 387.438400
    251    254    256     1   109.8000471 387.438400
    252    251    254     1   109.5600471 388.275200
    252    251    253     1   108.4600466 328.025600
    253    251    254     1   109.5600471 388.275200
    255    254    260     1   108.7700466 392.459200
    255    254    256     1   107.5800459 329.699200
    256    254    260     1   108.7700466 392.459200
    258    257    261     1   108.7700466 392.459200
    258    257    259     1   107.5800459 329.699200
    259    257    261     1   108.7700466 392.459200
    260    564    565     1   117.5500507 404.174400
    261    589    590     1   117.5500507 404.174400
    266    269    270     1   109.5600471 388.275200
    266    269    271     1   109.5600471 388.275200
    267    266    269     1   109.5600471 388.275200
    267    266    272     1   109.8800469 414.216000
    267    266    268     1   108.4600466 328.025600
    268    266    269     1   109.5600471 388.275200
    268    266    272     1   109.8800469 414.216000
    269    289    290     1   117.6800502 383.254400
    270    269    289     1   108.8800464 416.726400
    270    269    271     1   108.4600466 328.025600
    271    269    289     1   108.8800464 416.726400
    272    273    274     1   109.8800469 414.216000
    272    273    275     1   109.8800469 414.216000
    272    276    277     1   109.8800469 414.216000
    272    276    278     1   109.8800469 414.216000
    273    282    283     1   109.8000471 387.438400
    273    282    284     1   109.8000471 387.438400
    274    273    282     1   109.5600471 388.275200
    274    273    275     1   108.4600466 328.025600
    275    273    282     1   109.5600471 388.275200
    276    279    280     1   109.8000471 387.438400
    276    279    281     1   109.8000471 387.438400
    277    276    279     1   109.5600471 388.275200
    277    276    278     1   108.4600466 328.025600
    278    276    279     1   109.5600471 388.275200
    280    279    285     1   108.7700466 392.459200
    280    279    281     1   107.5800459 329.699200
    281    279    285     1   108.7700466 392.459200
    283    282    286     1   108.7700466 392.459200
    283    282    284     1   107.5800459 329.699200
    284    282    286     1   108.7700466 392.459200
    285    614    615     1   117.5500507 404.174400
    286    639    640     1   117.5500507 404.174400
    291    294    295     1   109.5600471 388.275200
    291    294    296     1   109.5600471 388.275200
    292    291    294     1   109.5600471 388.275200
    292    291    297     1   109.8800469 414.216000
    292    291    293     1   108.4600466 328.025600
    293    291    294     1   109.5600471 388.275200
    293    291    297     1   109.8800469 414.216000
    294    314    315     1   117.6800502 383.254400
    295    294    314     1   108.8800464 416.726400
    295    294    296     1   108.4600466 328.025600
    296    294    314     1   108.8800464 416.726400
    297    298    299     1   109.8800469 414.216000
    297    298    300     1   109.8800469 414.216000
    297    301    302     1   109.8800469 414.216000
    297    301    303     1   109.8800469 414.216000
    298    307    308     1   109.8000471 387.438400
    298    307    309     1   109.8000471 387.438400
    299    298    307     1   109.5600471 388.275200
    299    298    300     1   108.4600466 328.025600
    300    298    307     1   109.5600471 388.275200
    301    304    305     1   109.8000471 387.438400
    301    304    306     1   109.8000471 387.438400
    302    301    304     1   109.5600471 388.275200
    302    301    303     1   108.4600466 328.025600
    303    301    304     1   109.5600471 388.275200
    305    304    310     1   108.7700466 392.459200
    305    304    306     1   107.5800459 329.699200
    306    304    310     1   108.7700466 392.459200
    308    307    311     1   108.7700466 392.459200
    308    307    309     1   107.5800459 329.699200
    309    307    311     1   108.7700466 392.459200
    310    664    665     1   117.5500507 404.174400
    311    689    690     1   117.5500507 404.174400
    316    319    320     1   109.5600471 388.275200
    316    319    321     1   109.5600471 388.275200
    317    316    319     1   109.5600471 388.275200
    317    316    322     1   109.8800469 414.216000
    317    316    318     1   108.4600466 328.025600
    318    316    319     1   109.5600471 388.275200
    318    316    322     1   109.8800469 414.216000
    319    339    340     1   117.6800502 383.254400
    320    319    339     1   108.8800464 416.726400
    320    319    321     1   108.4600466 328.025600
    321    319    339     1   108.8800464 416.726400
    322    323    324     1   109.8800469 414.216000
    322    323    325     1   109.8800469 414.216000
    322    326    327     1   109.8800469 414.216000
    322    326    328     1   109.8800469 414.216000
    323    332    333     1   109.8000471 387.438400
    323    332    334     1   109.8000471 387.438400
    324    323    332     1   109.5600471 388.275200
    324    323    325     1   108.4600466 328.025600
    325    323    332     1   109.5600471 388.275200
    326    329    330     1   109.8000471 387.438400
    326    329    331     1   109.8000471 387.438400
    327    326    329     1   109.5600471 388.275200
    327    326    328     1   108.4600466 328.025600
    328    326    329     1   109.5600471 388.275200
    330    329    335     1   108.7700466 392.459200
    330    329    331     1   107.5800459 329.699200
    331    329    335     1   108.7700466 392.459200
    333    332    336     1   108.7700466 392.459200
    333    332    334     1   107.5800459 329.699200
    334    332    336     1   108.7700466 392.459200
    335    714    715     1   117.5500507 404.174400
    336    739    740     1   117.5500507 404.174400
    341    344    345     1   109.5600471 388.275200
    341    344    346     1   109.5600471 388.275200
    342    341    344     1   109.5600471 388.275200
    342    341    347     1   109.8800469 414.216000
    342    341    343     1   108.4600466 328.025600
    343    341    344     1   109.5600471 388.275200
    343    341    347     1   109.8800469 414.216000
    344    364    365     1   117.6800502 383.254400
    345    344    364     1   108.8800464 416.726400
    345    344    346     1   108.4600466 328.025600
    346    344    364     1   108.8800464 416.726400
    347    348    349     1   109.8800469 414.216000
    347    348    350     1   109.8800469 414.216000
    347    351    352     1   109.8800469 414.216000
    347    351    353     1   109.8800469 414.216000
    348    357    358     1   109.8000471 387.438400
    348    357    359     1   109.8000471 387.438400
    349    348    357     1   109.5600471 388.275200
    349    348    350     1   108.4600466 328.025600
    350    348    357     1   109.5600471 388.275200
    351    354    355     1   109.8000471 387.438400
    351    354    356     1   109.8000471 387.438400
    352    351    354     1   109.5600471 388.275200
    352    351    353     1   108.4600466 328.025600
    353    351    354     1   109.5600471 388.275200
    355    354    360     1   108.7700466 392.459200
    355    354    356     1   107.5800459 329.699200
    356    354    360     1   108.7700466 392.459200
    358    357    361     1   108.7700466 392.459200
    358    357    359     1   107.5800459 329.699200
    359    357    361     1   108.7700466 392.459200
    360    741    742     1   117.5500507 404.174400
    361    814    815     1   117.5500507 404.174400
    366    369    370     1   109.5600471 388.275200
    366    369    371     1   109.5600471 388.275200
    367    366    369     1   109.5600471 388.275200
    367    366    372     1   109.8800469 414.216000
    367    366    368     1   108.4600466 328.025600
    368    366    369     1   109.5600471 388.275200
    368    366    372     1   109.8800469 414.216000
    369    389    390     1   117.6800502 383.254400
    370    369    389     1   108.8800464 416.726400
    370    369    371     1   108.4600466 328.025600
    371    369    389     1   108.8800464 416.726400
    372    373    374     1   109.8800469 414.216000
    372    373    375     1   109.8800469 414.216000
    372    376    377     1   109.8800469 414.216000
    372    376    378     1   109.8800469 414.216000
    373    382    383     1   109.8000471 387.438400
    373    382    384     1   109.8000471 387.438400
    374    373    382     1   109.5600471 388.275200
    374    373    375     1   108.4600466 328.025600
    375    373    382     1   109.5600471 388.275200
    376    379    380     1   109.8000471 387.438400
    376    379    381     1   109.8000471 387.438400
    377    376    379     1   109.5600471 388.275200
    377    376    378     1   108.4600466 328.025600
    378    376    379     1   109.5600471 388.275200
    380    379    385     1   108.7700466 392.459200
    380    379    381     1   107.5800459 329.699200
    381    379    385     1   108.7700466 392.459200
    383    382    386     1   108.7700466 392.459200
    383    382    384     1   107.5800459 329.699200
    384    382    386     1   108.7700466 392.459200
    385    887    888     1   117.5500507 404.174400
    386    960    961     1   117.5500507 404.174400
    391    394    395     1   109.5600471 388.275200
    391    394    396     1   109.5600471 388.275200
    392    391    394     1   109.5600471 388.275200
    392    391    397     1   109.8800469 414.216000
    392    391    393     1   108.4600466 328.025600
    393    391    394     1   109.5600471 388.275200
    393    391    397     1   109.8800469 414.216000
    394    414    415     1   117.6800502 383.254400
    395    394    414     1   108.8800464 416.726400
    395    394    396     1   108.4600466 328.025600
    396    394    414     1   108.8800464 416.726400
    397    398    399     1   109.8800469 414.216000
    397    398    400     1   109.8800469 414.216000
    397    401    402     1   109.8800469 414.216000
    397    401    403     1   109.8800469 414.216000
    398    407    408     1   109.8000471 387.438400
    398    407    409     1   109.8000471 387.438400
    399    398    407     1   109.5600471 388.275200
    399    398    400     1   108.4600466 328.025600
    400    398    407     1   109.5600471 388.275200
    401    404    405     1   109.8000471 387.438400
    401    404    406     1   109.8000471 387.438400
    402    401    404     1   109.5600471 388.275200
    402    401    403     1   108.4600466 328.025600
    403    401    404     1   109.5600471 388.275200
    405    404    410     1   108.7700466 392.459200
    405    404    406     1   107.5800459 329.699200
    406    404    410     1   108.7700466 392.459200
    408    407    411     1   108.7700466 392.459200
    408    407    409     1   107.5800459 329.699200
    409    407    411     1   108.7700466 392.459200
    410   1033   1034     1   117.5500507 404.174400
    411   1106   1107     1   117.5500507 404.174400
    416    419    420     1   109.5600471 388.275200
    416    419    421     1   109.5600471 388.275200
    417    416    419     1   109.5600471 388.275200
    417    416    422     1   109.8800469 414.216000
    417    416    418     1   108.4600466 328.025600
    418    416    419     1   109.5600471 388.275200
    418    416    422     1   109.8800469 414.216000
    419    439    440     1   117.6800502 383.254400
    420    419    439     1   108.8800464 416.726400
    420    419    421     1   108.4600466 328.025600
    421    419    439     1   108.8800464 416.726400
    422    423    424     1   109.8800469 414.216000
    422    423    425     1   109.8800469 414.216000
    422    426    427     1   109.8800469 414.216000
    422    426    428     1   109.8800469 414.216000
    423    432    433     1   109.8000471 387.438400
    423    432    434     1   109.8000471 387.438400
    424    423    432     1   109.5600471 388.275200
    424    423    425     1   108.4600466 328.025600
    425    423    432     1   109.5600471 388.275200
    426    429    430     1   109.8000471 387.438400
    426    429    431     1   109.8000471 387.438400
    427    426    429     1   109.5600471 388.275200
    427    426    428     1   108.4600466 328.025600
    428    426    429     1   109.5600471 388.275200
    430    429    435     1   108.7700466 392.459200
    430    429    431     1   107.5800459 329.699200
    431    429    435     1   108.7700466 392.459200
    433    432    436     1   108.7700466 392.459200
    433    432    434     1   107.5800459 329.699200
    434    432    436     1   108.7700466 392.459200
    435   1179   1180     1   117.5500507 404.174400
    436   1252   1253     1   117.5500507 404.174400
    441    444    445     1   109.5600471 388.275200
    441    444    446     1   109.5600471 388.275200
    442    441    444     1   109.5600471 388.275200
    442    441    447     1   109.8800469 414.216000
    442    441    443     1   108.4600466 328.025600
    443    441    444     1   109.5600471 388.275200
    443    441    447     1   109.8800469 414.216000
    444    464    465     1   117.6800502 383.254400
    445    444    464     1   108.8800464 416.726400
    445    444    446     1   108.4600466 328.025600
    446    444    464     1   108.8800464 416.726400
    447    448    449     1   109.8800469 414.216000
    447    448    450     1   109.8800469 414.216000
    447    451    452     1   109.8800469 414.216000
    447    451    453     1   109.8800469 414.216000
    448    457    458     1   109.8000471 387.438400
    448    457    459     1   109.8000471 387.438400
    449    448    457     1   109.5600471 388.275200
    449    448    450     1   108.4600466 328.025600
    450    448    457     1   109.5600471 388.275200
    451    454    455     1   109.8000471 387.438400
    451    454    456     1   109.8000471 387.438400
    452    451    454     1   109.5600471 388.275200
    452    451    453     1   108.4600466 328.025600
    453    451    454     1   109.5600471 388.275200
    455    454    460     1   108.7700466 392.459200
    455    454    456     1   107.5800459 329.699200
    456    454    460     1   108.7700466 392.459200
    458    457    461     1   108.7700466 392.459200
    458    457    459     1   107.5800459 329.699200
    459    457    461     1   108.7700466 392.459200
    460   1325   1326     1   117.5500507 404.174400
    461   1398   1399     1   117.5500507 404.174400
    466    469    470     1   109.5600471 388.275200
    466    469    471     1   109.5600471 388.275200
    467    466    469     1   109.5600471 388.275200
    467    466    472     1   109.8800469 414.216000
    467    466    468     1   108.4600466 328.025600
    468    466    469     1   109.5600471 388.275200
    468    466    472     1   109.8800469 414.216000
    469    489    490     1   117.6800502 383.254400
    470    469    489     1   108.8800464 416.726400
    470    469    471     1   108.4600466 328.025600
    471    469    489     1   108.8800464 416.726400
    472    473    474     1   109.8800469 414.216000
    472    473    475     1   109.8800469 414.216000
    472    476    477     1   109.8800469 414.216000
    472    476    478     1   109.8800469 414.216000
    473    482    483     1   109.8000471 387.438400
    473    482    484     1   109.8000471 387.438400
    474    473    482     1   109.5600471 388.275200
    474    473    475     1   108.4600466 328.025600
    475    473    482     1   109.5600471 388.275200
    476    479    480     1   109.8000471 387.438400
    476    479    481     1   109.8000471 387.438400
    477    476    479     1   109.5600471 388.275200
    477    476    478     1   108.4600466 328.025600
    478    476    479     1   109.5600471 388.275200
    480    479    485     1   108.7700466 392.459200
    480    479    481     1   107.5800459 329.699200
    481    479    485     1   108.7700466 392.459200
    483    482    486     1   108.7700466 392.459200
    483    482    484     1   107.5800459 329.699200
    484    482    486     1   108.7700466 392.459200
    485   1471   1472     1   117.5500507 404.174400
    486   1544   1545     1   117.5500507 404.174400
    491    494    495     1   109.5600471 388.275200
    491    494    496     1   109.5600471 388.275200
    492    491    494     1   109.5600471 388.275200
    492    491    497     1   109.8800469 414.216000
    492    491    493     1   108.4600466 328.025600
    493    491    494     1   109.5600471 388.275200
    493    491    497     1   109.8800469 414.216000
    494    514    515     1   117.6800502 383.254400
    495    494    514     1   108.8800464 416.726400
    495    494    496     1   108.4600466 328.025600
    496    494    514     1   108.8800464 416.726400
    497    498    499     1   109.8800469 414.216000
    497    498    500     1   109.8800469 414.216000
    497    501    502     1   109.8800469 414.216000
    497    501    503     1   109.8800469 414.216000
    498    507    508     1   109.8000471 387.438400
    498    507    509     1   109.8000471 387.438400
    499    498    507     1   109.5600471 388.275200
    499    498    500     1   108.4600466 328.025600
    500    498    507     1   109.5600471 388.275200
    501    504    505     1   109.8000471 387.438400
    501    504    506     1   109.8000471 387.438400
    502    501    504     1   109.5600471 388.275200
    502    501    503     1   108.4600466 328.025600
    503    501    504     1   109.5600471 388.275200
    505    504    510     1   108.7700466 392.459200
    505    504    506     1   107.5800459 329.699200
    506    504    510     1   108.7700466 392.459200
    508    507    511     1   108.7700466 392.459200
    508    507    509     1   107.5800459 329.699200
    509    507    511     1   108.7700466 392.459200
    510   1617   1618     1   117.5500507 404.174400
    511   1690   1691     1   117.5500507 404.174400
    516    519    520     1   109.5600471 388.275200
    516    519    521     1   109.5600471 388.275200
    517    516    519     1   109.5600471 388.275200
    517    516    522     1   109.8800469 414.216000
    517    516    518     1   108.4600466 328.025600
    518    516    519     1   109.5600471 388.275200
    518    516    522     1   109.8800469 414.216000
    519    539    540     1   117.6800502 383.254400
    520    519    539     1   108.8800464 416.726400
    520    519    521     1   108.4600466 328.025600
    521    519    539     1   108.8800464 416.726400
    522    523    524     1   109.8800469 414.216000
    522    523    525     1   109.8800469 414.216000
    522    526    527     1   109.8800469 414.216000
    522    526    528     1   109.8800469 414.216000
    523    532    533     1   109.8000471 387.438400
    523    532    534     1   109.8000471 387.438400
    524    523    532     1   109.5600471 388.275200
    524    523    525     1   108.4600466 328.025600
    525    523    532     1   109.5600471 388.275200
    526    529    530     1   109.8000471 387.438400
    526    529    531     1   109.8000471 387.438400
    527    526    529     1   109.5600471 388.275200
    527    526    528     1   108.4600466 328.025600
    528    526    529     1   109.5600471 388.275200
    530    529    535     1   108.7700466 392.459200
    530    529    531     1   107.5800459 329.699200
    531    529    535     1   108.7700466 392.459200
    533    532    536     1   108.7700466 392.459200
    533    532    534     1   107.5800459 329.699200
    534    532    536     1   108.7700466 392.459200
    535   1763   1764     1   117.5500507 404.174400
    536   1836   1837     1   117.5500507 404.174400
    541    544    545     1   109.5600471 388.275200
    541    544    546     1   109.5600471 388.275200
    542    541    544     1   109.5600471 388.275200
    542    541    547     1   109.8800469 414.216000
    542    541    543     1   108.4600466 328.025600
    543    541    544     1   109.5600471 388.275200
    543    541    547     1   109.8800469 414.216000
    544    564    565     1   117.6800502 383.254400
    545    544    564     1   108.8800464 416.726400
    545    544    546     1   108.4600466 328.025600
    546    544    564     1   108.8800464 416.726400
    547    548    549     1   109.8800469 414.216000
    547    548    550     1   109.8800469 414.216000
    547    551    552     1   109.8800469 414.216000
    547    551    553     1   109.8800469 414.216000
    548    557    558     1   109.8000471 387.438400
    548    557    559     1   109.8000471 387.438400
    549    548    557     1   109.5600471 388.275200
    549    548    550     1   108.4600466 328.025600
    550    548    557     1   109.5600471 388.275200
    551    554    555     1   109.8000471 387.438400
    551    554    556     1   109.8000471 387.438400
    552    551    554     1   109.5600471 388.275200
    552    551    553     1   108.4600466 328.025600
    553    551    554     1   109.5600471 388.275200
    555    554    560     1   108.7700466 392.459200
    555    554    556     1   107.5800459 329.699200
    556    554    560     1   108.7700466 392.459200
    558    557    561     1   108.7700466 392.459200
    558    557    559     1   107.5800459 329.699200
    559    557    561     1   108.7700466 392.459200
    560   1909   1910     1   117.5500507 404.174400
    561   1982   1983     1   117.5500507 404.174400
    566    569    570     1   109.5600471 388.275200
    566    569    571     1   109.5600471 388.275200
    567    566    569     1   109.5600471 388.275200
    567    566    572     1   109.8800469 414.216000
    567    566    568     1   108.4600466 328.025600
    568    566    569     1   109.5600471 388.275200
    568    566    572     1   109.8800469 414.216000
    569    589    590     1   117.6800502 383.254400
    570    569    589     1   108.8800464 416.726400
    570    569    571     1   108.4600466 328.025600
    571    569    589     1   108.8800464 416.726400
    572    573    574     1   109.8800469 414.216000
    572    573    575     1   109.8800469 414.216000
    572    576    577     1   109.8800469 414.216000
    572    576    578     1   109.8800469 414.216000
    573    582    583     1   109.8000471 387.438400
    573    582    584     1   109.8000471 387.438400
    574    573    582     1   109.5600471 388.275200
    574    573    575     1   108.4600466 328.025600
    575    573    582     1   109.5600471 388.275200
    576    579    580     1   109.8000471 387.438400
    576    579    581     1   109.8000471 387.438400
    577    576    579     1   109.5600471 388.275200
    577    576    578     1   108.4600466 328.025600
    578    576    579     1   109.5600471 388.275200
    580    579    585     1   108.7700466 392.459200
    580    579    581     1   107.5800459 329.699200
    581    579    585     1   108.7700466 392.459200
    583    582    586     1   108.7700466 392.459200
    583    582    584     1   107.5800459 329.699200
    584    582    586     1   108.7700466 392.459200
    585   2055   2056     1   117.5500507 404.174400
    586   2128   2129     1   117.5500507 404.174400
    591    594    595     1   109.5600471 388.275200
    591    594    596     1   109.5600471 388.275200
    592    591    594     1   109.5600471 388.275200
    592    591    597     1   109.8800469 414.216000
    592    591    593     1   108.4600466 328.025600
    593    591    594     1   109.5600471 388.275200
    593    591    597     1   109.8800469 414.216000
    594    614    615     1   117.6800502 383.254400
    595    594    614     1   108.8800464 416.726400
    595    594    596     1   108.4600466 328.025600
    596    594    614     1   108.8800464 416.726400
    597    598    599     1   109.8800469 414.216000
    597    598    600     1   109.8800469 414.216000
    597    601    602     1   109.8800469 414.216000
    597    601    603     1   109.8800469 414.216000
    598    607    608     1   109.8000471 387.438400
    598    607    609     1   109.8000471 387.438400
    599    598    607     1   109.5600471 388.275200
    599    598    600     1   108.4600466 328.025600
    600    598    607     1   109.5600471 388.275200
    601    604    605     1   109.8000471 387.438400
    601    604    606     1   109.8000471 387.438400
    602    601    604     1   109.5600471 388.275200
    602    601    603     1   108.4600466 328.025600
    603    601    604     1   109.5600471 388.275200
    605    604    610     1   108.7700466 392.459200
    605    604    606     1   107.5800459 329.699200
    606    604    610     1   108.7700466 392.459200
    608    607    611     1   108.7700466 392.459200
    608    607    609     1   107.5800459 329.699200
    609    607    611     1   108.7700466 392.459200
    610   2201   2202     1   117.5500507 404.174400
    611   2274   2275     1   117.5500507 404.174400
    616    619    620     1   109.5600471 388.275200
    616    619    621     1   109.5600471 388.275200
    617    616    619     1   109.5600471 388.275200
    617    616    622     1   109.8800469 414.216000
    617    616    618     1   108.4600466 328.025600
    618    616    619     1   109.5600471 388.275200
    618    616    622     1   109.8800469 414.216000
    619    639    640     1   117.6800502 383.254400
    620    619    639     1   108.8800464 416.726400
    620    619    621     1   108.4600466 328.025600
    621    619    639     1   108.8800464 416.726400
    622    623    624     1   109.8800469 414.216000
    622    623    625     1   109.8800469 414.216000
    622    626    627     1   109.8800469 414.216000
    622    626    628     1   109.8800469 414.216000
    623    632    633     1   109.8000471 387.438400
    623    632    634     1   109.8000471 387.438400
    624    623    632     1   109.5600471 388.275200
    624    623    625     1   108.4600466 328.025600
    625    623    632     1   109.5600471 388.275200
    626    629    630     1   109.8000471 387.438400
    626    629    631     1   109.8000471 387.438400
    627    626    629     1   109.5600471 388.275200
    627    626    628     1   108.4600466 328.025600
    628    626    629     1   109.5600471 388.275200
    630    629    635     1   108.7700466 392.459200
    630    629    631     1   107.5800459 329.699200
    631    629    635     1   108.7700466 392.459200
    633    632    636     1   108.7700466 392.459200
    633    632    634     1   107.5800459 329.699200
    634    632    636     1   108.7700466 392.459200
    635   2347   2348     1   117.5500507 404.174400
    636   2420   2421     1   117.5500507 404.174400
    641    644    645     1   109.5600471 388.275200
    641    644    646     1   109.5600471 388.275200
    642    641    644     1   109.5600471 388.275200
    642    641    647     1   109.8800469 414.216000
    642    641    643     1   108.4600466 328.025600
    643    641    644     1   109.5600471 388.275200
    643    641    647     1   109.8800469 414.216000
    644    664    665     1   117.6800502 383.254400
    645    644    664     1   108.8800464 416.726400
    645    644    646     1   108.4600466 328.025600
    646    644    664     1   108.8800464 416.726400
    647    648    649     1   109.8800469 414.216000
    647    648    650     1   109.8800469 414.216000
    647    651    652     1   109.8800469 414.216000
    647    651    653     1   109.8800469 414.216000
    648    657    658     1   109.8000471 387.438400
    648    657    659     1   109.8000471 387.438400
    649    648    657     1   109.5600471 388.275200
    649    648    650     1   108.4600466 328.025600
    650    648    657     1   109.5600471 388.275200
    651    654    655     1   109.8000471 387.438400
    651    654    656     1   109.8000471 387.438400
    652    651    654     1   109.5600471 388.275200
    652    651    653     1   108.4600466 328.025600
    653    651    654     1   109.5600471 388.275200
    655    654    660     1   108.7700466 392.459200
    655    654    656     1   107.5800459 329.699200
    656    654    660     1   108.7700466 392.459200
    658    657    661     1   108.7700466 392.459200
    658    657    659     1   107.5800459 329.699200
    659    657    661     1   108.7700466 392.459200
    660   2493   2494     1   117.5500507 404.174400
    661   2566   2567     1   117.5500507 404.174400
    666    669    670     1   109.5600471 388.275200
    666    669    671     1   109.5600471 388.275200
    667    666    669     1   109.5600471 388.275200
    667    666    672     1   109.8800469 414.216000
    667    666    668     1   108.4600466 328.025600
    668    666    669     1   109.5600471 388.275200
    668    666    672     1   109.8800469 414.216000
    669    689    690     1   117.6800502 383.254400
    670    669    689     1   108.8800464 416.726400
    670    669    671     1   108.4600466 328.025600
    671    669    689     1   108.8800464 416.726400
    672    673    674     1   109.8800469 414.216000
    672    673    675     1   109.8800469 414.216000
    672    676    677     1   109.8800469 414.216000
    672    676    678     1   109.8800469 414.216000
    673    682    683     1   109.8000471 387.438400
    673    682    684     1   109.8000471 387.438400
    674    673    682     1   109.5600471 388.275200
    674    673    675     1   108.4600466 328.025600
    675    673    682     1   109.5600471 388.275200
    676    679    680     1   109.8000471 387.438400
    676    679    681     1   109.8000471 387.438400
    677    676    679     1   109.5600471 388.275200
    677    676    678     1   108.4600466 328.025600
    678    676    679     1   109.5600471 388.275200
    680    679    685     1   108.7700466 392.459200
    680    679    681     1   107.5800459 329.699200
    681    679    685     1   108.7700466 392.459200
    683    682    686     1   108.7700466 392.459200
    683    682    684     1   107.5800459 329.699200
    684    682    686     1   108.7700466 392.459200
    685   2639   2640     1   117.5500507 404.174400
    686   2712   2713     1   117.5500507 404.174400
    691    694    695     1   109.5600471 388.275200
    691    694    696     1   109.5600471 388.275200
    692    691    694     1   109.5600471 388.275200
    692    691    697     1   109.8800469 414.216000
    692    691    693     1   108.4600466 328.025600
    693    691    694     1   109.5600471 388.275200
    693    691    697     1   109.8800469 414.216000
    694    714    715     1   117.6800502 383.254400
    695    694    714     1   108.8800464 416.726400
    695    694    696     1   108.4600466 328.025600
    696    694    714     1   108.8800464 416.726400
    697    698    699     1   109.8800469 414.216000
    697    698    700     1   109.8800469 414.216000
    697    701    702     1   109.8800469 414.216000
    697    701    703     1   109.8800469 414.216000
    698    707    708     1   109.8000471 387.438400
    698    707    709     1   109.8000471 387.438400
    699    698    707     1   109.5600471 388.275200
    699    698    700     1   108.4600466 328.025600
    700    698    707     1   109.5600471 388.275200
    701    704    705     1   109.8000471 387.438400
    701    704    706     1   109.8000471 387.438400
    702    701    704     1   109.5600471 388.275200
    702    701    703     1   108.4600466 328.025600
    703    701    704     1   109.5600471 388.275200
    705    704    710     1   108.7700466 392.459200
    705    704    706     1   107.5800459 329.699200
    706    704    710     1   108.7700466 392.459200
    708    707    711     1   108.7700466 392.459200
    708    707    709     1   107.5800459 329.699200
    709    707    711     1   108.7700466 392.459200
    710   2785   2786     1   117.5500507 404.174400
    711   2858   2859     1   117.5500507 404.174400
    716    719    720     1   109.5600471 388.275200
    716    719    721     1   109.5600471 388.275200
    717    716    719     1   109.5600471 388.275200
    717    716    722     1   109.8800469 414.216000
    717    716    718     1   108.4600466 328.025600
    718    716    719     1   109.5600471 388.275200
    718    716    722     1   109.8800469 414.216000
    719    739    740     1   117.6800502 383.254400
    720    719    739     1   108.8800464 416.726400
    720    719    721     1   108.4600466 328.025600
    721    719    739     1   108.8800464 416.726400
    722    723    724     1   109.8800469 414.216000
    722    723    725     1   109.8800469 414.216000
    722    726    727     1   109.8800469 414.216000
    722    726    728     1   109.8800469 414.216000
    723    732    733     1   109.8000471 387.438400
    723    732    734     1   109.8000471 387.438400
    724    723    732     1   109.5600471 388.275200
    724    723    725     1   108.4600466 328.025600
    725    723    732     1   109.5600471 388.275200
    726    729    730     1   109.8000471 387.438400
    726    729    731     1   109.8000471 387.438400
    727    726    729     1   109.5600471 388.275200
    727    726    728     1   108.4600466 328.025600
    728    726    729     1   109.5600471 388.275200
    730    729    735     1   108.7700466 392.459200
    730    729    731     1   107.5800459 329.699200
    731    729    735     1   108.7700466 392.459200
    733    732    736     1   108.7700466 392.459200
    733    732    734     1   107.5800459 329.699200
    734    732    736     1   108.7700466 392.459200
    735   2931   2932     1   117.5500507 404.174400
    736   3004   3005     1   117.5500507 404.174400
    741    743    744     1   108.8800464 416.726400
    741    743    746     1   108.8800464 416.726400
    742    741    743     1   117.6800502 383.254400
    743    745    747     1   109.5600471 388.275200
    743    745    748     1   109.5600471 388.275200
    744    743    745     1   109.5600471 388.275200
    744    743    746     1   108.4600466 328.025600
    745    743    746     1   109.5600471 388.275200
    747    745    749     1   109.8800469 414.216000
    747    745    748     1   108.4600466 328.025600
    748    745    749     1   109.8800469 414.216000
    749    750    759     1   109.8800469 414.216000
    749    750    760     1   109.8800469 414.216000
    749    751    752     1   109.8800469 414.216000
    749    751    754     1   109.8800469 414.216000
    750    761    762     1   109.8000471 387.438400
    750    761    763     1   109.8000471 387.438400
    751    753    755     1   109.8000471 387.438400
    751    753    756     1   109.8000471 387.438400
    752    751    753     1   109.5600471 388.275200
    752    751    754     1   108.4600466 328.025600
    753    751    754     1   109.5600471 388.275200
    755    753    757     1   108.7700466 392.459200
    755    753    756     1   107.5800459 329.699200
    756    753    757     1   108.7700466 392.459200
    757    789    779     1   119.3800509 410.868800
    759    750    761     1   109.5600471 388.275200
    759    750    760     1   108.4600466 328.025600
    760    750    761     1   109.5600471 388.275200
    762    761    764     1   108.7700466 392.459200
    762    761    763     1   107.5800459 329.699200
    763    761    764     1   108.7700466 392.459200
    764    813    803     1   119.3800509 410.868800
    766    767    786     1   109.5600471 388.275200
    766    777    780     1   109.5600471 388.275200
    766    777    781     1   109.5600471 388.275200
    767    766    768     1   109.5600471 388.275200
    767    769    773     1   109.5600471 388.275200
    767    787    788     1   107.2600461 396.643200
    768    766    777     1   109.5600471 388.275200
    768    766    784     1   109.7800468 425.094400
    769    767    786     1   109.5600471 388.275200
    769    770    772     1   109.5600471 388.275200
    769    776    778     1   107.2600461 396.643200
    770    769    773     1   109.5600471 388.275200
    770    771    774     1   110.2200475 386.601600
    770    789    779     1   109.2900470 396.643200
    771    770    772     1   109.5600471 388.275200
    771    775    785     1   107.2600461 396.643200
    772    770    789     1   109.8800469 414.216000
    773    769    776     1   110.2600474 425.931200
    774    771    775     1   109.4300470 427.604800
    774    771    784     1   109.5800467 425.931200
    777    782    783     1   107.2600461 396.643200
    780    777    782     1   110.2600474 425.931200
    780    777    781     1   108.4600466 328.025600
    781    777    782     1   110.2600474 425.931200
    786    767    787     1   110.2600474 425.931200
    790    791    810     1   109.5600471 388.275200
    790    801    804     1   109.5600471 388.275200
    790    801    805     1   109.5600471 388.275200
    791    790    792     1   109.5600471 388.275200
    791    793    797     1   109.5600471 388.275200
    791    811    812     1   107.2600461 396.643200
    792    790    801     1   109.5600471 388.275200
    792    790    808     1   109.7800468 425.094400
    793    791    810     1   109.5600471 388.275200
    793    794    796     1   109.5600471 388.275200
    793    800    802     1   107.2600461 396.643200
    794    793    797     1   109.5600471 388.275200
    794    795    798     1   110.2200475 386.601600
    794    813    803     1   109.2900470 396.643200
    795    794    796     1   109.5600471 388.275200
    795    799    809     1   107.2600461 396.643200
    796    794    813     1   109.8800469 414.216000
    797    793    800     1   110.2600474 425.931200
    798    795    799     1   109.4300470 427.604800
    798    795    808     1   109.5800467 425.931200
    801    806    807     1   107.2600461 396.643200
    804    801    806     1   110.2600474 425.931200
    804    801    805     1   108.4600466 328.025600
    805    801    806     1   110.2600474 425.931200
    810    791    811     1   110.2600474 425.931200
    814    816    817     1   108.8800464 416.726400
    814    816    819     1   108.8800464 416.726400
    815    814    816     1   117.6800502 383.254400
    816    818    820     1   109.5600471 388.275200
    816    818    821     1   109.5600471 388.275200
    817    816    818     1   109.5600471 388.275200
    817    816    819     1   108.4600466 328.025600
    818    816    819     1   109.5600471 388.275200
    820    818    822     1   109.8800469 414.216000
    820    818    821     1   108.4600466 328.025600
    821    818    822     1   109.8800469 414.216000
    822    823    832     1   109.8800469 414.216000
    822    823    833     1   109.8800469 414.216000
    822    824    825     1   109.8800469 414.216000
    822    824    827     1   109.8800469 414.216000
    823    834    835     1   109.8000471 387.438400
    823    834    836     1   109.8000471 387.438400
    824    826    828     1   109.8000471 387.438400
    824    826    829     1   109.8000471 387.438400
    825    824    826     1   109.5600471 388.275200
    825    824    827     1   108.4600466 328.025600
    826    824    827     1   109.5600471 388.275200
    828    826    830     1   108.7700466 392.459200
    828    826    829     1   107.5800459 329.699200
    829    826    830     1   108.7700466 392.459200
    830    862    852     1   119.3800509 410.868800
    832    823    834     1   109.5600471 388.275200
    832    823    833     1   108.4600466 328.025600
    833    823    834     1   109.5600471 388.275200
    835    834    837     1   108.7700466 392.459200
    835    834    836     1   107.5800459 329.699200
    836    834    837     1   108.7700466 392.459200
    837    886    876     1   119.3800509 410.868800
    839    840    859     1   109.5600471 388.275200
    839    850    853     1   109.5600471 388.275200
    839    850    854     1   109.5600471 388.275200
    840    842    846     1   109.5600471 388.275200
    840    860    861     1   107.2600461 396.643200
    840    839    841     1   109.5600471 388.275200
    841    839    850     1   109.5600471 388.275200
    841    839    857     1   109.7800468 425.094400
    842    843    845     1   109.5600471 388.275200
    842    849    851     1   107.2600461 396.643200
    842    840    859     1   109.5600471 388.275200
    843    844    847     1   110.2200475 386.601600
    843    862    852     1   109.2900470 396.643200
    843    842    846     1   109.5600471 388.275200
    844    848    858     1   107.2600461 396.643200
    844    843    845     1   109.5600471 388.275200
    845    843    862     1   109.8800469 414.216000
    846    842    849     1   110.2600474 425.931200
    847    844    848     1   109.4300470 427.604800
    847    844    857     1   109.5800467 425.931200
    850    855    856     1   107.2600461 396.643200
    853    850    855     1   110.2600474 425.931200
    853    850    854     1   108.4600466 328.025600
    854    850    855     1   110.2600474 425.931200
    859    840    860     1   110.2600474 425.931200
    863    864    883     1   109.5600471 388.275200
    863    874    877     1   109.5600471 388.275200
    863    874    878     1   109.5600471 388.275200
    864    866    870     1   109.5600471 388.275200
    864    884    885     1   107.2600461 396.643200
    864    863    865     1   109.5600471 388.275200
    865    863    874     1   109.5600471 388.275200
    865    863    881     1   109.7800468 425.094400
    866    867    869     1   109.5600471 388.275200
    866    873    875     1   107.2600461 396.643200
    866    864    883     1   109.5600471 388.275200
    867    868    871     1   110.2200475 386.601600
    867    886    876     1   109.2900470 396.643200
    867    866    870     1   109.5600471 388.275200
    868    872    882     1   107.2600461 396.643200
    868    867    869     1   109.5600471 388.275200
    869    867    886     1   109.8800469 414.216000
    870    866    873     1   110.2600474 425.931200
    871    868    872     1   109.4300470 427.604800
    871    868    881     1   109.5800467 425.931200
    874    879    880     1   107.2600461 396.643200
    877    874    879     1   110.2600474 425.931200
    877    874    878     1   108.4600466 328.025600
    878    874    879     1   110.2600474 425.931200
    883    864    884     1   110.2600474 425.931200
    887    889    890     1   108.8800464 416.726400
    887    889    892     1   108.8800464 416.726400
    888    887    889     1   117.6800502 383.254400
    889    891    893     1   109.5600471 388.275200
    889    891    894     1   109.5600471 388.275200
    890    889    891     1   109.5600471 388.275200
    890    889    892     1   108.4600466 328.025600
    891    889    892     1   109.5600471 388.275200
    893    891    895     1   109.8800469 414.216000
    893    891    894     1   108.4600466 328.025600
    894    891    895     1   109.8800469 414.216000
    895    896    905     1   109.8800469 414.216000
    895    896    906     1   109.8800469 414.216000
    895    897    898     1   109.8800469 414.216000
    895    897    900     1   109.8800469 414.216000
    896    907    908     1   109.8000471 387.438400
    896    907    909     1   109.8000471 387.438400
    897    899    901     1   109.8000471 387.438400
    897    899    902     1   109.8000471 387.438400
    898    897    899     1   109.5600471 388.275200
    898    897    900     1   108.4600466 328.025600
    899    897    900     1   109.5600471 388.275200
    901    899    903     1   108.7700466 392.459200
    901    899    902     1   107.5800459 329.699200
    902    899    903     1   108.7700466 392.459200
    903    935    925     1   119.3800509 410.868800
    905    896    907     1   109.5600471 388.275200
    905    896    906     1   108.4600466 328.025600
    906    896    907     1   109.5600471 388.275200
    908    907    910     1   108.7700466 392.459200
    908    907    909     1   107.5800459 329.699200
    909    907    910     1   108.7700466 392.459200
    910    959    949     1   119.3800509 410.868800
    912    913    932     1   109.5600471 388.275200
    912    923    926     1   109.5600471 388.275200
    912    923    927     1   109.5600471 388.275200
    913    912    914     1   109.5600471 388.275200
    913    915    919     1   109.5600471 388.275200
    913    933    934     1   107.2600461 396.643200
    914    912    923     1   109.5600471 388.275200
    914    912    930     1   109.7800468 425.094400
    915    913    932     1   109.5600471 388.275200
    915    916    918     1   109.5600471 388.275200
    915    922    924     1   107.2600461 396.643200
    916    915    919     1   109.5600471 388.275200
    916    917    920     1   110.2200475 386.601600
    916    935    925     1   109.2900470 396.643200
    917    916    918     1   109.5600471 388.275200
    917    921    931     1   107.2600461 396.643200
    918    916    935     1   109.8800469 414.216000
    919    915    922     1   110.2600474 425.931200
    920    917    921     1   109.4300470 427.604800
    920    917    930     1   109.5800467 425.931200
    923    928    929     1   107.2600461 396.643200
    926    923    928     1   110.2600474 425.931200
    926    923    927     1   108.4600466 328.025600
    927    923    928     1   110.2600474 425.931200
    932    913    933     1   110.2600474 425.931200
    936    937    956     1   109.5600471 388.275200
    936    947    950     1   109.5600471 388.275200
    936    947    951     1   109.5600471 388.275200
    937    936    938     1   109.5600471 388.275200
    937    939    943     1   109.5600471 388.275200
    937    957    958     1   107.2600461 396.643200
    938    936    947     1   109.5600471 388.275200
    938    936    954     1   109.7800468 425.094400
    939    937    956     1   109.5600471 388.275200
    939    940    942     1   109.5600471 388.275200
    939    946    948     1   107.2600461 396.643200
    940    939    943     1   109.5600471 388.275200
    940    941    944     1   110.2200475 386.601600
    940    959    949     1   109.2900470 396.643200
    941    940    942     1   109.5600471 388.275200
    941    945    955     1   107.2600461 396.643200
    942    940    959     1   109.8800469 414.216000
    943    939    946     1   110.2600474 425.931200
    944    941    945     1   109.4300470 427.604800
    944    941    954     1   109.5800467 425.931200
    947    952    953     1   107.2600461 396.643200
    950    947    952     1   110.2600474 425.931200
    950    947    951     1   108.4600466 328.025600
    951    947    952     1   110.2600474 425.931200
    956    937    957     1   110.2600474 425.931200
    960    962    963     1   108.8800464 416.726400
    960    962    965     1   108.8800464 416.726400
    961    960    962     1   117.6800502 383.254400
    962    964    966     1   109.5600471 388.275200
    962    964    967     1   109.5600471 388.275200
    963    962    964     1   109.5600471 388.275200
    963    962    965     1   108.4600466 328.025600
    964    962    965     1   109.5600471 388.275200
    966    964    968     1   109.8800469 414.216000
    966    964    967     1   108.4600466 328.025600
    967    964    968     1   109.8800469 414.216000
    968    969    978     1   109.8800469 414.216000
    968    969    979     1   109.8800469 414.216000
    968    970    971     1   109.8800469 414.216000
    968    970    973     1   109.8800469 414.216000
    969    980    981     1   109.8000471 387.438400
    969    980    982     1   109.8000471 387.438400
    970    972    974     1   109.8000471 387.438400
    970    972    975     1   109.8000471 387.438400
    971    970    972     1   109.5600471 388.275200
    971    970    973     1   108.4600466 328.025600
    972    970    973     1   109.5600471 388.275200
    974    972    976     1   108.7700466 392.459200
    974    972    975     1   107.5800459 329.699200
    975    972    976     1   108.7700466 392.459200
    976   1008    998     1   119.3800509 410.868800
    978    969    980     1   109.5600471 388.275200
    978    969    979     1   108.4600466 328.025600
    979    969    980     1   109.5600471 388.275200
    981    980    983     1   108.7700466 392.459200
    981    980    982     1   107.5800459 329.699200
    982    980    983     1   108.7700466 392.459200
    983   1032   1022     1   119.3800509 410.868800
    985    986   1005     1   109.5600471 388.275200
    985    996    999     1   109.5600471 388.275200
    985    996   1000     1   109.5600471 388.275200
    986    988    992     1   109.5600471 388.275200
    986   1006   1007     1   107.2600461 396.643200
    986    985    987     1   109.5600471 388.275200
    987    985    996     1   109.5600471 388.275200
    987    985   1003     1   109.7800468 425.094400
    988    989    991     1   109.5600471 388.275200
    988    995    997     1   107.2600461 396.643200
    988    986   1005     1   109.5600471 388.275200
    989    990    993     1   110.2200475 386.601600
    989   1008    998     1   109.2900470 396.643200
    989    988    992     1   109.5600471 388.275200
    990    994   1004     1   107.2600461 396.643200
    990    989    991     1   109.5600471 388.275200
    991    989   1008     1   109.8800469 414.216000
    992    988    995     1   110.2600474 425.931200
    993    990    994     1   109.4300470 427.604800
    993    990   1003     1   109.5800467 425.931200
    996   1001   1002     1   107.2600461 396.643200
    999    996   1001     1   110.2600474 425.931200
    999    996   1000     1   108.4600466 328.025600
   1000    996   1001     1   110.2600474 425.931200
   1005    986   1006     1   110.2600474 425.931200
   1009   1010   1029     1   109.5600471 388.275200
   1009   1020   1023     1   109.5600471 388.275200
   1009   1020   1024     1   109.5600471 388.275200
   1010   1012   1016     1   109.5600471 388.275200
   1010   1030   1031     1   107.2600461 396.643200
   1010   1009   1011     1   109.5600471 388.275200
   1011   1009   1020     1   109.5600471 388.275200
   1011   1009   1027     1   109.7800468 425.094400
   1012   1013   1015     1   109.5600471 388.275200
   1012   1019   1021     1   107.2600461 396.643200
   1012   1010   1029     1   109.5600471 388.275200
   1013   1014   1017     1   110.2200475 386.601600
   1013   1032   1022     1   109.2900470 396.643200
   1013   1012   1016     1   109.5600471 388.275200
   1014   1018   1028     1   107.2600461 396.643200
   1014   1013   1015     1   109.5600471 388.275200
   1015   1013   1032     1   109.8800469 414.216000
   1016   1012   1019     1   110.2600474 425.931200
   1017   1014   1018     1   109.4300470 427.604800
   1017   1014   1027     1   109.5800467 425.931200
   1020   1025   1026     1   107.2600461 396.643200
   1023   1020   1025     1   110.2600474 425.931200
   1023   1020   1024     1   108.4600466 328.025600
   1024   1020   1025     1   110.2600474 425.931200
   1029   1010   1030     1   110.2600474 425.931200
   1033   1035   1036     1   108.8800464 416.726400
   1033   1035   1038     1   108.8800464 416.726400
   1034   1033   1035     1   117.6800502 383.254400
   1035   1037   1039     1   109.5600471 388.275200
   1035   1037   1040     1   109.5600471 388.275200
   1036   1035   1037     1   109.5600471 388.275200
   1036   1035   1038     1   108.4600466 328.025600
   1037   1035   1038     1   109.5600471 388.275200
   1039   1037   1041     1   109.8800469 414.216000
   1039   1037   1040     1   108.4600466 328.025600
   1040   1037   1041     1   109.8800469 414.216000
   1041   1042   1051     1   109.8800469 414.216000
   1041   1042   1052     1   109.8800469 414.216000
   1041   1043   1044     1   109.8800469 414.216000
   1041   1043   1046     1   109.8800469 414.216000
   1042   1053   1054     1   109.8000471 387.438400
   1042   1053   1055     1   109.8000471 387.438400
   1043   1045   1047     1   109.8000471 387.438400
   1043   1045   1048     1   109.8000471 387.438400
   1044   1043   1045     1   109.5600471 388.275200
   1044   1043   1046     1   108.4600466 328.025600
   1045   1043   1046     1   109.5600471 388.275200
   1047   1045   1049     1   108.7700466 392.459200
   1047   1045   1048     1   107.5800459 329.699200
   1048   1045   1049     1   108.7700466 392.459200
   1049   1081   1071     1   119.3800509 410.868800
   1051   1042   1053     1   109.5600471 388.275200
   1051   1042   1052     1   108.4600466 328.025600
   1052   1042   1053     1   109.5600471 388.275200
   1054   1053   1056     1   108.7700466 392.459200
   1054   1053   1055     1   107.5800459 329.699200
   1055   1053   1056     1   108.7700466 392.459200
   1056   1105   1095     1   119.3800509 410.868800
   1058   1059   1078     1   109.5600471 388.275200
   1058   1069   1072     1   109.5600471 388.275200
   1058   1069   1073     1   109.5600471 388.275200
   1059   1058   1060     1   109.5600471 388.275200
   1059   1061   1065     1   109.5600471 388.275200
   1059   1079   1080     1   107.2600461 396.643200
   1060   1058   1069     1   109.5600471 388.275200
   1060   1058   1076     1   109.7800468 425.094400
   1061   1059   1078     1   109.5600471 388.275200
   1061   1062   1064     1   109.5600471 388.275200
   1061   1068   1070     1   107.2600461 396.643200
   1062   1061   1065     1   109.5600471 388.275200
   1062   1063   1066     1   110.2200475 386.601600
   1062   1081   1071     1   109.2900470 396.643200
   1063   1062   1064     1   109.5600471 388.275200
   1063   1067   1077     1   107.2600461 396.643200
   1064   1062   1081     1   109.8800469 414.216000
   1065   1061   1068     1   110.2600474 425.931200
   1066   1063   1067     1   109.4300470 427.604800
   1066   1063   1076     1   109.5800467 425.931200
   1069   1074   1075     1   107.2600461 396.643200
   1072   1069   1074     1   110.2600474 425.931200
   1072   1069   1073     1   108.4600466 328.025600
   1073   1069   1074     1   110.2600474 425.931200
   1078   1059   1079     1   110.2600474 425.931200
   1082   1083   1102     1   109.5600471 388.275200
   1082   1093   1096     1   109.5600471 388.275200
   1082   1093   1097     1   109.5600471 388.275200
   1083   1082   1084     1   109.5600471 388.275200
   1083   1085   1089     1   109.5600471 388.275200
   1083   1103   1104     1   107.2600461 396.643200
   1084   1082   1093     1   109.5600471 388.275200
   1084   1082   1100     1   109.7800468 425.094400
   1085   1083   1102     1   109.5600471 388.275200
   1085   1086   1088     1   109.5600471 388.275200
   1085   1092   1094     1   107.2600461 396.643200
   1086   1085   1089     1   109.5600471 388.275200
   1086   1087   1090     1   110.2200475 386.601600
   1086   1105   1095     1   109.2900470 396.643200
   1087   1086   1088     1   109.5600471 388.275200
   1087   1091   1101     1   107.2600461 396.643200
   1088   1086   1105     1   109.8800469 414.216000
   1089   1085   1092     1   110.2600474 425.931200
   1090   1087   1091     1   109.4300470 427.604800
   1090   1087   1100     1   109.5800467 425.931200
   1093   1098   1099     1   107.2600461 396.643200
   1096   1093   1098     1   110.2600474 425.931200
   1096   1093   1097     1   108.4600466 328.025600
   1097   1093   1098     1   110.2600474 425.931200
   1102   1083   1103     1   110.2600474 425.931200
   1106   1108   1109     1   108.8800464 416.726400
   1106   1108   1111     1   108.8800464 416.726400
   1107   1106   1108     1   117.6800502 383.254400
   1108   1110   1112     1   109.5600471 388.275200
   1108   1110   1113     1   109.5600471 388.275200
   1109   1108   1110     1   109.5600471 388.275200
   1109   1108   1111     1   108.4600466 328.025600
   1110   1108   1111     1   109.5600471 388.275200
   1112   1110   1114     1   109.8800469 414.216000
   1112   1110   1113     1   108.4600466 328.025600
   1113   1110   1114     1   109.8800469 414.216000
   1114   1115   1124     1   109.8800469 414.216000
   1114   1115   1125     1   109.8800469 414.216000
   1114   1116   1117     1   109.8800469 414.216000
   1114   1116   1119     1   109.8800469 414.216000
   1115   1126   1127     1   109.8000471 387.438400
   1115   1126   1128     1   109.8000471 387.438400
   1116   1118   1120     1   109.8000471 387.438400
   1116   1118   1121     1   109.8000471 387.438400
   1117   1116   1118     1   109.5600471 388.275200
   1117   1116   1119     1   108.4600466 328.025600
   1118   1116   1119     1   109.5600471 388.275200
   1120   1118   1122     1   108.7700466 392.459200
   1120   1118   1121     1   107.5800459 329.699200
   1121   1118   1122     1   108.7700466 392.459200
   1122   1154   1144     1   119.3800509 410.868800
   1124   1115   1126     1   109.5600471 388.275200
   1124   1115   1125     1   108.4600466 328.025600
   1125   1115   1126     1   109.5600471 388.275200
   1127   1126   1129     1   108.7700466 392.459200
   1127   1126   1128     1   107.5800459 329.699200
   1128   1126   1129     1   108.7700466 392.459200
   1129   1178   1168     1   119.3800509 410.868800
   1131   1132   1151     1   109.5600471 388.275200
   1131   1142   1145     1   109.5600471 388.275200
   1131   1142   1146     1   109.5600471 388.275200
   1132   1134   1138     1   109.5600471 388.275200
   1132   1152   1153     1   107.2600461 396.643200
   1132   1131   1133     1   109.5600471 388.275200
   1133   1131   1142     1   109.5600471 388.275200
   1133   1131   1149     1   109.7800468 425.094400
   1134   1135   1137     1   109.5600471 388.275200
   1134   1141   1143     1   107.2600461 396.643200
   1134   1132   1151     1   109.5600471 388.275200
   1135   1136   1139     1   110.2200475 386.601600
   1135   1154   1144     1   109.2900470 396.643200
   1135   1134   1138     1   109.5600471 388.275200
   1136   1140   1150     1   107.2600461 396.643200
   1136   1135   1137     1   109.5600471 388.275200
   1137   1135   1154     1   109.8800469 414.216000
   1138   1134   1141     1   110.2600474 425.931200
   1139   1136   1140     1   109.4300470 427.604800
   1139   1136   1149     1   109.5800467 425.931200
   1142   1147   1148     1   107.2600461 396.643200
   1145   1142   1147     1   110.2600474 425.931200
   1145   1142   1146     1   108.4600466 328.025600
   1146   1142   1147     1   110.2600474 425.931200
   1151   1132   1152     1   110.2600474 425.931200
   1155   1156   1175     1   109.5600471 388.275200
   1155   1166   1169     1   109.5600471 388.275200
   1155   1166   1170     1   109.5600471 388.275200
   1156   1158   1162     1   109.5600471 388.275200
   1156   1176   1177     1   107.2600461 396.643200
   1156   1155   1157     1   109.5600471 388.275200
   1157   1155   1166     1   109.5600471 388.275200
   1157   1155   1173     1   109.7800468 425.094400
   1158   1159   1161     1   109.5600471 388.275200
   1158   1165   1167     1   107.2600461 396.643200
   1158   1156   1175     1   109.5600471 388.275200
   1159   1160   1163     1   110.2200475 386.601600
   1159   1178   1168     1   109.2900470 396.643200
   1159   1158   1162     1   109.5600471 388.275200
   1160   1164   1174     1   107.2600461 396.643200
   1160   1159   1161     1   109.5600471 388.275200
   1161   1159   1178     1   109.8800469 414.216000
   1162   1158   1165     1   110.2600474 425.931200
   1163   1160   1164     1   109.4300470 427.604800
   1163   1160   1173     1   109.5800467 425.931200
   1166   1171   1172     1   107.2600461 396.643200
   1169   1166   1171     1   110.2600474 425.931200
   1169   1166   1170     1   108.4600466 328.025600
   1170   1166   1171     1   110.2600474 425.931200
   1175   1156   1176     1   110.2600474 425.931200
   1179   1181   1182     1   108.8800464 416.726400
   1179   1181   1184     1   108.8800464 416.726400
   1180   1179   1181     1   117.6800502 383.254400
   1181   1183   1185     1   109.5600471 388.275200
   1181   1183   1186     1   109.5600471 388.275200
   1182   1181   1183     1   109.5600471 388.275200
   1182   1181   1184     1   108.4600466 328.025600
   1183   1181   1184     1   109.5600471 388.275200
   1185   1183   1187     1   109.8800469 414.216000
   1185   1183   1186     1   108.4600466 328.025600
   1186   1183   1187     1   109.8800469 414.216000
   1187   1188   1197     1   109.8800469 414.216000
   1187   1188   1198     1   109.8800469 414.216000
   1187   1189   1190     1   109.8800469 414.216000
   1187   1189   1192     1   109.8800469 414.216000
   1188   1199   1200     1   109.8000471 387.438400
   1188   1199   1201     1   109.8000471 387.438400
   1189   1191   1193     1   109.8000471 387.438400
   1189   1191   1194     1   109.8000471 387.438400
   1190   1189   1191     1   109.5600471 388.275200
   1190   1189   1192     1   108.4600466 328.025600
   1191   1189   1192     1   109.5600471 388.275200
   1193   1191   1195     1   108.7700466 392.459200
   1193   1191   1194     1   107.5800459 329.699200
   1194   1191   1195     1   108.7700466 392.459200
   1195   1227   1217     1   119.3800509 410.868800
   1197   1188   1199     1   109.5600471 388.275200
   1197   1188   1198     1   108.4600466 328.025600
   1198   1188   1199     1   109.5600471 388.275200
   1200   1199   1202     1   108.7700466 392.459200
   1200   1199   1201     1   107.5800459 329.699200
   1201   1199   1202     1   108.7700466 392.459200
   1202   1251   1241     1   119.3800509 410.868800
   1204   1205   1224     1   109.5600471 388.275200
   1204   1215   1218     1   109.5600471 388.275200
   1204   1215   1219     1   109.5600471 388.275200
   1205   1204   1206     1   109.5600471 388.275200
   1205   1207   1211     1   109.5600471 388.275200
   1205   1225   1226     1   107.2600461 396.643200
   1206   1204   1215     1   109.5600471 388.275200
   1206   1204   1222     1   109.7800468 425.094400
   1207   1205   1224     1   109.5600471 388.275200
   1207   1208   1210     1   109.5600471 388.275200
   1207   1214   1216     1   107.2600461 396.643200
   1208   1207   1211     1   109.5600471 388.275200
   1208   1209   1212     1   110.2200475 386.601600
   1208   1227   1217     1   109.2900470 396.643200
   1209   1208   1210     1   109.5600471 388.275200
   1209   1213   1223     1   107.2600461 396.643200
   1210   1208   1227     1   109.8800469 414.216000
   1211   1207   1214     1   110.2600474 425.931200
   1212   1209   1213     1   109.4300470 427.604800
   1212   1209   1222     1   109.5800467 425.931200
   1215   1220   1221     1   107.2600461 396.643200
   1218   1215   1220     1   110.2600474 425.931200
   1218   1215   1219     1   108.4600466 328.025600
   1219   1215   1220     1   110.2600474 425.931200
   1224   1205   1225     1   110.2600474 425.931200
   1228   1229   1248     1   109.5600471 388.275200
   1228   1239   1242     1   109.5600471 388.275200
   1228   1239   1243     1   109.5600471 388.275200
   1229   1228   1230     1   109.5600471 388.275200
   1229   1231   1235     1   109.5600471 388.275200
   1229   1249   1250     1   107.2600461 396.643200
   1230   1228   1239     1   109.5600471 388.275200
   1230   1228   1246     1   109.7800468 425.094400
   1231   1229   1248     1   109.5600471 388.275200
   1231   1232   1234     1   109.5600471 388.275200
   1231   1238   1240     1   107.2600461 396.643200
   1232   1231   1235     1   109.5600471 388.275200
   1232   1233   1236     1   110.2200475 386.601600
   1232   1251   1241     1   109.2900470 396.643200
   1233   1232   1234     1   109.5600471 388.275200
   1233   1237   1247     1   107.2600461 396.643200
   1234   1232   1251     1   109.8800469 414.216000
   1235   1231   1238     1   110.2600474 425.931200
   1236   1233   1237     1   109.4300470 427.604800
   1236   1233   1246     1   109.5800467 425.931200
   1239   1244   1245     1   107.2600461 396.643200
   1242   1239   1244     1   110.2600474 425.931200
   1242   1239   1243     1   108.4600466 328.025600
   1243   1239   1244     1   110.2600474 425.931200
   1248   1229   1249     1   110.2600474 425.931200
   1252   1254   1255     1   108.8800464 416.726400
   1252   1254   1257     1   108.8800464 416.726400
   1253   1252   1254     1   117.6800502 383.254400
   1254   1256   1258     1   109.5600471 388.275200
   1254   1256   1259     1   109.5600471 388.275200
   1255   1254   1256     1   109.5600471 388.275200
   1255   1254   1257     1   108.4600466 328.025600
   1256   1254   1257     1   109.5600471 388.275200
   1258   1256   1260     1   109.8800469 414.216000
   1258   1256   1259     1   108.4600466 328.025600
   1259   1256   1260     1   109.8800469 414.216000
   1260   1261   1270     1   109.8800469 414.216000
   1260   1261   1271     1   109.8800469 414.216000
   1260   1262   1263     1   109.8800469 414.216000
   1260   1262   1265     1   109.8800469 414.216000
   1261   1272   1273     1   109.8000471 387.438400
   1261   1272   1274     1   109.8000471 387.438400
   1262   1264   1266     1   109.8000471 387.438400
   1262   1264   1267     1   109.8000471 387.438400
   1263   1262   1264     1   109.5600471 388.275200
   1263   1262   1265     1   108.4600466 328.025600
   1264   1262   1265     1   109.5600471 388.275200
   1266   1264   1268     1   108.7700466 392.459200
   1266   1264   1267     1   107.5800459 329.699200
   1267   1264   1268     1   108.7700466 392.459200
   1268   1300   1290     1   119.3800509 410.868800
   1270   1261   1272     1   109.5600471 388.275200
   1270   1261   1271     1   108.4600466 328.025600
   1271   1261   1272     1   109.5600471 388.275200
   1273   1272   1275     1   108.7700466 392.459200
   1273   1272   1274     1   107.5800459 329.699200
   1274   1272   1275     1   108.7700466 392.459200
   1275   1324   1314     1   119.3800509 410.868800
   1277   1278   1297     1   109.5600471 388.275200
   1277   1288   1291     1   109.5600471 388.275200
   1277   1288   1292     1   109.5600471 388.275200
   1278   1280   1284     1   109.5600471 388.275200
   1278   1298   1299     1   107.2600461 396.643200
   1278   1277   1279     1   109.5600471 388.275200
   1279   1277   1288     1   109.5600471 388.275200
   1279   1277   1295     1   109.7800468 425.094400
   1280   1281   1283     1   109.5600471 388.275200
   1280   1287   1289     1   107.2600461 396.643200
   1280   1278   1297     1   109.5600471 388.275200
   1281   1282   1285     1   110.2200475 386.601600
   1281   1300   1290     1   109.2900470 396.643200
   1281   1280   1284     1   109.5600471 388.275200
   1282   1286   1296     1   107.2600461 396.643200
   1282   1281   1283     1   109.5600471 388.275200
   1283   1281   1300     1   109.8800469 414.216000
   1284   1280   1287     1   110.2600474 425.931200
   1285   1282   1286     1   109.4300470 427.604800
   1285   1282   1295     1   109.5800467 425.931200
   1288   1293   1294     1   107.2600461 396.643200
   1291   1288   1293     1   110.2600474 425.931200
   1291   1288   1292     1   108.4600466 328.025600
   1292   1288   1293     1   110.2600474 425.931200
   1297   1278   1298     1   110.2600474 425.931200
   1301   1302   1321     1   109.5600471 388.275200
   1301   1312   1315     1   109.5600471 388.275200
   1301   1312   1316     1   109.5600471 388.275200
   1302   1304   1308     1   109.5600471 388.275200
   1302   1322   1323     1   107.2600461 396.643200
   1302   1301   1303     1   109.5600471 388.275200
   1303   1301   1312     1   109.5600471 388.275200
   1303   1301   1319     1   109.7800468 425.094400
   1304   1305   1307     1   109.5600471 388.275200
   1304   1311   1313     1   107.2600461 396.643200
   1304   1302   1321     1   109.5600471 388.275200
   1305   1306   1309     1   110.2200475 386.601600
   1305   1324   1314     1   109.2900470 396.643200
   1305   1304   1308     1   109.5600471 388.275200
   1306   1310   1320     1   107.2600461 396.643200
   1306   1305   1307     1   109.5600471 388.275200
   1307   1305   1324     1   109.8800469 414.216000
   1308   1304   1311     1   110.2600474 425.931200
   1309   1306   1310     1   109.4300470 427.604800
   1309   1306   1319     1   109.5800467 425.931200
   1312   1317   1318     1   107.2600461 396.643200
   1315   1312   1317     1   110.2600474 425.931200
   1315   1312   1316     1   108.4600466 328.025600
   1316   1312   1317     1   110.2600474 425.931200
   1321   1302   1322     1   110.2600474 425.931200
   1325   1327   1328     1   108.8800464 416.726400
   1325   1327   1330     1   108.8800464 416.726400
   1326   1325   1327     1   117.6800502 383.254400
   1327   1329   1331     1   109.5600471 388.275200
   1327   1329   1332     1   109.5600471 388.275200
   1328   1327   1329     1   109.5600471 388.275200
   1328   1327   1330     1   108.4600466 328.025600
   1329   1327   1330     1   109.5600471 388.275200
   1331   1329   1333     1   109.8800469 414.216000
   1331   1329   1332     1   108.4600466 328.025600
   1332   1329   1333     1   109.8800469 414.216000
   1333   1334   1343     1   109.8800469 414.216000
   1333   1334   1344     1   109.8800469 414.216000
   1333   1335   1336     1   109.8800469 414.216000
   1333   1335   1338     1   109.8800469 414.216000
   1334   1345   1346     1   109.8000471 387.438400
   1334   1345   1347     1   109.8000471 387.438400
   1335   1337   1339     1   109.8000471 387.438400
   1335   1337   1340     1   109.8000471 387.438400
   1336   1335   1337     1   109.5600471 388.275200
   1336   1335   1338     1   108.4600466 328.025600
   1337   1335   1338     1   109.5600471 388.275200
   1339   1337   1341     1   108.7700466 392.459200
   1339   1337   1340     1   107.5800459 329.699200
   1340   1337   1341     1   108.7700466 392.459200
   1341   1373   1363     1   119.3800509 410.868800
   1343   1334   1345     1   109.5600471 388.275200
   1343   1334   1344     1   108.4600466 328.025600
   1344   1334   1345     1   109.5600471 388.275200
   1346   1345   1348     1   108.7700466 392.459200
   1346   1345   1347     1   107.5800459 329.699200
   1347   1345   1348     1   108.7700466 392.459200
   1348   1397   1387     1   119.3800509 410.868800
   1350   1351   1370     1   109.5600471 388.275200
   1350   1361   1364     1   109.5600471 388.275200
   1350   1361   1365     1   109.5600471 388.275200
   1351   1350   1352     1   109.5600471 388.275200
   1351   1353   1357     1   109.5600471 388.275200
   1351   1371   1372     1   107.2600461 396.643200
   1352   1350   1361     1   109.5600471 388.275200
   1352   1350   1368     1   109.7800468 425.094400
   1353   1351   1370     1   109.5600471 388.275200
   1353   1354   1356     1   109.5600471 388.275200
   1353   1360   1362     1   107.2600461 396.643200
   1354   1353   1357     1   109.5600471 388.275200
   1354   1355   1358     1   110.2200475 386.601600
   1354   1373   1363     1   109.2900470 396.643200
   1355   1354   1356     1   109.5600471 388.275200
   1355   1359   1369     1   107.2600461 396.643200
   1356   1354   1373     1   109.8800469 414.216000
   1357   1353   1360     1   110.2600474 425.931200
   1358   1355   1359     1   109.4300470 427.604800
   1358   1355   1368     1   109.5800467 425.931200
   1361   1366   1367     1   107.2600461 396.643200
   1364   1361   1366     1   110.2600474 425.931200
   1364   1361   1365     1   108.4600466 328.025600
   1365   1361   1366     1   110.2600474 425.931200
   1370   1351   1371     1   110.2600474 425.931200
   1374   1375   1394     1   109.5600471 388.275200
   1374   1385   1388     1   109.5600471 388.275200
   1374   1385   1389     1   109.5600471 388.275200
   1375   1374   1376     1   109.5600471 388.275200
   1375   1377   1381     1   109.5600471 388.275200
   1375   1395   1396     1   107.2600461 396.643200
   1376   1374   1385     1   109.5600471 388.275200
   1376   1374   1392     1   109.7800468 425.094400
   1377   1375   1394     1   109.5600471 388.275200
   1377   1378   1380     1   109.5600471 388.275200
   1377   1384   1386     1   107.2600461 396.643200
   1378   1377   1381     1   109.5600471 388.275200
   1378   1379   1382     1   110.2200475 386.601600
   1378   1397   1387     1   109.2900470 396.643200
   1379   1378   1380     1   109.5600471 388.275200
   1379   1383   1393     1   107.2600461 396.643200
   1380   1378   1397     1   109.8800469 414.216000
   1381   1377   1384     1   110.2600474 425.931200
   1382   1379   1383     1   109.4300470 427.604800
   1382   1379   1392     1   109.5800467 425.931200
   1385   1390   1391     1   107.2600461 396.643200
   1388   1385   1390     1   110.2600474 425.931200
   1388   1385   1389     1   108.4600466 328.025600
   1389   1385   1390     1   110.2600474 425.931200
   1394   1375   1395     1   110.2600474 425.931200
   1398   1400   1401     1   108.8800464 416.726400
   1398   1400   1403     1   108.8800464 416.726400
   1399   1398   1400     1   117.6800502 383.254400
   1400   1402   1404     1   109.5600471 388.275200
   1400   1402   1405     1   109.5600471 388.275200
   1401   1400   1402     1   109.5600471 388.275200
   1401   1400   1403     1   108.4600466 328.025600
   1402   1400   1403     1   109.5600471 388.275200
   1404   1402   1406     1   109.8800469 414.216000
   1404   1402   1405     1   108.4600466 328.025600
   1405   1402   1406     1   109.8800469 414.216000
   1406   1407   1416     1   109.8800469 414.216000
   1406   1407   1417     1   109.8800469 414.216000
   1406   1408   1409     1   109.8800469 414.216000
   1406   1408   1411     1   109.8800469 414.216000
   1407   1418   1419     1   109.8000471 387.438400
   1407   1418   1420     1   109.8000471 387.438400
   1408   1410   1412     1   109.8000471 387.438400
   1408   1410   1413     1   109.8000471 387.438400
   1409   1408   1410     1   109.5600471 388.275200
   1409   1408   1411     1   108.4600466 328.025600
   1410   1408   1411     1   109.5600471 388.275200
   1412   1410   1414     1   108.7700466 392.459200
   1412   1410   1413     1   107.5800459 329.699200
   1413   1410   1414     1   108.7700466 392.459200
   1414   1446   1436     1   119.3800509 410.868800
   1416   1407   1418     1   109.5600471 388.275200
   1416   1407   1417     1   108.4600466 328.025600
   1417   1407   1418     1   109.5600471 388.275200
   1419   1418   1421     1   108.7700466 392.459200
   1419   1418   1420     1   107.5800459 329.699200
   1420   1418   1421     1   108.7700466 392.459200
   1421   1470   1460     1   119.3800509 410.868800
   1423   1424   1443     1   109.5600471 388.275200
   1423   1434   1437     1   109.5600471 388.275200
   1423   1434   1438     1   109.5600471 388.275200
   1424   1426   1430     1   109.5600471 388.275200
   1424   1444   1445     1   107.2600461 396.643200
   1424   1423   1425     1   109.5600471 388.275200
   1425   1423   1434     1   109.5600471 388.275200
   1425   1423   1441     1   109.7800468 425.094400
   1426   1427   1429     1   109.5600471 388.275200
   1426   1433   1435     1   107.2600461 396.643200
   1426   1424   1443     1   109.5600471 388.275200
   1427   1428   1431     1   110.2200475 386.601600
   1427   1446   1436     1   109.2900470 396.643200
   1427   1426   1430     1   109.5600471 388.275200
   1428   1432   1442     1   107.2600461 396.643200
   1428   1427   1429     1   109.5600471 388.275200
   1429   1427   1446     1   109.8800469 414.216000
   1430   1426   1433     1   110.2600474 425.931200
   1431   1428   1432     1   109.4300470 427.604800
   1431   1428   1441     1   109.5800467 425.931200
   1434   1439   1440     1   107.2600461 396.643200
   1437   1434   1439     1   110.2600474 425.931200
   1437   1434   1438     1   108.4600466 328.025600
   1438   1434   1439     1   110.2600474 425.931200
   1443   1424   1444     1   110.2600474 425.931200
   1447   1448   1467     1   109.5600471 388.275200
   1447   1458   1461     1   109.5600471 388.275200
   1447   1458   1462     1   109.5600471 388.275200
   1448   1450   1454     1   109.5600471 388.275200
   1448   1468   1469     1   107.2600461 396.643200
   1448   1447   1449     1   109.5600471 388.275200
   1449   1447   1458     1   109.5600471 388.275200
   1449   1447   1465     1   109.7800468 425.094400
   1450   1451   1453     1   109.5600471 388.275200
   1450   1457   1459     1   107.2600461 396.643200
   1450   1448   1467     1   109.5600471 388.275200
   1451   1452   1455     1   110.2200475 386.601600
   1451   1470   1460     1   109.2900470 396.643200
   1451   1450   1454     1   109.5600471 388.275200
   1452   1456   1466     1   107.2600461 396.643200
   1452   1451   1453     1   109.5600471 388.275200
   1453   1451   1470     1   109.8800469 414.216000
   1454   1450   1457     1   110.2600474 425.931200
   1455   1452   1456     1   109.4300470 427.604800
   1455   1452   1465     1   109.5800467 425.931200
   1458   1463   1464     1   107.2600461 396.643200
   1461   1458   1463     1   110.2600474 425.931200
   1461   1458   1462     1   108.4600466 328.025600
   1462   1458   1463     1   110.2600474 425.931200
   1467   1448   1468     1   110.2600474 425.931200
   1471   1473   1474     1   108.8800464 416.726400
   1471   1473   1476     1   108.8800464 416.726400
   1472   1471   1473     1   117.6800502 383.254400
   1473   1475   1477     1   109.5600471 388.275200
   1473   1475   1478     1   109.5600471 388.275200
   1474   1473   1475     1   109.5600471 388.275200
   1474   1473   1476     1   108.4600466 328.025600
   1475   1473   1476     1   109.5600471 388.275200
   1477   1475   1479     1   109.8800469 414.216000
   1477   1475   1478     1   108.4600466 328.025600
   1478   1475   1479     1   109.8800469 414.216000
   1479   1480   1489     1   109.8800469 414.216000
   1479   1480   1490     1   109.8800469 414.216000
   1479   1481   1482     1   109.8800469 414.216000
   1479   1481   1484     1   109.8800469 414.216000
   1480   1491   1492     1   109.8000471 387.438400
   1480   1491   1493     1   109.8000471 387.438400
   1481   1483   1485     1   109.8000471 387.438400
   1481   1483   1486     1   109.8000471 387.438400
   1482   1481   1483     1   109.5600471 388.275200
   1482   1481   1484     1   108.4600466 328.025600
   1483   1481   1484     1   109.5600471 388.275200
   1485   1483   1487     1   108.7700466 392.459200
   1485   1483   1486     1   107.5800459 329.699200
   1486   1483   1487     1   108.7700466 392.459200
   1487   1519   1509     1   119.3800509 410.868800
   1489   1480   1491     1   109.5600471 388.275200
   1489   1480   1490     1   108.4600466 328.025600
   1490   1480   1491     1   109.5600471 388.275200
   1492   1491   1494     1   108.7700466 392.459200
   1492   1491   1493     1   107.5800459 329.699200
   1493   1491   1494     1   108.7700466 392.459200
   1494   1543   1533     1   119.3800509 410.868800
   1496   1497   1516     1   109.5600471 388.275200
   1496   1507   1510     1   109.5600471 388.275200
   1496   1507   1511     1   109.5600471 388.275200
   1497   1496   1498     1   109.5600471 388.275200
   1497   1499   1503     1   109.5600471 388.275200
   1497   1517   1518     1   107.2600461 396.643200
   1498   1496   1507     1   109.5600471 388.275200
   1498   1496   1514     1   109.7800468 425.094400
   1499   1497   1516     1   109.5600471 388.275200
   1499   1500   1502     1   109.5600471 388.275200
   1499   1506   1508     1   107.2600461 396.643200
   1500   1499   1503     1   109.5600471 388.275200
   1500   1501   1504     1   110.2200475 386.601600
   1500   1519   1509     1   109.2900470 396.643200
   1501   1500   1502     1   109.5600471 388.275200
   1501   1505   1515     1   107.2600461 396.643200
   1502   1500   1519     1   109.8800469 414.216000
   1503   1499   1506     1   110.2600474 425.931200
   1504   1501   1505     1   109.4300470 427.604800
   1504   1501   1514     1   109.5800467 425.931200
   1507   1512   1513     1   107.2600461 396.643200
   1510   1507   1512     1   110.2600474 425.931200
   1510   1507   1511     1   108.4600466 328.025600
   1511   1507   1512     1   110.2600474 425.931200
   1516   1497   1517     1   110.2600474 425.931200
   1520   1521   1540     1   109.5600471 388.275200
   1520   1531   1534     1   109.5600471 388.275200
   1520   1531   1535     1   109.5600471 388.275200
   1521   1520   1522     1   109.5600471 388.275200
   1521   1523   1527     1   109.5600471 388.275200
   1521   1541   1542     1   107.2600461 396.643200
   1522   1520   1531     1   109.5600471 388.275200
   1522   1520   1538     1   109.7800468 425.094400
   1523   1521   1540     1   109.5600471 388.275200
   1523   1524   1526     1   109.5600471 388.275200
   1523   1530   1532     1   107.2600461 396.643200
   1524   1523   1527     1   109.5600471 388.275200
   1524   1525   1528     1   110.2200475 386.601600
   1524   1543   1533     1   109.2900470 396.643200
   1525   1524   1526     1   109.5600471 388.275200
   1525   1529   1539     1   107.2600461 396.643200
   1526   1524   1543     1   109.8800469 414.216000
   1527   1523   1530     1   110.2600474 425.931200
   1528   1525   1529     1   109.4300470 427.604800
   1528   1525   1538     1   109.5800467 425.931200
   1531   1536   1537     1   107.2600461 396.643200
   1534   1531   1536     1   110.2600474 425.931200
   1534   1531   1535     1   108.4600466 328.025600
   1535   1531   1536     1   110.2600474 425.931200
   1540   1521   1541     1   110.2600474 425.931200
   1544   1546   1547     1   108.8800464 416.726400
   1544   1546   1549     1   108.8800464 416.726400
   1545   1544   1546     1   117.6800502 383.254400
   1546   1548   1550     1   109.5600471 388.275200
   1546   1548   1551     1   109.5600471 388.275200
   1547   1546   1548     1   109.5600471 388.275200
   1547   1546   1549     1   108.4600466 328.025600
   1548   1546   1549     1   109.5600471 388.275200
   1550   1548   1552     1   109.8800469 414.216000
   1550   1548   1551     1   108.4600466 328.025600
   1551   1548   1552     1   109.8800469 414.216000
   1552   1553   1562     1   109.8800469 414.216000
   1552   1553   1563     1   109.8800469 414.216000
   1552   1554   1555     1   109.8800469 414.216000
   1552   1554   1557     1   109.8800469 414.216000
   1553   1564   1565     1   109.8000471 387.438400
   1553   1564   1566     1   109.8000471 387.438400
   1554   1556   1558     1   109.8000471 387.438400
   1554   1556   1559     1   109.8000471 387.438400
   1555   1554   1556     1   109.5600471 388.275200
   1555   1554   1557     1   108.4600466 328.025600
   1556   1554   1557     1   109.5600471 388.275200
   1558   1556   1560     1   108.7700466 392.459200
   1558   1556   1559     1   107.5800459 329.699200
   1559   1556   1560     1   108.7700466 392.459200
   1560   1592   1582     1   119.3800509 410.868800
   1562   1553   1564     1   109.5600471 388.275200
   1562   1553   1563     1   108.4600466 328.025600
   1563   1553   1564     1   109.5600471 388.275200
   1565   1564   1567     1   108.7700466 392.459200
   1565   1564   1566     1   107.5800459 329.699200
   1566   1564   1567     1   108.7700466 392.459200
   1567   1616   1606     1   119.3800509 410.868800
   1569   1570   1589     1   109.5600471 388.275200
   1569   1580   1583     1   109.5600471 388.275200
   1569   1580   1584     1   109.5600471 388.275200
   1570   1572   1576     1   109.5600471 388.275200
   1570   1590   1591     1   107.2600461 396.643200
   1570   1569   1571     1   109.5600471 388.275200
   1571   1569   1580     1   109.5600471 388.275200
   1571   1569   1587     1   109.7800468 425.094400
   1572   1573   1575     1   109.5600471 388.275200
   1572   1579   1581     1   107.2600461 396.643200
   1572   1570   1589     1   109.5600471 388.275200
   1573   1574   1577     1   110.2200475 386.601600
   1573   1592   1582     1   109.2900470 396.643200
   1573   1572   1576     1   109.5600471 388.275200
   1574   1578   1588     1   107.2600461 396.643200
   1574   1573   1575     1   109.5600471 388.275200
   1575   1573   1592     1   109.8800469 414.216000
   1576   1572   1579     1   110.2600474 425.931200
   1577   1574   1578     1   109.4300470 427.604800
   1577   1574   1587     1   109.5800467 425.931200
   1580   1585   1586     1   107.2600461 396.643200
   1583   1580   1585     1   110.2600474 425.931200
   1583   1580   1584     1   108.4600466 328.025600
   1584   1580   1585     1   110.2600474 425.931200
   1589   1570   1590     1   110.2600474 425.931200
   1593   1594   1613     1   109.5600471 388.275200
   1593   1604   1607     1   109.5600471 388.275200
   1593   1604   1608     1   109.5600471 388.275200
   1594   1596   1600     1   109.5600471 388.275200
   1594   1614   1615     1   107.2600461 396.643200
   1594   1593   1595     1   109.5600471 388.275200
   1595   1593   1604     1   109.5600471 388.275200
   1595   1593   1611     1   109.7800468 425.094400
   1596   1597   1599     1   109.5600471 388.275200
   1596   1603   1605     1   107.2600461 396.643200
   1596   1594   1613     1   109.5600471 388.275200
   1597   1598   1601     1   110.2200475 386.601600
   1597   1616   1606     1   109.2900470 396.643200
   1597   1596   1600     1   109.5600471 388.275200
   1598   1602   1612     1   107.2600461 396.643200
   1598   1597   1599     1   109.5600471 388.275200
   1599   1597   1616     1   109.8800469 414.216000
   1600   1596   1603     1   110.2600474 425.931200
   1601   1598   1602     1   109.4300470 427.604800
   1601   1598   1611     1   109.5800467 425.931200
   1604   1609   1610     1   107.2600461 396.643200
   1607   1604   1609     1   110.2600474 425.931200
   1607   1604   1608     1   108.4600466 328.025600
   1608   1604   1609     1   110.2600474 425.931200
   1613   1594   1614     1   110.2600474 425.931200
   1617   1619   1620     1   108.8800464 416.726400
   1617   1619   1622     1   108.8800464 416.726400
   1618   1617   1619     1   117.6800502 383.254400
   1619   1621   1623     1   109.5600471 388.275200
   1619   1621   1624     1   109.5600471 388.275200
   1620   1619   1621     1   109.5600471 388.275200
   1620   1619   1622     1   108.4600466 328.025600
   1621   1619   1622     1   109.5600471 388.275200
   1623   1621   1625     1   109.8800469 414.216000
   1623   1621   1624     1   108.4600466 328.025600
   1624   1621   1625     1   109.8800469 414.216000
   1625   1626   1635     1   109.8800469 414.216000
   1625   1626   1636     1   109.8800469 414.216000
   1625   1627   1628     1   109.8800469 414.216000
   1625   1627   1630     1   109.8800469 414.216000
   1626   1637   1638     1   109.8000471 387.438400
   1626   1637   1639     1   109.8000471 387.438400
   1627   1629   1631     1   109.8000471 387.438400
   1627   1629   1632     1   109.8000471 387.438400
   1628   1627   1629     1   109.5600471 388.275200
   1628   1627   1630     1   108.4600466 328.025600
   1629   1627   1630     1   109.5600471 388.275200
   1631   1629   1633     1   108.7700466 392.459200
   1631   1629   1632     1   107.5800459 329.699200
   1632   1629   1633     1   108.7700466 392.459200
   1633   1665   1655     1   119.3800509 410.868800
   1635   1626   1637     1   109.5600471 388.275200
   1635   1626   1636     1   108.4600466 328.025600
   1636   1626   1637     1   109.5600471 388.275200
   1638   1637   1640     1   108.7700466 392.459200
   1638   1637   1639     1   107.5800459 329.699200
   1639   1637   1640     1   108.7700466 392.459200
   1640   1689   1679     1   119.3800509 410.868800
   1642   1643   1662     1   109.5600471 388.275200
   1642   1653   1656     1   109.5600471 388.275200
   1642   1653   1657     1   109.5600471 388.275200
   1643   1642   1644     1   109.5600471 388.275200
   1643   1645   1649     1   109.5600471 388.275200
   1643   1663   1664     1   107.2600461 396.643200
   1644   1642   1653     1   109.5600471 388.275200
   1644   1642   1660     1   109.7800468 425.094400
   1645   1643   1662     1   109.5600471 388.275200
   1645   1646   1648     1   109.5600471 388.275200
   1645   1652   1654     1   107.2600461 396.643200
   1646   1645   1649     1   109.5600471 388.275200
   1646   1647   1650     1   110.2200475 386.601600
   1646   1665   1655     1   109.2900470 396.643200
   1647   1646   1648     1   109.5600471 388.275200
   1647   1651   1661     1   107.2600461 396.643200
   1648   1646   1665     1   109.8800469 414.216000
   1649   1645   1652     1   110.2600474 425.931200
   1650   1647   1651     1   109.4300470 427.604800
   1650   1647   1660     1   109.5800467 425.931200
   1653   1658   1659     1   107.2600461 396.643200
   1656   1653   1658     1   110.2600474 425.931200
   1656   1653   1657     1   108.4600466 328.025600
   1657   1653   1658     1   110.2600474 425.931200
   1662   1643   1663     1   110.2600474 425.931200
   1666   1667   1686     1   109.5600471 388.275200
   1666   1677   1680     1   109.5600471 388.275200
   1666   1677   1681     1   109.5600471 388.275200
   1667   1666   1668     1   109.5600471 388.275200
   1667   1669   1673     1   109.5600471 388.275200
   1667   1687   1688     1   107.2600461 396.643200
   1668   1666   1677     1   109.5600471 388.275200
   1668   1666   1684     1   109.7800468 425.094400
   1669   1667   1686     1   109.5600471 388.275200
   1669   1670   1672     1   109.5600471 388.275200
   1669   1676   1678     1   107.2600461 396.643200
   1670   1669   1673     1   109.5600471 388.275200
   1670   1671   1674     1   110.2200475 386.601600
   1670   1689   1679     1   109.2900470 396.643200
   1671   1670   1672     1   109.5600471 388.275200
   1671   1675   1685     1   107.2600461 396.643200
   1672   1670   1689     1   109.8800469 414.216000
   1673   1669   1676     1   110.2600474 425.931200
   1674   1671   1675     1   109.4300470 427.604800
   1674   1671   1684     1   109.5800467 425.931200
   1677   1682   1683     1   107.2600461 396.643200
   1680   1677   1682     1   110.2600474 425.931200
   1680   1677   1681     1   108.4600466 328.025600
   1681   1677   1682     1   110.2600474 425.931200
   1686   1667   1687     1   110.2600474 425.931200
   1690   1692   1693     1   108.8800464 416.726400
   1690   1692   1695     1   108.8800464 416.726400
   1691   1690   1692     1   117.6800502 383.254400
   1692   1694   1696     1   109.5600471 388.275200
   1692   1694   1697     1   109.5600471 388.275200
   1693   1692   1694     1   109.5600471 388.275200
   1693   1692   1695     1   108.4600466 328.025600
   1694   1692   1695     1   109.5600471 388.275200
   1696   1694   1698     1   109.8800469 414.216000
   1696   1694   1697     1   108.4600466 328.025600
   1697   1694   1698     1   109.8800469 414.216000
   1698   1699   1708     1   109.8800469 414.216000
   1698   1699   1709     1   109.8800469 414.216000
   1698   1700   1701     1   109.8800469 414.216000
   1698   1700   1703     1   109.8800469 414.216000
   1699   1710   1711     1   109.8000471 387.438400
   1699   1710   1712     1   109.8000471 387.438400
   1700   1702   1704     1   109.8000471 387.438400
   1700   1702   1705     1   109.8000471 387.438400
   1701   1700   1702     1   109.5600471 388.275200
   1701   1700   1703     1   108.4600466 328.025600
   1702   1700   1703     1   109.5600471 388.275200
   1704   1702   1706     1   108.7700466 392.459200
   1704   1702   1705     1   107.5800459 329.699200
   1705   1702   1706     1   108.7700466 392.459200
   1706   1738   1728     1   119.3800509 410.868800
   1708   1699   1710     1   109.5600471 388.275200
   1708   1699   1709     1   108.4600466 328.025600
   1709   1699   1710     1   109.5600471 388.275200
   1711   1710   1713     1   108.7700466 392.459200
   1711   1710   1712     1   107.5800459 329.699200
   1712   1710   1713     1   108.7700466 392.459200
   1713   1762   1752     1   119.3800509 410.868800
   1715   1716   1735     1   109.5600471 388.275200
   1715   1726   1729     1   109.5600471 388.275200
   1715   1726   1730     1   109.5600471 388.275200
   1716   1718   1722     1   109.5600471 388.275200
   1716   1736   1737     1   107.2600461 396.643200
   1716   1715   1717     1   109.5600471 388.275200
   1717   1715   1726     1   109.5600471 388.275200
   1717   1715   1733     1   109.7800468 425.094400
   1718   1719   1721     1   109.5600471 388.275200
   1718   1725   1727     1   107.2600461 396.643200
   1718   1716   1735     1   109.5600471 388.275200
   1719   1720   1723     1   110.2200475 386.601600
   1719   1738   1728     1   109.2900470 396.643200
   1719   1718   1722     1   109.5600471 388.275200
   1720   1724   1734     1   107.2600461 396.643200
   1720   1719   1721     1   109.5600471 388.275200
   1721   1719   1738     1   109.8800469 414.216000
   1722   1718   1725     1   110.2600474 425.931200
   1723   1720   1724     1   109.4300470 427.604800
   1723   1720   1733     1   109.5800467 425.931200
   1726   1731   1732     1   107.2600461 396.643200
   1729   1726   1731     1   110.2600474 425.931200
   1729   1726   1730     1   108.4600466 328.025600
   1730   1726   1731     1   110.2600474 425.931200
   1735   1716   1736     1   110.2600474 425.931200
   1739   1740   1759     1   109.5600471 388.275200
   1739   1750   1753     1   109.5600471 388.275200
   1739   1750   1754     1   109.5600471 388.275200
   1740   1742   1746     1   109.5600471 388.275200
   1740   1760   1761     1   107.2600461 396.643200
   1740   1739   1741     1   109.5600471 388.275200
   1741   1739   1750     1   109.5600471 388.275200
   1741   1739   1757     1   109.7800468 425.094400
   1742   1743   1745     1   109.5600471 388.275200
   1742   1749   1751     1   107.2600461 396.643200
   1742   1740   1759     1   109.5600471 388.275200
   1743   1744   1747     1   110.2200475 386.601600
   1743   1762   1752     1   109.2900470 396.643200
   1743   1742   1746     1   109.5600471 388.275200
   1744   1748   1758     1   107.2600461 396.643200
   1744   1743   1745     1   109.5600471 388.275200
   1745   1743   1762     1   109.8800469 414.216000
   1746   1742   1749     1   110.2600474 425.931200
   1747   1744   1748     1   109.4300470 427.604800
   1747   1744   1757     1   109.5800467 425.931200
   1750   1755   1756     1   107.2600461 396.643200
   1753   1750   1755     1   110.2600474 425.931200
   1753   1750   1754     1   108.4600466 328.025600
   1754   1750   1755     1   110.2600474 425.931200
   1759   1740   1760     1   110.2600474 425.931200
   1763   1765   1766     1   108.8800464 416.726400
   1763   1765   1768     1   108.8800464 416.726400
   1764   1763   1765     1   117.6800502 383.254400
   1765   1767   1769     1   109.5600471 388.275200
   1765   1767   1770     1   109.5600471 388.275200
   1766   1765   1767     1   109.5600471 388.275200
   1766   1765   1768     1   108.4600466 328.025600
   1767   1765   1768     1   109.5600471 388.275200
   1769   1767   1771     1   109.8800469 414.216000
   1769   1767   1770     1   108.4600466 328.025600
   1770   1767   1771     1   109.8800469 414.216000
   1771   1772   1781     1   109.8800469 414.216000
   1771   1772   1782     1   109.8800469 414.216000
   1771   1773   1774     1   109.8800469 414.216000
   1771   1773   1776     1   109.8800469 414.216000
   1772   1783   1784     1   109.8000471 387.438400
   1772   1783   1785     1   109.8000471 387.438400
   1773   1775   1777     1   109.8000471 387.438400
   1773   1775   1778     1   109.8000471 387.438400
   1774   1773   1775     1   109.5600471 388.275200
   1774   1773   1776     1   108.4600466 328.025600
   1775   1773   1776     1   109.5600471 388.275200
   1777   1775   1779     1   108.7700466 392.459200
   1777   1775   1778     1   107.5800459 329.699200
   1778   1775   1779     1   108.7700466 392.459200
   1779   1811   1801     1   119.3800509 410.868800
   1781   1772   1783     1   109.5600471 388.275200
   1781   1772   1782     1   108.4600466 328.025600
   1782   1772   1783     1   109.5600471 388.275200
   1784   1783   1786     1   108.7700466 392.459200
   1784   1783   1785     1   107.5800459 329.699200
   1785   1783   1786     1   108.7700466 392.459200
   1786   1835   1825     1   119.3800509 410.868800
   1788   1789   1808     1   109.5600471 388.275200
   1788   1799   1802     1   109.5600471 388.275200
   1788   1799   1803     1   109.5600471 388.275200
   1789   1788   1790     1   109.5600471 388.275200
   1789   1791   1795     1   109.5600471 388.275200
   1789   1809   1810     1   107.2600461 396.643200
   1790   1788   1799     1   109.5600471 388.275200
   1790   1788   1806     1   109.7800468 425.094400
   1791   1789   1808     1   109.5600471 388.275200
   1791   1792   1794     1   109.5600471 388.275200
   1791   1798   1800     1   107.2600461 396.643200
   1792   1791   1795     1   109.5600471 388.275200
   1792   1793   1796     1   110.2200475 386.601600
   1792   1811   1801     1   109.2900470 396.643200
   1793   1792   1794     1   109.5600471 388.275200
   1793   1797   1807     1   107.2600461 396.643200
   1794   1792   1811     1   109.8800469 414.216000
   1795   1791   1798     1   110.2600474 425.931200
   1796   1793   1797     1   109.4300470 427.604800
   1796   1793   1806     1   109.5800467 425.931200
   1799   1804   1805     1   107.2600461 396.643200
   1802   1799   1804     1   110.2600474 425.931200
   1802   1799   1803     1   108.4600466 328.025600
   1803   1799   1804     1   110.2600474 425.931200
   1808   1789   1809     1   110.2600474 425.931200
   1812   1813   1832     1   109.5600471 388.275200
   1812   1823   1826     1   109.5600471 388.275200
   1812   1823   1827     1   109.5600471 388.275200
   1813   1812   1814     1   109.5600471 388.275200
   1813   1815   1819     1   109.5600471 388.275200
   1813   1833   1834     1   107.2600461 396.643200
   1814   1812   1823     1   109.5600471 388.275200
   1814   1812   1830     1   109.7800468 425.094400
   1815   1813   1832     1   109.5600471 388.275200
   1815   1816   1818     1   109.5600471 388.275200
   1815   1822   1824     1   107.2600461 396.643200
   1816   1815   1819     1   109.5600471 388.275200
   1816   1817   1820     1   110.2200475 386.601600
   1816   1835   1825     1   109.2900470 396.643200
   1817   1816   1818     1   109.5600471 388.275200
   1817   1821   1831     1   107.2600461 396.643200
   1818   1816   1835     1   109.8800469 414.216000
   1819   1815   1822     1   110.2600474 425.931200
   1820   1817   1821     1   109.4300470 427.604800
   1820   1817   1830     1   109.5800467 425.931200
   1823   1828   1829     1   107.2600461 396.643200
   1826   1823   1828     1   110.2600474 425.931200
   1826   1823   1827     1   108.4600466 328.025600
   1827   1823   1828     1   110.2600474 425.931200
   1832   1813   1833     1   110.2600474 425.931200
   1836   1838   1839     1   108.8800464 416.726400
   1836   1838   1841     1   108.8800464 416.726400
   1837   1836   1838     1   117.6800502 383.254400
   1838   1840   1842     1   109.5600471 388.275200
   1838   1840   1843     1   109.5600471 388.275200
   1839   1838   1840     1   109.5600471 388.275200
   1839   1838   1841     1   108.4600466 328.025600
   1840   1838   1841     1   109.5600471 388.275200
   1842   1840   1844     1   109.8800469 414.216000
   1842   1840   1843     1   108.4600466 328.025600
   1843   1840   1844     1   109.8800469 414.216000
   1844   1845   1854     1   109.8800469 414.216000
   1844   1845   1855     1   109.8800469 414.216000
   1844   1846   1847     1   109.8800469 414.216000
   1844   1846   1849     1   109.8800469 414.216000
   1845   1856   1857     1   109.8000471 387.438400
   1845   1856   1858     1   109.8000471 387.438400
   1846   1848   1850     1   109.8000471 387.438400
   1846   1848   1851     1   109.8000471 387.438400
   1847   1846   1848     1   109.5600471 388.275200
   1847   1846   1849     1   108.4600466 328.025600
   1848   1846   1849     1   109.5600471 388.275200
   1850   1848   1852     1   108.7700466 392.459200
   1850   1848   1851     1   107.5800459 329.699200
   1851   1848   1852     1   108.7700466 392.459200
   1852   1884   1874     1   119.3800509 410.868800
   1854   1845   1856     1   109.5600471 388.275200
   1854   1845   1855     1   108.4600466 328.025600
   1855   1845   1856     1   109.5600471 388.275200
   1857   1856   1859     1   108.7700466 392.459200
   1857   1856   1858     1   107.5800459 329.699200
   1858   1856   1859     1   108.7700466 392.459200
   1859   1908   1898     1   119.3800509 410.868800
   1861   1862   1881     1   109.5600471 388.275200
   1861   1872   1875     1   109.5600471 388.275200
   1861   1872   1876     1   109.5600471 388.275200
   1862   1864   1868     1   109.5600471 388.275200
   1862   1882   1883     1   107.2600461 396.643200
   1862   1861   1863     1   109.5600471 388.275200
   1863   1861   1872     1   109.5600471 388.275200
   1863   1861   1879     1   109.7800468 425.094400
   1864   1865   1867     1   109.5600471 388.275200
   1864   1871   1873     1   107.2600461 396.643200
   1864   1862   1881     1   109.5600471 388.275200
   1865   1866   1869     1   110.2200475 386.601600
   1865   1884   1874     1   109.2900470 396.643200
   1865   1864   1868     1   109.5600471 388.275200
   1866   1870   1880     1   107.2600461 396.643200
   1866   1865   1867     1   109.5600471 388.275200
   1867   1865   1884     1   109.8800469 414.216000
   1868   1864   1871     1   110.2600474 425.931200
   1869   1866   1870     1   109.4300470 427.604800
   1869   1866   1879     1   109.5800467 425.931200
   1872   1877   1878     1   107.2600461 396.643200
   1875   1872   1877     1   110.2600474 425.931200
   1875   1872   1876     1   108.4600466 328.025600
   1876   1872   1877     1   110.2600474 425.931200
   1881   1862   1882     1   110.2600474 425.931200
   1885   1886   1905     1   109.5600471 388.275200
   1885   1896   1899     1   109.5600471 388.275200
   1885   1896   1900     1   109.5600471 388.275200
   1886   1888   1892     1   109.5600471 388.275200
   1886   1906   1907     1   107.2600461 396.643200
   1886   1885   1887     1   109.5600471 388.275200
   1887   1885   1896     1   109.5600471 388.275200
   1887   1885   1903     1   109.7800468 425.094400
   1888   1889   1891     1   109.5600471 388.275200
   1888   1895   1897     1   107.2600461 396.643200
   1888   1886   1905     1   109.5600471 388.275200
   1889   1890   1893     1   110.2200475 386.601600
   1889   1908   1898     1   109.2900470 396.643200
   1889   1888   1892     1   109.5600471 388.275200
   1890   1894   1904     1   107.2600461 396.643200
   1890   1889   1891     1   109.5600471 388.275200
   1891   1889   1908     1   109.8800469 414.216000
   1892   1888   1895     1   110.2600474 425.931200
   1893   1890   1894     1   109.4300470 427.604800
   1893   1890   1903     1   109.5800467 425.931200
   1896   1901   1902     1   107.2600461 396.643200
   1899   1896   1901     1   110.2600474 425.931200
   1899   1896   1900     1   108.4600466 328.025600
   1900   1896   1901     1   110.2600474 425.931200
   1905   1886   1906     1   110.2600474 425.931200
   1909   1911   1912     1   108.8800464 416.726400
   1909   1911   1914     1   108.8800464 416.726400
   1910   1909   1911     1   117.6800502 383.254400
   1911   1913   1915     1   109.5600471 388.275200
   1911   1913   1916     1   109.5600471 388.275200
   1912   1911   1913     1   109.5600471 388.275200
   1912   1911   1914     1   108.4600466 328.025600
   1913   1911   1914     1   109.5600471 388.275200
   1915   1913   1917     1   109.8800469 414.216000
   1915   1913   1916     1   108.4600466 328.025600
   1916   1913   1917     1   109.8800469 414.216000
   1917   1918   1927     1   109.8800469 414.216000
   1917   1918   1928     1   109.8800469 414.216000
   1917   1919   1920     1   109.8800469 414.216000
   1917   1919   1922     1   109.8800469 414.216000
   1918   1929   1930     1   109.8000471 387.438400
   1918   1929   1931     1   109.8000471 387.438400
   1919   1921   1923     1   109.8000471 387.438400
   1919   1921   1924     1   109.8000471 387.438400
   1920   1919   1921     1   109.5600471 388.275200
   1920   1919   1922     1   108.4600466 328.025600
   1921   1919   1922     1   109.5600471 388.275200
   1923   1921   1925     1   108.7700466 392.459200
   1923   1921   1924     1   107.5800459 329.699200
   1924   1921   1925     1   108.7700466 392.459200
   1925   1957   1947     1   119.3800509 410.868800
   1927   1918   1929     1   109.5600471 388.275200
   1927   1918   1928     1   108.4600466 328.025600
   1928   1918   1929     1   109.5600471 388.275200
   1930   1929   1932     1   108.7700466 392.459200
   1930   1929   1931     1   107.5800459 329.699200
   1931   1929   1932     1   108.7700466 392.459200
   1932   1981   1971     1   119.3800509 410.868800
   1934   1935   1954     1   109.5600471 388.275200
   1934   1945   1948     1   109.5600471 388.275200
   1934   1945   1949     1   109.5600471 388.275200
   1935   1934   1936     1   109.5600471 388.275200
   1935   1937   1941     1   109.5600471 388.275200
   1935   1955   1956     1   107.2600461 396.643200
   1936   1934   1945     1   109.5600471 388.275200
   1936   1934   1952     1   109.7800468 425.094400
   1937   1935   1954     1   109.5600471 388.275200
   1937   1938   1940     1   109.5600471 388.275200
   1937   1944   1946     1   107.2600461 396.643200
   1938   1937   1941     1   109.5600471 388.275200
   1938   1939   1942     1   110.2200475 386.601600
   1938   1957   1947     1   109.2900470 396.643200
   1939   1938   1940     1   109.5600471 388.275200
   1939   1943   1953     1   107.2600461 396.643200
   1940   1938   1957     1   109.8800469 414.216000
   1941   1937   1944     1   110.2600474 425.931200
   1942   1939   1943     1   109.4300470 427.604800
   1942   1939   1952     1   109.5800467 425.931200
   1945   1950   1951     1   107.2600461 396.643200
   1948   1945   1950     1   110.2600474 425.931200
   1948   1945   1949     1   108.4600466 328.025600
   1949   1945   1950     1   110.2600474 425.931200
   1954   1935   1955     1   110.2600474 425.931200
   1958   1959   1978     1   109.5600471 388.275200
   1958   1969   1972     1   109.5600471 388.275200
   1958   1969   1973     1   109.5600471 388.275200
   1959   1958   1960     1   109.5600471 388.275200
   1959   1961   1965     1   109.5600471 388.275200
   1959   1979   1980     1   107.2600461 396.643200
   1960   1958   1969     1   109.5600471 388.275200
   1960   1958   1976     1   109.7800468 425.094400
   1961   1959   1978     1   109.5600471 388.275200
   1961   1962   1964     1   109.5600471 388.275200
   1961   1968   1970     1   107.2600461 396.643200
   1962   1961   1965     1   109.5600471 388.275200
   1962   1963   1966     1   110.2200475 386.601600
   1962   1981   1971     1   109.2900470 396.643200
   1963   1962   1964     1   109.5600471 388.275200
   1963   1967   1977     1   107.2600461 396.643200
   1964   1962   1981     1   109.8800469 414.216000
   1965   1961   1968     1   110.2600474 425.931200
   1966   1963   1967     1   109.4300470 427.604800
   1966   1963   1976     1   109.5800467 425.931200
   1969   1974   1975     1   107.2600461 396.643200
   1972   1969   1974     1   110.2600474 425.931200
   1972   1969   1973     1   108.4600466 328.025600
   1973   1969   1974     1   110.2600474 425.931200
   1978   1959   1979     1   110.2600474 425.931200
   1982   1984   1985     1   108.8800464 416.726400
   1982   1984   1987     1   108.8800464 416.726400
   1983   1982   1984     1   117.6800502 383.254400
   1984   1986   1988     1   109.5600471 388.275200
   1984   1986   1989     1   109.5600471 388.275200
   1985   1984   1986     1   109.5600471 388.275200
   1985   1984   1987     1   108.4600466 328.025600
   1986   1984   1987     1   109.5600471 388.275200
   1988   1986   1990     1   109.8800469 414.216000
   1988   1986   1989     1   108.4600466 328.025600
   1989   1986   1990     1   109.8800469 414.216000
   1990   1991   2000     1   109.8800469 414.216000
   1990   1991   2001     1   109.8800469 414.216000
   1990   1992   1993     1   109.8800469 414.216000
   1990   1992   1995     1   109.8800469 414.216000
   1991   2002   2003     1   109.8000471 387.438400
   1991   2002   2004     1   109.8000471 387.438400
   1992   1994   1996     1   109.8000471 387.438400
   1992   1994   1997     1   109.8000471 387.438400
   1993   1992   1994     1   109.5600471 388.275200
   1993   1992   1995     1   108.4600466 328.025600
   1994   1992   1995     1   109.5600471 388.275200
   1996   1994   1998     1   108.7700466 392.459200
   1996   1994   1997     1   107.5800459 329.699200
   1997   1994   1998     1   108.7700466 392.459200
   1998   2030   2020     1   119.3800509 410.868800
   2000   1991   2002     1   109.5600471 388.275200
   2000   1991   2001     1   108.4600466 328.025600
   2001   1991   2002     1   109.5600471 388.275200
   2003   2002   2005     1   108.7700466 392.459200
   2003   2002   2004     1   107.5800459 329.699200
   2004   2002   2005     1   108.7700466 392.459200
   2005   2054   2044     1   119.3800509 410.868800
   2007   2008   2027     1   109.5600471 388.275200
   2007   2018   2021     1   109.5600471 388.275200
   2007   2018   2022     1   109.5600471 388.275200
   2008   2010   2014     1   109.5600471 388.275200
   2008   2028   2029     1   107.2600461 396.643200
   2008   2007   2009     1   109.5600471 388.275200
   2009   2007   2018     1   109.5600471 388.275200
   2009   2007   2025     1   109.7800468 425.094400
   2010   2011   2013     1   109.5600471 388.275200
   2010   2017   2019     1   107.2600461 396.643200
   2010   2008   2027     1   109.5600471 388.275200
   2011   2012   2015     1   110.2200475 386.601600
   2011   2030   2020     1   109.2900470 396.643200
   2011   2010   2014     1   109.5600471 388.275200
   2012   2016   2026     1   107.2600461 396.643200
   2012   2011   2013     1   109.5600471 388.275200
   2013   2011   2030     1   109.8800469 414.216000
   2014   2010   2017     1   110.2600474 425.931200
   2015   2012   2016     1   109.4300470 427.604800
   2015   2012   2025     1   109.5800467 425.931200
   2018   2023   2024     1   107.2600461 396.643200
   2021   2018   2023     1   110.2600474 425.931200
   2021   2018   2022     1   108.4600466 328.025600
   2022   2018   2023     1   110.2600474 425.931200
   2027   2008   2028     1   110.2600474 425.931200
   2031   2032   2051     1   109.5600471 388.275200
   2031   2042   2045     1   109.5600471 388.275200
   2031   2042   2046     1   109.5600471 388.275200
   2032   2034   2038     1   109.5600471 388.275200
   2032   2052   2053     1   107.2600461 396.643200
   2032   2031   2033     1   109.5600471 388.275200
   2033   2031   2042     1   109.5600471 388.275200
   2033   2031   2049     1   109.7800468 425.094400
   2034   2035   2037     1   109.5600471 388.275200
   2034   2041   2043     1   107.2600461 396.643200
   2034   2032   2051     1   109.5600471 388.275200
   2035   2036   2039     1   110.2200475 386.601600
   2035   2054   2044     1   109.2900470 396.643200
   2035   2034   2038     1   109.5600471 388.275200
   2036   2040   2050     1   107.2600461 396.643200
   2036   2035   2037     1   109.5600471 388.275200
   2037   2035   2054     1   109.8800469 414.216000
   2038   2034   2041     1   110.2600474 425.931200
   2039   2036   2040     1   109.4300470 427.604800
   2039   2036   2049     1   109.5800467 425.931200
   2042   2047   2048     1   107.2600461 396.643200
   2045   2042   2047     1   110.2600474 425.931200
   2045   2042   2046     1   108.4600466 328.025600
   2046   2042   2047     1   110.2600474 425.931200
   2051   2032   2052     1   110.2600474 425.931200
   2055   2057   2058     1   108.8800464 416.726400
   2055   2057   2060     1   108.8800464 416.726400
   2056   2055   2057     1   117.6800502 383.254400
   2057   2059   2061     1   109.5600471 388.275200
   2057   2059   2062     1   109.5600471 388.275200
   2058   2057   2059     1   109.5600471 388.275200
   2058   2057   2060     1   108.4600466 328.025600
   2059   2057   2060     1   109.5600471 388.275200
   2061   2059   2063     1   109.8800469 414.216000
   2061   2059   2062     1   108.4600466 328.025600
   2062   2059   2063     1   109.8800469 414.216000
   2063   2064   2073     1   109.8800469 414.216000
   2063   2064   2074     1   109.8800469 414.216000
   2063   2065   2066     1   109.8800469 414.216000
   2063   2065   2068     1   109.8800469 414.216000
   2064   2075   2076     1   109.8000471 387.438400
   2064   2075   2077     1   109.8000471 387.438400
   2065   2067   2069     1   109.8000471 387.438400
   2065   2067   2070     1   109.8000471 387.438400
   2066   2065   2067     1   109.5600471 388.275200
   2066   2065   2068     1   108.4600466 328.025600
   2067   2065   2068     1   109.5600471 388.275200
   2069   2067   2071     1   108.7700466 392.459200
   2069   2067   2070     1   107.5800459 329.699200
   2070   2067   2071     1   108.7700466 392.459200
   2071   2103   2093     1   119.3800509 410.868800
   2073   2064   2075     1   109.5600471 388.275200
   2073   2064   2074     1   108.4600466 328.025600
   2074   2064   2075     1   109.5600471 388.275200
   2076   2075   2078     1   108.7700466 392.459200
   2076   2075   2077     1   107.5800459 329.699200
   2077   2075   2078     1   108.7700466 392.459200
   2078   2127   2117     1   119.3800509 410.868800
   2080   2081   2100     1   109.5600471 388.275200
   2080   2091   2094     1   109.5600471 388.275200
   2080   2091   2095     1   109.5600471 388.275200
   2081   2080   2082     1   109.5600471 388.275200
   2081   2083   2087     1   109.5600471 388.275200
   2081   2101   2102     1   107.2600461 396.643200
   2082   2080   2091     1   109.5600471 388.275200
   2082   2080   2098     1   109.7800468 425.094400
   2083   2081   2100     1   109.5600471 388.275200
   2083   2084   2086     1   109.5600471 388.275200
   2083   2090   2092     1   107.2600461 396.643200
   2084   2083   2087     1   109.5600471 388.275200
   2084   2085   2088     1   110.2200475 386.601600
   2084   2103   2093     1   109.2900470 396.643200
   2085   2084   2086     1   109.5600471 388.275200
   2085   2089   2099     1   107.2600461 396.643200
   2086   2084   2103     1   109.8800469 414.216000
   2087   2083   2090     1   110.2600474 425.931200
   2088   2085   2089     1   109.4300470 427.604800
   2088   2085   2098     1   109.5800467 425.931200
   2091   2096   2097     1   107.2600461 396.643200
   2094   2091   2096     1   110.2600474 425.931200
   2094   2091   2095     1   108.4600466 328.025600
   2095   2091   2096     1   110.2600474 425.931200
   2100   2081   2101     1   110.2600474 425.931200
   2104   2105   2124     1   109.5600471 388.275200
   2104   2115   2118     1   109.5600471 388.275200
   2104   2115   2119     1   109.5600471 388.275200
   2105   2104   2106     1   109.5600471 388.275200
   2105   2107   2111     1   109.5600471 388.275200
   2105   2125   2126     1   107.2600461 396.643200
   2106   2104   2115     1   109.5600471 388.275200
   2106   2104   2122     1   109.7800468 425.094400
   2107   2105   2124     1   109.5600471 388.275200
   2107   2108   2110     1   109.5600471 388.275200
   2107   2114   2116     1   107.2600461 396.643200
   2108   2107   2111     1   109.5600471 388.275200
   2108   2109   2112     1   110.2200475 386.601600
   2108   2127   2117     1   109.2900470 396.643200
   2109   2108   2110     1   109.5600471 388.275200
   2109   2113   2123     1   107.2600461 396.643200
   2110   2108   2127     1   109.8800469 414.216000
   2111   2107   2114     1   110.2600474 425.931200
   2112   2109   2113     1   109.4300470 427.604800
   2112   2109   2122     1   109.5800467 425.931200
   2115   2120   2121     1   107.2600461 396.643200
   2118   2115   2120     1   110.2600474 425.931200
   2118   2115   2119     1   108.4600466 328.025600
   2119   2115   2120     1   110.2600474 425.931200
   2124   2105   2125     1   110.2600474 425.931200
   2128   2130   2131     1   108.8800464 416.726400
   2128   2130   2133     1   108.8800464 416.726400
   2129   2128   2130     1   117.6800502 383.254400
   2130   2132   2134     1   109.5600471 388.275200
   2130   2132   2135     1   109.5600471 388.275200
   2131   2130   2132     1   109.5600471 388.275200
   2131   2130   2133     1   108.4600466 328.025600
   2132   2130   2133     1   109.5600471 388.275200
   2134   2132   2136     1   109.8800469 414.216000
   2134   2132   2135     1   108.4600466 328.025600
   2135   2132   2136     1   109.8800469 414.216000
   2136   2137   2146     1   109.8800469 414.216000
   2136   2137   2147     1   109.8800469 414.216000
   2136   2138   2139     1   109.8800469 414.216000
   2136   2138   2141     1   109.8800469 414.216000
   2137   2148   2149     1   109.8000471 387.438400
   2137   2148   2150     1   109.8000471 387.438400
   2138   2140   2142     1   109.8000471 387.438400
   2138   2140   2143     1   109.8000471 387.438400
   2139   2138   2140     1   109.5600471 388.275200
   2139   2138   2141     1   108.4600466 328.025600
   2140   2138   2141     1   109.5600471 388.275200
   2142   2140   2144     1   108.7700466 392.459200
   2142   2140   2143     1   107.5800459 329.699200
   2143   2140   2144     1   108.7700466 392.459200
   2144   2176   2166     1   119.3800509 410.868800
   2146   2137   2148     1   109.5600471 388.275200
   2146   2137   2147     1   108.4600466 328.025600
   2147   2137   2148     1   109.5600471 388.275200
   2149   2148   2151     1   108.7700466 392.459200
   2149   2148   2150     1   107.5800459 329.699200
   2150   2148   2151     1   108.7700466 392.459200
   2151   2200   2190     1   119.3800509 410.868800
   2153   2154   2173     1   109.5600471 388.275200
   2153   2164   2167     1   109.5600471 388.275200
   2153   2164   2168     1   109.5600471 388.275200
   2154   2156   2160     1   109.5600471 388.275200
   2154   2174   2175     1   107.2600461 396.643200
   2154   2153   2155     1   109.5600471 388.275200
   2155   2153   2164     1   109.5600471 388.275200
   2155   2153   2171     1   109.7800468 425.094400
   2156   2157   2159     1   109.5600471 388.275200
   2156   2163   2165     1   107.2600461 396.643200
   2156   2154   2173     1   109.5600471 388.275200
   2157   2158   2161     1   110.2200475 386.601600
   2157   2176   2166     1   109.2900470 396.643200
   2157   2156   2160     1   109.5600471 388.275200
   2158   2162   2172     1   107.2600461 396.643200
   2158   2157   2159     1   109.5600471 388.275200
   2159   2157   2176     1   109.8800469 414.216000
   2160   2156   2163     1   110.2600474 425.931200
   2161   2158   2162     1   109.4300470 427.604800
   2161   2158   2171     1   109.5800467 425.931200
   2164   2169   2170     1   107.2600461 396.643200
   2167   2164   2169     1   110.2600474 425.931200
   2167   2164   2168     1   108.4600466 328.025600
   2168   2164   2169     1   110.2600474 425.931200
   2173   2154   2174     1   110.2600474 425.931200
   2177   2178   2197     1   109.5600471 388.275200
   2177   2188   2191     1   109.5600471 388.275200
   2177   2188   2192     1   109.5600471 388.275200
   2178   2180   2184     1   109.5600471 388.275200
   2178   2198   2199     1   107.2600461 396.643200
   2178   2177   2179     1   109.5600471 388.275200
   2179   2177   2188     1   109.5600471 388.275200
   2179   2177   2195     1   109.7800468 425.094400
   2180   2181   2183     1   109.5600471 388.275200
   2180   2187   2189     1   107.2600461 396.643200
   2180   2178   2197     1   109.5600471 388.275200
   2181   2182   2185     1   110.2200475 386.601600
   2181   2200   2190     1   109.2900470 396.643200
   2181   2180   2184     1   109.5600471 388.275200
   2182   2186   2196     1   107.2600461 396.643200
   2182   2181   2183     1   109.5600471 388.275200
   2183   2181   2200     1   109.8800469 414.216000
   2184   2180   2187     1   110.2600474 425.931200
   2185   2182   2186     1   109.4300470 427.604800
   2185   2182   2195     1   109.5800467 425.931200
   2188   2193   2194     1   107.2600461 396.643200
   2191   2188   2193     1   110.2600474 425.931200
   2191   2188   2192     1   108.4600466 328.025600
   2192   2188   2193     1   110.2600474 425.931200
   2197   2178   2198     1   110.2600474 425.931200
   2201   2203   2204     1   108.8800464 416.726400
   2201   2203   2206     1   108.8800464 416.726400
   2202   2201   2203     1   117.6800502 383.254400
   2203   2205   2207     1   109.5600471 388.275200
   2203   2205   2208     1   109.5600471 388.275200
   2204   2203   2205     1   109.5600471 388.275200
   2204   2203   2206     1   108.4600466 328.025600
   2205   2203   2206     1   109.5600471 388.275200
   2207   2205   2209     1   109.8800469 414.216000
   2207   2205   2208     1   108.4600466 328.025600
   2208   2205   2209     1   109.8800469 414.216000
   2209   2210   2219     1   109.8800469 414.216000
   2209   2210   2220     1   109.8800469 414.216000
   2209   2211   2212     1   109.8800469 414.216000
   2209   2211   2214     1   109.8800469 414.216000
   2210   2221   2222     1   109.8000471 387.438400
   2210   2221   2223     1   109.8000471 387.438400
   2211   2213   2215     1   109.8000471 387.438400
   2211   2213   2216     1   109.8000471 387.438400
   2212   2211   2213     1   109.5600471 388.275200
   2212   2211   2214     1   108.4600466 328.025600
   2213   2211   2214     1   109.5600471 388.275200
   2215   2213   2217     1   108.7700466 392.459200
   2215   2213   2216     1   107.5800459 329.699200
   2216   2213   2217     1   108.7700466 392.459200
   2217   2249   2239     1   119.3800509 410.868800
   2219   2210   2221     1   109.5600471 388.275200
   2219   2210   2220     1   108.4600466 328.025600
   2220   2210   2221     1   109.5600471 388.275200
   2222   2221   2224     1   108.7700466 392.459200
   2222   2221   2223     1   107.5800459 329.699200
   2223   2221   2224     1   108.7700466 392.459200
   2224   2273   2263     1   119.3800509 410.868800
   2226   2227   2246     1   109.5600471 388.275200
   2226   2237   2240     1   109.5600471 388.275200
   2226   2237   2241     1   109.5600471 388.275200
   2227   2226   2228     1   109.5600471 388.275200
   2227   2229   2233     1   109.5600471 388.275200
   2227   2247   2248     1   107.2600461 396.643200
   2228   2226   2237     1   109.5600471 388.275200
   2228   2226   2244     1   109.7800468 425.094400
   2229   2227   2246     1   109.5600471 388.275200
   2229   2230   2232     1   109.5600471 388.275200
   2229   2236   2238     1   107.2600461 396.643200
   2230   2229   2233     1   109.5600471 388.275200
   2230   2231   2234     1   110.2200475 386.601600
   2230   2249   2239     1   109.2900470 396.643200
   2231   2230   2232     1   109.5600471 388.275200
   2231   2235   2245     1   107.2600461 396.643200
   2232   2230   2249     1   109.8800469 414.216000
   2233   2229   2236     1   110.2600474 425.931200
   2234   2231   2235     1   109.4300470 427.604800
   2234   2231   2244     1   109.5800467 425.931200
   2237   2242   2243     1   107.2600461 396.643200
   2240   2237   2242     1   110.2600474 425.931200
   2240   2237   2241     1   108.4600466 328.025600
   2241   2237   2242     1   110.2600474 425.931200
   2246   2227   2247     1   110.2600474 425.931200
   2250   2251   2270     1   109.5600471 388.275200
   2250   2261   2264     1   109.5600471 388.275200
   2250   2261   2265     1   109.5600471 388.275200
   2251   2250   2252     1   109.5600471 388.275200
   2251   2253   2257     1   109.5600471 388.275200
   2251   2271   2272     1   107.2600461 396.643200
   2252   2250   2261     1   109.5600471 388.275200
   2252   2250   2268     1   109.7800468 425.094400
   2253   2251   2270     1   109.5600471 388.275200
   2253   2254   2256     1   109.5600471 388.275200
   2253   2260   2262     1   107.2600461 396.643200
   2254   2253   2257     1   109.5600471 388.275200
   2254   2255   2258     1   110.2200475 386.601600
   2254   2273   2263     1   109.2900470 396.643200
   2255   2254   2256     1   109.5600471 388.275200
   2255   2259   2269     1   107.2600461 396.643200
   2256   2254   2273     1   109.8800469 414.216000
   2257   2253   2260     1   110.2600474 425.931200
   2258   2255   2259     1   109.4300470 427.604800
   2258   2255   2268     1   109.5800467 425.931200
   2261   2266   2267     1   107.2600461 396.643200
   2264   2261   2266     1   110.2600474 425.931200
   2264   2261   2265     1   108.4600466 328.025600
   2265   2261   2266     1   110.2600474 425.931200
   2270   2251   2271     1   110.2600474 425.931200
   2274   2276   2277     1   108.8800464 416.726400
   2274   2276   2279     1   108.8800464 416.726400
   2275   2274   2276     1   117.6800502 383.254400
   2276   2278   2280     1   109.5600471 388.275200
   2276   2278   2281     1   109.5600471 388.275200
   2277   2276   2278     1   109.5600471 388.275200
   2277   2276   2279     1   108.4600466 328.025600
   2278   2276   2279     1   109.5600471 388.275200
   2280   2278   2282     1   109.8800469 414.216000
   2280   2278   2281     1   108.4600466 328.025600
   2281   2278   2282     1   109.8800469 414.216000
   2282   2283   2292     1   109.8800469 414.216000
   2282   2283   2293     1   109.8800469 414.216000
   2282   2284   2285     1   109.8800469 414.216000
   2282   2284   2287     1   109.8800469 414.216000
   2283   2294   2295     1   109.8000471 387.438400
   2283   2294   2296     1   109.8000471 387.438400
   2284   2286   2288     1   109.8000471 387.438400
   2284   2286   2289     1   109.8000471 387.438400
   2285   2284   2286     1   109.5600471 388.275200
   2285   2284   2287     1   108.4600466 328.025600
   2286   2284   2287     1   109.5600471 388.275200
   2288   2286   2290     1   108.7700466 392.459200
   2288   2286   2289     1   107.5800459 329.699200
   2289   2286   2290     1   108.7700466 392.459200
   2290   2322   2312     1   119.3800509 410.868800
   2292   2283   2294     1   109.5600471 388.275200
   2292   2283   2293     1   108.4600466 328.025600
   2293   2283   2294     1   109.5600471 388.275200
   2295   2294   2297     1   108.7700466 392.459200
   2295   2294   2296     1   107.5800459 329.699200
   2296   2294   2297     1   108.7700466 392.459200
   2297   2346   2336     1   119.3800509 410.868800
   2299   2300   2319     1   109.5600471 388.275200
   2299   2310   2313     1   109.5600471 388.275200
   2299   2310   2314     1   109.5600471 388.275200
   2300   2302   2306     1   109.5600471 388.275200
   2300   2320   2321     1   107.2600461 396.643200
   2300   2299   2301     1   109.5600471 388.275200
   2301   2299   2310     1   109.5600471 388.275200
   2301   2299   2317     1   109.7800468 425.094400
   2302   2303   2305     1   109.5600471 388.275200
   2302   2309   2311     1   107.2600461 396.643200
   2302   2300   2319     1   109.5600471 388.275200
   2303   2304   2307     1   110.2200475 386.601600
   2303   2322   2312     1   109.2900470 396.643200
   2303   2302   2306     1   109.5600471 388.275200
   2304   2308   2318     1   107.2600461 396.643200
   2304   2303   2305     1   109.5600471 388.275200
   2305   2303   2322     1   109.8800469 414.216000
   2306   2302   2309     1   110.2600474 425.931200
   2307   2304   2308     1   109.4300470 427.604800
   2307   2304   2317     1   109.5800467 425.931200
   2310   2315   2316     1   107.2600461 396.643200
   2313   2310   2315     1   110.2600474 425.931200
   2313   2310   2314     1   108.4600466 328.025600
   2314   2310   2315     1   110.2600474 425.931200
   2319   2300   2320     1   110.2600474 425.931200
   2323   2324   2343     1   109.5600471 388.275200
   2323   2334   2337     1   109.5600471 388.275200
   2323   2334   2338     1   109.5600471 388.275200
   2324   2326   2330     1   109.5600471 388.275200
   2324   2344   2345     1   107.2600461 396.643200
   2324   2323   2325     1   109.5600471 388.275200
   2325   2323   2334     1   109.5600471 388.275200
   2325   2323   2341     1   109.7800468 425.094400
   2326   2327   2329     1   109.5600471 388.275200
   2326   2333   2335     1   107.2600461 396.643200
   2326   2324   2343     1   109.5600471 388.275200
   2327   2328   2331     1   110.2200475 386.601600
   2327   2346   2336     1   109.2900470 396.643200
   2327   2326   2330     1   109.5600471 388.275200
   2328   2332   2342     1   107.2600461 396.643200
   2328   2327   2329     1   109.5600471 388.275200
   2329   2327   2346     1   109.8800469 414.216000
   2330   2326   2333     1   110.2600474 425.931200
   2331   2328   2332     1   109.4300470 427.604800
   2331   2328   2341     1   109.5800467 425.931200
   2334   2339   2340     1   107.2600461 396.643200
   2337   2334   2339     1   110.2600474 425.931200
   2337   2334   2338     1   108.4600466 328.025600
   2338   2334   2339     1   110.2600474 425.931200
   2343   2324   2344     1   110.2600474 425.931200
   2347   2349   2350     1   108.8800464 416.726400
   2347   2349   2352     1   108.8800464 416.726400
   2348   2347   2349     1   117.6800502 383.254400
   2349   2351   2353     1   109.5600471 388.275200
   2349   2351   2354     1   109.5600471 388.275200
   2350   2349   2351     1   109.5600471 388.275200
   2350   2349   2352     1   108.4600466 328.025600
   2351   2349   2352     1   109.5600471 388.275200
   2353   2351   2355     1   109.8800469 414.216000
   2353   2351   2354     1   108.4600466 328.025600
   2354   2351   2355     1   109.8800469 414.216000
   2355   2356   2365     1   109.8800469 414.216000
   2355   2356   2366     1   109.8800469 414.216000
   2355   2357   2358     1   109.8800469 414.216000
   2355   2357   2360     1   109.8800469 414.216000
   2356   2367   2368     1   109.8000471 387.438400
   2356   2367   2369     1   109.8000471 387.438400
   2357   2359   2361     1   109.8000471 387.438400
   2357   2359   2362     1   109.8000471 387.438400
   2358   2357   2359     1   109.5600471 388.275200
   2358   2357   2360     1   108.4600466 328.025600
   2359   2357   2360     1   109.5600471 388.275200
   2361   2359   2363     1   108.7700466 392.459200
   2361   2359   2362     1   107.5800459 329.699200
   2362   2359   2363     1   108.7700466 392.459200
   2363   2395   2385     1   119.3800509 410.868800
   2365   2356   2367     1   109.5600471 388.275200
   2365   2356   2366     1   108.4600466 328.025600
   2366   2356   2367     1   109.5600471 388.275200
   2368   2367   2370     1   108.7700466 392.459200
   2368   2367   2369     1   107.5800459 329.699200
   2369   2367   2370     1   108.7700466 392.459200
   2370   2419   2409     1   119.3800509 410.868800
   2372   2373   2392     1   109.5600471 388.275200
   2372   2383   2386     1   109.5600471 388.275200
   2372   2383   2387     1   109.5600471 388.275200
   2373   2372   2374     1   109.5600471 388.275200
   2373   2375   2379     1   109.5600471 388.275200
   2373   2393   2394     1   107.2600461 396.643200
   2374   2372   2383     1   109.5600471 388.275200
   2374   2372   2390     1   109.7800468 425.094400
   2375   2373   2392     1   109.5600471 388.275200
   2375   2376   2378     1   109.5600471 388.275200
   2375   2382   2384     1   107.2600461 396.643200
   2376   2375   2379     1   109.5600471 388.275200
   2376   2377   2380     1   110.2200475 386.601600
   2376   2395   2385     1   109.2900470 396.643200
   2377   2376   2378     1   109.5600471 388.275200
   2377   2381   2391     1   107.2600461 396.643200
   2378   2376   2395     1   109.8800469 414.216000
   2379   2375   2382     1   110.2600474 425.931200
   2380   2377   2381     1   109.4300470 427.604800
   2380   2377   2390     1   109.5800467 425.931200
   2383   2388   2389     1   107.2600461 396.643200
   2386   2383   2388     1   110.2600474 425.931200
   2386   2383   2387     1   108.4600466 328.025600
   2387   2383   2388     1   110.2600474 425.931200
   2392   2373   2393     1   110.2600474 425.931200
   2396   2397   2416     1   109.5600471 388.275200
   2396   2407   2410     1   109.5600471 388.275200
   2396   2407   2411     1   109.5600471 388.275200
   2397   2396   2398     1   109.5600471 388.275200
   2397   2399   2403     1   109.5600471 388.275200
   2397   2417   2418     1   107.2600461 396.643200
   2398   2396   2407     1   109.5600471 388.275200
   2398   2396   2414     1   109.7800468 425.094400
   2399   2397   2416     1   109.5600471 388.275200
   2399   2400   2402     1   109.5600471 388.275200
   2399   2406   2408     1   107.2600461 396.643200
   2400   2399   2403     1   109.5600471 388.275200
   2400   2401   2404     1   110.2200475 386.601600
   2400   2419   2409     1   109.2900470 396.643200
   2401   2400   2402     1   109.5600471 388.275200
   2401   2405   2415     1   107.2600461 396.643200
   2402   2400   2419     1   109.8800469 414.216000
   2403   2399   2406     1   110.2600474 425.931200
   2404   2401   2405     1   109.4300470 427.604800
   2404   2401   2414     1   109.5800467 425.931200
   2407   2412   2413     1   107.2600461 396.643200
   2410   2407   2412     1   110.2600474 425.931200
   2410   2407   2411     1   108.4600466 328.025600
   2411   2407   2412     1   110.2600474 425.931200
   2416   2397   2417     1   110.2600474 425.931200
   2420   2422   2423     1   108.8800464 416.726400
   2420   2422   2425     1   108.8800464 416.726400
   2421   2420   2422     1   117.6800502 383.254400
   2422   2424   2426     1   109.5600471 388.275200
   2422   2424   2427     1   109.5600471 388.275200
   2423   2422   2424     1   109.5600471 388.275200
   2423   2422   2425     1   108.4600466 328.025600
   2424   2422   2425     1   109.5600471 388.275200
   2426   2424   2428     1   109.8800469 414.216000
   2426   2424   2427     1   108.4600466 328.025600
   2427   2424   2428     1   109.8800469 414.216000
   2428   2429   2438     1   109.8800469 414.216000
   2428   2429   2439     1   109.8800469 414.216000
   2428   2430   2431     1   109.8800469 414.216000
   2428   2430   2433     1   109.8800469 414.216000
   2429   2440   2441     1   109.8000471 387.438400
   2429   2440   2442     1   109.8000471 387.438400
   2430   2432   2434     1   109.8000471 387.438400
   2430   2432   2435     1   109.8000471 387.438400
   2431   2430   2432     1   109.5600471 388.275200
   2431   2430   2433     1   108.4600466 328.025600
   2432   2430   2433     1   109.5600471 388.275200
   2434   2432   2436     1   108.7700466 392.459200
   2434   2432   2435     1   107.5800459 329.699200
   2435   2432   2436     1   108.7700466 392.459200
   2436   2468   2458     1   119.3800509 410.868800
   2438   2429   2440     1   109.5600471 388.275200
   2438   2429   2439     1   108.4600466 328.025600
   2439   2429   2440     1   109.5600471 388.275200
   2441   2440   2443     1   108.7700466 392.459200
   2441   2440   2442     1   107.5800459 329.699200
   2442   2440   2443     1   108.7700466 392.459200
   2443   2492   2482     1   119.3800509 410.868800
   2445   2446   2465     1   109.5600471 388.275200
   2445   2456   2459     1   109.5600471 388.275200
   2445   2456   2460     1   109.5600471 388.275200
   2446   2448   2452     1   109.5600471 388.275200
   2446   2466   2467     1   107.2600461 396.643200
   2446   2445   2447     1   109.5600471 388.275200
   2447   2445   2456     1   109.5600471 388.275200
   2447   2445   2463     1   109.7800468 425.094400
   2448   2449   2451     1   109.5600471 388.275200
   2448   2455   2457     1   107.2600461 396.643200
   2448   2446   2465     1   109.5600471 388.275200
   2449   2450   2453     1   110.2200475 386.601600
   2449   2468   2458     1   109.2900470 396.643200
   2449   2448   2452     1   109.5600471 388.275200
   2450   2454   2464     1   107.2600461 396.643200
   2450   2449   2451     1   109.5600471 388.275200
   2451   2449   2468     1   109.8800469 414.216000
   2452   2448   2455     1   110.2600474 425.931200
   2453   2450   2454     1   109.4300470 427.604800
   2453   2450   2463     1   109.5800467 425.931200
   2456   2461   2462     1   107.2600461 396.643200
   2459   2456   2461     1   110.2600474 425.931200
   2459   2456   2460     1   108.4600466 328.025600
   2460   2456   2461     1   110.2600474 425.931200
   2465   2446   2466     1   110.2600474 425.931200
   2469   2470   2489     1   109.5600471 388.275200
   2469   2480   2483     1   109.5600471 388.275200
   2469   2480   2484     1   109.5600471 388.275200
   2470   2472   2476     1   109.5600471 388.275200
   2470   2490   2491     1   107.2600461 396.643200
   2470   2469   2471     1   109.5600471 388.275200
   2471   2469   2480     1   109.5600471 388.275200
   2471   2469   2487     1   109.7800468 425.094400
   2472   2473   2475     1   109.5600471 388.275200
   2472   2479   2481     1   107.2600461 396.643200
   2472   2470   2489     1   109.5600471 388.275200
   2473   2474   2477     1   110.2200475 386.601600
   2473   2492   2482     1   109.2900470 396.643200
   2473   2472   2476     1   109.5600471 388.275200
   2474   2478   2488     1   107.2600461 396.643200
   2474   2473   2475     1   109.5600471 388.275200
   2475   2473   2492     1   109.8800469 414.216000
   2476   2472   2479     1   110.2600474 425.931200
   2477   2474   2478     1   109.4300470 427.604800
   2477   2474   2487     1   109.5800467 425.931200
   2480   2485   2486     1   107.2600461 396.643200
   2483   2480   2485     1   110.2600474 425.931200
   2483   2480   2484     1   108.4600466 328.025600
   2484   2480   2485     1   110.2600474 425.931200
   2489   2470   2490     1   110.2600474 425.931200
   2493   2495   2496     1   108.8800464 416.726400
   2493   2495   2498     1   108.8800464 416.726400
   2494   2493   2495     1   117.6800502 383.254400
   2495   2497   2499     1   109.5600471 388.275200
   2495   2497   2500     1   109.5600471 388.275200
   2496   2495   2497     1   109.5600471 388.275200
   2496   2495   2498     1   108.4600466 328.025600
   2497   2495   2498     1   109.5600471 388.275200
   2499   2497   2501     1   109.8800469 414.216000
   2499   2497   2500     1   108.4600466 328.025600
   2500   2497   2501     1   109.8800469 414.216000
   2501   2502   2511     1   109.8800469 414.216000
   2501   2502   2512     1   109.8800469 414.216000
   2501   2503   2504     1   109.8800469 414.216000
   2501   2503   2506     1   109.8800469 414.216000
   2502   2513   2514     1   109.8000471 387.438400
   2502   2513   2515     1   109.8000471 387.438400
   2503   2505   2507     1   109.8000471 387.438400
   2503   2505   2508     1   109.8000471 387.438400
   2504   2503   2505     1   109.5600471 388.275200
   2504   2503   2506     1   108.4600466 328.025600
   2505   2503   2506     1   109.5600471 388.275200
   2507   2505   2509     1   108.7700466 392.459200
   2507   2505   2508     1   107.5800459 329.699200
   2508   2505   2509     1   108.7700466 392.459200
   2509   2541   2531     1   119.3800509 410.868800
   2511   2502   2513     1   109.5600471 388.275200
   2511   2502   2512     1   108.4600466 328.025600
   2512   2502   2513     1   109.5600471 388.275200
   2514   2513   2516     1   108.7700466 392.459200
   2514   2513   2515     1   107.5800459 329.699200
   2515   2513   2516     1   108.7700466 392.459200
   2516   2565   2555     1   119.3800509 410.868800
   2518   2519   2538     1   109.5600471 388.275200
   2518   2529   2532     1   109.5600471 388.275200
   2518   2529   2533     1   109.5600471 388.275200
   2519   2518   2520     1   109.5600471 388.275200
   2519   2521   2525     1   109.5600471 388.275200
   2519   2539   2540     1   107.2600461 396.643200
   2520   2518   2529     1   109.5600471 388.275200
   2520   2518   2536     1   109.7800468 425.094400
   2521   2519   2538     1   109.5600471 388.275200
   2521   2522   2524     1   109.5600471 388.275200
   2521   2528   2530     1   107.2600461 396.643200
   2522   2521   2525     1   109.5600471 388.275200
   2522   2523   2526     1   110.2200475 386.601600
   2522   2541   2531     1   109.2900470 396.643200
   2523   2522   2524     1   109.5600471 388.275200
   2523   2527   2537     1   107.2600461 396.643200
   2524   2522   2541     1   109.8800469 414.216000
   2525   2521   2528     1   110.2600474 425.931200
   2526   2523   2527     1   109.4300470 427.604800
   2526   2523   2536     1   109.5800467 425.931200
   2529   2534   2535     1   107.2600461 396.643200
   2532   2529   2534     1   110.2600474 425.931200
   2532   2529   2533     1   108.4600466 328.025600
   2533   2529   2534     1   110.2600474 425.931200
   2538   2519   2539     1   110.2600474 425.931200
   2542   2543   2562     1   109.5600471 388.275200
   2542   2553   2556     1   109.5600471 388.275200
   2542   2553   2557     1   109.5600471 388.275200
   2543   2542   2544     1   109.5600471 388.275200
   2543   2545   2549     1   109.5600471 388.275200
   2543   2563   2564     1   107.2600461 396.643200
   2544   2542   2553     1   109.5600471 388.275200
   2544   2542   2560     1   109.7800468 425.094400
   2545   2543   2562     1   109.5600471 388.275200
   2545   2546   2548     1   109.5600471 388.275200
   2545   2552   2554     1   107.2600461 396.643200
   2546   2545   2549     1   109.5600471 388.275200
   2546   2547   2550     1   110.2200475 386.601600
   2546   2565   2555     1   109.2900470 396.643200
   2547   2546   2548     1   109.5600471 388.275200
   2547   2551   2561     1   107.2600461 396.643200
   2548   2546   2565     1   109.8800469 414.216000
   2549   2545   2552     1   110.2600474 425.931200
   2550   2547   2551     1   109.4300470 427.604800
   2550   2547   2560     1   109.5800467 425.931200
   2553   2558   2559     1   107.2600461 396.643200
   2556   2553   2558     1   110.2600474 425.931200
   2556   2553   2557     1   108.4600466 328.025600
   2557   2553   2558     1   110.2600474 425.931200
   2562   2543   2563     1   110.2600474 425.931200
   2566   2568   2569     1   108.8800464 416.726400
   2566   2568   2571     1   108.8800464 416.726400
   2567   2566   2568     1   117.6800502 383.254400
   2568   2570   2572     1   109.5600471 388.275200
   2568   2570   2573     1   109.5600471 388.275200
   2569   2568   2570     1   109.5600471 388.275200
   2569   2568   2571     1   108.4600466 328.025600
   2570   2568   2571     1   109.5600471 388.275200
   2572   2570   2574     1   109.8800469 414.216000
   2572   2570   2573     1   108.4600466 328.025600
   2573   2570   2574     1   109.8800469 414.216000
   2574   2575   2584     1   109.8800469 414.216000
   2574   2575   2585     1   109.8800469 414.216000
   2574   2576   2577     1   109.8800469 414.216000
   2574   2576   2579     1   109.8800469 414.216000
   2575   2586   2587     1   109.8000471 387.438400
   2575   2586   2588     1   109.8000471 387.438400
   2576   2578   2580     1   109.8000471 387.438400
   2576   2578   2581     1   109.8000471 387.438400
   2577   2576   2578     1   109.5600471 388.275200
   2577   2576   2579     1   108.4600466 328.025600
   2578   2576   2579     1   109.5600471 388.275200
   2580   2578   2582     1   108.7700466 392.459200
   2580   2578   2581     1   107.5800459 329.699200
   2581   2578   2582     1   108.7700466 392.459200
   2582   2614   2604     1   119.3800509 410.868800
   2584   2575   2586     1   109.5600471 388.275200
   2584   2575   2585     1   108.4600466 328.025600
   2585   2575   2586     1   109.5600471 388.275200
   2587   2586   2589     1   108.7700466 392.459200
   2587   2586   2588     1   107.5800459 329.699200
   2588   2586   2589     1   108.7700466 392.459200
   2589   2638   2628     1   119.3800509 410.868800
   2591   2592   2611     1   109.5600471 388.275200
   2591   2602   2605     1   109.5600471 388.275200
   2591   2602   2606     1   109.5600471 388.275200
   2592   2594   2598     1   109.5600471 388.275200
   2592   2612   2613     1   107.2600461 396.643200
   2592   2591   2593     1   109.5600471 388.275200
   2593   2591   2602     1   109.5600471 388.275200
   2593   2591   2609     1   109.7800468 425.094400
   2594   2595   2597     1   109.5600471 388.275200
   2594   2601   2603     1   107.2600461 396.643200
   2594   2592   2611     1   109.5600471 388.275200
   2595   2596   2599     1   110.2200475 386.601600
   2595   2614   2604     1   109.2900470 396.643200
   2595   2594   2598     1   109.5600471 388.275200
   2596   2600   2610     1   107.2600461 396.643200
   2596   2595   2597     1   109.5600471 388.275200
   2597   2595   2614     1   109.8800469 414.216000
   2598   2594   2601     1   110.2600474 425.931200
   2599   2596   2600     1   109.4300470 427.604800
   2599   2596   2609     1   109.5800467 425.931200
   2602   2607   2608     1   107.2600461 396.643200
   2605   2602   2607     1   110.2600474 425.931200
   2605   2602   2606     1   108.4600466 328.025600
   2606   2602   2607     1   110.2600474 425.931200
   2611   2592   2612     1   110.2600474 425.931200
   2615   2616   2635     1   109.5600471 388.275200
   2615   2626   2629     1   109.5600471 388.275200
   2615   2626   2630     1   109.5600471 388.275200
   2616   2618   2622     1   109.5600471 388.275200
   2616   2636   2637     1   107.2600461 396.643200
   2616   2615   2617     1   109.5600471 388.275200
   2617   2615   2626     1   109.5600471 388.275200
   2617   2615   2633     1   109.7800468 425.094400
   2618   2619   2621     1   109.5600471 388.275200
   2618   2625   2627     1   107.2600461 396.643200
   2618   2616   2635     1   109.5600471 388.275200
   2619   2620   2623     1   110.2200475 386.601600
   2619   2638   2628     1   109.2900470 396.643200
   2619   2618   2622     1   109.5600471 388.275200
   2620   2624   2634     1   107.2600461 396.643200
   2620   2619   2621     1   109.5600471 388.275200
   2621   2619   2638     1   109.8800469 414.216000
   2622   2618   2625     1   110.2600474 425.931200
   2623   2620   2624     1   109.4300470 427.604800
   2623   2620   2633     1   109.5800467 425.931200
   2626   2631   2632     1   107.2600461 396.643200
   2629   2626   2631     1   110.2600474 425.931200
   2629   2626   2630     1   108.4600466 328.025600
   2630   2626   2631     1   110.2600474 425.931200
   2635   2616   2636     1   110.2600474 425.931200
   2639   2641   2642     1   108.8800464 416.726400
   2639   2641   2644     1   108.8800464 416.726400
   2640   2639   2641     1   117.6800502 383.254400
   2641   2643   2645     1   109.5600471 388.275200
   2641   2643   2646     1   109.5600471 388.275200
   2642   2641   2643     1   109.5600471 388.275200
   2642   2641   2644     1   108.4600466 328.025600
   2643   2641   2644     1   109.5600471 388.275200
   2645   2643   2647     1   109.8800469 414.216000
   2645   2643   2646     1   108.4600466 328.025600
   2646   2643   2647     1   109.8800469 414.216000
   2647   2648   2657     1   109.8800469 414.216000
   2647   2648   2658     1   109.8800469 414.216000
   2647   2649   2650     1   109.8800469 414.216000
   2647   2649   2652     1   109.8800469 414.216000
   2648   2659   2660     1   109.8000471 387.438400
   2648   2659   2661     1   109.8000471 387.438400
   2649   2651   2653     1   109.8000471 387.438400
   2649   2651   2654     1   109.8000471 387.438400
   2650   2649   2651     1   109.5600471 388.275200
   2650   2649   2652     1   108.4600466 328.025600
   2651   2649   2652     1   109.5600471 388.275200
   2653   2651   2655     1   108.7700466 392.459200
   2653   2651   2654     1   107.5800459 329.699200
   2654   2651   2655     1   108.7700466 392.459200
   2655   2687   2677     1   119.3800509 410.868800
   2657   2648   2659     1   109.5600471 388.275200
   2657   2648   2658     1   108.4600466 328.025600
   2658   2648   2659     1   109.5600471 388.275200
   2660   2659   2662     1   108.7700466 392.459200
   2660   2659   2661     1   107.5800459 329.699200
   2661   2659   2662     1   108.7700466 392.459200
   2662   2711   2701     1   119.3800509 410.868800
   2664   2665   2684     1   109.5600471 388.275200
   2664   2675   2678     1   109.5600471 388.275200
   2664   2675   2679     1   109.5600471 388.275200
   2665   2664   2666     1   109.5600471 388.275200
   2665   2667   2671     1   109.5600471 388.275200
   2665   2685   2686     1   107.2600461 396.643200
   2666   2664   2675     1   109.5600471 388.275200
   2666   2664   2682     1   109.7800468 425.094400
   2667   2665   2684     1   109.5600471 388.275200
   2667   2668   2670     1   109.5600471 388.275200
   2667   2674   2676     1   107.2600461 396.643200
   2668   2667   2671     1   109.5600471 388.275200
   2668   2669   2672     1   110.2200475 386.601600
   2668   2687   2677     1   109.2900470 396.643200
   2669   2668   2670     1   109.5600471 388.275200
   2669   2673   2683     1   107.2600461 396.643200
   2670   2668   2687     1   109.8800469 414.216000
   2671   2667   2674     1   110.2600474 425.931200
   2672   2669   2673     1   109.4300470 427.604800
   2672   2669   2682     1   109.5800467 425.931200
   2675   2680   2681     1   107.2600461 396.643200
   2678   2675   2680     1   110.2600474 425.931200
   2678   2675   2679     1   108.4600466 328.025600
   2679   2675   2680     1   110.2600474 425.931200
   2684   2665   2685     1   110.2600474 425.931200
   2688   2689   2708     1   109.5600471 388.275200
   2688   2699   2702     1   109.5600471 388.275200
   2688   2699   2703     1   109.5600471 388.275200
   2689   2688   2690     1   109.5600471 388.275200
   2689   2691   2695     1   109.5600471 388.275200
   2689   2709   2710     1   107.2600461 396.643200
   2690   2688   2699     1   109.5600471 388.275200
   2690   2688   2706     1   109.7800468 425.094400
   2691   2689   2708     1   109.5600471 388.275200
   2691   2692   2694     1   109.5600471 388.275200
   2691   2698   2700     1   107.2600461 396.643200
   2692   2691   2695     1   109.5600471 388.275200
   2692   2693   2696     1   110.2200475 386.601600
   2692   2711   2701     1   109.2900470 396.643200
   2693   2692   2694     1   109.5600471 388.275200
   2693   2697   2707     1   107.2600461 396.643200
   2694   2692   2711     1   109.8800469 414.216000
   2695   2691   2698     1   110.2600474 425.931200
   2696   2693   2697     1   109.4300470 427.604800
   2696   2693   2706     1   109.5800467 425.931200
   2699   2704   2705     1   107.2600461 396.643200
   2702   2699   2704     1   110.2600474 425.931200
   2702   2699   2703     1   108.4600466 328.025600
   2703   2699   2704     1   110.2600474 425.931200
   2708   2689   2709     1   110.2600474 425.931200
   2712   2714   2715     1   108.8800464 416.726400
   2712   2714   2717     1   108.8800464 416.726400
   2713   2712   2714     1   117.6800502 383.254400
   2714   2716   2718     1   109.5600471 388.275200
   2714   2716   2719     1   109.5600471 388.275200
   2715   2714   2716     1   109.5600471 388.275200
   2715   2714   2717     1   108.4600466 328.025600
   2716   2714   2717     1   109.5600471 388.275200
   2718   2716   2720     1   109.8800469 414.216000
   2718   2716   2719     1   108.4600466 328.025600
   2719   2716   2720     1   109.8800469 414.216000
   2720   2721   2730     1   109.8800469 414.216000
   2720   2721   2731     1   109.8800469 414.216000
   2720   2722   2723     1   109.8800469 414.216000
   2720   2722   2725     1   109.8800469 414.216000
   2721   2732   2733     1   109.8000471 387.438400
   2721   2732   2734     1   109.8000471 387.438400
   2722   2724   2726     1   109.8000471 387.438400
   2722   2724   2727     1   109.8000471 387.438400
   2723   2722   2724     1   109.5600471 388.275200
   2723   2722   2725     1   108.4600466 328.025600
   2724   2722   2725     1   109.5600471 388.275200
   2726   2724   2728     1   108.7700466 392.459200
   2726   2724   2727     1   107.5800459 329.699200
   2727   2724   2728     1   108.7700466 392.459200
   2728   2760   2750     1   119.3800509 410.868800
   2730   2721   2732     1   109.5600471 388.275200
   2730   2721   2731     1   108.4600466 328.025600
   2731   2721   2732     1   109.5600471 388.275200
   2733   2732   2735     1   108.7700466 392.459200
   2733   2732   2734     1   107.5800459 329.699200
   2734   2732   2735     1   108.7700466 392.459200
   2735   2784   2774     1   119.3800509 410.868800
   2737   2738   2757     1   109.5600471 388.275200
   2737   2748   2751     1   109.5600471 388.275200
   2737   2748   2752     1   109.5600471 388.275200
   2738   2740   2744     1   109.5600471 388.275200
   2738   2758   2759     1   107.2600461 396.643200
   2738   2737   2739     1   109.5600471 388.275200
   2739   2737   2748     1   109.5600471 388.275200
   2739   2737   2755     1   109.7800468 425.094400
   2740   2741   2743     1   109.5600471 388.275200
   2740   2747   2749     1   107.2600461 396.643200
   2740   2738   2757     1   109.5600471 388.275200
   2741   2742   2745     1   110.2200475 386.601600
   2741   2760   2750     1   109.2900470 396.643200
   2741   2740   2744     1   109.5600471 388.275200
   2742   2746   2756     1   107.2600461 396.643200
   2742   2741   2743     1   109.5600471 388.275200
   2743   2741   2760     1   109.8800469 414.216000
   2744   2740   2747     1   110.2600474 425.931200
   2745   2742   2746     1   109.4300470 427.604800
   2745   2742   2755     1   109.5800467 425.931200
   2748   2753   2754     1   107.2600461 396.643200
   2751   2748   2753     1   110.2600474 425.931200
   2751   2748   2752     1   108.4600466 328.025600
   2752   2748   2753     1   110.2600474 425.931200
   2757   2738   2758     1   110.2600474 425.931200
   2761   2762   2781     1   109.5600471 388.275200
   2761   2772   2775     1   109.5600471 388.275200
   2761   2772   2776     1   109.5600471 388.275200
   2762   2764   2768     1   109.5600471 388.275200
   2762   2782   2783     1   107.2600461 396.643200
   2762   2761   2763     1   109.5600471 388.275200
   2763   2761   2772     1   109.5600471 388.275200
   2763   2761   2779     1   109.7800468 425.094400
   2764   2765   2767     1   109.5600471 388.275200
   2764   2771   2773     1   107.2600461 396.643200
   2764   2762   2781     1   109.5600471 388.275200
   2765   2766   2769     1   110.2200475 386.601600
   2765   2784   2774     1   109.2900470 396.643200
   2765   2764   2768     1   109.5600471 388.275200
   2766   2770   2780     1   107.2600461 396.643200
   2766   2765   2767     1   109.5600471 388.275200
   2767   2765   2784     1   109.8800469 414.216000
   2768   2764   2771     1   110.2600474 425.931200
   2769   2766   2770     1   109.4300470 427.604800
   2769   2766   2779     1   109.5800467 425.931200
   2772   2777   2778     1   107.2600461 396.643200
   2775   2772   2777     1   110.2600474 425.931200
   2775   2772   2776     1   108.4600466 328.025600
   2776   2772   2777     1   110.2600474 425.931200
   2781   2762   2782     1   110.2600474 425.931200
   2785   2787   2788     1   108.8800464 416.726400
   2785   2787   2790     1   108.8800464 416.726400
   2786   2785   2787     1   117.6800502 383.254400
   2787   2789   2791     1   109.5600471 388.275200
   2787   2789   2792     1   109.5600471 388.275200
   2788   2787   2789     1   109.5600471 388.275200
   2788   2787   2790     1   108.4600466 328.025600
   2789   2787   2790     1   109.5600471 388.275200
   2791   2789   2793     1   109.8800469 414.216000
   2791   2789   2792     1   108.4600466 328.025600
   2792   2789   2793     1   109.8800469 414.216000
   2793   2794   2803     1   109.8800469 414.216000
   2793   2794   2804     1   109.8800469 414.216000
   2793   2795   2796     1   109.8800469 414.216000
   2793   2795   2798     1   109.8800469 414.216000
   2794   2805   2806     1   109.8000471 387.438400
   2794   2805   2807     1   109.8000471 387.438400
   2795   2797   2799     1   109.8000471 387.438400
   2795   2797   2800     1   109.8000471 387.438400
   2796   2795   2797     1   109.5600471 388.275200
   2796   2795   2798     1   108.4600466 328.025600
   2797   2795   2798     1   109.5600471 388.275200
   2799   2797   2801     1   108.7700466 392.459200
   2799   2797   2800     1   107.5800459 329.699200
   2800   2797   2801     1   108.7700466 392.459200
   2801   2833   2823     1   119.3800509 410.868800
   2803   2794   2805     1   109.5600471 388.275200
   2803   2794   2804     1   108.4600466 328.025600
   2804   2794   2805     1   109.5600471 388.275200
   2806   2805   2808     1   108.7700466 392.459200
   2806   2805   2807     1   107.5800459 329.699200
   2807   2805   2808     1   108.7700466 392.459200
   2808   2857   2847     1   119.3800509 410.868800
   2810   2811   2830     1   109.5600471 388.275200
   2810   2821   2824     1   109.5600471 388.275200
   2810   2821   2825     1   109.5600471 388.275200
   2811   2810   2812     1   109.5600471 388.275200
   2811   2813   2817     1   109.5600471 388.275200
   2811   2831   2832     1   107.2600461 396.643200
   2812   2810   2821     1   109.5600471 388.275200
   2812   2810   2828     1   109.7800468 425.094400
   2813   2811   2830     1   109.5600471 388.275200
   2813   2814   2816     1   109.5600471 388.275200
   2813   2820   2822     1   107.2600461 396.643200
   2814   2813   2817     1   109.5600471 388.275200
   2814   2815   2818     1   110.2200475 386.601600
   2814   2833   2823     1   109.2900470 396.643200
   2815   2814   2816     1   109.5600471 388.275200
   2815   2819   2829     1   107.2600461 396.643200
   2816   2814   2833     1   109.8800469 414.216000
   2817   2813   2820     1   110.2600474 425.931200
   2818   2815   2819     1   109.4300470 427.604800
   2818   2815   2828     1   109.5800467 425.931200
   2821   2826   2827     1   107.2600461 396.643200
   2824   2821   2826     1   110.2600474 425.931200
   2824   2821   2825     1   108.4600466 328.025600
   2825   2821   2826     1   110.2600474 425.931200
   2830   2811   2831     1   110.2600474 425.931200
   2834   2835   2854     1   109.5600471 388.275200
   2834   2845   2848     1   109.5600471 388.275200
   2834   2845   2849     1   109.5600471 388.275200
   2835   2834   2836     1   109.5600471 388.275200
   2835   2837   2841     1   109.5600471 388.275200
   2835   2855   2856     1   107.2600461 396.643200
   2836   2834   2845     1   109.5600471 388.275200
   2836   2834   2852     1   109.7800468 425.094400
   2837   2835   2854     1   109.5600471 388.275200
   2837   2838   2840     1   109.5600471 388.275200
   2837   2844   2846     1   107.2600461 396.643200
   2838   2837   2841     1   109.5600471 388.275200
   2838   2839   2842     1   110.2200475 386.601600
   2838   2857   2847     1   109.2900470 396.643200
   2839   2838   2840     1   109.5600471 388.275200
   2839   2843   2853     1   107.2600461 396.643200
   2840   2838   2857     1   109.8800469 414.216000
   2841   2837   2844     1   110.2600474 425.931200
   2842   2839   2843     1   109.4300470 427.604800
   2842   2839   2852     1   109.5800467 425.931200
   2845   2850   2851     1   107.2600461 396.643200
   2848   2845   2850     1   110.2600474 425.931200
   2848   2845   2849     1   108.4600466 328.025600
   2849   2845   2850     1   110.2600474 425.931200
   2854   2835   2855     1   110.2600474 425.931200
   2858   2860   2861     1   108.8800464 416.726400
   2858   2860   2863     1   108.8800464 416.726400
   2859   2858   2860     1   117.6800502 383.254400
   2860   2862   2864     1   109.5600471 388.275200
   2860   2862   2865     1   109.5600471 388.275200
   2861   2860   2862     1   109.5600471 388.275200
   2861   2860   2863     1   108.4600466 328.025600
   2862   2860   2863     1   109.5600471 388.275200
   2864   2862   2866     1   109.8800469 414.216000
   2864   2862   2865     1   108.4600466 328.025600
   2865   2862   2866     1   109.8800469 414.216000
   2866   2867   2876     1   109.8800469 414.216000
   2866   2867   2877     1   109.8800469 414.216000
   2866   2868   2869     1   109.8800469 414.216000
   2866   2868   2871     1   109.8800469 414.216000
   2867   2878   2879     1   109.8000471 387.438400
   2867   2878   2880     1   109.8000471 387.438400
   2868   2870   2872     1   109.8000471 387.438400
   2868   2870   2873     1   109.8000471 387.438400
   2869   2868   2870     1   109.5600471 388.275200
   2869   2868   2871     1   108.4600466 328.025600
   2870   2868   2871     1   109.5600471 388.275200
   2872   2870   2874     1   108.7700466 392.459200
   2872   2870   2873     1   107.5800459 329.699200
   2873   2870   2874     1   108.7700466 392.459200
   2874   2906   2896     1   119.3800509 410.868800
   2876   2867   2878     1   109.5600471 388.275200
   2876   2867   2877     1   108.4600466 328.025600
   2877   2867   2878     1   109.5600471 388.275200
   2879   2878   2881     1   108.7700466 392.459200
   2879   2878   2880     1   107.5800459 329.699200
   2880   2878   2881     1   108.7700466 392.459200
   2881   2930   2920     1   119.3800509 410.868800
   2883   2884   2903     1   109.5600471 388.275200
   2883   2894   2897     1   109.5600471 388.275200
   2883   2894   2898     1   109.5600471 388.275200
   2884   2886   2890     1   109.5600471 388.275200
   2884   2904   2905     1   107.2600461 396.643200
   2884   2883   2885     1   109.5600471 388.275200
   2885   2883   2894     1   109.5600471 388.275200
   2885   2883   2901     1   109.7800468 425.094400
   2886   2887   2889     1   109.5600471 388.275200
   2886   2893   2895     1   107.2600461 396.643200
   2886   2884   2903     1   109.5600471 388.275200
   2887   2888   2891     1   110.2200475 386.601600
   2887   2906   2896     1   109.2900470 396.643200
   2887   2886   2890     1   109.5600471 388.275200
   2888   2892   2902     1   107.2600461 396.643200
   2888   2887   2889     1   109.5600471 388.275200
   2889   2887   2906     1   109.8800469 414.216000
   2890   2886   2893     1   110.2600474 425.931200
   2891   2888   2892     1   109.4300470 427.604800
   2891   2888   2901     1   109.5800467 425.931200
   2894   2899   2900     1   107.2600461 396.643200
   2897   2894   2899     1   110.2600474 425.931200
   2897   2894   2898     1   108.4600466 328.025600
   2898   2894   2899     1   110.2600474 425.931200
   2903   2884   2904     1   110.2600474 425.931200
   2907   2908   2927     1   109.5600471 388.275200
   2907   2918   2921     1   109.5600471 388.275200
   2907   2918   2922     1   109.5600471 388.275200
   2908   2910   2914     1   109.5600471 388.275200
   2908   2928   2929     1   107.2600461 396.643200
   2908   2907   2909     1   109.5600471 388.275200
   2909   2907   2918     1   109.5600471 388.275200
   2909   2907   2925     1   109.7800468 425.094400
   2910   2911   2913     1   109.5600471 388.275200
   2910   2917   2919     1   107.2600461 396.643200
   2910   2908   2927     1   109.5600471 388.275200
   2911   2912   2915     1   110.2200475 386.601600
   2911   2930   2920     1   109.2900470 396.643200
   2911   2910   2914     1   109.5600471 388.275200
   2912   2916   2926     1   107.2600461 396.643200
   2912   2911   2913     1   109.5600471 388.275200
   2913   2911   2930     1   109.8800469 414.216000
   2914   2910   2917     1   110.2600474 425.931200
   2915   2912   2916     1   109.4300470 427.604800
   2915   2912   2925     1   109.5800467 425.931200
   2918   2923   2924     1   107.2600461 396.643200
   2921   2918   2923     1   110.2600474 425.931200
   2921   2918   2922     1   108.4600466 328.025600
   2922   2918   2923     1   110.2600474 425.931200
   2927   2908   2928     1   110.2600474 425.931200
   2931   2933   2934     1   108.8800464 416.726400
   2931   2933   2936     1   108.8800464 416.726400
   2932   2931   2933     1   117.6800502 383.254400
   2933   2935   2937     1   109.5600471 388.275200
   2933   2935   2938     1   109.5600471 388.275200
   2934   2933   2935     1   109.5600471 388.275200
   2934   2933   2936     1   108.4600466 328.025600
   2935   2933   2936     1   109.5600471 388.275200
   2937   2935   2939     1   109.8800469 414.216000
   2937   2935   2938     1   108.4600466 328.025600
   2938   2935   2939     1   109.8800469 414.216000
   2939   2940   2949     1   109.8800469 414.216000
   2939   2940   2950     1   109.8800469 414.216000
   2939   2941   2942     1   109.8800469 414.216000
   2939   2941   2944     1   109.8800469 414.216000
   2940   2951   2952     1   109.8000471 387.438400
   2940   2951   2953     1   109.8000471 387.438400
   2941   2943   2945     1   109.8000471 387.438400
   2941   2943   2946     1   109.8000471 387.438400
   2942   2941   2943     1   109.5600471 388.275200
   2942   2941   2944     1   108.4600466 328.025600
   2943   2941   2944     1   109.5600471 388.275200
   2945   2943   2947     1   108.7700466 392.459200
   2945   2943   2946     1   107.5800459 329.699200
   2946   2943   2947     1   108.7700466 392.459200
   2947   2979   2969     1   119.3800509 410.868800
   2949   2940   2951     1   109.5600471 388.275200
   2949   2940   2950     1   108.4600466 328.025600
   2950   2940   2951     1   109.5600471 388.275200
   2952   2951   2954     1   108.7700466 392.459200
   2952   2951   2953     1   107.5800459 329.699200
   2953   2951   2954     1   108.7700466 392.459200
   2954   3003   2993     1   119.3800509 410.868800
   2956   2957   2976     1   109.5600471 388.275200
   2956   2967   2970     1   109.5600471 388.275200
   2956   2967   2971     1   109.5600471 388.275200
   2957   2956   2958     1   109.5600471 388.275200
   2957   2959   2963     1   109.5600471 388.275200
   2957   2977   2978     1   107.2600461 396.643200
   2958   2956   2967     1   109.5600471 388.275200
   2958   2956   2974     1   109.7800468 425.094400
   2959   2957   2976     1   109.5600471 388.275200
   2959   2960   2962     1   109.5600471 388.275200
   2959   2966   2968     1   107.2600461 396.643200
   2960   2959   2963     1   109.5600471 388.275200
   2960   2961   2964     1   110.2200475 386.601600
   2960   2979   2969     1   109.2900470 396.643200
   2961   2960   2962     1   109.5600471 388.275200
   2961   2965   2975     1   107.2600461 396.643200
   2962   2960   2979     1   109.8800469 414.216000
   2963   2959   2966     1   110.2600474 425.931200
   2964   2961   2965     1   109.4300470 427.604800
   2964   2961   2974     1   109.5800467 425.931200
   2967   2972   2973     1   107.2600461 396.643200
   2970   2967   2972     1   110.2600474 425.931200
   2970   2967   2971     1   108.4600466 328.025600
   2971   2967   2972     1   110.2600474 425.931200
   2976   2957   2977     1   110.2600474 425.931200
   2980   2981   3000     1   109.5600471 388.275200
   2980   2991   2994     1   109.5600471 388.275200
   2980   2991   2995     1   109.5600471 388.275200
   2981   2980   2982     1   109.5600471 388.275200
   2981   2983   2987     1   109.5600471 388.275200
   2981   3001   3002     1   107.2600461 396.643200
   2982   2980   2991     1   109.5600471 388.275200
   2982   2980   2998     1   109.7800468 425.094400
   2983   2981   3000     1   109.5600471 388.275200
   2983   2984   2986     1   109.5600471 388.275200
   2983   2990   2992     1   107.2600461 396.643200
   2984   2983   2987     1   109.5600471 388.275200
   2984   2985   2988     1   110.2200475 386.601600
   2984   3003   2993     1   109.2900470 396.643200
   2985   2984   2986     1   109.5600471 388.275200
   2985   2989   2999     1   107.2600461 396.643200
   2986   2984   3003     1   109.8800469 414.216000
   2987   2983   2990     1   110.2600474 425.931200
   2988   2985   2989     1   109.4300470 427.604800
   2988   2985   2998     1   109.5800467 425.931200
   2991   2996   2997     1   107.2600461 396.643200
   2994   2991   2996     1   110.2600474 425.931200
   2994   2991   2995     1   108.4600466 328.025600
   2995   2991   2996     1   110.2600474 425.931200
   3000   2981   3001     1   110.2600474 425.931200
   3004   3006   3007     1   108.8800464 416.726400
   3004   3006   3009     1   108.8800464 416.726400
   3005   3004   3006     1   117.6800502 383.254400
   3006   3008   3010     1   109.5600471 388.275200
   3006   3008   3011     1   109.5600471 388.275200
   3007   3006   3008     1   109.5600471 388.275200
   3007   3006   3009     1   108.4600466 328.025600
   3008   3006   3009     1   109.5600471 388.275200
   3010   3008   3012     1   109.8800469 414.216000
   3010   3008   3011     1   108.4600466 328.025600
   3011   3008   3012     1   109.8800469 414.216000
   3012   3013   3022     1   109.8800469 414.216000
   3012   3013   3023     1   109.8800469 414.216000
   3012   3014   3015     1   109.8800469 414.216000
   3012   3014   3017     1   109.8800469 414.216000
   3013   3024   3025     1   109.8000471 387.438400
   3013   3024   3026     1   109.8000471 387.438400
   3014   3016   3018     1   109.8000471 387.438400
   3014   3016   3019     1   109.8000471 387.438400
   3015   3014   3016     1   109.5600471 388.275200
   3015   3014   3017     1   108.4600466 328.025600
   3016   3014   3017     1   109.5600471 388.275200
   3018   3016   3020     1   108.7700466 392.459200
   3018   3016   3019     1   107.5800459 329.699200
   3019   3016   3020     1   108.7700466 392.459200
   3020   3052   3042     1   119.3800509 410.868800
   3022   3013   3024     1   109.5600471 388.275200
   3022   3013   3023     1   108.4600466 328.025600
   3023   3013   3024     1   109.5600471 388.275200
   3025   3024   3027     1   108.7700466 392.459200
   3025   3024   3026     1   107.5800459 329.699200
   3026   3024   3027     1   108.7700466 392.459200
   3027   3076   3066     1   119.3800509 410.868800
   3029   3030   3049     1   109.5600471 388.275200
   3029   3040   3043     1   109.5600471 388.275200
   3029   3040   3044     1   109.5600471 388.275200
   3030   3032   3036     1   109.5600471 388.275200
   3030   3050   3051     1   107.2600461 396.643200
   3030   3029   3031     1   109.5600471 388.275200
   3031   3029   3040     1   109.5600471 388.275200
   3031   3029   3047     1   109.7800468 425.094400
   3032   3033   3035     1   109.5600471 388.275200
   3032   3039   3041     1   107.2600461 396.643200
   3032   3030   3049     1   109.5600471 388.275200
   3033   3034   3037     1   110.2200475 386.601600
   3033   3052   3042     1   109.2900470 396.643200
   3033   3032   3036     1   109.5600471 388.275200
   3034   3038   3048     1   107.2600461 396.643200
   3034   3033   3035     1   109.5600471 388.275200
   3035   3033   3052     1   109.8800469 414.216000
   3036   3032   3039     1   110.2600474 425.931200
   3037   3034   3038     1   109.4300470 427.604800
   3037   3034   3047     1   109.5800467 425.931200
   3040   3045   3046     1   107.2600461 396.643200
   3043   3040   3045     1   110.2600474 425.931200
   3043   3040   3044     1   108.4600466 328.025600
   3044   3040   3045     1   110.2600474 425.931200
   3049   3030   3050     1   110.2600474 425.931200
   3053   3054   3073     1   109.5600471 388.275200
   3053   3064   3067     1   109.5600471 388.275200
   3053   3064   3068     1   109.5600471 388.275200
   3054   3056   3060     1   109.5600471 388.275200
   3054   3074   3075     1   107.2600461 396.643200
   3054   3053   3055     1   109.5600471 388.275200
   3055   3053   3064     1   109.5600471 388.275200
   3055   3053   3071     1   109.7800468 425.094400
   3056   3057   3059     1   109.5600471 388.275200
   3056   3063   3065     1   107.2600461 396.643200
   3056   3054   3073     1   109.5600471 388.275200
   3057   3058   3061     1   110.2200475 386.601600
   3057   3076   3066     1   109.2900470 396.643200
   3057   3056   3060     1   109.5600471 388.275200
   3058   3062   3072     1   107.2600461 396.643200
   3058   3057   3059     1   109.5600471 388.275200
   3059   3057   3076     1   109.8800469 414.216000
   3060   3056   3063     1   110.2600474 425.931200
   3061   3058   3062     1   109.4300470 427.604800
   3061   3058   3071     1   109.5800467 425.931200
   3064   3069   3070     1   107.2600461 396.643200
   3067   3064   3069     1   110.2600474 425.931200
   3067   3064   3068     1   108.4600466 328.025600
   3068   3064   3069     1   110.2600474 425.931200
   3073   3054   3074     1   110.2600474 425.931200

[ dihedrals ]
;    ai     aj     ak     al funct         c0         c1         c2         c3         c4         c5
      1      4      7     15     1  180.0000771  2.0083200  2
      1      4      7     15     1  0.0000000  1.2552000  3
      1      4      7     18     1  180.0000771  2.0083200  2
      1      4      7     18     1  0.0000000  1.2552000  3
      1      8      9     30     1  180.0000771  2.0083200  2
      1      8      9     30     1  0.0000000  1.2552000  3
      1      8     12     27     1  180.0000771  2.0083200  2
      1      8     12     27     1  0.0000000  1.2552000  3
      4      1      8      9     1  180.0000771  2.0083200  2
      4      1      8      9     1  0.0000000  1.2552000  3
      4      1      8     12     1  180.0000771  2.0083200  2
      4      1      8     12     1  0.0000000  1.2552000  3
      4      7     15     21     1  180.0000771  2.0083200  2
      4      7     15     21     1  0.0000000  1.2552000  3
      4      7     18     24     1  180.0000771  2.0083200  2
      4      7     18     24     1  0.0000000  1.2552000  3
      8      1      4      7     1  0.0000000  0.6508444  3
      7     15     21     35     1  0.0000000  0.6508444  3
      7     18     24     36     1  0.0000000  0.6508444  3
      8      9     30     34     1  0.0000000  0.6508444  3
      8     12     27     33     1  0.0000000  0.6508444  3
      9      8     12     27     1  180.0000771  2.0083200  2
      9      8     12     27     1  0.0000000  1.2552000  3
      9     30     34     40     1  180.0000771  0.0000000  2
      9     30     34     89     1  0.0000000  0.2928800  2
      9     30     34     89     1  0.0000000  0.4184000  4
     12      8      9     30     1  180.0000771  2.0083200  2
     12      8      9     30     1  0.0000000  1.2552000  3
     12     27     33     37     1  180.0000771  0.0000000  2
     12     27     33     64     1  0.0000000  0.2928800  2
     12     27     33     64     1  0.0000000  0.4184000  4
     15      7     18     24     1  180.0000771  2.0083200  2
     15      7     18     24     1  0.0000000  1.2552000  3
     15     21     35     38     1  180.0000771  0.0000000  2
     15     21     35    114     1  0.0000000  0.2928800  2
     15     21     35    114     1  0.0000000  0.4184000  4
     18      7     15     21     1  180.0000771  2.0083200  2
     18      7     15     21     1  0.0000000  1.2552000  3
     18     24     36     39     1  180.0000771  0.0000000  2
     18     24     36    139     1  0.0000000  0.2928800  2
     18     24     36    139     1  0.0000000  0.4184000  4
     21     35    114     94     1  180.0000771  6.2760000  1
     21     35    114     94     1  0.0000000  0.0000000  2
     24     36    139    119     1  180.0000771  6.2760000  1
     24     36    139    119     1  0.0000000  0.0000000  2
     27     33     64     44     1  180.0000771  6.2760000  1
     27     33     64     44     1  0.0000000  0.0000000  2
     30     34     89     69     1  180.0000771  6.2760000  1
     30     34     89     69     1  0.0000000  0.0000000  2
     33     64     44     41     1  0.0000000  2.2175200  1
     33     64     44     41     1  0.0000000  0.0000000  2
     33     64     44     41     1  180.0000771  0.6276000  3
     33     64     44     41     1  180.0000771  2.0920000  4
     34     89     69     66     1  0.0000000  2.2175200  1
     34     89     69     66     1  0.0000000  0.0000000  2
     34     89     69     66     1  180.0000771  0.6276000  3
     34     89     69     66     1  180.0000771  2.0920000  4
     35    114     94     91     1  0.0000000  2.2175200  1
     35    114     94     91     1  0.0000000  0.0000000  2
     35    114     94     91     1  180.0000771  0.6276000  3
     35    114     94     91     1  180.0000771  2.0920000  4
     36    139    119    116     1  0.0000000  2.2175200  1
     36    139    119    116     1  0.0000000  0.0000000  2
     36    139    119    116     1  180.0000771  0.6276000  3
     36    139    119    116     1  180.0000771  2.0920000  4
     37     33     64     44     1  180.0000771  10.4600000  2
     38     35    114     94     1  180.0000771  10.4600000  2
     39     36    139    119     1  180.0000771  10.4600000  2
     40     34     89     69     1  180.0000771  10.4600000  2
     41     47     48     57     1  180.0000771  2.0083200  2
     41     47     48     57     1  0.0000000  1.2552000  3
     41     47     51     54     1  180.0000771  2.0083200  2
     41     47     51     54     1  0.0000000  1.2552000  3
     44     41     47     48     1  180.0000771  2.0083200  2
     44     41     47     48     1  0.0000000  1.2552000  3
     44     41     47     51     1  180.0000771  2.0083200  2
     44     41     47     51     1  0.0000000  1.2552000  3
     47     41     44     64     1  0.0000000  0.6508444  3
     47     48     57     61     1  0.0000000  0.6508444  3
     47     51     54     60     1  0.0000000  0.6508444  3
     48     47     51     54     1  180.0000771  2.0083200  2
     48     47     51     54     1  0.0000000  1.2552000  3
     48     57     61     63     1  180.0000771  0.0000000  2
     48     57     61    189     1  0.0000000  0.2928800  2
     48     57     61    189     1  0.0000000  0.4184000  4
     51     47     48     57     1  180.0000771  2.0083200  2
     51     47     48     57     1  0.0000000  1.2552000  3
     51     54     60     62     1  180.0000771  0.0000000  2
     51     54     60    164     1  0.0000000  0.2928800  2
     51     54     60    164     1  0.0000000  0.4184000  4
     54     60    164    144     1  180.0000771  6.2760000  1
     54     60    164    144     1  0.0000000  0.0000000  2
     57     61    189    169     1  180.0000771  6.2760000  1
     57     61    189    169     1  0.0000000  0.0000000  2
     60    164    144    141     1  0.0000000  2.2175200  1
     60    164    144    141     1  0.0000000  0.0000000  2
     60    164    144    141     1  180.0000771  0.6276000  3
     60    164    144    141     1  180.0000771  2.0920000  4
     61    189    169    166     1  0.0000000  2.2175200  1
     61    189    169    166     1  0.0000000  0.0000000  2
     61    189    169    166     1  180.0000771  0.6276000  3
     61    189    169    166     1  180.0000771  2.0920000  4
     62     60    164    144     1  180.0000771  10.4600000  2
     63     61    189    169     1  180.0000771  10.4600000  2
     66     72     73     82     1  180.0000771  2.0083200  2
     66     72     73     82     1  0.0000000  1.2552000  3
     66     72     76     79     1  180.0000771  2.0083200  2
     66     72     76     79     1  0.0000000  1.2552000  3
     69     66     72     73     1  180.0000771  2.0083200  2
     69     66     72     73     1  0.0000000  1.2552000  3
     69     66     72     76     1  180.0000771  2.0083200  2
     69     66     72     76     1  0.0000000  1.2552000  3
     72     66     69     89     1  0.0000000  0.6508444  3
     72     73     82     86     1  0.0000000  0.6508444  3
     72     76     79     85     1  0.0000000  0.6508444  3
     73     72     76     79     1  180.0000771  2.0083200  2
     73     72     76     79     1  0.0000000  1.2552000  3
     73     82     86     88     1  180.0000771  0.0000000  2
     73     82     86    239     1  0.0000000  0.2928800  2
     73     82     86    239     1  0.0000000  0.4184000  4
     76     72     73     82     1  180.0000771  2.0083200  2
     76     72     73     82     1  0.0000000  1.2552000  3
     76     79     85     87     1  180.0000771  0.0000000  2
     76     79     85    214     1  0.0000000  0.2928800  2
     76     79     85    214     1  0.0000000  0.4184000  4
     79     85    214    194     1  180.0000771  6.2760000  1
     79     85    214    194     1  0.0000000  0.0000000  2
     82     86    239    219     1  180.0000771  6.2760000  1
     82     86    239    219     1  0.0000000  0.0000000  2
     85    214    194    191     1  0.0000000  2.2175200  1
     85    214    194    191     1  0.0000000  0.0000000  2
     85    214    194    191     1  180.0000771  0.6276000  3
     85    214    194    191     1  180.0000771  2.0920000  4
     86    239    219    216     1  0.0000000  2.2175200  1
     86    239    219    216     1  0.0000000  0.0000000  2
     86    239    219    216     1  180.0000771  0.6276000  3
     86    239    219    216     1  180.0000771  2.0920000  4
     87     85    214    194     1  180.0000771  10.4600000  2
     88     86    239    219     1  180.0000771  10.4600000  2
     91     97     98    107     1  180.0000771  2.0083200  2
     91     97     98    107     1  0.0000000  1.2552000  3
     91     97    101    104     1  180.0000771  2.0083200  2
     91     97    101    104     1  0.0000000  1.2552000  3
     94     91     97     98     1  180.0000771  2.0083200  2
     94     91     97     98     1  0.0000000  1.2552000  3
     94     91     97    101     1  180.0000771  2.0083200  2
     94     91     97    101     1  0.0000000  1.2552000  3
     97     91     94    114     1  0.0000000  0.6508444  3
     97     98    107    111     1  0.0000000  0.6508444  3
     97    101    104    110     1  0.0000000  0.6508444  3
     98     97    101    104     1  180.0000771  2.0083200  2
     98     97    101    104     1  0.0000000  1.2552000  3
     98    107    111    113     1  180.0000771  0.0000000  2
     98    107    111    289     1  0.0000000  0.2928800  2
     98    107    111    289     1  0.0000000  0.4184000  4
    101     97     98    107     1  180.0000771  2.0083200  2
    101     97     98    107     1  0.0000000  1.2552000  3
    101    104    110    112     1  180.0000771  0.0000000  2
    101    104    110    264     1  0.0000000  0.2928800  2
    101    104    110    264     1  0.0000000  0.4184000  4
    104    110    264    244     1  180.0000771  6.2760000  1
    104    110    264    244     1  0.0000000  0.0000000  2
    107    111    289    269     1  180.0000771  6.2760000  1
    107    111    289    269     1  0.0000000  0.0000000  2
    110    264    244    241     1  0.0000000  2.2175200  1
    110    264    244    241     1  0.0000000  0.0000000  2
    110    264    244    241     1  180.0000771  0.6276000  3
    110    264    244    241     1  180.0000771  2.0920000  4
    111    289    269    266     1  0.0000000  2.2175200  1
    111    289    269    266     1  0.0000000  0.0000000  2
    111    289    269    266     1  180.0000771  0.6276000  3
    111    289    269    266     1  180.0000771  2.0920000  4
    112    110    264    244     1  180.0000771  10.4600000  2
    113    111    289    269     1  180.0000771  10.4600000  2
    116    122    123    132     1  180.0000771  2.0083200  2
    116    122    123    132     1  0.0000000  1.2552000  3
    116    122    126    129     1  180.0000771  2.0083200  2
    116    122    126    129     1  0.0000000  1.2552000  3
    119    116    122    123     1  180.0000771  2.0083200  2
    119    116    122    123     1  0.0000000  1.2552000  3
    119    116    122    126     1  180.0000771  2.0083200  2
    119    116    122    126     1  0.0000000  1.2552000  3
    122    116    119    139     1  0.0000000  0.6508444  3
    122    123    132    136     1  0.0000000  0.6508444  3
    122    126    129    135     1  0.0000000  0.6508444  3
    123    122    126    129     1  180.0000771  2.0083200  2
    123    122    126    129     1  0.0000000  1.2552000  3
    123    132    136    138     1  180.0000771  0.0000000  2
    123    132    136    339     1  0.0000000  0.2928800  2
    123    132    136    339     1  0.0000000  0.4184000  4
    126    122    123    132     1  180.0000771  2.0083200  2
    126    122    123    132     1  0.0000000  1.2552000  3
    126    129    135    137     1  180.0000771  0.0000000  2
    126    129    135    314     1  0.0000000  0.2928800  2
    126    129    135    314     1  0.0000000  0.4184000  4
    129    135    314    294     1  180.0000771  6.2760000  1
    129    135    314    294     1  0.0000000  0.0000000  2
    132    136    339    319     1  180.0000771  6.2760000  1
    132    136    339    319     1  0.0000000  0.0000000  2
    135    314    294    291     1  0.0000000  2.2175200  1
    135    314    294    291     1  0.0000000  0.0000000  2
    135    314    294    291     1  180.0000771  0.6276000  3
    135    314    294    291     1  180.0000771  2.0920000  4
    136    339    319    316     1  0.0000000  2.2175200  1
    136    339    319    316     1  0.0000000  0.0000000  2
    136    339    319    316     1  180.0000771  0.6276000  3
    136    339    319    316     1  180.0000771  2.0920000  4
    137    135    314    294     1  180.0000771  10.4600000  2
    138    136    339    319     1  180.0000771  10.4600000  2
    141    147    148    157     1  180.0000771  2.0083200  2
    141    147    148    157     1  0.0000000  1.2552000  3
    141    147    151    154     1  180.0000771  2.0083200  2
    141    147    151    154     1  0.0000000  1.2552000  3
    144    141    147    148     1  180.0000771  2.0083200  2
    144    141    147    148     1  0.0000000  1.2552000  3
    144    141    147    151     1  180.0000771  2.0083200  2
    144    141    147    151     1  0.0000000  1.2552000  3
    147    141    144    164     1  0.0000000  0.6508444  3
    147    148    157    161     1  0.0000000  0.6508444  3
    147    151    154    160     1  0.0000000  0.6508444  3
    148    147    151    154     1  180.0000771  2.0083200  2
    148    147    151    154     1  0.0000000  1.2552000  3
    148    157    161    163     1  180.0000771  0.0000000  2
    148    157    161    389     1  0.0000000  0.2928800  2
    148    157    161    389     1  0.0000000  0.4184000  4
    151    147    148    157     1  180.0000771  2.0083200  2
    151    147    148    157     1  0.0000000  1.2552000  3
    151    154    160    162     1  180.0000771  0.0000000  2
    151    154    160    364     1  0.0000000  0.2928800  2
    151    154    160    364     1  0.0000000  0.4184000  4
    154    160    364    344     1  180.0000771  6.2760000  1
    154    160    364    344     1  0.0000000  0.0000000  2
    157    161    389    369     1  180.0000771  6.2760000  1
    157    161    389    369     1  0.0000000  0.0000000  2
    160    364    344    341     1  0.0000000  2.2175200  1
    160    364    344    341     1  0.0000000  0.0000000  2
    160    364    344    341     1  180.0000771  0.6276000  3
    160    364    344    341     1  180.0000771  2.0920000  4
    161    389    369    366     1  0.0000000  2.2175200  1
    161    389    369    366     1  0.0000000  0.0000000  2
    161    389    369    366     1  180.0000771  0.6276000  3
    161    389    369    366     1  180.0000771  2.0920000  4
    162    160    364    344     1  180.0000771  10.4600000  2
    163    161    389    369     1  180.0000771  10.4600000  2
    166    172    173    182     1  180.0000771  2.0083200  2
    166    172    173    182     1  0.0000000  1.2552000  3
    166    172    176    179     1  180.0000771  2.0083200  2
    166    172    176    179     1  0.0000000  1.2552000  3
    169    166    172    173     1  180.0000771  2.0083200  2
    169    166    172    173     1  0.0000000  1.2552000  3
    169    166    172    176     1  180.0000771  2.0083200  2
    169    166    172    176     1  0.0000000  1.2552000  3
    172    166    169    189     1  0.0000000  0.6508444  3
    172    173    182    186     1  0.0000000  0.6508444  3
    172    176    179    185     1  0.0000000  0.6508444  3
    173    172    176    179     1  180.0000771  2.0083200  2
    173    172    176    179     1  0.0000000  1.2552000  3
    173    182    186    188     1  180.0000771  0.0000000  2
    173    182    186    439     1  0.0000000  0.2928800  2
    173    182    186    439     1  0.0000000  0.4184000  4
    176    172    173    182     1  180.0000771  2.0083200  2
    176    172    173    182     1  0.0000000  1.2552000  3
    176    179    185    187     1  180.0000771  0.0000000  2
    176    179    185    414     1  0.0000000  0.2928800  2
    176    179    185    414     1  0.0000000  0.4184000  4
    179    185    414    394     1  180.0000771  6.2760000  1
    179    185    414    394     1  0.0000000  0.0000000  2
    182    186    439    419     1  180.0000771  6.2760000  1
    182    186    439    419     1  0.0000000  0.0000000  2
    185    414    394    391     1  0.0000000  2.2175200  1
    185    414    394    391     1  0.0000000  0.0000000  2
    185    414    394    391     1  180.0000771  0.6276000  3
    185    414    394    391     1  180.0000771  2.0920000  4
    186    439    419    416     1  0.0000000  2.2175200  1
    186    439    419    416     1  0.0000000  0.0000000  2
    186    439    419    416     1  180.0000771  0.6276000  3
    186    439    419    416     1  180.0000771  2.0920000  4
    187    185    414    394     1  180.0000771  10.4600000  2
    188    186    439    419     1  180.0000771  10.4600000  2
    191    197    198    207     1  180.0000771  2.0083200  2
    191    197    198    207     1  0.0000000  1.2552000  3
    191    197    201    204     1  180.0000771  2.0083200  2
    191    197    201    204     1  0.0000000  1.2552000  3
    194    191    197    198     1  180.0000771  2.0083200  2
    194    191    197    198     1  0.0000000  1.2552000  3
    194    191    197    201     1  180.0000771  2.0083200  2
    194    191    197    201     1  0.0000000  1.2552000  3
    197    191    194    214     1  0.0000000  0.6508444  3
    197    198    207    211     1  0.0000000  0.6508444  3
    197    201    204    210     1  0.0000000  0.6508444  3
    198    197    201    204     1  180.0000771  2.0083200  2
    198    197    201    204     1  0.0000000  1.2552000  3
    198    207    211    213     1  180.0000771  0.0000000  2
    198    207    211    489     1  0.0000000  0.2928800  2
    198    207    211    489     1  0.0000000  0.4184000  4
    201    197    198    207     1  180.0000771  2.0083200  2
    201    197    198    207     1  0.0000000  1.2552000  3
    201    204    210    212     1  180.0000771  0.0000000  2
    201    204    210    464     1  0.0000000  0.2928800  2
    201    204    210    464     1  0.0000000  0.4184000  4
    204    210    464    444     1  180.0000771  6.2760000  1
    204    210    464    444     1  0.0000000  0.0000000  2
    207    211    489    469     1  180.0000771  6.2760000  1
    207    211    489    469     1  0.0000000  0.0000000  2
    210    464    444    441     1  0.0000000  2.2175200  1
    210    464    444    441     1  0.0000000  0.0000000  2
    210    464    444    441     1  180.0000771  0.6276000  3
    210    464    444    441     1  180.0000771  2.0920000  4
    211    489    469    466     1  0.0000000  2.2175200  1
    211    489    469    466     1  0.0000000  0.0000000  2
    211    489    469    466     1  180.0000771  0.6276000  3
    211    489    469    466     1  180.0000771  2.0920000  4
    212    210    464    444     1  180.0000771  10.4600000  2
    213    211    489    469     1  180.0000771  10.4600000  2
    216    222    223    232     1  180.0000771  2.0083200  2
    216    222    223    232     1  0.0000000  1.2552000  3
    216    222    226    229     1  180.0000771  2.0083200  2
    216    222    226    229     1  0.0000000  1.2552000  3
    219    216    222    223     1  180.0000771  2.0083200  2
    219    216    222    223     1  0.0000000  1.2552000  3
    219    216    222    226     1  180.0000771  2.0083200  2
    219    216    222    226     1  0.0000000  1.2552000  3
    222    216    219    239     1  0.0000000  0.6508444  3
    222    223    232    236     1  0.0000000  0.6508444  3
    222    226    229    235     1  0.0000000  0.6508444  3
    223    222    226    229     1  180.0000771  2.0083200  2
    223    222    226    229     1  0.0000000  1.2552000  3
    223    232    236    238     1  180.0000771  0.0000000  2
    223    232    236    539     1  0.0000000  0.2928800  2
    223    232    236    539     1  0.0000000  0.4184000  4
    226    222    223    232     1  180.0000771  2.0083200  2
    226    222    223    232     1  0.0000000  1.2552000  3
    226    229    235    237     1  180.0000771  0.0000000  2
    226    229    235    514     1  0.0000000  0.2928800  2
    226    229    235    514     1  0.0000000  0.4184000  4
    229    235    514    494     1  180.0000771  6.2760000  1
    229    235    514    494     1  0.0000000  0.0000000  2
    232    236    539    519     1  180.0000771  6.2760000  1
    232    236    539    519     1  0.0000000  0.0000000  2
    235    514    494    491     1  0.0000000  2.2175200  1
    235    514    494    491     1  0.0000000  0.0000000  2
    235    514    494    491     1  180.0000771  0.6276000  3
    235    514    494    491     1  180.0000771  2.0920000  4
    236    539    519    516     1  0.0000000  2.2175200  1
    236    539    519    516     1  0.0000000  0.0000000  2
    236    539    519    516     1  180.0000771  0.6276000  3
    236    539    519    516     1  180.0000771  2.0920000  4
    237    235    514    494     1  180.0000771  10.4600000  2
    238    236    539    519     1  180.0000771  10.4600000  2
    241    247    248    257     1  180.0000771  2.0083200  2
    241    247    248    257     1  0.0000000  1.2552000  3
    241    247    251    254     1  180.0000771  2.0083200  2
    241    247    251    254     1  0.0000000  1.2552000  3
    244    241    247    248     1  180.0000771  2.0083200  2
    244    241    247    248     1  0.0000000  1.2552000  3
    244    241    247    251     1  180.0000771  2.0083200  2
    244    241    247    251     1  0.0000000  1.2552000  3
    247    241    244    264     1  0.0000000  0.6508444  3
    247    248    257    261     1  0.0000000  0.6508444  3
    247    251    254    260     1  0.0000000  0.6508444  3
    248    247    251    254     1  180.0000771  2.0083200  2
    248    247    251    254     1  0.0000000  1.2552000  3
    248    257    261    263     1  180.0000771  0.0000000  2
    248    257    261    589     1  0.0000000  0.2928800  2
    248    257    261    589     1  0.0000000  0.4184000  4
    251    247    248    257     1  180.0000771  2.0083200  2
    251    247    248    257     1  0.0000000  1.2552000  3
    251    254    260    262     1  180.0000771  0.0000000  2
    251    254    260    564     1  0.0000000  0.2928800  2
    251    254    260    564     1  0.0000000  0.4184000  4
    254    260    564    544     1  180.0000771  6.2760000  1
    254    260    564    544     1  0.0000000  0.0000000  2
    257    261    589    569     1  180.0000771  6.2760000  1
    257    261    589    569     1  0.0000000  0.0000000  2
    260    564    544    541     1  0.0000000  2.2175200  1
    260    564    544    541     1  0.0000000  0.0000000  2
    260    564    544    541     1  180.0000771  0.6276000  3
    260    564    544    541     1  180.0000771  2.0920000  4
    261    589    569    566     1  0.0000000  2.2175200  1
    261    589    569    566     1  0.0000000  0.0000000  2
    261    589    569    566     1  180.0000771  0.6276000  3
    261    589    569    566     1  180.0000771  2.0920000  4
    262    260    564    544     1  180.0000771  10.4600000  2
    263    261    589    569     1  180.0000771  10.4600000  2
    266    272    273    282     1  180.0000771  2.0083200  2
    266    272    273    282     1  0.0000000  1.2552000  3
    266    272    276    279     1  180.0000771  2.0083200  2
    266    272    276    279     1  0.0000000  1.2552000  3
    269    266    272    273     1  180.0000771  2.0083200  2
    269    266    272    273     1  0.0000000  1.2552000  3
    269    266    272    276     1  180.0000771  2.0083200  2
    269    266    272    276     1  0.0000000  1.2552000  3
    272    266    269    289     1  0.0000000  0.6508444  3
    272    273    282    286     1  0.0000000  0.6508444  3
    272    276    279    285     1  0.0000000  0.6508444  3
    273    272    276    279     1  180.0000771  2.0083200  2
    273    272    276    279     1  0.0000000  1.2552000  3
    273    282    286    288     1  180.0000771  0.0000000  2
    273    282    286    639     1  0.0000000  0.2928800  2
    273    282    286    639     1  0.0000000  0.4184000  4
    276    272    273    282     1  180.0000771  2.0083200  2
    276    272    273    282     1  0.0000000  1.2552000  3
    276    279    285    287     1  180.0000771  0.0000000  2
    276    279    285    614     1  0.0000000  0.2928800  2
    276    279    285    614     1  0.0000000  0.4184000  4
    279    285    614    594     1  180.0000771  6.2760000  1
    279    285    614    594     1  0.0000000  0.0000000  2
    282    286    639    619     1  180.0000771  6.2760000  1
    282    286    639    619     1  0.0000000  0.0000000  2
    285    614    594    591     1  0.0000000  2.2175200  1
    285    614    594    591     1  0.0000000  0.0000000  2
    285    614    594    591     1  180.0000771  0.6276000  3
    285    614    594    591     1  180.0000771  2.0920000  4
    286    639    619    616     1  0.0000000  2.2175200  1
    286    639    619    616     1  0.0000000  0.0000000  2
    286    639    619    616     1  180.0000771  0.6276000  3
    286    639    619    616     1  180.0000771  2.0920000  4
    287    285    614    594     1  180.0000771  10.4600000  2
    288    286    639    619     1  180.0000771  10.4600000  2
    291    297    298    307     1  180.0000771  2.0083200  2
    291    297    298    307     1  0.0000000  1.2552000  3
    291    297    301    304     1  180.0000771  2.0083200  2
    291    297    301    304     1  0.0000000  1.2552000  3
    294    291    297    298     1  180.0000771  2.0083200  2
    294    291    297    298     1  0.0000000  1.2552000  3
    294    291    297    301     1  180.0000771  2.0083200  2
    294    291    297    301     1  0.0000000  1.2552000  3
    297    291    294    314     1  0.0000000  0.6508444  3
    297    298    307    311     1  0.0000000  0.6508444  3
    297    301    304    310     1  0.0000000  0.6508444  3
    298    297    301    304     1  180.0000771  2.0083200  2
    298    297    301    304     1  0.0000000  1.2552000  3
    298    307    311    313     1  180.0000771  0.0000000  2
    298    307    311    689     1  0.0000000  0.2928800  2
    298    307    311    689     1  0.0000000  0.4184000  4
    301    297    298    307     1  180.0000771  2.0083200  2
    301    297    298    307     1  0.0000000  1.2552000  3
    301    304    310    312     1  180.0000771  0.0000000  2
    301    304    310    664     1  0.0000000  0.2928800  2
    301    304    310    664     1  0.0000000  0.4184000  4
    304    310    664    644     1  180.0000771  6.2760000  1
    304    310    664    644     1  0.0000000  0.0000000  2
    307    311    689    669     1  180.0000771  6.2760000  1
    307    311    689    669     1  0.0000000  0.0000000  2
    310    664    644    641     1  0.0000000  2.2175200  1
    310    664    644    641     1  0.0000000  0.0000000  2
    310    664    644    641     1  180.0000771  0.6276000  3
    310    664    644    641     1  180.0000771  2.0920000  4
    311    689    669    666     1  0.0000000  2.2175200  1
    311    689    669    666     1  0.0000000  0.0000000  2
    311    689    669    666     1  180.0000771  0.6276000  3
    311    689    669    666     1  180.0000771  2.0920000  4
    312    310    664    644     1  180.0000771  10.4600000  2
    313    311    689    669     1  180.0000771  10.4600000  2
    316    322    323    332     1  180.0000771  2.0083200  2
    316    322    323    332     1  0.0000000  1.2552000  3
    316    322    326    329     1  180.0000771  2.0083200  2
    316    322    326    329     1  0.0000000  1.2552000  3
    319    316    322    323     1  180.0000771  2.0083200  2
    319    316    322    323     1  0.0000000  1.2552000  3
    319    316    322    326     1  180.0000771  2.0083200  2
    319    316    322    326     1  0.0000000  1.2552000  3
    322    316    319    339     1  0.0000000  0.6508444  3
    322    323    332    336     1  0.0000000  0.6508444  3
    322    326    329    335     1  0.0000000  0.6508444  3
    323    322    326    329     1  180.0000771  2.0083200  2
    323    322    326    329     1  0.0000000  1.2552000  3
    323    332    336    338     1  180.0000771  0.0000000  2
    323    332    336    739     1  0.0000000  0.2928800  2
    323    332    336    739     1  0.0000000  0.4184000  4
    326    322    323    332     1  180.0000771  2.0083200  2
    326    322    323    332     1  0.0000000  1.2552000  3
    326    329    335    337     1  180.0000771  0.0000000  2
    326    329    335    714     1  0.0000000  0.2928800  2
    326    329    335    714     1  0.0000000  0.4184000  4
    329    335    714    694     1  180.0000771  6.2760000  1
    329    335    714    694     1  0.0000000  0.0000000  2
    332    336    739    719     1  180.0000771  6.2760000  1
    332    336    739    719     1  0.0000000  0.0000000  2
    335    714    694    691     1  0.0000000  2.2175200  1
    335    714    694    691     1  0.0000000  0.0000000  2
    335    714    694    691     1  180.0000771  0.6276000  3
    335    714    694    691     1  180.0000771  2.0920000  4
    336    739    719    716     1  0.0000000  2.2175200  1
    336    739    719    716     1  0.0000000  0.0000000  2
    336    739    719    716     1  180.0000771  0.6276000  3
    336    739    719    716     1  180.0000771  2.0920000  4
    337    335    714    694     1  180.0000771  10.4600000  2
    338    336    739    719     1  180.0000771  10.4600000  2
    341    347    348    357     1  180.0000771  2.0083200  2
    341    347    348    357     1  0.0000000  1.2552000  3
    341    347    351    354     1  180.0000771  2.0083200  2
    341    347    351    354     1  0.0000000  1.2552000  3
    344    341    347    348     1  180.0000771  2.0083200  2
    344    341    347    348     1  0.0000000  1.2552000  3
    344    341    347    351     1  180.0000771  2.0083200  2
    344    341    347    351     1  0.0000000  1.2552000  3
    347    341    344    364     1  0.0000000  0.6508444  3
    347    348    357    361     1  0.0000000  0.6508444  3
    347    351    354    360     1  0.0000000  0.6508444  3
    348    347    351    354     1  180.0000771  2.0083200  2
    348    347    351    354     1  0.0000000  1.2552000  3
    348    357    361    363     1  180.0000771  0.0000000  2
    348    357    361    814     1  0.0000000  0.2928800  2
    348    357    361    814     1  0.0000000  0.4184000  4
    351    347    348    357     1  180.0000771  2.0083200  2
    351    347    348    357     1  0.0000000  1.2552000  3
    351    354    360    741     1  0.0000000  0.2928800  2
    351    354    360    741     1  0.0000000  0.4184000  4
    351    354    360    362     1  180.0000771  0.0000000  2
    354    360    741    743     1  180.0000771  6.2760000  1
    354    360    741    743     1  0.0000000  0.0000000  2
    357    361    814    816     1  180.0000771  6.2760000  1
    357    361    814    816     1  0.0000000  0.0000000  2
    360    741    743    745     1  0.0000000  2.2175200  1
    360    741    743    745     1  0.0000000  0.0000000  2
    360    741    743    745     1  180.0000771  0.6276000  3
    360    741    743    745     1  180.0000771  2.0920000  4
    361    814    816    818     1  0.0000000  2.2175200  1
    361    814    816    818     1  0.0000000  0.0000000  2
    361    814    816    818     1  180.0000771  0.6276000  3
    361    814    816    818     1  180.0000771  2.0920000  4
    362    360    741    743     1  180.0000771  10.4600000  2
    363    361    814    816     1  180.0000771  10.4600000  2
    366    372    373    382     1  180.0000771  2.0083200  2
    366    372    373    382     1  0.0000000  1.2552000  3
    366    372    376    379     1  180.0000771  2.0083200  2
    366    372    376    379     1  0.0000000  1.2552000  3
    369    366    372    373     1  180.0000771  2.0083200  2
    369    366    372    373     1  0.0000000  1.2552000  3
    369    366    372    376     1  180.0000771  2.0083200  2
    369    366    372    376     1  0.0000000  1.2552000  3
    372    366    369    389     1  0.0000000  0.6508444  3
    372    373    382    386     1  0.0000000  0.6508444  3
    372    376    379    385     1  0.0000000  0.6508444  3
    373    372    376    379     1  180.0000771  2.0083200  2
    373    372    376    379     1  0.0000000  1.2552000  3
    373    382    386    388     1  180.0000771  0.0000000  2
    373    382    386    960     1  0.0000000  0.2928800  2
    373    382    386    960     1  0.0000000  0.4184000  4
    376    372    373    382     1  180.0000771  2.0083200  2
    376    372    373    382     1  0.0000000  1.2552000  3
    376    379    385    887     1  0.0000000  0.2928800  2
    376    379    385    887     1  0.0000000  0.4184000  4
    376    379    385    387     1  180.0000771  0.0000000  2
    379    385    887    889     1  180.0000771  6.2760000  1
    379    385    887    889     1  0.0000000  0.0000000  2
    382    386    960    962     1  180.0000771  6.2760000  1
    382    386    960    962     1  0.0000000  0.0000000  2
    385    887    889    891     1  0.0000000  2.2175200  1
    385    887    889    891     1  0.0000000  0.0000000  2
    385    887    889    891     1  180.0000771  0.6276000  3
    385    887    889    891     1  180.0000771  2.0920000  4
    386    960    962    964     1  0.0000000  2.2175200  1
    386    960    962    964     1  0.0000000  0.0000000  2
    386    960    962    964     1  180.0000771  0.6276000  3
    386    960    962    964     1  180.0000771  2.0920000  4
    387    385    887    889     1  180.0000771  10.4600000  2
    388    386    960    962     1  180.0000771  10.4600000  2
    391    397    398    407     1  180.0000771  2.0083200  2
    391    397    398    407     1  0.0000000  1.2552000  3
    391    397    401    404     1  180.0000771  2.0083200  2
    391    397    401    404     1  0.0000000  1.2552000  3
    394    391    397    398     1  180.0000771  2.0083200  2
    394    391    397    398     1  0.0000000  1.2552000  3
    394    391    397    401     1  180.0000771  2.0083200  2
    394    391    397    401     1  0.0000000  1.2552000  3
    397    391    394    414     1  0.0000000  0.6508444  3
    397    398    407    411     1  0.0000000  0.6508444  3
    397    401    404    410     1  0.0000000  0.6508444  3
    398    397    401    404     1  180.0000771  2.0083200  2
    398    397    401    404     1  0.0000000  1.2552000  3
    398    407    411    413     1  180.0000771  0.0000000  2
    398    407    411   1106     1  0.0000000  0.2928800  2
    398    407    411   1106     1  0.0000000  0.4184000  4
    401    397    398    407     1  180.0000771  2.0083200  2
    401    397    398    407     1  0.0000000  1.2552000  3
    401    404    410   1033     1  0.0000000  0.2928800  2
    401    404    410   1033     1  0.0000000  0.4184000  4
    401    404    410    412     1  180.0000771  0.0000000  2
    404    410   1033   1035     1  180.0000771  6.2760000  1
    404    410   1033   1035     1  0.0000000  0.0000000  2
    407    411   1106   1108     1  180.0000771  6.2760000  1
    407    411   1106   1108     1  0.0000000  0.0000000  2
    410   1033   1035   1037     1  0.0000000  2.2175200  1
    410   1033   1035   1037     1  0.0000000  0.0000000  2
    410   1033   1035   1037     1  180.0000771  0.6276000  3
    410   1033   1035   1037     1  180.0000771  2.0920000  4
    411   1106   1108   1110     1  0.0000000  2.2175200  1
    411   1106   1108   1110     1  0.0000000  0.0000000  2
    411   1106   1108   1110     1  180.0000771  0.6276000  3
    411   1106   1108   1110     1  180.0000771  2.0920000  4
    412    410   1033   1035     1  180.0000771  10.4600000  2
    413    411   1106   1108     1  180.0000771  10.4600000  2
    416    422    423    432     1  180.0000771  2.0083200  2
    416    422    423    432     1  0.0000000  1.2552000  3
    416    422    426    429     1  180.0000771  2.0083200  2
    416    422    426    429     1  0.0000000  1.2552000  3
    419    416    422    423     1  180.0000771  2.0083200  2
    419    416    422    423     1  0.0000000  1.2552000  3
    419    416    422    426     1  180.0000771  2.0083200  2
    419    416    422    426     1  0.0000000  1.2552000  3
    422    416    419    439     1  0.0000000  0.6508444  3
    422    423    432    436     1  0.0000000  0.6508444  3
    422    426    429    435     1  0.0000000  0.6508444  3
    423    422    426    429     1  180.0000771  2.0083200  2
    423    422    426    429     1  0.0000000  1.2552000  3
    423    432    436    438     1  180.0000771  0.0000000  2
    423    432    436   1252     1  0.0000000  0.2928800  2
    423    432    436   1252     1  0.0000000  0.4184000  4
    426    422    423    432     1  180.0000771  2.0083200  2
    426    422    423    432     1  0.0000000  1.2552000  3
    426    429    435   1179     1  0.0000000  0.2928800  2
    426    429    435   1179     1  0.0000000  0.4184000  4
    426    429    435    437     1  180.0000771  0.0000000  2
    429    435   1179   1181     1  180.0000771  6.2760000  1
    429    435   1179   1181     1  0.0000000  0.0000000  2
    432    436   1252   1254     1  180.0000771  6.2760000  1
    432    436   1252   1254     1  0.0000000  0.0000000  2
    435   1179   1181   1183     1  0.0000000  2.2175200  1
    435   1179   1181   1183     1  0.0000000  0.0000000  2
    435   1179   1181   1183     1  180.0000771  0.6276000  3
    435   1179   1181   1183     1  180.0000771  2.0920000  4
    436   1252   1254   1256     1  0.0000000  2.2175200  1
    436   1252   1254   1256     1  0.0000000  0.0000000  2
    436   1252   1254   1256     1  180.0000771  0.6276000  3
    436   1252   1254   1256     1  180.0000771  2.0920000  4
    437    435   1179   1181     1  180.0000771  10.4600000  2
    438    436   1252   1254     1  180.0000771  10.4600000  2
    441    447    448    457     1  180.0000771  2.0083200  2
    441    447    448    457     1  0.0000000  1.2552000  3
    441    447    451    454     1  180.0000771  2.0083200  2
    441    447    451    454     1  0.0000000  1.2552000  3
    444    441    447    448     1  180.0000771  2.0083200  2
    444    441    447    448     1  0.0000000  1.2552000  3
    444    441    447    451     1  180.0000771  2.0083200  2
    444    441    447    451     1  0.0000000  1.2552000  3
    447    441    444    464     1  0.0000000  0.6508444  3
    447    448    457    461     1  0.0000000  0.6508444  3
    447    451    454    460     1  0.0000000  0.6508444  3
    448    447    451    454     1  180.0000771  2.0083200  2
    448    447    451    454     1  0.0000000  1.2552000  3
    448    457    461    463     1  180.0000771  0.0000000  2
    448    457    461   1398     1  0.0000000  0.2928800  2
    448    457    461   1398     1  0.0000000  0.4184000  4
    451    447    448    457     1  180.0000771  2.0083200  2
    451    447    448    457     1  0.0000000  1.2552000  3
    451    454    460   1325     1  0.0000000  0.2928800  2
    451    454    460   1325     1  0.0000000  0.4184000  4
    451    454    460    462     1  180.0000771  0.0000000  2
    454    460   1325   1327     1  180.0000771  6.2760000  1
    454    460   1325   1327     1  0.0000000  0.0000000  2
    457    461   1398   1400     1  180.0000771  6.2760000  1
    457    461   1398   1400     1  0.0000000  0.0000000  2
    460   1325   1327   1329     1  0.0000000  2.2175200  1
    460   1325   1327   1329     1  0.0000000  0.0000000  2
    460   1325   1327   1329     1  180.0000771  0.6276000  3
    460   1325   1327   1329     1  180.0000771  2.0920000  4
    461   1398   1400   1402     1  0.0000000  2.2175200  1
    461   1398   1400   1402     1  0.0000000  0.0000000  2
    461   1398   1400   1402     1  180.0000771  0.6276000  3
    461   1398   1400   1402     1  180.0000771  2.0920000  4
    462    460   1325   1327     1  180.0000771  10.4600000  2
    463    461   1398   1400     1  180.0000771  10.4600000  2
    466    472    473    482     1  180.0000771  2.0083200  2
    466    472    473    482     1  0.0000000  1.2552000  3
    466    472    476    479     1  180.0000771  2.0083200  2
    466    472    476    479     1  0.0000000  1.2552000  3
    469    466    472    473     1  180.0000771  2.0083200  2
    469    466    472    473     1  0.0000000  1.2552000  3
    469    466    472    476     1  180.0000771  2.0083200  2
    469    466    472    476     1  0.0000000  1.2552000  3
    472    466    469    489     1  0.0000000  0.6508444  3
    472    473    482    486     1  0.0000000  0.6508444  3
    472    476    479    485     1  0.0000000  0.6508444  3
    473    472    476    479     1  180.0000771  2.0083200  2
    473    472    476    479     1  0.0000000  1.2552000  3
    473    482    486    488     1  180.0000771  0.0000000  2
    473    482    486   1544     1  0.0000000  0.2928800  2
    473    482    486   1544     1  0.0000000  0.4184000  4
    476    472    473    482     1  180.0000771  2.0083200  2
    476    472    473    482     1  0.0000000  1.2552000  3
    476    479    485   1471     1  0.0000000  0.2928800  2
    476    479    485   1471     1  0.0000000  0.4184000  4
    476    479    485    487     1  180.0000771  0.0000000  2
    479    485   1471   1473     1  180.0000771  6.2760000  1
    479    485   1471   1473     1  0.0000000  0.0000000  2
    482    486   1544   1546     1  180.0000771  6.2760000  1
    482    486   1544   1546     1  0.0000000  0.0000000  2
    485   1471   1473   1475     1  0.0000000  2.2175200  1
    485   1471   1473   1475     1  0.0000000  0.0000000  2
    485   1471   1473   1475     1  180.0000771  0.6276000  3
    485   1471   1473   1475     1  180.0000771  2.0920000  4
    486   1544   1546   1548     1  0.0000000  2.2175200  1
    486   1544   1546   1548     1  0.0000000  0.0000000  2
    486   1544   1546   1548     1  180.0000771  0.6276000  3
    486   1544   1546   1548     1  180.0000771  2.0920000  4
    487    485   1471   1473     1  180.0000771  10.4600000  2
    488    486   1544   1546     1  180.0000771  10.4600000  2
    491    497    498    507     1  180.0000771  2.0083200  2
    491    497    498    507     1  0.0000000  1.2552000  3
    491    497    501    504     1  180.0000771  2.0083200  2
    491    497    501    504     1  0.0000000  1.2552000  3
    494    491    497    498     1  180.0000771  2.0083200  2
    494    491    497    498     1  0.0000000  1.2552000  3
    494    491    497    501     1  180.0000771  2.0083200  2
    494    491    497    501     1  0.0000000  1.2552000  3
    497    491    494    514     1  0.0000000  0.6508444  3
    497    498    507    511     1  0.0000000  0.6508444  3
    497    501    504    510     1  0.0000000  0.6508444  3
    498    497    501    504     1  180.0000771  2.0083200  2
    498    497    501    504     1  0.0000000  1.2552000  3
    498    507    511    513     1  180.0000771  0.0000000  2
    498    507    511   1690     1  0.0000000  0.2928800  2
    498    507    511   1690     1  0.0000000  0.4184000  4
    501    497    498    507     1  180.0000771  2.0083200  2
    501    497    498    507     1  0.0000000  1.2552000  3
    501    504    510   1617     1  0.0000000  0.2928800  2
    501    504    510   1617     1  0.0000000  0.4184000  4
    501    504    510    512     1  180.0000771  0.0000000  2
    504    510   1617   1619     1  180.0000771  6.2760000  1
    504    510   1617   1619     1  0.0000000  0.0000000  2
    507    511   1690   1692     1  180.0000771  6.2760000  1
    507    511   1690   1692     1  0.0000000  0.0000000  2
    510   1617   1619   1621     1  0.0000000  2.2175200  1
    510   1617   1619   1621     1  0.0000000  0.0000000  2
    510   1617   1619   1621     1  180.0000771  0.6276000  3
    510   1617   1619   1621     1  180.0000771  2.0920000  4
    511   1690   1692   1694     1  0.0000000  2.2175200  1
    511   1690   1692   1694     1  0.0000000  0.0000000  2
    511   1690   1692   1694     1  180.0000771  0.6276000  3
    511   1690   1692   1694     1  180.0000771  2.0920000  4
    512    510   1617   1619     1  180.0000771  10.4600000  2
    513    511   1690   1692     1  180.0000771  10.4600000  2
    516    522    523    532     1  180.0000771  2.0083200  2
    516    522    523    532     1  0.0000000  1.2552000  3
    516    522    526    529     1  180.0000771  2.0083200  2
    516    522    526    529     1  0.0000000  1.2552000  3
    519    516    522    523     1  180.0000771  2.0083200  2
    519    516    522    523     1  0.0000000  1.2552000  3
    519    516    522    526     1  180.0000771  2.0083200  2
    519    516    522    526     1  0.0000000  1.2552000  3
    522    516    519    539     1  0.0000000  0.6508444  3
    522    523    532    536     1  0.0000000  0.6508444  3
    522    526    529    535     1  0.0000000  0.6508444  3
    523    522    526    529     1  180.0000771  2.0083200  2
    523    522    526    529     1  0.0000000  1.2552000  3
    523    532    536    538     1  180.0000771  0.0000000  2
    523    532    536   1836     1  0.0000000  0.2928800  2
    523    532    536   1836     1  0.0000000  0.4184000  4
    526    522    523    532     1  180.0000771  2.0083200  2
    526    522    523    532     1  0.0000000  1.2552000  3
    526    529    535   1763     1  0.0000000  0.2928800  2
    526    529    535   1763     1  0.0000000  0.4184000  4
    526    529    535    537     1  180.0000771  0.0000000  2
    529    535   1763   1765     1  180.0000771  6.2760000  1
    529    535   1763   1765     1  0.0000000  0.0000000  2
    532    536   1836   1838     1  180.0000771  6.2760000  1
    532    536   1836   1838     1  0.0000000  0.0000000  2
    535   1763   1765   1767     1  0.0000000  2.2175200  1
    535   1763   1765   1767     1  0.0000000  0.0000000  2
    535   1763   1765   1767     1  180.0000771  0.6276000  3
    535   1763   1765   1767     1  180.0000771  2.0920000  4
    536   1836   1838   1840     1  0.0000000  2.2175200  1
    536   1836   1838   1840     1  0.0000000  0.0000000  2
    536   1836   1838   1840     1  180.0000771  0.6276000  3
    536   1836   1838   1840     1  180.0000771  2.0920000  4
    537    535   1763   1765     1  180.0000771  10.4600000  2
    538    536   1836   1838     1  180.0000771  10.4600000  2
    541    547    548    557     1  180.0000771  2.0083200  2
    541    547    548    557     1  0.0000000  1.2552000  3
    541    547    551    554     1  180.0000771  2.0083200  2
    541    547    551    554     1  0.0000000  1.2552000  3
    544    541    547    548     1  180.0000771  2.0083200  2
    544    541    547    548     1  0.0000000  1.2552000  3
    544    541    547    551     1  180.0000771  2.0083200  2
    544    541    547    551     1  0.0000000  1.2552000  3
    547    541    544    564     1  0.0000000  0.6508444  3
    547    548    557    561     1  0.0000000  0.6508444  3
    547    551    554    560     1  0.0000000  0.6508444  3
    548    547    551    554     1  180.0000771  2.0083200  2
    548    547    551    554     1  0.0000000  1.2552000  3
    548    557    561    563     1  180.0000771  0.0000000  2
    548    557    561   1982     1  0.0000000  0.2928800  2
    548    557    561   1982     1  0.0000000  0.4184000  4
    551    547    548    557     1  180.0000771  2.0083200  2
    551    547    548    557     1  0.0000000  1.2552000  3
    551    554    560   1909     1  0.0000000  0.2928800  2
    551    554    560   1909     1  0.0000000  0.4184000  4
    551    554    560    562     1  180.0000771  0.0000000  2
    554    560   1909   1911     1  180.0000771  6.2760000  1
    554    560   1909   1911     1  0.0000000  0.0000000  2
    557    561   1982   1984     1  180.0000771  6.2760000  1
    557    561   1982   1984     1  0.0000000  0.0000000  2
    560   1909   1911   1913     1  0.0000000  2.2175200  1
    560   1909   1911   1913     1  0.0000000  0.0000000  2
    560   1909   1911   1913     1  180.0000771  0.6276000  3
    560   1909   1911   1913     1  180.0000771  2.0920000  4
    561   1982   1984   1986     1  0.0000000  2.2175200  1
    561   1982   1984   1986     1  0.0000000  0.0000000  2
    561   1982   1984   1986     1  180.0000771  0.6276000  3
    561   1982   1984   1986     1  180.0000771  2.0920000  4
    562    560   1909   1911     1  180.0000771  10.4600000  2
    563    561   1982   1984     1  180.0000771  10.4600000  2
    566    572    573    582     1  180.0000771  2.0083200  2
    566    572    573    582     1  0.0000000  1.2552000  3
    566    572    576    579     1  180.0000771  2.0083200  2
    566    572    576    579     1  0.0000000  1.2552000  3
    569    566    572    573     1  180.0000771  2.0083200  2
    569    566    572    573     1  0.0000000  1.2552000  3
    569    566    572    576     1  180.0000771  2.0083200  2
    569    566    572    576     1  0.0000000  1.2552000  3
    572    566    569    589     1  0.0000000  0.6508444  3
    572    573    582    586     1  0.0000000  0.6508444  3
    572    576    579    585     1  0.0000000  0.6508444  3
    573    572    576    579     1  180.0000771  2.0083200  2
    573    572    576    579     1  0.0000000  1.2552000  3
    573    582    586    588     1  180.0000771  0.0000000  2
    573    582    586   2128     1  0.0000000  0.2928800  2
    573    582    586   2128     1  0.0000000  0.4184000  4
    576    572    573    582     1  180.0000771  2.0083200  2
    576    572    573    582     1  0.0000000  1.2552000  3
    576    579    585   2055     1  0.0000000  0.2928800  2
    576    579    585   2055     1  0.0000000  0.4184000  4
    576    579    585    587     1  180.0000771  0.0000000  2
    579    585   2055   2057     1  180.0000771  6.2760000  1
    579    585   2055   2057     1  0.0000000  0.0000000  2
    582    586   2128   2130     1  180.0000771  6.2760000  1
    582    586   2128   2130     1  0.0000000  0.0000000  2
    585   2055   2057   2059     1  0.0000000  2.2175200  1
    585   2055   2057   2059     1  0.0000000  0.0000000  2
    585   2055   2057   2059     1  180.0000771  0.6276000  3
    585   2055   2057   2059     1  180.0000771  2.0920000  4
    586   2128   2130   2132     1  0.0000000  2.2175200  1
    586   2128   2130   2132     1  0.0000000  0.0000000  2
    586   2128   2130   2132     1  180.0000771  0.6276000  3
    586   2128   2130   2132     1  180.0000771  2.0920000  4
    587    585   2055   2057     1  180.0000771  10.4600000  2
    588    586   2128   2130     1  180.0000771  10.4600000  2
    591    597    598    607     1  180.0000771  2.0083200  2
    591    597    598    607     1  0.0000000  1.2552000  3
    591    597    601    604     1  180.0000771  2.0083200  2
    591    597    601    604     1  0.0000000  1.2552000  3
    594    591    597    598     1  180.0000771  2.0083200  2
    594    591    597    598     1  0.0000000  1.2552000  3
    594    591    597    601     1  180.0000771  2.0083200  2
    594    591    597    601     1  0.0000000  1.2552000  3
    597    591    594    614     1  0.0000000  0.6508444  3
    597    598    607    611     1  0.0000000  0.6508444  3
    597    601    604    610     1  0.0000000  0.6508444  3
    598    597    601    604     1  180.0000771  2.0083200  2
    598    597    601    604     1  0.0000000  1.2552000  3
    598    607    611    613     1  180.0000771  0.0000000  2
    598    607    611   2274     1  0.0000000  0.2928800  2
    598    607    611   2274     1  0.0000000  0.4184000  4
    601    597    598    607     1  180.0000771  2.0083200  2
    601    597    598    607     1  0.0000000  1.2552000  3
    601    604    610   2201     1  0.0000000  0.2928800  2
    601    604    610   2201     1  0.0000000  0.4184000  4
    601    604    610    612     1  180.0000771  0.0000000  2
    604    610   2201   2203     1  180.0000771  6.2760000  1
    604    610   2201   2203     1  0.0000000  0.0000000  2
    607    611   2274   2276     1  180.0000771  6.2760000  1
    607    611   2274   2276     1  0.0000000  0.0000000  2
    610   2201   2203   2205     1  0.0000000  2.2175200  1
    610   2201   2203   2205     1  0.0000000  0.0000000  2
    610   2201   2203   2205     1  180.0000771  0.6276000  3
    610   2201   2203   2205     1  180.0000771  2.0920000  4
    611   2274   2276   2278     1  0.0000000  2.2175200  1
    611   2274   2276   2278     1  0.0000000  0.0000000  2
    611   2274   2276   2278     1  180.0000771  0.6276000  3
    611   2274   2276   2278     1  180.0000771  2.0920000  4
    612    610   2201   2203     1  180.0000771  10.4600000  2
    613    611   2274   2276     1  180.0000771  10.4600000  2
    616    622    623    632     1  180.0000771  2.0083200  2
    616    622    623    632     1  0.0000000  1.2552000  3
    616    622    626    629     1  180.0000771  2.0083200  2
    616    622    626    629     1  0.0000000  1.2552000  3
    619    616    622    623     1  180.0000771  2.0083200  2
    619    616    622    623     1  0.0000000  1.2552000  3
    619    616    622    626     1  180.0000771  2.0083200  2
    619    616    622    626     1  0.0000000  1.2552000  3
    622    616    619    639     1  0.0000000  0.6508444  3
    622    623    632    636     1  0.0000000  0.6508444  3
    622    626    629    635     1  0.0000000  0.6508444  3
    623    622    626    629     1  180.0000771  2.0083200  2
    623    622    626    629     1  0.0000000  1.2552000  3
    623    632    636    638     1  180.0000771  0.0000000  2
    623    632    636   2420     1  0.0000000  0.2928800  2
    623    632    636   2420     1  0.0000000  0.4184000  4
    626    622    623    632     1  180.0000771  2.0083200  2
    626    622    623    632     1  0.0000000  1.2552000  3
    626    629    635   2347     1  0.0000000  0.2928800  2
    626    629    635   2347     1  0.0000000  0.4184000  4
    626    629    635    637     1  180.0000771  0.0000000  2
    629    635   2347   2349     1  180.0000771  6.2760000  1
    629    635   2347   2349     1  0.0000000  0.0000000  2
    632    636   2420   2422     1  180.0000771  6.2760000  1
    632    636   2420   2422     1  0.0000000  0.0000000  2
    635   2347   2349   2351     1  0.0000000  2.2175200  1
    635   2347   2349   2351     1  0.0000000  0.0000000  2
    635   2347   2349   2351     1  180.0000771  0.6276000  3
    635   2347   2349   2351     1  180.0000771  2.0920000  4
    636   2420   2422   2424     1  0.0000000  2.2175200  1
    636   2420   2422   2424     1  0.0000000  0.0000000  2
    636   2420   2422   2424     1  180.0000771  0.6276000  3
    636   2420   2422   2424     1  180.0000771  2.0920000  4
    637    635   2347   2349     1  180.0000771  10.4600000  2
    638    636   2420   2422     1  180.0000771  10.4600000  2
    641    647    648    657     1  180.0000771  2.0083200  2
    641    647    648    657     1  0.0000000  1.2552000  3
    641    647    651    654     1  180.0000771  2.0083200  2
    641    647    651    654     1  0.0000000  1.2552000  3
    644    641    647    648     1  180.0000771  2.0083200  2
    644    641    647    648     1  0.0000000  1.2552000  3
    644    641    647    651     1  180.0000771  2.0083200  2
    644    641    647    651     1  0.0000000  1.2552000  3
    647    641    644    664     1  0.0000000  0.6508444  3
    647    648    657    661     1  0.0000000  0.6508444  3
    647    651    654    660     1  0.0000000  0.6508444  3
    648    647    651    654     1  180.0000771  2.0083200  2
    648    647    651    654     1  0.0000000  1.2552000  3
    648    657    661    663     1  180.0000771  0.0000000  2
    648    657    661   2566     1  0.0000000  0.2928800  2
    648    657    661   2566     1  0.0000000  0.4184000  4
    651    647    648    657     1  180.0000771  2.0083200  2
    651    647    648    657     1  0.0000000  1.2552000  3
    651    654    660   2493     1  0.0000000  0.2928800  2
    651    654    660   2493     1  0.0000000  0.4184000  4
    651    654    660    662     1  180.0000771  0.0000000  2
    654    660   2493   2495     1  180.0000771  6.2760000  1
    654    660   2493   2495     1  0.0000000  0.0000000  2
    657    661   2566   2568     1  180.0000771  6.2760000  1
    657    661   2566   2568     1  0.0000000  0.0000000  2
    660   2493   2495   2497     1  0.0000000  2.2175200  1
    660   2493   2495   2497     1  0.0000000  0.0000000  2
    660   2493   2495   2497     1  180.0000771  0.6276000  3
    660   2493   2495   2497     1  180.0000771  2.0920000  4
    661   2566   2568   2570     1  0.0000000  2.2175200  1
    661   2566   2568   2570     1  0.0000000  0.0000000  2
    661   2566   2568   2570     1  180.0000771  0.6276000  3
    661   2566   2568   2570     1  180.0000771  2.0920000  4
    662    660   2493   2495     1  180.0000771  10.4600000  2
    663    661   2566   2568     1  180.0000771  10.4600000  2
    666    672    673    682     1  180.0000771  2.0083200  2
    666    672    673    682     1  0.0000000  1.2552000  3
    666    672    676    679     1  180.0000771  2.0083200  2
    666    672    676    679     1  0.0000000  1.2552000  3
    669    666    672    673     1  180.0000771  2.0083200  2
    669    666    672    673     1  0.0000000  1.2552000  3
    669    666    672    676     1  180.0000771  2.0083200  2
    669    666    672    676     1  0.0000000  1.2552000  3
    672    666    669    689     1  0.0000000  0.6508444  3
    672    673    682    686     1  0.0000000  0.6508444  3
    672    676    679    685     1  0.0000000  0.6508444  3
    673    672    676    679     1  180.0000771  2.0083200  2
    673    672    676    679     1  0.0000000  1.2552000  3
    673    682    686    688     1  180.0000771  0.0000000  2
    673    682    686   2712     1  0.0000000  0.2928800  2
    673    682    686   2712     1  0.0000000  0.4184000  4
    676    672    673    682     1  180.0000771  2.0083200  2
    676    672    673    682     1  0.0000000  1.2552000  3
    676    679    685   2639     1  0.0000000  0.2928800  2
    676    679    685   2639     1  0.0000000  0.4184000  4
    676    679    685    687     1  180.0000771  0.0000000  2
    679    685   2639   2641     1  180.0000771  6.2760000  1
    679    685   2639   2641     1  0.0000000  0.0000000  2
    682    686   2712   2714     1  180.0000771  6.2760000  1
    682    686   2712   2714     1  0.0000000  0.0000000  2
    685   2639   2641   2643     1  0.0000000  2.2175200  1
    685   2639   2641   2643     1  0.0000000  0.0000000  2
    685   2639   2641   2643     1  180.0000771  0.6276000  3
    685   2639   2641   2643     1  180.0000771  2.0920000  4
    686   2712   2714   2716     1  0.0000000  2.2175200  1
    686   2712   2714   2716     1  0.0000000  0.0000000  2
    686   2712   2714   2716     1  180.0000771  0.6276000  3
    686   2712   2714   2716     1  180.0000771  2.0920000  4
    687    685   2639   2641     1  180.0000771  10.4600000  2
    688    686   2712   2714     1  180.0000771  10.4600000  2
    691    697    698    707     1  180.0000771  2.0083200  2
    691    697    698    707     1  0.0000000  1.2552000  3
    691    697    701    704     1  180.0000771  2.0083200  2
    691    697    701    704     1  0.0000000  1.2552000  3
    694    691    697    698     1  180.0000771  2.0083200  2
    694    691    697    698     1  0.0000000  1.2552000  3
    694    691    697    701     1  180.0000771  2.0083200  2
    694    691    697    701     1  0.0000000  1.2552000  3
    697    691    694    714     1  0.0000000  0.6508444  3
    697    698    707    711     1  0.0000000  0.6508444  3
    697    701    704    710     1  0.0000000  0.6508444  3
    698    697    701    704     1  180.0000771  2.0083200  2
    698    697    701    704     1  0.0000000  1.2552000  3
    698    707    711    713     1  180.0000771  0.0000000  2
    698    707    711   2858     1  0.0000000  0.2928800  2
    698    707    711   2858     1  0.0000000  0.4184000  4
    701    697    698    707     1  180.0000771  2.0083200  2
    701    697    698    707     1  0.0000000  1.2552000  3
    701    704    710   2785     1  0.0000000  0.2928800  2
    701    704    710   2785     1  0.0000000  0.4184000  4
    701    704    710    712     1  180.0000771  0.0000000  2
    704    710   2785   2787     1  180.0000771  6.2760000  1
    704    710   2785   2787     1  0.0000000  0.0000000  2
    707    711   2858   2860     1  180.0000771  6.2760000  1
    707    711   2858   2860     1  0.0000000  0.0000000  2
    710   2785   2787   2789     1  0.0000000  2.2175200  1
    710   2785   2787   2789     1  0.0000000  0.0000000  2
    710   2785   2787   2789     1  180.0000771  0.6276000  3
    710   2785   2787   2789     1  180.0000771  2.0920000  4
    711   2858   2860   2862     1  0.0000000  2.2175200  1
    711   2858   2860   2862     1  0.0000000  0.0000000  2
    711   2858   2860   2862     1  180.0000771  0.6276000  3
    711   2858   2860   2862     1  180.0000771  2.0920000  4
    712    710   2785   2787     1  180.0000771  10.4600000  2
    713    711   2858   2860     1  180.0000771  10.4600000  2
    716    722    723    732     1  180.0000771  2.0083200  2
    716    722    723    732     1  0.0000000  1.2552000  3
    716    722    726    729     1  180.0000771  2.0083200  2
    716    722    726    729     1  0.0000000  1.2552000  3
    719    716    722    723     1  180.0000771  2.0083200  2
    719    716    722    723     1  0.0000000  1.2552000  3
    719    716    722    726     1  180.0000771  2.0083200  2
    719    716    722    726     1  0.0000000  1.2552000  3
    722    716    719    739     1  0.0000000  0.6508444  3
    722    723    732    736     1  0.0000000  0.6508444  3
    722    726    729    735     1  0.0000000  0.6508444  3
    723    722    726    729     1  180.0000771  2.0083200  2
    723    722    726    729     1  0.0000000  1.2552000  3
    723    732    736   3004     1  0.0000000  0.2928800  2
    723    732    736   3004     1  0.0000000  0.4184000  4
    723    732    736    738     1  180.0000771  0.0000000  2
    726    722    723    732     1  180.0000771  2.0083200  2
    726    722    723    732     1  0.0000000  1.2552000  3
    726    729    735   2931     1  0.0000000  0.2928800  2
    726    729    735   2931     1  0.0000000  0.4184000  4
    726    729    735    737     1  180.0000771  0.0000000  2
    729    735   2931   2933     1  180.0000771  6.2760000  1
    729    735   2931   2933     1  0.0000000  0.0000000  2
    732    736   3004   3006     1  180.0000771  6.2760000  1
    732    736   3004   3006     1  0.0000000  0.0000000  2
    735   2931   2933   2935     1  0.0000000  2.2175200  1
    735   2931   2933   2935     1  0.0000000  0.0000000  2
    735   2931   2933   2935     1  180.0000771  0.6276000  3
    735   2931   2933   2935     1  180.0000771  2.0920000  4
    736   3004   3006   3008     1  0.0000000  2.2175200  1
    736   3004   3006   3008     1  0.0000000  0.0000000  2
    736   3004   3006   3008     1  180.0000771  0.6276000  3
    736   3004   3006   3008     1  180.0000771  2.0920000  4
    737    735   2931   2933     1  180.0000771  10.4600000  2
    738    736   3004   3006     1  180.0000771  10.4600000  2
    741    743    745    749     1  0.0000000  0.6508444  3
    743    745    749    750     1  180.0000771  2.0083200  2
    743    745    749    750     1  0.0000000  1.2552000  3
    743    745    749    751     1  180.0000771  2.0083200  2
    743    745    749    751     1  0.0000000  1.2552000  3
    745    749    750    761     1  180.0000771  2.0083200  2
    745    749    750    761     1  0.0000000  1.2552000  3
    745    749    751    753     1  180.0000771  2.0083200  2
    745    749    751    753     1  0.0000000  1.2552000  3
    749    750    761    764     1  0.0000000  0.6508444  3
    749    751    753    757     1  0.0000000  0.6508444  3
    750    749    751    753     1  180.0000771  2.0083200  2
    750    749    751    753     1  0.0000000  1.2552000  3
    750    761    764    765     1  180.0000771  0.0000000  2
    750    761    764    813     1  180.0000771  0.0000000  2
    751    749    750    761     1  180.0000771  2.0083200  2
    751    749    750    761     1  0.0000000  1.2552000  3
    751    753    757    758     1  180.0000771  0.0000000  2
    751    753    757    789     1  180.0000771  0.0000000  2
    753    757    789    770     1  180.0000771  6.0668000  2
    753    757    789    770     1  180.0000771  1.4644000  4
    757    789    770    769     1  0.0000000  1.2552000  3
    757    789    770    771     1  0.0000000  1.2552000  3
    758    757    789    770     1  180.0000771  6.0668000  2
    758    757    789    770     1  180.0000771  1.4644000  4
    761    764    813    794     1  180.0000771  6.0668000  2
    761    764    813    794     1  180.0000771  1.4644000  4
    764    813    794    793     1  0.0000000  1.2552000  3
    764    813    794    795     1  0.0000000  1.2552000  3
    765    764    813    794     1  180.0000771  6.0668000  2
    765    764    813    794     1  180.0000771  1.4644000  4
    766    767    769    770     1  180.0000771  0.8368000  1
    766    767    769    770     1  180.0000771  1.0460000  2
    766    767    769    770     1  0.0000000  0.7531200  3
    766    767    769    776     1  0.0000000  0.6508444  3
    766    784    771    770     1  180.0000771  0.4184000  2
    766    784    771    770     1  0.0000000  1.6024720  3
    766    784    771    775     1  0.0000000  1.6038667  3
    767    766    777    782     1  0.0000000  0.6508444  3
    767    766    784    771     1  180.0000771  0.4184000  2
    767    766    784    771     1  0.0000000  1.6024720  3
    767    769    770    771     1  180.0000771  0.8368000  1
    767    769    770    771     1  180.0000771  1.0460000  2
    767    769    770    771     1  0.0000000  0.7531200  3
    767    769    770    789     1  0.0000000  0.6508444  3
    769    767    766    777     1  180.0000771  0.8368000  1
    769    767    766    777     1  180.0000771  1.0460000  2
    769    767    766    777     1  0.0000000  0.7531200  3
    769    767    766    784     1  0.0000000  0.6508444  3
    769    770    771    775     1  0.0000000  0.6508444  3
    769    770    771    784     1  0.0000000  0.6508444  3
    770    769    767    787     1  0.0000000  0.6508444  3
    771    770    769    776     1  0.0000000  0.6508444  3
    771    784    766    777     1  180.0000771  0.4184000  2
    771    784    766    777     1  0.0000000  1.6024720  3
    775    771    770    789     1  0.0000000  0.6508444  3
    776    769    767    787     1  0.0000000  4.9162000  2
    776    769    767    787     1  0.0000000  0.6024960  3
    776    769    770    789     1  0.0000000  0.6508444  3
    777    766    767    787     1  0.0000000  0.6508444  3
    782    777    766    784     1  0.0000000  4.9162000  2
    782    777    766    784     1  0.0000000  0.6024960  3
    784    766    767    787     1  0.0000000  4.9162000  2
    784    766    767    787     1  0.0000000  0.6024960  3
    784    771    770    789     1  0.0000000  0.6508444  3
    790    791    793    794     1  180.0000771  0.8368000  1
    790    791    793    794     1  180.0000771  1.0460000  2
    790    791    793    794     1  0.0000000  0.7531200  3
    790    791    793    800     1  0.0000000  0.6508444  3
    790    808    795    794     1  180.0000771  0.4184000  2
    790    808    795    794     1  0.0000000  1.6024720  3
    790    808    795    799     1  0.0000000  1.6038667  3
    791    790    801    806     1  0.0000000  0.6508444  3
    791    790    808    795     1  180.0000771  0.4184000  2
    791    790    808    795     1  0.0000000  1.6024720  3
    791    793    794    795     1  180.0000771  0.8368000  1
    791    793    794    795     1  180.0000771  1.0460000  2
    791    793    794    795     1  0.0000000  0.7531200  3
    791    793    794    813     1  0.0000000  0.6508444  3
    793    791    790    801     1  180.0000771  0.8368000  1
    793    791    790    801     1  180.0000771  1.0460000  2
    793    791    790    801     1  0.0000000  0.7531200  3
    793    791    790    808     1  0.0000000  0.6508444  3
    793    794    795    799     1  0.0000000  0.6508444  3
    793    794    795    808     1  0.0000000  0.6508444  3
    794    793    791    811     1  0.0000000  0.6508444  3
    795    794    793    800     1  0.0000000  0.6508444  3
    795    808    790    801     1  180.0000771  0.4184000  2
    795    808    790    801     1  0.0000000  1.6024720  3
    799    795    794    813     1  0.0000000  0.6508444  3
    800    793    791    811     1  0.0000000  4.9162000  2
    800    793    791    811     1  0.0000000  0.6024960  3
    800    793    794    813     1  0.0000000  0.6508444  3
    801    790    791    811     1  0.0000000  0.6508444  3
    806    801    790    808     1  0.0000000  4.9162000  2
    806    801    790    808     1  0.0000000  0.6024960  3
    808    790    791    811     1  0.0000000  4.9162000  2
    808    790    791    811     1  0.0000000  0.6024960  3
    808    795    794    813     1  0.0000000  0.6508444  3
    814    816    818    822     1  0.0000000  0.6508444  3
    816    818    822    823     1  180.0000771  2.0083200  2
    816    818    822    823     1  0.0000000  1.2552000  3
    816    818    822    824     1  180.0000771  2.0083200  2
    816    818    822    824     1  0.0000000  1.2552000  3
    818    822    823    834     1  180.0000771  2.0083200  2
    818    822    823    834     1  0.0000000  1.2552000  3
    818    822    824    826     1  180.0000771  2.0083200  2
    818    822    824    826     1  0.0000000  1.2552000  3
    822    823    834    837     1  0.0000000  0.6508444  3
    822    824    826    830     1  0.0000000  0.6508444  3
    823    834    837    838     1  180.0000771  0.0000000  2
    823    834    837    886     1  180.0000771  0.0000000  2
    823    822    824    826     1  180.0000771  2.0083200  2
    823    822    824    826     1  0.0000000  1.2552000  3
    824    826    830    831     1  180.0000771  0.0000000  2
    824    826    830    862     1  180.0000771  0.0000000  2
    824    822    823    834     1  180.0000771  2.0083200  2
    824    822    823    834     1  0.0000000  1.2552000  3
    826    830    862    843     1  180.0000771  6.0668000  2
    826    830    862    843     1  180.0000771  1.4644000  4
    830    862    843    844     1  0.0000000  1.2552000  3
    830    862    843    842     1  0.0000000  1.2552000  3
    831    830    862    843     1  180.0000771  6.0668000  2
    831    830    862    843     1  180.0000771  1.4644000  4
    834    837    886    867     1  180.0000771  6.0668000  2
    834    837    886    867     1  180.0000771  1.4644000  4
    837    886    867    868     1  0.0000000  1.2552000  3
    837    886    867    866     1  0.0000000  1.2552000  3
    838    837    886    867     1  180.0000771  6.0668000  2
    838    837    886    867     1  180.0000771  1.4644000  4
    839    840    842    843     1  180.0000771  0.8368000  1
    839    840    842    843     1  180.0000771  1.0460000  2
    839    840    842    843     1  0.0000000  0.7531200  3
    839    840    842    849     1  0.0000000  0.6508444  3
    839    857    844    848     1  0.0000000  1.6038667  3
    839    857    844    843     1  180.0000771  0.4184000  2
    839    857    844    843     1  0.0000000  1.6024720  3
    840    842    843    844     1  180.0000771  0.8368000  1
    840    842    843    844     1  180.0000771  1.0460000  2
    840    842    843    844     1  0.0000000  0.7531200  3
    840    842    843    862     1  0.0000000  0.6508444  3
    840    839    850    855     1  0.0000000  0.6508444  3
    840    839    857    844     1  180.0000771  0.4184000  2
    840    839    857    844     1  0.0000000  1.6024720  3
    842    843    844    848     1  0.0000000  0.6508444  3
    842    843    844    857     1  0.0000000  0.6508444  3
    842    840    839    850     1  180.0000771  0.8368000  1
    842    840    839    850     1  180.0000771  1.0460000  2
    842    840    839    850     1  0.0000000  0.7531200  3
    842    840    839    857     1  0.0000000  0.6508444  3
    843    842    840    860     1  0.0000000  0.6508444  3
    844    857    839    850     1  180.0000771  0.4184000  2
    844    857    839    850     1  0.0000000  1.6024720  3
    844    843    842    849     1  0.0000000  0.6508444  3
    848    844    843    862     1  0.0000000  0.6508444  3
    849    842    843    862     1  0.0000000  0.6508444  3
    849    842    840    860     1  0.0000000  4.9162000  2
    849    842    840    860     1  0.0000000  0.6024960  3
    850    839    840    860     1  0.0000000  0.6508444  3
    855    850    839    857     1  0.0000000  4.9162000  2
    855    850    839    857     1  0.0000000  0.6024960  3
    857    844    843    862     1  0.0000000  0.6508444  3
    857    839    840    860     1  0.0000000  4.9162000  2
    857    839    840    860     1  0.0000000  0.6024960  3
    863    864    866    867     1  180.0000771  0.8368000  1
    863    864    866    867     1  180.0000771  1.0460000  2
    863    864    866    867     1  0.0000000  0.7531200  3
    863    864    866    873     1  0.0000000  0.6508444  3
    863    881    868    872     1  0.0000000  1.6038667  3
    863    881    868    867     1  180.0000771  0.4184000  2
    863    881    868    867     1  0.0000000  1.6024720  3
    864    866    867    868     1  180.0000771  0.8368000  1
    864    866    867    868     1  180.0000771  1.0460000  2
    864    866    867    868     1  0.0000000  0.7531200  3
    864    866    867    886     1  0.0000000  0.6508444  3
    864    863    874    879     1  0.0000000  0.6508444  3
    864    863    881    868     1  180.0000771  0.4184000  2
    864    863    881    868     1  0.0000000  1.6024720  3
    866    867    868    872     1  0.0000000  0.6508444  3
    866    867    868    881     1  0.0000000  0.6508444  3
    866    864    863    874     1  180.0000771  0.8368000  1
    866    864    863    874     1  180.0000771  1.0460000  2
    866    864    863    874     1  0.0000000  0.7531200  3
    866    864    863    881     1  0.0000000  0.6508444  3
    867    866    864    884     1  0.0000000  0.6508444  3
    868    881    863    874     1  180.0000771  0.4184000  2
    868    881    863    874     1  0.0000000  1.6024720  3
    868    867    866    873     1  0.0000000  0.6508444  3
    872    868    867    886     1  0.0000000  0.6508444  3
    873    866    867    886     1  0.0000000  0.6508444  3
    873    866    864    884     1  0.0000000  4.9162000  2
    873    866    864    884     1  0.0000000  0.6024960  3
    874    863    864    884     1  0.0000000  0.6508444  3
    879    874    863    881     1  0.0000000  4.9162000  2
    879    874    863    881     1  0.0000000  0.6024960  3
    881    868    867    886     1  0.0000000  0.6508444  3
    881    863    864    884     1  0.0000000  4.9162000  2
    881    863    864    884     1  0.0000000  0.6024960  3
    887    889    891    895     1  0.0000000  0.6508444  3
    889    891    895    896     1  180.0000771  2.0083200  2
    889    891    895    896     1  0.0000000  1.2552000  3
    889    891    895    897     1  180.0000771  2.0083200  2
    889    891    895    897     1  0.0000000  1.2552000  3
    891    895    896    907     1  180.0000771  2.0083200  2
    891    895    896    907     1  0.0000000  1.2552000  3
    891    895    897    899     1  180.0000771  2.0083200  2
    891    895    897    899     1  0.0000000  1.2552000  3
    895    896    907    910     1  0.0000000  0.6508444  3
    895    897    899    903     1  0.0000000  0.6508444  3
    896    895    897    899     1  180.0000771  2.0083200  2
    896    895    897    899     1  0.0000000  1.2552000  3
    896    907    910    911     1  180.0000771  0.0000000  2
    896    907    910    959     1  180.0000771  0.0000000  2
    897    895    896    907     1  180.0000771  2.0083200  2
    897    895    896    907     1  0.0000000  1.2552000  3
    897    899    903    904     1  180.0000771  0.0000000  2
    897    899    903    935     1  180.0000771  0.0000000  2
    899    903    935    916     1  180.0000771  6.0668000  2
    899    903    935    916     1  180.0000771  1.4644000  4
    903    935    916    915     1  0.0000000  1.2552000  3
    903    935    916    917     1  0.0000000  1.2552000  3
    904    903    935    916     1  180.0000771  6.0668000  2
    904    903    935    916     1  180.0000771  1.4644000  4
    907    910    959    940     1  180.0000771  6.0668000  2
    907    910    959    940     1  180.0000771  1.4644000  4
    910    959    940    939     1  0.0000000  1.2552000  3
    910    959    940    941     1  0.0000000  1.2552000  3
    911    910    959    940     1  180.0000771  6.0668000  2
    911    910    959    940     1  180.0000771  1.4644000  4
    912    913    915    916     1  180.0000771  0.8368000  1
    912    913    915    916     1  180.0000771  1.0460000  2
    912    913    915    916     1  0.0000000  0.7531200  3
    912    913    915    922     1  0.0000000  0.6508444  3
    912    930    917    916     1  180.0000771  0.4184000  2
    912    930    917    916     1  0.0000000  1.6024720  3
    912    930    917    921     1  0.0000000  1.6038667  3
    913    912    923    928     1  0.0000000  0.6508444  3
    913    912    930    917     1  180.0000771  0.4184000  2
    913    912    930    917     1  0.0000000  1.6024720  3
    913    915    916    917     1  180.0000771  0.8368000  1
    913    915    916    917     1  180.0000771  1.0460000  2
    913    915    916    917     1  0.0000000  0.7531200  3
    913    915    916    935     1  0.0000000  0.6508444  3
    915    913    912    923     1  180.0000771  0.8368000  1
    915    913    912    923     1  180.0000771  1.0460000  2
    915    913    912    923     1  0.0000000  0.7531200  3
    915    913    912    930     1  0.0000000  0.6508444  3
    915    916    917    921     1  0.0000000  0.6508444  3
    915    916    917    930     1  0.0000000  0.6508444  3
    916    915    913    933     1  0.0000000  0.6508444  3
    917    916    915    922     1  0.0000000  0.6508444  3
    917    930    912    923     1  180.0000771  0.4184000  2
    917    930    912    923     1  0.0000000  1.6024720  3
    921    917    916    935     1  0.0000000  0.6508444  3
    922    915    913    933     1  0.0000000  4.9162000  2
    922    915    913    933     1  0.0000000  0.6024960  3
    922    915    916    935     1  0.0000000  0.6508444  3
    923    912    913    933     1  0.0000000  0.6508444  3
    928    923    912    930     1  0.0000000  4.9162000  2
    928    923    912    930     1  0.0000000  0.6024960  3
    930    912    913    933     1  0.0000000  4.9162000  2
    930    912    913    933     1  0.0000000  0.6024960  3
    930    917    916    935     1  0.0000000  0.6508444  3
    936    937    939    940     1  180.0000771  0.8368000  1
    936    937    939    940     1  180.0000771  1.0460000  2
    936    937    939    940     1  0.0000000  0.7531200  3
    936    937    939    946     1  0.0000000  0.6508444  3
    936    954    941    940     1  180.0000771  0.4184000  2
    936    954    941    940     1  0.0000000  1.6024720  3
    936    954    941    945     1  0.0000000  1.6038667  3
    937    936    947    952     1  0.0000000  0.6508444  3
    937    936    954    941     1  180.0000771  0.4184000  2
    937    936    954    941     1  0.0000000  1.6024720  3
    937    939    940    941     1  180.0000771  0.8368000  1
    937    939    940    941     1  180.0000771  1.0460000  2
    937    939    940    941     1  0.0000000  0.7531200  3
    937    939    940    959     1  0.0000000  0.6508444  3
    939    937    936    947     1  180.0000771  0.8368000  1
    939    937    936    947     1  180.0000771  1.0460000  2
    939    937    936    947     1  0.0000000  0.7531200  3
    939    937    936    954     1  0.0000000  0.6508444  3
    939    940    941    945     1  0.0000000  0.6508444  3
    939    940    941    954     1  0.0000000  0.6508444  3
    940    939    937    957     1  0.0000000  0.6508444  3
    941    940    939    946     1  0.0000000  0.6508444  3
    941    954    936    947     1  180.0000771  0.4184000  2
    941    954    936    947     1  0.0000000  1.6024720  3
    945    941    940    959     1  0.0000000  0.6508444  3
    946    939    937    957     1  0.0000000  4.9162000  2
    946    939    937    957     1  0.0000000  0.6024960  3
    946    939    940    959     1  0.0000000  0.6508444  3
    947    936    937    957     1  0.0000000  0.6508444  3
    952    947    936    954     1  0.0000000  4.9162000  2
    952    947    936    954     1  0.0000000  0.6024960  3
    954    936    937    957     1  0.0000000  4.9162000  2
    954    936    937    957     1  0.0000000  0.6024960  3
    954    941    940    959     1  0.0000000  0.6508444  3
    960    962    964    968     1  0.0000000  0.6508444  3
    962    964    968    969     1  180.0000771  2.0083200  2
    962    964    968    969     1  0.0000000  1.2552000  3
    962    964    968    970     1  180.0000771  2.0083200  2
    962    964    968    970     1  0.0000000  1.2552000  3
    964    968    969    980     1  180.0000771  2.0083200  2
    964    968    969    980     1  0.0000000  1.2552000  3
    964    968    970    972     1  180.0000771  2.0083200  2
    964    968    970    972     1  0.0000000  1.2552000  3
    968    969    980    983     1  0.0000000  0.6508444  3
    968    970    972    976     1  0.0000000  0.6508444  3
    969    980    983    984     1  180.0000771  0.0000000  2
    969    980    983   1032     1  180.0000771  0.0000000  2
    969    968    970    972     1  180.0000771  2.0083200  2
    969    968    970    972     1  0.0000000  1.2552000  3
    970    972    976    977     1  180.0000771  0.0000000  2
    970    972    976   1008     1  180.0000771  0.0000000  2
    970    968    969    980     1  180.0000771  2.0083200  2
    970    968    969    980     1  0.0000000  1.2552000  3
    972    976   1008    989     1  180.0000771  6.0668000  2
    972    976   1008    989     1  180.0000771  1.4644000  4
    976   1008    989    990     1  0.0000000  1.2552000  3
    976   1008    989    988     1  0.0000000  1.2552000  3
    977    976   1008    989     1  180.0000771  6.0668000  2
    977    976   1008    989     1  180.0000771  1.4644000  4
    980    983   1032   1013     1  180.0000771  6.0668000  2
    980    983   1032   1013     1  180.0000771  1.4644000  4
    983   1032   1013   1014     1  0.0000000  1.2552000  3
    983   1032   1013   1012     1  0.0000000  1.2552000  3
    984    983   1032   1013     1  180.0000771  6.0668000  2
    984    983   1032   1013     1  180.0000771  1.4644000  4
    985    986    988    989     1  180.0000771  0.8368000  1
    985    986    988    989     1  180.0000771  1.0460000  2
    985    986    988    989     1  0.0000000  0.7531200  3
    985    986    988    995     1  0.0000000  0.6508444  3
    985   1003    990    994     1  0.0000000  1.6038667  3
    985   1003    990    989     1  180.0000771  0.4184000  2
    985   1003    990    989     1  0.0000000  1.6024720  3
    986    988    989    990     1  180.0000771  0.8368000  1
    986    988    989    990     1  180.0000771  1.0460000  2
    986    988    989    990     1  0.0000000  0.7531200  3
    986    988    989   1008     1  0.0000000  0.6508444  3
    986    985    996   1001     1  0.0000000  0.6508444  3
    986    985   1003    990     1  180.0000771  0.4184000  2
    986    985   1003    990     1  0.0000000  1.6024720  3
    988    989    990    994     1  0.0000000  0.6508444  3
    988    989    990   1003     1  0.0000000  0.6508444  3
    988    986    985    996     1  180.0000771  0.8368000  1
    988    986    985    996     1  180.0000771  1.0460000  2
    988    986    985    996     1  0.0000000  0.7531200  3
    988    986    985   1003     1  0.0000000  0.6508444  3
    989    988    986   1006     1  0.0000000  0.6508444  3
    990   1003    985    996     1  180.0000771  0.4184000  2
    990   1003    985    996     1  0.0000000  1.6024720  3
    990    989    988    995     1  0.0000000  0.6508444  3
    994    990    989   1008     1  0.0000000  0.6508444  3
    995    988    989   1008     1  0.0000000  0.6508444  3
    995    988    986   1006     1  0.0000000  4.9162000  2
    995    988    986   1006     1  0.0000000  0.6024960  3
    996    985    986   1006     1  0.0000000  0.6508444  3
   1001    996    985   1003     1  0.0000000  4.9162000  2
   1001    996    985   1003     1  0.0000000  0.6024960  3
   1003    990    989   1008     1  0.0000000  0.6508444  3
   1003    985    986   1006     1  0.0000000  4.9162000  2
   1003    985    986   1006     1  0.0000000  0.6024960  3
   1009   1010   1012   1013     1  180.0000771  0.8368000  1
   1009   1010   1012   1013     1  180.0000771  1.0460000  2
   1009   1010   1012   1013     1  0.0000000  0.7531200  3
   1009   1010   1012   1019     1  0.0000000  0.6508444  3
   1009   1027   1014   1018     1  0.0000000  1.6038667  3
   1009   1027   1014   1013     1  180.0000771  0.4184000  2
   1009   1027   1014   1013     1  0.0000000  1.6024720  3
   1010   1012   1013   1014     1  180.0000771  0.8368000  1
   1010   1012   1013   1014     1  180.0000771  1.0460000  2
   1010   1012   1013   1014     1  0.0000000  0.7531200  3
   1010   1012   1013   1032     1  0.0000000  0.6508444  3
   1010   1009   1020   1025     1  0.0000000  0.6508444  3
   1010   1009   1027   1014     1  180.0000771  0.4184000  2
   1010   1009   1027   1014     1  0.0000000  1.6024720  3
   1012   1013   1014   1018     1  0.0000000  0.6508444  3
   1012   1013   1014   1027     1  0.0000000  0.6508444  3
   1012   1010   1009   1020     1  180.0000771  0.8368000  1
   1012   1010   1009   1020     1  180.0000771  1.0460000  2
   1012   1010   1009   1020     1  0.0000000  0.7531200  3
   1012   1010   1009   1027     1  0.0000000  0.6508444  3
   1013   1012   1010   1030     1  0.0000000  0.6508444  3
   1014   1027   1009   1020     1  180.0000771  0.4184000  2
   1014   1027   1009   1020     1  0.0000000  1.6024720  3
   1014   1013   1012   1019     1  0.0000000  0.6508444  3
   1018   1014   1013   1032     1  0.0000000  0.6508444  3
   1019   1012   1013   1032     1  0.0000000  0.6508444  3
   1019   1012   1010   1030     1  0.0000000  4.9162000  2
   1019   1012   1010   1030     1  0.0000000  0.6024960  3
   1020   1009   1010   1030     1  0.0000000  0.6508444  3
   1025   1020   1009   1027     1  0.0000000  4.9162000  2
   1025   1020   1009   1027     1  0.0000000  0.6024960  3
   1027   1014   1013   1032     1  0.0000000  0.6508444  3
   1027   1009   1010   1030     1  0.0000000  4.9162000  2
   1027   1009   1010   1030     1  0.0000000  0.6024960  3
   1033   1035   1037   1041     1  0.0000000  0.6508444  3
   1035   1037   1041   1042     1  180.0000771  2.0083200  2
   1035   1037   1041   1042     1  0.0000000  1.2552000  3
   1035   1037   1041   1043     1  180.0000771  2.0083200  2
   1035   1037   1041   1043     1  0.0000000  1.2552000  3
   1037   1041   1042   1053     1  180.0000771  2.0083200  2
   1037   1041   1042   1053     1  0.0000000  1.2552000  3
   1037   1041   1043   1045     1  180.0000771  2.0083200  2
   1037   1041   1043   1045     1  0.0000000  1.2552000  3
   1041   1042   1053   1056     1  0.0000000  0.6508444  3
   1041   1043   1045   1049     1  0.0000000  0.6508444  3
   1042   1041   1043   1045     1  180.0000771  2.0083200  2
   1042   1041   1043   1045     1  0.0000000  1.2552000  3
   1042   1053   1056   1057     1  180.0000771  0.0000000  2
   1042   1053   1056   1105     1  180.0000771  0.0000000  2
   1043   1041   1042   1053     1  180.0000771  2.0083200  2
   1043   1041   1042   1053     1  0.0000000  1.2552000  3
   1043   1045   1049   1050     1  180.0000771  0.0000000  2
   1043   1045   1049   1081     1  180.0000771  0.0000000  2
   1045   1049   1081   1062     1  180.0000771  6.0668000  2
   1045   1049   1081   1062     1  180.0000771  1.4644000  4
   1049   1081   1062   1061     1  0.0000000  1.2552000  3
   1049   1081   1062   1063     1  0.0000000  1.2552000  3
   1050   1049   1081   1062     1  180.0000771  6.0668000  2
   1050   1049   1081   1062     1  180.0000771  1.4644000  4
   1053   1056   1105   1086     1  180.0000771  6.0668000  2
   1053   1056   1105   1086     1  180.0000771  1.4644000  4
   1056   1105   1086   1085     1  0.0000000  1.2552000  3
   1056   1105   1086   1087     1  0.0000000  1.2552000  3
   1057   1056   1105   1086     1  180.0000771  6.0668000  2
   1057   1056   1105   1086     1  180.0000771  1.4644000  4
   1058   1059   1061   1062     1  180.0000771  0.8368000  1
   1058   1059   1061   1062     1  180.0000771  1.0460000  2
   1058   1059   1061   1062     1  0.0000000  0.7531200  3
   1058   1059   1061   1068     1  0.0000000  0.6508444  3
   1058   1076   1063   1062     1  180.0000771  0.4184000  2
   1058   1076   1063   1062     1  0.0000000  1.6024720  3
   1058   1076   1063   1067     1  0.0000000  1.6038667  3
   1059   1058   1069   1074     1  0.0000000  0.6508444  3
   1059   1058   1076   1063     1  180.0000771  0.4184000  2
   1059   1058   1076   1063     1  0.0000000  1.6024720  3
   1059   1061   1062   1063     1  180.0000771  0.8368000  1
   1059   1061   1062   1063     1  180.0000771  1.0460000  2
   1059   1061   1062   1063     1  0.0000000  0.7531200  3
   1059   1061   1062   1081     1  0.0000000  0.6508444  3
   1061   1059   1058   1069     1  180.0000771  0.8368000  1
   1061   1059   1058   1069     1  180.0000771  1.0460000  2
   1061   1059   1058   1069     1  0.0000000  0.7531200  3
   1061   1059   1058   1076     1  0.0000000  0.6508444  3
   1061   1062   1063   1067     1  0.0000000  0.6508444  3
   1061   1062   1063   1076     1  0.0000000  0.6508444  3
   1062   1061   1059   1079     1  0.0000000  0.6508444  3
   1063   1062   1061   1068     1  0.0000000  0.6508444  3
   1063   1076   1058   1069     1  180.0000771  0.4184000  2
   1063   1076   1058   1069     1  0.0000000  1.6024720  3
   1067   1063   1062   1081     1  0.0000000  0.6508444  3
   1068   1061   1059   1079     1  0.0000000  4.9162000  2
   1068   1061   1059   1079     1  0.0000000  0.6024960  3
   1068   1061   1062   1081     1  0.0000000  0.6508444  3
   1069   1058   1059   1079     1  0.0000000  0.6508444  3
   1074   1069   1058   1076     1  0.0000000  4.9162000  2
   1074   1069   1058   1076     1  0.0000000  0.6024960  3
   1076   1058   1059   1079     1  0.0000000  4.9162000  2
   1076   1058   1059   1079     1  0.0000000  0.6024960  3
   1076   1063   1062   1081     1  0.0000000  0.6508444  3
   1082   1083   1085   1086     1  180.0000771  0.8368000  1
   1082   1083   1085   1086     1  180.0000771  1.0460000  2
   1082   1083   1085   1086     1  0.0000000  0.7531200  3
   1082   1083   1085   1092     1  0.0000000  0.6508444  3
   1082   1100   1087   1086     1  180.0000771  0.4184000  2
   1082   1100   1087   1086     1  0.0000000  1.6024720  3
   1082   1100   1087   1091     1  0.0000000  1.6038667  3
   1083   1082   1093   1098     1  0.0000000  0.6508444  3
   1083   1082   1100   1087     1  180.0000771  0.4184000  2
   1083   1082   1100   1087     1  0.0000000  1.6024720  3
   1083   1085   1086   1087     1  180.0000771  0.8368000  1
   1083   1085   1086   1087     1  180.0000771  1.0460000  2
   1083   1085   1086   1087     1  0.0000000  0.7531200  3
   1083   1085   1086   1105     1  0.0000000  0.6508444  3
   1085   1083   1082   1093     1  180.0000771  0.8368000  1
   1085   1083   1082   1093     1  180.0000771  1.0460000  2
   1085   1083   1082   1093     1  0.0000000  0.7531200  3
   1085   1083   1082   1100     1  0.0000000  0.6508444  3
   1085   1086   1087   1091     1  0.0000000  0.6508444  3
   1085   1086   1087   1100     1  0.0000000  0.6508444  3
   1086   1085   1083   1103     1  0.0000000  0.6508444  3
   1087   1086   1085   1092     1  0.0000000  0.6508444  3
   1087   1100   1082   1093     1  180.0000771  0.4184000  2
   1087   1100   1082   1093     1  0.0000000  1.6024720  3
   1091   1087   1086   1105     1  0.0000000  0.6508444  3
   1092   1085   1083   1103     1  0.0000000  4.9162000  2
   1092   1085   1083   1103     1  0.0000000  0.6024960  3
   1092   1085   1086   1105     1  0.0000000  0.6508444  3
   1093   1082   1083   1103     1  0.0000000  0.6508444  3
   1098   1093   1082   1100     1  0.0000000  4.9162000  2
   1098   1093   1082   1100     1  0.0000000  0.6024960  3
   1100   1082   1083   1103     1  0.0000000  4.9162000  2
   1100   1082   1083   1103     1  0.0000000  0.6024960  3
   1100   1087   1086   1105     1  0.0000000  0.6508444  3
   1106   1108   1110   1114     1  0.0000000  0.6508444  3
   1108   1110   1114   1115     1  180.0000771  2.0083200  2
   1108   1110   1114   1115     1  0.0000000  1.2552000  3
   1108   1110   1114   1116     1  180.0000771  2.0083200  2
   1108   1110   1114   1116     1  0.0000000  1.2552000  3
   1110   1114   1115   1126     1  180.0000771  2.0083200  2
   1110   1114   1115   1126     1  0.0000000  1.2552000  3
   1110   1114   1116   1118     1  180.0000771  2.0083200  2
   1110   1114   1116   1118     1  0.0000000  1.2552000  3
   1114   1115   1126   1129     1  0.0000000  0.6508444  3
   1114   1116   1118   1122     1  0.0000000  0.6508444  3
   1115   1126   1129   1130     1  180.0000771  0.0000000  2
   1115   1126   1129   1178     1  180.0000771  0.0000000  2
   1115   1114   1116   1118     1  180.0000771  2.0083200  2
   1115   1114   1116   1118     1  0.0000000  1.2552000  3
   1116   1118   1122   1123     1  180.0000771  0.0000000  2
   1116   1118   1122   1154     1  180.0000771  0.0000000  2
   1116   1114   1115   1126     1  180.0000771  2.0083200  2
   1116   1114   1115   1126     1  0.0000000  1.2552000  3
   1118   1122   1154   1135     1  180.0000771  6.0668000  2
   1118   1122   1154   1135     1  180.0000771  1.4644000  4
   1122   1154   1135   1136     1  0.0000000  1.2552000  3
   1122   1154   1135   1134     1  0.0000000  1.2552000  3
   1123   1122   1154   1135     1  180.0000771  6.0668000  2
   1123   1122   1154   1135     1  180.0000771  1.4644000  4
   1126   1129   1178   1159     1  180.0000771  6.0668000  2
   1126   1129   1178   1159     1  180.0000771  1.4644000  4
   1129   1178   1159   1160     1  0.0000000  1.2552000  3
   1129   1178   1159   1158     1  0.0000000  1.2552000  3
   1130   1129   1178   1159     1  180.0000771  6.0668000  2
   1130   1129   1178   1159     1  180.0000771  1.4644000  4
   1131   1132   1134   1135     1  180.0000771  0.8368000  1
   1131   1132   1134   1135     1  180.0000771  1.0460000  2
   1131   1132   1134   1135     1  0.0000000  0.7531200  3
   1131   1132   1134   1141     1  0.0000000  0.6508444  3
   1131   1149   1136   1140     1  0.0000000  1.6038667  3
   1131   1149   1136   1135     1  180.0000771  0.4184000  2
   1131   1149   1136   1135     1  0.0000000  1.6024720  3
   1132   1134   1135   1136     1  180.0000771  0.8368000  1
   1132   1134   1135   1136     1  180.0000771  1.0460000  2
   1132   1134   1135   1136     1  0.0000000  0.7531200  3
   1132   1134   1135   1154     1  0.0000000  0.6508444  3
   1132   1131   1142   1147     1  0.0000000  0.6508444  3
   1132   1131   1149   1136     1  180.0000771  0.4184000  2
   1132   1131   1149   1136     1  0.0000000  1.6024720  3
   1134   1135   1136   1140     1  0.0000000  0.6508444  3
   1134   1135   1136   1149     1  0.0000000  0.6508444  3
   1134   1132   1131   1142     1  180.0000771  0.8368000  1
   1134   1132   1131   1142     1  180.0000771  1.0460000  2
   1134   1132   1131   1142     1  0.0000000  0.7531200  3
   1134   1132   1131   1149     1  0.0000000  0.6508444  3
   1135   1134   1132   1152     1  0.0000000  0.6508444  3
   1136   1149   1131   1142     1  180.0000771  0.4184000  2
   1136   1149   1131   1142     1  0.0000000  1.6024720  3
   1136   1135   1134   1141     1  0.0000000  0.6508444  3
   1140   1136   1135   1154     1  0.0000000  0.6508444  3
   1141   1134   1135   1154     1  0.0000000  0.6508444  3
   1141   1134   1132   1152     1  0.0000000  4.9162000  2
   1141   1134   1132   1152     1  0.0000000  0.6024960  3
   1142   1131   1132   1152     1  0.0000000  0.6508444  3
   1147   1142   1131   1149     1  0.0000000  4.9162000  2
   1147   1142   1131   1149     1  0.0000000  0.6024960  3
   1149   1136   1135   1154     1  0.0000000  0.6508444  3
   1149   1131   1132   1152     1  0.0000000  4.9162000  2
   1149   1131   1132   1152     1  0.0000000  0.6024960  3
   1155   1156   1158   1159     1  180.0000771  0.8368000  1
   1155   1156   1158   1159     1  180.0000771  1.0460000  2
   1155   1156   1158   1159     1  0.0000000  0.7531200  3
   1155   1156   1158   1165     1  0.0000000  0.6508444  3
   1155   1173   1160   1164     1  0.0000000  1.6038667  3
   1155   1173   1160   1159     1  180.0000771  0.4184000  2
   1155   1173   1160   1159     1  0.0000000  1.6024720  3
   1156   1158   1159   1160     1  180.0000771  0.8368000  1
   1156   1158   1159   1160     1  180.0000771  1.0460000  2
   1156   1158   1159   1160     1  0.0000000  0.7531200  3
   1156   1158   1159   1178     1  0.0000000  0.6508444  3
   1156   1155   1166   1171     1  0.0000000  0.6508444  3
   1156   1155   1173   1160     1  180.0000771  0.4184000  2
   1156   1155   1173   1160     1  0.0000000  1.6024720  3
   1158   1159   1160   1164     1  0.0000000  0.6508444  3
   1158   1159   1160   1173     1  0.0000000  0.6508444  3
   1158   1156   1155   1166     1  180.0000771  0.8368000  1
   1158   1156   1155   1166     1  180.0000771  1.0460000  2
   1158   1156   1155   1166     1  0.0000000  0.7531200  3
   1158   1156   1155   1173     1  0.0000000  0.6508444  3
   1159   1158   1156   1176     1  0.0000000  0.6508444  3
   1160   1173   1155   1166     1  180.0000771  0.4184000  2
   1160   1173   1155   1166     1  0.0000000  1.6024720  3
   1160   1159   1158   1165     1  0.0000000  0.6508444  3
   1164   1160   1159   1178     1  0.0000000  0.6508444  3
   1165   1158   1159   1178     1  0.0000000  0.6508444  3
   1165   1158   1156   1176     1  0.0000000  4.9162000  2
   1165   1158   1156   1176     1  0.0000000  0.6024960  3
   1166   1155   1156   1176     1  0.0000000  0.6508444  3
   1171   1166   1155   1173     1  0.0000000  4.9162000  2
   1171   1166   1155   1173     1  0.0000000  0.6024960  3
   1173   1160   1159   1178     1  0.0000000  0.6508444  3
   1173   1155   1156   1176     1  0.0000000  4.9162000  2
   1173   1155   1156   1176     1  0.0000000  0.6024960  3
   1179   1181   1183   1187     1  0.0000000  0.6508444  3
   1181   1183   1187   1188     1  180.0000771  2.0083200  2
   1181   1183   1187   1188     1  0.0000000  1.2552000  3
   1181   1183   1187   1189     1  180.0000771  2.0083200  2
   1181   1183   1187   1189     1  0.0000000  1.2552000  3
   1183   1187   1188   1199     1  180.0000771  2.0083200  2
   1183   1187   1188   1199     1  0.0000000  1.2552000  3
   1183   1187   1189   1191     1  180.0000771  2.0083200  2
   1183   1187   1189   1191     1  0.0000000  1.2552000  3
   1187   1188   1199   1202     1  0.0000000  0.6508444  3
   1187   1189   1191   1195     1  0.0000000  0.6508444  3
   1188   1187   1189   1191     1  180.0000771  2.0083200  2
   1188   1187   1189   1191     1  0.0000000  1.2552000  3
   1188   1199   1202   1203     1  180.0000771  0.0000000  2
   1188   1199   1202   1251     1  180.0000771  0.0000000  2
   1189   1187   1188   1199     1  180.0000771  2.0083200  2
   1189   1187   1188   1199     1  0.0000000  1.2552000  3
   1189   1191   1195   1196     1  180.0000771  0.0000000  2
   1189   1191   1195   1227     1  180.0000771  0.0000000  2
   1191   1195   1227   1208     1  180.0000771  6.0668000  2
   1191   1195   1227   1208     1  180.0000771  1.4644000  4
   1195   1227   1208   1207     1  0.0000000  1.2552000  3
   1195   1227   1208   1209     1  0.0000000  1.2552000  3
   1196   1195   1227   1208     1  180.0000771  6.0668000  2
   1196   1195   1227   1208     1  180.0000771  1.4644000  4
   1199   1202   1251   1232     1  180.0000771  6.0668000  2
   1199   1202   1251   1232     1  180.0000771  1.4644000  4
   1202   1251   1232   1231     1  0.0000000  1.2552000  3
   1202   1251   1232   1233     1  0.0000000  1.2552000  3
   1203   1202   1251   1232     1  180.0000771  6.0668000  2
   1203   1202   1251   1232     1  180.0000771  1.4644000  4
   1204   1205   1207   1208     1  180.0000771  0.8368000  1
   1204   1205   1207   1208     1  180.0000771  1.0460000  2
   1204   1205   1207   1208     1  0.0000000  0.7531200  3
   1204   1205   1207   1214     1  0.0000000  0.6508444  3
   1204   1222   1209   1208     1  180.0000771  0.4184000  2
   1204   1222   1209   1208     1  0.0000000  1.6024720  3
   1204   1222   1209   1213     1  0.0000000  1.6038667  3
   1205   1204   1215   1220     1  0.0000000  0.6508444  3
   1205   1204   1222   1209     1  180.0000771  0.4184000  2
   1205   1204   1222   1209     1  0.0000000  1.6024720  3
   1205   1207   1208   1209     1  180.0000771  0.8368000  1
   1205   1207   1208   1209     1  180.0000771  1.0460000  2
   1205   1207   1208   1209     1  0.0000000  0.7531200  3
   1205   1207   1208   1227     1  0.0000000  0.6508444  3
   1207   1205   1204   1215     1  180.0000771  0.8368000  1
   1207   1205   1204   1215     1  180.0000771  1.0460000  2
   1207   1205   1204   1215     1  0.0000000  0.7531200  3
   1207   1205   1204   1222     1  0.0000000  0.6508444  3
   1207   1208   1209   1213     1  0.0000000  0.6508444  3
   1207   1208   1209   1222     1  0.0000000  0.6508444  3
   1208   1207   1205   1225     1  0.0000000  0.6508444  3
   1209   1208   1207   1214     1  0.0000000  0.6508444  3
   1209   1222   1204   1215     1  180.0000771  0.4184000  2
   1209   1222   1204   1215     1  0.0000000  1.6024720  3
   1213   1209   1208   1227     1  0.0000000  0.6508444  3
   1214   1207   1205   1225     1  0.0000000  4.9162000  2
   1214   1207   1205   1225     1  0.0000000  0.6024960  3
   1214   1207   1208   1227     1  0.0000000  0.6508444  3
   1215   1204   1205   1225     1  0.0000000  0.6508444  3
   1220   1215   1204   1222     1  0.0000000  4.9162000  2
   1220   1215   1204   1222     1  0.0000000  0.6024960  3
   1222   1204   1205   1225     1  0.0000000  4.9162000  2
   1222   1204   1205   1225     1  0.0000000  0.6024960  3
   1222   1209   1208   1227     1  0.0000000  0.6508444  3
   1228   1229   1231   1232     1  180.0000771  0.8368000  1
   1228   1229   1231   1232     1  180.0000771  1.0460000  2
   1228   1229   1231   1232     1  0.0000000  0.7531200  3
   1228   1229   1231   1238     1  0.0000000  0.6508444  3
   1228   1246   1233   1232     1  180.0000771  0.4184000  2
   1228   1246   1233   1232     1  0.0000000  1.6024720  3
   1228   1246   1233   1237     1  0.0000000  1.6038667  3
   1229   1228   1239   1244     1  0.0000000  0.6508444  3
   1229   1228   1246   1233     1  180.0000771  0.4184000  2
   1229   1228   1246   1233     1  0.0000000  1.6024720  3
   1229   1231   1232   1233     1  180.0000771  0.8368000  1
   1229   1231   1232   1233     1  180.0000771  1.0460000  2
   1229   1231   1232   1233     1  0.0000000  0.7531200  3
   1229   1231   1232   1251     1  0.0000000  0.6508444  3
   1231   1229   1228   1239     1  180.0000771  0.8368000  1
   1231   1229   1228   1239     1  180.0000771  1.0460000  2
   1231   1229   1228   1239     1  0.0000000  0.7531200  3
   1231   1229   1228   1246     1  0.0000000  0.6508444  3
   1231   1232   1233   1237     1  0.0000000  0.6508444  3
   1231   1232   1233   1246     1  0.0000000  0.6508444  3
   1232   1231   1229   1249     1  0.0000000  0.6508444  3
   1233   1232   1231   1238     1  0.0000000  0.6508444  3
   1233   1246   1228   1239     1  180.0000771  0.4184000  2
   1233   1246   1228   1239     1  0.0000000  1.6024720  3
   1237   1233   1232   1251     1  0.0000000  0.6508444  3
   1238   1231   1229   1249     1  0.0000000  4.9162000  2
   1238   1231   1229   1249     1  0.0000000  0.6024960  3
   1238   1231   1232   1251     1  0.0000000  0.6508444  3
   1239   1228   1229   1249     1  0.0000000  0.6508444  3
   1244   1239   1228   1246     1  0.0000000  4.9162000  2
   1244   1239   1228   1246     1  0.0000000  0.6024960  3
   1246   1228   1229   1249     1  0.0000000  4.9162000  2
   1246   1228   1229   1249     1  0.0000000  0.6024960  3
   1246   1233   1232   1251     1  0.0000000  0.6508444  3
   1252   1254   1256   1260     1  0.0000000  0.6508444  3
   1254   1256   1260   1261     1  180.0000771  2.0083200  2
   1254   1256   1260   1261     1  0.0000000  1.2552000  3
   1254   1256   1260   1262     1  180.0000771  2.0083200  2
   1254   1256   1260   1262     1  0.0000000  1.2552000  3
   1256   1260   1261   1272     1  180.0000771  2.0083200  2
   1256   1260   1261   1272     1  0.0000000  1.2552000  3
   1256   1260   1262   1264     1  180.0000771  2.0083200  2
   1256   1260   1262   1264     1  0.0000000  1.2552000  3
   1260   1261   1272   1275     1  0.0000000  0.6508444  3
   1260   1262   1264   1268     1  0.0000000  0.6508444  3
   1261   1272   1275   1276     1  180.0000771  0.0000000  2
   1261   1272   1275   1324     1  180.0000771  0.0000000  2
   1261   1260   1262   1264     1  180.0000771  2.0083200  2
   1261   1260   1262   1264     1  0.0000000  1.2552000  3
   1262   1264   1268   1269     1  180.0000771  0.0000000  2
   1262   1264   1268   1300     1  180.0000771  0.0000000  2
   1262   1260   1261   1272     1  180.0000771  2.0083200  2
   1262   1260   1261   1272     1  0.0000000  1.2552000  3
   1264   1268   1300   1281     1  180.0000771  6.0668000  2
   1264   1268   1300   1281     1  180.0000771  1.4644000  4
   1268   1300   1281   1282     1  0.0000000  1.2552000  3
   1268   1300   1281   1280     1  0.0000000  1.2552000  3
   1269   1268   1300   1281     1  180.0000771  6.0668000  2
   1269   1268   1300   1281     1  180.0000771  1.4644000  4
   1272   1275   1324   1305     1  180.0000771  6.0668000  2
   1272   1275   1324   1305     1  180.0000771  1.4644000  4
   1275   1324   1305   1306     1  0.0000000  1.2552000  3
   1275   1324   1305   1304     1  0.0000000  1.2552000  3
   1276   1275   1324   1305     1  180.0000771  6.0668000  2
   1276   1275   1324   1305     1  180.0000771  1.4644000  4
   1277   1278   1280   1281     1  180.0000771  0.8368000  1
   1277   1278   1280   1281     1  180.0000771  1.0460000  2
   1277   1278   1280   1281     1  0.0000000  0.7531200  3
   1277   1278   1280   1287     1  0.0000000  0.6508444  3
   1277   1295   1282   1286     1  0.0000000  1.6038667  3
   1277   1295   1282   1281     1  180.0000771  0.4184000  2
   1277   1295   1282   1281     1  0.0000000  1.6024720  3
   1278   1280   1281   1282     1  180.0000771  0.8368000  1
   1278   1280   1281   1282     1  180.0000771  1.0460000  2
   1278   1280   1281   1282     1  0.0000000  0.7531200  3
   1278   1280   1281   1300     1  0.0000000  0.6508444  3
   1278   1277   1288   1293     1  0.0000000  0.6508444  3
   1278   1277   1295   1282     1  180.0000771  0.4184000  2
   1278   1277   1295   1282     1  0.0000000  1.6024720  3
   1280   1281   1282   1286     1  0.0000000  0.6508444  3
   1280   1281   1282   1295     1  0.0000000  0.6508444  3
   1280   1278   1277   1288     1  180.0000771  0.8368000  1
   1280   1278   1277   1288     1  180.0000771  1.0460000  2
   1280   1278   1277   1288     1  0.0000000  0.7531200  3
   1280   1278   1277   1295     1  0.0000000  0.6508444  3
   1281   1280   1278   1298     1  0.0000000  0.6508444  3
   1282   1295   1277   1288     1  180.0000771  0.4184000  2
   1282   1295   1277   1288     1  0.0000000  1.6024720  3
   1282   1281   1280   1287     1  0.0000000  0.6508444  3
   1286   1282   1281   1300     1  0.0000000  0.6508444  3
   1287   1280   1281   1300     1  0.0000000  0.6508444  3
   1287   1280   1278   1298     1  0.0000000  4.9162000  2
   1287   1280   1278   1298     1  0.0000000  0.6024960  3
   1288   1277   1278   1298     1  0.0000000  0.6508444  3
   1293   1288   1277   1295     1  0.0000000  4.9162000  2
   1293   1288   1277   1295     1  0.0000000  0.6024960  3
   1295   1282   1281   1300     1  0.0000000  0.6508444  3
   1295   1277   1278   1298     1  0.0000000  4.9162000  2
   1295   1277   1278   1298     1  0.0000000  0.6024960  3
   1301   1302   1304   1305     1  180.0000771  0.8368000  1
   1301   1302   1304   1305     1  180.0000771  1.0460000  2
   1301   1302   1304   1305     1  0.0000000  0.7531200  3
   1301   1302   1304   1311     1  0.0000000  0.6508444  3
   1301   1319   1306   1310     1  0.0000000  1.6038667  3
   1301   1319   1306   1305     1  180.0000771  0.4184000  2
   1301   1319   1306   1305     1  0.0000000  1.6024720  3
   1302   1304   1305   1306     1  180.0000771  0.8368000  1
   1302   1304   1305   1306     1  180.0000771  1.0460000  2
   1302   1304   1305   1306     1  0.0000000  0.7531200  3
   1302   1304   1305   1324     1  0.0000000  0.6508444  3
   1302   1301   1312   1317     1  0.0000000  0.6508444  3
   1302   1301   1319   1306     1  180.0000771  0.4184000  2
   1302   1301   1319   1306     1  0.0000000  1.6024720  3
   1304   1305   1306   1310     1  0.0000000  0.6508444  3
   1304   1305   1306   1319     1  0.0000000  0.6508444  3
   1304   1302   1301   1312     1  180.0000771  0.8368000  1
   1304   1302   1301   1312     1  180.0000771  1.0460000  2
   1304   1302   1301   1312     1  0.0000000  0.7531200  3
   1304   1302   1301   1319     1  0.0000000  0.6508444  3
   1305   1304   1302   1322     1  0.0000000  0.6508444  3
   1306   1319   1301   1312     1  180.0000771  0.4184000  2
   1306   1319   1301   1312     1  0.0000000  1.6024720  3
   1306   1305   1304   1311     1  0.0000000  0.6508444  3
   1310   1306   1305   1324     1  0.0000000  0.6508444  3
   1311   1304   1305   1324     1  0.0000000  0.6508444  3
   1311   1304   1302   1322     1  0.0000000  4.9162000  2
   1311   1304   1302   1322     1  0.0000000  0.6024960  3
   1312   1301   1302   1322     1  0.0000000  0.6508444  3
   1317   1312   1301   1319     1  0.0000000  4.9162000  2
   1317   1312   1301   1319     1  0.0000000  0.6024960  3
   1319   1306   1305   1324     1  0.0000000  0.6508444  3
   1319   1301   1302   1322     1  0.0000000  4.9162000  2
   1319   1301   1302   1322     1  0.0000000  0.6024960  3
   1325   1327   1329   1333     1  0.0000000  0.6508444  3
   1327   1329   1333   1334     1  180.0000771  2.0083200  2
   1327   1329   1333   1334     1  0.0000000  1.2552000  3
   1327   1329   1333   1335     1  180.0000771  2.0083200  2
   1327   1329   1333   1335     1  0.0000000  1.2552000  3
   1329   1333   1334   1345     1  180.0000771  2.0083200  2
   1329   1333   1334   1345     1  0.0000000  1.2552000  3
   1329   1333   1335   1337     1  180.0000771  2.0083200  2
   1329   1333   1335   1337     1  0.0000000  1.2552000  3
   1333   1334   1345   1348     1  0.0000000  0.6508444  3
   1333   1335   1337   1341     1  0.0000000  0.6508444  3
   1334   1333   1335   1337     1  180.0000771  2.0083200  2
   1334   1333   1335   1337     1  0.0000000  1.2552000  3
   1334   1345   1348   1349     1  180.0000771  0.0000000  2
   1334   1345   1348   1397     1  180.0000771  0.0000000  2
   1335   1333   1334   1345     1  180.0000771  2.0083200  2
   1335   1333   1334   1345     1  0.0000000  1.2552000  3
   1335   1337   1341   1342     1  180.0000771  0.0000000  2
   1335   1337   1341   1373     1  180.0000771  0.0000000  2
   1337   1341   1373   1354     1  180.0000771  6.0668000  2
   1337   1341   1373   1354     1  180.0000771  1.4644000  4
   1341   1373   1354   1353     1  0.0000000  1.2552000  3
   1341   1373   1354   1355     1  0.0000000  1.2552000  3
   1342   1341   1373   1354     1  180.0000771  6.0668000  2
   1342   1341   1373   1354     1  180.0000771  1.4644000  4
   1345   1348   1397   1378     1  180.0000771  6.0668000  2
   1345   1348   1397   1378     1  180.0000771  1.4644000  4
   1348   1397   1378   1377     1  0.0000000  1.2552000  3
   1348   1397   1378   1379     1  0.0000000  1.2552000  3
   1349   1348   1397   1378     1  180.0000771  6.0668000  2
   1349   1348   1397   1378     1  180.0000771  1.4644000  4
   1350   1351   1353   1354     1  180.0000771  0.8368000  1
   1350   1351   1353   1354     1  180.0000771  1.0460000  2
   1350   1351   1353   1354     1  0.0000000  0.7531200  3
   1350   1351   1353   1360     1  0.0000000  0.6508444  3
   1350   1368   1355   1354     1  180.0000771  0.4184000  2
   1350   1368   1355   1354     1  0.0000000  1.6024720  3
   1350   1368   1355   1359     1  0.0000000  1.6038667  3
   1351   1350   1361   1366     1  0.0000000  0.6508444  3
   1351   1350   1368   1355     1  180.0000771  0.4184000  2
   1351   1350   1368   1355     1  0.0000000  1.6024720  3
   1351   1353   1354   1355     1  180.0000771  0.8368000  1
   1351   1353   1354   1355     1  180.0000771  1.0460000  2
   1351   1353   1354   1355     1  0.0000000  0.7531200  3
   1351   1353   1354   1373     1  0.0000000  0.6508444  3
   1353   1351   1350   1361     1  180.0000771  0.8368000  1
   1353   1351   1350   1361     1  180.0000771  1.0460000  2
   1353   1351   1350   1361     1  0.0000000  0.7531200  3
   1353   1351   1350   1368     1  0.0000000  0.6508444  3
   1353   1354   1355   1359     1  0.0000000  0.6508444  3
   1353   1354   1355   1368     1  0.0000000  0.6508444  3
   1354   1353   1351   1371     1  0.0000000  0.6508444  3
   1355   1354   1353   1360     1  0.0000000  0.6508444  3
   1355   1368   1350   1361     1  180.0000771  0.4184000  2
   1355   1368   1350   1361     1  0.0000000  1.6024720  3
   1359   1355   1354   1373     1  0.0000000  0.6508444  3
   1360   1353   1351   1371     1  0.0000000  4.9162000  2
   1360   1353   1351   1371     1  0.0000000  0.6024960  3
   1360   1353   1354   1373     1  0.0000000  0.6508444  3
   1361   1350   1351   1371     1  0.0000000  0.6508444  3
   1366   1361   1350   1368     1  0.0000000  4.9162000  2
   1366   1361   1350   1368     1  0.0000000  0.6024960  3
   1368   1350   1351   1371     1  0.0000000  4.9162000  2
   1368   1350   1351   1371     1  0.0000000  0.6024960  3
   1368   1355   1354   1373     1  0.0000000  0.6508444  3
   1374   1375   1377   1378     1  180.0000771  0.8368000  1
   1374   1375   1377   1378     1  180.0000771  1.0460000  2
   1374   1375   1377   1378     1  0.0000000  0.7531200  3
   1374   1375   1377   1384     1  0.0000000  0.6508444  3
   1374   1392   1379   1378     1  180.0000771  0.4184000  2
   1374   1392   1379   1378     1  0.0000000  1.6024720  3
   1374   1392   1379   1383     1  0.0000000  1.6038667  3
   1375   1374   1385   1390     1  0.0000000  0.6508444  3
   1375   1374   1392   1379     1  180.0000771  0.4184000  2
   1375   1374   1392   1379     1  0.0000000  1.6024720  3
   1375   1377   1378   1379     1  180.0000771  0.8368000  1
   1375   1377   1378   1379     1  180.0000771  1.0460000  2
   1375   1377   1378   1379     1  0.0000000  0.7531200  3
   1375   1377   1378   1397     1  0.0000000  0.6508444  3
   1377   1375   1374   1385     1  180.0000771  0.8368000  1
   1377   1375   1374   1385     1  180.0000771  1.0460000  2
   1377   1375   1374   1385     1  0.0000000  0.7531200  3
   1377   1375   1374   1392     1  0.0000000  0.6508444  3
   1377   1378   1379   1383     1  0.0000000  0.6508444  3
   1377   1378   1379   1392     1  0.0000000  0.6508444  3
   1378   1377   1375   1395     1  0.0000000  0.6508444  3
   1379   1378   1377   1384     1  0.0000000  0.6508444  3
   1379   1392   1374   1385     1  180.0000771  0.4184000  2
   1379   1392   1374   1385     1  0.0000000  1.6024720  3
   1383   1379   1378   1397     1  0.0000000  0.6508444  3
   1384   1377   1375   1395     1  0.0000000  4.9162000  2
   1384   1377   1375   1395     1  0.0000000  0.6024960  3
   1384   1377   1378   1397     1  0.0000000  0.6508444  3
   1385   1374   1375   1395     1  0.0000000  0.6508444  3
   1390   1385   1374   1392     1  0.0000000  4.9162000  2
   1390   1385   1374   1392     1  0.0000000  0.6024960  3
   1392   1374   1375   1395     1  0.0000000  4.9162000  2
   1392   1374   1375   1395     1  0.0000000  0.6024960  3
   1392   1379   1378   1397     1  0.0000000  0.6508444  3
   1398   1400   1402   1406     1  0.0000000  0.6508444  3
   1400   1402   1406   1407     1  180.0000771  2.0083200  2
   1400   1402   1406   1407     1  0.0000000  1.2552000  3
   1400   1402   1406   1408     1  180.0000771  2.0083200  2
   1400   1402   1406   1408     1  0.0000000  1.2552000  3
   1402   1406   1407   1418     1  180.0000771  2.0083200  2
   1402   1406   1407   1418     1  0.0000000  1.2552000  3
   1402   1406   1408   1410     1  180.0000771  2.0083200  2
   1402   1406   1408   1410     1  0.0000000  1.2552000  3
   1406   1407   1418   1421     1  0.0000000  0.6508444  3
   1406   1408   1410   1414     1  0.0000000  0.6508444  3
   1407   1418   1421   1422     1  180.0000771  0.0000000  2
   1407   1418   1421   1470     1  180.0000771  0.0000000  2
   1407   1406   1408   1410     1  180.0000771  2.0083200  2
   1407   1406   1408   1410     1  0.0000000  1.2552000  3
   1408   1410   1414   1415     1  180.0000771  0.0000000  2
   1408   1410   1414   1446     1  180.0000771  0.0000000  2
   1408   1406   1407   1418     1  180.0000771  2.0083200  2
   1408   1406   1407   1418     1  0.0000000  1.2552000  3
   1410   1414   1446   1427     1  180.0000771  6.0668000  2
   1410   1414   1446   1427     1  180.0000771  1.4644000  4
   1414   1446   1427   1428     1  0.0000000  1.2552000  3
   1414   1446   1427   1426     1  0.0000000  1.2552000  3
   1415   1414   1446   1427     1  180.0000771  6.0668000  2
   1415   1414   1446   1427     1  180.0000771  1.4644000  4
   1418   1421   1470   1451     1  180.0000771  6.0668000  2
   1418   1421   1470   1451     1  180.0000771  1.4644000  4
   1421   1470   1451   1452     1  0.0000000  1.2552000  3
   1421   1470   1451   1450     1  0.0000000  1.2552000  3
   1422   1421   1470   1451     1  180.0000771  6.0668000  2
   1422   1421   1470   1451     1  180.0000771  1.4644000  4
   1423   1424   1426   1427     1  180.0000771  0.8368000  1
   1423   1424   1426   1427     1  180.0000771  1.0460000  2
   1423   1424   1426   1427     1  0.0000000  0.7531200  3
   1423   1424   1426   1433     1  0.0000000  0.6508444  3
   1423   1441   1428   1432     1  0.0000000  1.6038667  3
   1423   1441   1428   1427     1  180.0000771  0.4184000  2
   1423   1441   1428   1427     1  0.0000000  1.6024720  3
   1424   1426   1427   1428     1  180.0000771  0.8368000  1
   1424   1426   1427   1428     1  180.0000771  1.0460000  2
   1424   1426   1427   1428     1  0.0000000  0.7531200  3
   1424   1426   1427   1446     1  0.0000000  0.6508444  3
   1424   1423   1434   1439     1  0.0000000  0.6508444  3
   1424   1423   1441   1428     1  180.0000771  0.4184000  2
   1424   1423   1441   1428     1  0.0000000  1.6024720  3
   1426   1427   1428   1432     1  0.0000000  0.6508444  3
   1426   1427   1428   1441     1  0.0000000  0.6508444  3
   1426   1424   1423   1434     1  180.0000771  0.8368000  1
   1426   1424   1423   1434     1  180.0000771  1.0460000  2
   1426   1424   1423   1434     1  0.0000000  0.7531200  3
   1426   1424   1423   1441     1  0.0000000  0.6508444  3
   1427   1426   1424   1444     1  0.0000000  0.6508444  3
   1428   1441   1423   1434     1  180.0000771  0.4184000  2
   1428   1441   1423   1434     1  0.0000000  1.6024720  3
   1428   1427   1426   1433     1  0.0000000  0.6508444  3
   1432   1428   1427   1446     1  0.0000000  0.6508444  3
   1433   1426   1427   1446     1  0.0000000  0.6508444  3
   1433   1426   1424   1444     1  0.0000000  4.9162000  2
   1433   1426   1424   1444     1  0.0000000  0.6024960  3
   1434   1423   1424   1444     1  0.0000000  0.6508444  3
   1439   1434   1423   1441     1  0.0000000  4.9162000  2
   1439   1434   1423   1441     1  0.0000000  0.6024960  3
   1441   1428   1427   1446     1  0.0000000  0.6508444  3
   1441   1423   1424   1444     1  0.0000000  4.9162000  2
   1441   1423   1424   1444     1  0.0000000  0.6024960  3
   1447   1448   1450   1451     1  180.0000771  0.8368000  1
   1447   1448   1450   1451     1  180.0000771  1.0460000  2
   1447   1448   1450   1451     1  0.0000000  0.7531200  3
   1447   1448   1450   1457     1  0.0000000  0.6508444  3
   1447   1465   1452   1456     1  0.0000000  1.6038667  3
   1447   1465   1452   1451     1  180.0000771  0.4184000  2
   1447   1465   1452   1451     1  0.0000000  1.6024720  3
   1448   1450   1451   1452     1  180.0000771  0.8368000  1
   1448   1450   1451   1452     1  180.0000771  1.0460000  2
   1448   1450   1451   1452     1  0.0000000  0.7531200  3
   1448   1450   1451   1470     1  0.0000000  0.6508444  3
   1448   1447   1458   1463     1  0.0000000  0.6508444  3
   1448   1447   1465   1452     1  180.0000771  0.4184000  2
   1448   1447   1465   1452     1  0.0000000  1.6024720  3
   1450   1451   1452   1456     1  0.0000000  0.6508444  3
   1450   1451   1452   1465     1  0.0000000  0.6508444  3
   1450   1448   1447   1458     1  180.0000771  0.8368000  1
   1450   1448   1447   1458     1  180.0000771  1.0460000  2
   1450   1448   1447   1458     1  0.0000000  0.7531200  3
   1450   1448   1447   1465     1  0.0000000  0.6508444  3
   1451   1450   1448   1468     1  0.0000000  0.6508444  3
   1452   1465   1447   1458     1  180.0000771  0.4184000  2
   1452   1465   1447   1458     1  0.0000000  1.6024720  3
   1452   1451   1450   1457     1  0.0000000  0.6508444  3
   1456   1452   1451   1470     1  0.0000000  0.6508444  3
   1457   1450   1451   1470     1  0.0000000  0.6508444  3
   1457   1450   1448   1468     1  0.0000000  4.9162000  2
   1457   1450   1448   1468     1  0.0000000  0.6024960  3
   1458   1447   1448   1468     1  0.0000000  0.6508444  3
   1463   1458   1447   1465     1  0.0000000  4.9162000  2
   1463   1458   1447   1465     1  0.0000000  0.6024960  3
   1465   1452   1451   1470     1  0.0000000  0.6508444  3
   1465   1447   1448   1468     1  0.0000000  4.9162000  2
   1465   1447   1448   1468     1  0.0000000  0.6024960  3
   1471   1473   1475   1479     1  0.0000000  0.6508444  3
   1473   1475   1479   1480     1  180.0000771  2.0083200  2
   1473   1475   1479   1480     1  0.0000000  1.2552000  3
   1473   1475   1479   1481     1  180.0000771  2.0083200  2
   1473   1475   1479   1481     1  0.0000000  1.2552000  3
   1475   1479   1480   1491     1  180.0000771  2.0083200  2
   1475   1479   1480   1491     1  0.0000000  1.2552000  3
   1475   1479   1481   1483     1  180.0000771  2.0083200  2
   1475   1479   1481   1483     1  0.0000000  1.2552000  3
   1479   1480   1491   1494     1  0.0000000  0.6508444  3
   1479   1481   1483   1487     1  0.0000000  0.6508444  3
   1480   1479   1481   1483     1  180.0000771  2.0083200  2
   1480   1479   1481   1483     1  0.0000000  1.2552000  3
   1480   1491   1494   1495     1  180.0000771  0.0000000  2
   1480   1491   1494   1543     1  180.0000771  0.0000000  2
   1481   1479   1480   1491     1  180.0000771  2.0083200  2
   1481   1479   1480   1491     1  0.0000000  1.2552000  3
   1481   1483   1487   1488     1  180.0000771  0.0000000  2
   1481   1483   1487   1519     1  180.0000771  0.0000000  2
   1483   1487   1519   1500     1  180.0000771  6.0668000  2
   1483   1487   1519   1500     1  180.0000771  1.4644000  4
   1487   1519   1500   1499     1  0.0000000  1.2552000  3
   1487   1519   1500   1501     1  0.0000000  1.2552000  3
   1488   1487   1519   1500     1  180.0000771  6.0668000  2
   1488   1487   1519   1500     1  180.0000771  1.4644000  4
   1491   1494   1543   1524     1  180.0000771  6.0668000  2
   1491   1494   1543   1524     1  180.0000771  1.4644000  4
   1494   1543   1524   1523     1  0.0000000  1.2552000  3
   1494   1543   1524   1525     1  0.0000000  1.2552000  3
   1495   1494   1543   1524     1  180.0000771  6.0668000  2
   1495   1494   1543   1524     1  180.0000771  1.4644000  4
   1496   1497   1499   1500     1  180.0000771  0.8368000  1
   1496   1497   1499   1500     1  180.0000771  1.0460000  2
   1496   1497   1499   1500     1  0.0000000  0.7531200  3
   1496   1497   1499   1506     1  0.0000000  0.6508444  3
   1496   1514   1501   1500     1  180.0000771  0.4184000  2
   1496   1514   1501   1500     1  0.0000000  1.6024720  3
   1496   1514   1501   1505     1  0.0000000  1.6038667  3
   1497   1496   1507   1512     1  0.0000000  0.6508444  3
   1497   1496   1514   1501     1  180.0000771  0.4184000  2
   1497   1496   1514   1501     1  0.0000000  1.6024720  3
   1497   1499   1500   1501     1  180.0000771  0.8368000  1
   1497   1499   1500   1501     1  180.0000771  1.0460000  2
   1497   1499   1500   1501     1  0.0000000  0.7531200  3
   1497   1499   1500   1519     1  0.0000000  0.6508444  3
   1499   1497   1496   1507     1  180.0000771  0.8368000  1
   1499   1497   1496   1507     1  180.0000771  1.0460000  2
   1499   1497   1496   1507     1  0.0000000  0.7531200  3
   1499   1497   1496   1514     1  0.0000000  0.6508444  3
   1499   1500   1501   1505     1  0.0000000  0.6508444  3
   1499   1500   1501   1514     1  0.0000000  0.6508444  3
   1500   1499   1497   1517     1  0.0000000  0.6508444  3
   1501   1500   1499   1506     1  0.0000000  0.6508444  3
   1501   1514   1496   1507     1  180.0000771  0.4184000  2
   1501   1514   1496   1507     1  0.0000000  1.6024720  3
   1505   1501   1500   1519     1  0.0000000  0.6508444  3
   1506   1499   1497   1517     1  0.0000000  4.9162000  2
   1506   1499   1497   1517     1  0.0000000  0.6024960  3
   1506   1499   1500   1519     1  0.0000000  0.6508444  3
   1507   1496   1497   1517     1  0.0000000  0.6508444  3
   1512   1507   1496   1514     1  0.0000000  4.9162000  2
   1512   1507   1496   1514     1  0.0000000  0.6024960  3
   1514   1496   1497   1517     1  0.0000000  4.9162000  2
   1514   1496   1497   1517     1  0.0000000  0.6024960  3
   1514   1501   1500   1519     1  0.0000000  0.6508444  3
   1520   1521   1523   1524     1  180.0000771  0.8368000  1
   1520   1521   1523   1524     1  180.0000771  1.0460000  2
   1520   1521   1523   1524     1  0.0000000  0.7531200  3
   1520   1521   1523   1530     1  0.0000000  0.6508444  3
   1520   1538   1525   1524     1  180.0000771  0.4184000  2
   1520   1538   1525   1524     1  0.0000000  1.6024720  3
   1520   1538   1525   1529     1  0.0000000  1.6038667  3
   1521   1520   1531   1536     1  0.0000000  0.6508444  3
   1521   1520   1538   1525     1  180.0000771  0.4184000  2
   1521   1520   1538   1525     1  0.0000000  1.6024720  3
   1521   1523   1524   1525     1  180.0000771  0.8368000  1
   1521   1523   1524   1525     1  180.0000771  1.0460000  2
   1521   1523   1524   1525     1  0.0000000  0.7531200  3
   1521   1523   1524   1543     1  0.0000000  0.6508444  3
   1523   1521   1520   1531     1  180.0000771  0.8368000  1
   1523   1521   1520   1531     1  180.0000771  1.0460000  2
   1523   1521   1520   1531     1  0.0000000  0.7531200  3
   1523   1521   1520   1538     1  0.0000000  0.6508444  3
   1523   1524   1525   1529     1  0.0000000  0.6508444  3
   1523   1524   1525   1538     1  0.0000000  0.6508444  3
   1524   1523   1521   1541     1  0.0000000  0.6508444  3
   1525   1524   1523   1530     1  0.0000000  0.6508444  3
   1525   1538   1520   1531     1  180.0000771  0.4184000  2
   1525   1538   1520   1531     1  0.0000000  1.6024720  3
   1529   1525   1524   1543     1  0.0000000  0.6508444  3
   1530   1523   1521   1541     1  0.0000000  4.9162000  2
   1530   1523   1521   1541     1  0.0000000  0.6024960  3
   1530   1523   1524   1543     1  0.0000000  0.6508444  3
   1531   1520   1521   1541     1  0.0000000  0.6508444  3
   1536   1531   1520   1538     1  0.0000000  4.9162000  2
   1536   1531   1520   1538     1  0.0000000  0.6024960  3
   1538   1520   1521   1541     1  0.0000000  4.9162000  2
   1538   1520   1521   1541     1  0.0000000  0.6024960  3
   1538   1525   1524   1543     1  0.0000000  0.6508444  3
   1544   1546   1548   1552     1  0.0000000  0.6508444  3
   1546   1548   1552   1553     1  180.0000771  2.0083200  2
   1546   1548   1552   1553     1  0.0000000  1.2552000  3
   1546   1548   1552   1554     1  180.0000771  2.0083200  2
   1546   1548   1552   1554     1  0.0000000  1.2552000  3
   1548   1552   1553   1564     1  180.0000771  2.0083200  2
   1548   1552   1553   1564     1  0.0000000  1.2552000  3
   1548   1552   1554   1556     1  180.0000771  2.0083200  2
   1548   1552   1554   1556     1  0.0000000  1.2552000  3
   1552   1553   1564   1567     1  0.0000000  0.6508444  3
   1552   1554   1556   1560     1  0.0000000  0.6508444  3
   1553   1564   1567   1568     1  180.0000771  0.0000000  2
   1553   1564   1567   1616     1  180.0000771  0.0000000  2
   1553   1552   1554   1556     1  180.0000771  2.0083200  2
   1553   1552   1554   1556     1  0.0000000  1.2552000  3
   1554   1556   1560   1561     1  180.0000771  0.0000000  2
   1554   1556   1560   1592     1  180.0000771  0.0000000  2
   1554   1552   1553   1564     1  180.0000771  2.0083200  2
   1554   1552   1553   1564     1  0.0000000  1.2552000  3
   1556   1560   1592   1573     1  180.0000771  6.0668000  2
   1556   1560   1592   1573     1  180.0000771  1.4644000  4
   1560   1592   1573   1574     1  0.0000000  1.2552000  3
   1560   1592   1573   1572     1  0.0000000  1.2552000  3
   1561   1560   1592   1573     1  180.0000771  6.0668000  2
   1561   1560   1592   1573     1  180.0000771  1.4644000  4
   1564   1567   1616   1597     1  180.0000771  6.0668000  2
   1564   1567   1616   1597     1  180.0000771  1.4644000  4
   1567   1616   1597   1598     1  0.0000000  1.2552000  3
   1567   1616   1597   1596     1  0.0000000  1.2552000  3
   1568   1567   1616   1597     1  180.0000771  6.0668000  2
   1568   1567   1616   1597     1  180.0000771  1.4644000  4
   1569   1570   1572   1573     1  180.0000771  0.8368000  1
   1569   1570   1572   1573     1  180.0000771  1.0460000  2
   1569   1570   1572   1573     1  0.0000000  0.7531200  3
   1569   1570   1572   1579     1  0.0000000  0.6508444  3
   1569   1587   1574   1578     1  0.0000000  1.6038667  3
   1569   1587   1574   1573     1  180.0000771  0.4184000  2
   1569   1587   1574   1573     1  0.0000000  1.6024720  3
   1570   1572   1573   1574     1  180.0000771  0.8368000  1
   1570   1572   1573   1574     1  180.0000771  1.0460000  2
   1570   1572   1573   1574     1  0.0000000  0.7531200  3
   1570   1572   1573   1592     1  0.0000000  0.6508444  3
   1570   1569   1580   1585     1  0.0000000  0.6508444  3
   1570   1569   1587   1574     1  180.0000771  0.4184000  2
   1570   1569   1587   1574     1  0.0000000  1.6024720  3
   1572   1573   1574   1578     1  0.0000000  0.6508444  3
   1572   1573   1574   1587     1  0.0000000  0.6508444  3
   1572   1570   1569   1580     1  180.0000771  0.8368000  1
   1572   1570   1569   1580     1  180.0000771  1.0460000  2
   1572   1570   1569   1580     1  0.0000000  0.7531200  3
   1572   1570   1569   1587     1  0.0000000  0.6508444  3
   1573   1572   1570   1590     1  0.0000000  0.6508444  3
   1574   1587   1569   1580     1  180.0000771  0.4184000  2
   1574   1587   1569   1580     1  0.0000000  1.6024720  3
   1574   1573   1572   1579     1  0.0000000  0.6508444  3
   1578   1574   1573   1592     1  0.0000000  0.6508444  3
   1579   1572   1573   1592     1  0.0000000  0.6508444  3
   1579   1572   1570   1590     1  0.0000000  4.9162000  2
   1579   1572   1570   1590     1  0.0000000  0.6024960  3
   1580   1569   1570   1590     1  0.0000000  0.6508444  3
   1585   1580   1569   1587     1  0.0000000  4.9162000  2
   1585   1580   1569   1587     1  0.0000000  0.6024960  3
   1587   1574   1573   1592     1  0.0000000  0.6508444  3
   1587   1569   1570   1590     1  0.0000000  4.9162000  2
   1587   1569   1570   1590     1  0.0000000  0.6024960  3
   1593   1594   1596   1597     1  180.0000771  0.8368000  1
   1593   1594   1596   1597     1  180.0000771  1.0460000  2
   1593   1594   1596   1597     1  0.0000000  0.7531200  3
   1593   1594   1596   1603     1  0.0000000  0.6508444  3
   1593   1611   1598   1602     1  0.0000000  1.6038667  3
   1593   1611   1598   1597     1  180.0000771  0.4184000  2
   1593   1611   1598   1597     1  0.0000000  1.6024720  3
   1594   1596   1597   1598     1  180.0000771  0.8368000  1
   1594   1596   1597   1598     1  180.0000771  1.0460000  2
   1594   1596   1597   1598     1  0.0000000  0.7531200  3
   1594   1596   1597   1616     1  0.0000000  0.6508444  3
   1594   1593   1604   1609     1  0.0000000  0.6508444  3
   1594   1593   1611   1598     1  180.0000771  0.4184000  2
   1594   1593   1611   1598     1  0.0000000  1.6024720  3
   1596   1597   1598   1602     1  0.0000000  0.6508444  3
   1596   1597   1598   1611     1  0.0000000  0.6508444  3
   1596   1594   1593   1604     1  180.0000771  0.8368000  1
   1596   1594   1593   1604     1  180.0000771  1.0460000  2
   1596   1594   1593   1604     1  0.0000000  0.7531200  3
   1596   1594   1593   1611     1  0.0000000  0.6508444  3
   1597   1596   1594   1614     1  0.0000000  0.6508444  3
   1598   1611   1593   1604     1  180.0000771  0.4184000  2
   1598   1611   1593   1604     1  0.0000000  1.6024720  3
   1598   1597   1596   1603     1  0.0000000  0.6508444  3
   1602   1598   1597   1616     1  0.0000000  0.6508444  3
   1603   1596   1597   1616     1  0.0000000  0.6508444  3
   1603   1596   1594   1614     1  0.0000000  4.9162000  2
   1603   1596   1594   1614     1  0.0000000  0.6024960  3
   1604   1593   1594   1614     1  0.0000000  0.6508444  3
   1609   1604   1593   1611     1  0.0000000  4.9162000  2
   1609   1604   1593   1611     1  0.0000000  0.6024960  3
   1611   1598   1597   1616     1  0.0000000  0.6508444  3
   1611   1593   1594   1614     1  0.0000000  4.9162000  2
   1611   1593   1594   1614     1  0.0000000  0.6024960  3
   1617   1619   1621   1625     1  0.0000000  0.6508444  3
   1619   1621   1625   1626     1  180.0000771  2.0083200  2
   1619   1621   1625   1626     1  0.0000000  1.2552000  3
   1619   1621   1625   1627     1  180.0000771  2.0083200  2
   1619   1621   1625   1627     1  0.0000000  1.2552000  3
   1621   1625   1626   1637     1  180.0000771  2.0083200  2
   1621   1625   1626   1637     1  0.0000000  1.2552000  3
   1621   1625   1627   1629     1  180.0000771  2.0083200  2
   1621   1625   1627   1629     1  0.0000000  1.2552000  3
   1625   1626   1637   1640     1  0.0000000  0.6508444  3
   1625   1627   1629   1633     1  0.0000000  0.6508444  3
   1626   1625   1627   1629     1  180.0000771  2.0083200  2
   1626   1625   1627   1629     1  0.0000000  1.2552000  3
   1626   1637   1640   1641     1  180.0000771  0.0000000  2
   1626   1637   1640   1689     1  180.0000771  0.0000000  2
   1627   1625   1626   1637     1  180.0000771  2.0083200  2
   1627   1625   1626   1637     1  0.0000000  1.2552000  3
   1627   1629   1633   1634     1  180.0000771  0.0000000  2
   1627   1629   1633   1665     1  180.0000771  0.0000000  2
   1629   1633   1665   1646     1  180.0000771  6.0668000  2
   1629   1633   1665   1646     1  180.0000771  1.4644000  4
   1633   1665   1646   1645     1  0.0000000  1.2552000  3
   1633   1665   1646   1647     1  0.0000000  1.2552000  3
   1634   1633   1665   1646     1  180.0000771  6.0668000  2
   1634   1633   1665   1646     1  180.0000771  1.4644000  4
   1637   1640   1689   1670     1  180.0000771  6.0668000  2
   1637   1640   1689   1670     1  180.0000771  1.4644000  4
   1640   1689   1670   1669     1  0.0000000  1.2552000  3
   1640   1689   1670   1671     1  0.0000000  1.2552000  3
   1641   1640   1689   1670     1  180.0000771  6.0668000  2
   1641   1640   1689   1670     1  180.0000771  1.4644000  4
   1642   1643   1645   1646     1  180.0000771  0.8368000  1
   1642   1643   1645   1646     1  180.0000771  1.0460000  2
   1642   1643   1645   1646     1  0.0000000  0.7531200  3
   1642   1643   1645   1652     1  0.0000000  0.6508444  3
   1642   1660   1647   1646     1  180.0000771  0.4184000  2
   1642   1660   1647   1646     1  0.0000000  1.6024720  3
   1642   1660   1647   1651     1  0.0000000  1.6038667  3
   1643   1642   1653   1658     1  0.0000000  0.6508444  3
   1643   1642   1660   1647     1  180.0000771  0.4184000  2
   1643   1642   1660   1647     1  0.0000000  1.6024720  3
   1643   1645   1646   1647     1  180.0000771  0.8368000  1
   1643   1645   1646   1647     1  180.0000771  1.0460000  2
   1643   1645   1646   1647     1  0.0000000  0.7531200  3
   1643   1645   1646   1665     1  0.0000000  0.6508444  3
   1645   1643   1642   1653     1  180.0000771  0.8368000  1
   1645   1643   1642   1653     1  180.0000771  1.0460000  2
   1645   1643   1642   1653     1  0.0000000  0.7531200  3
   1645   1643   1642   1660     1  0.0000000  0.6508444  3
   1645   1646   1647   1651     1  0.0000000  0.6508444  3
   1645   1646   1647   1660     1  0.0000000  0.6508444  3
   1646   1645   1643   1663     1  0.0000000  0.6508444  3
   1647   1646   1645   1652     1  0.0000000  0.6508444  3
   1647   1660   1642   1653     1  180.0000771  0.4184000  2
   1647   1660   1642   1653     1  0.0000000  1.6024720  3
   1651   1647   1646   1665     1  0.0000000  0.6508444  3
   1652   1645   1643   1663     1  0.0000000  4.9162000  2
   1652   1645   1643   1663     1  0.0000000  0.6024960  3
   1652   1645   1646   1665     1  0.0000000  0.6508444  3
   1653   1642   1643   1663     1  0.0000000  0.6508444  3
   1658   1653   1642   1660     1  0.0000000  4.9162000  2
   1658   1653   1642   1660     1  0.0000000  0.6024960  3
   1660   1642   1643   1663     1  0.0000000  4.9162000  2
   1660   1642   1643   1663     1  0.0000000  0.6024960  3
   1660   1647   1646   1665     1  0.0000000  0.6508444  3
   1666   1667   1669   1670     1  180.0000771  0.8368000  1
   1666   1667   1669   1670     1  180.0000771  1.0460000  2
   1666   1667   1669   1670     1  0.0000000  0.7531200  3
   1666   1667   1669   1676     1  0.0000000  0.6508444  3
   1666   1684   1671   1670     1  180.0000771  0.4184000  2
   1666   1684   1671   1670     1  0.0000000  1.6024720  3
   1666   1684   1671   1675     1  0.0000000  1.6038667  3
   1667   1666   1677   1682     1  0.0000000  0.6508444  3
   1667   1666   1684   1671     1  180.0000771  0.4184000  2
   1667   1666   1684   1671     1  0.0000000  1.6024720  3
   1667   1669   1670   1671     1  180.0000771  0.8368000  1
   1667   1669   1670   1671     1  180.0000771  1.0460000  2
   1667   1669   1670   1671     1  0.0000000  0.7531200  3
   1667   1669   1670   1689     1  0.0000000  0.6508444  3
   1669   1667   1666   1677     1  180.0000771  0.8368000  1
   1669   1667   1666   1677     1  180.0000771  1.0460000  2
   1669   1667   1666   1677     1  0.0000000  0.7531200  3
   1669   1667   1666   1684     1  0.0000000  0.6508444  3
   1669   1670   1671   1675     1  0.0000000  0.6508444  3
   1669   1670   1671   1684     1  0.0000000  0.6508444  3
   1670   1669   1667   1687     1  0.0000000  0.6508444  3
   1671   1670   1669   1676     1  0.0000000  0.6508444  3
   1671   1684   1666   1677     1  180.0000771  0.4184000  2
   1671   1684   1666   1677     1  0.0000000  1.6024720  3
   1675   1671   1670   1689     1  0.0000000  0.6508444  3
   1676   1669   1667   1687     1  0.0000000  4.9162000  2
   1676   1669   1667   1687     1  0.0000000  0.6024960  3
   1676   1669   1670   1689     1  0.0000000  0.6508444  3
   1677   1666   1667   1687     1  0.0000000  0.6508444  3
   1682   1677   1666   1684     1  0.0000000  4.9162000  2
   1682   1677   1666   1684     1  0.0000000  0.6024960  3
   1684   1666   1667   1687     1  0.0000000  4.9162000  2
   1684   1666   1667   1687     1  0.0000000  0.6024960  3
   1684   1671   1670   1689     1  0.0000000  0.6508444  3
   1690   1692   1694   1698     1  0.0000000  0.6508444  3
   1692   1694   1698   1699     1  180.0000771  2.0083200  2
   1692   1694   1698   1699     1  0.0000000  1.2552000  3
   1692   1694   1698   1700     1  180.0000771  2.0083200  2
   1692   1694   1698   1700     1  0.0000000  1.2552000  3
   1694   1698   1699   1710     1  180.0000771  2.0083200  2
   1694   1698   1699   1710     1  0.0000000  1.2552000  3
   1694   1698   1700   1702     1  180.0000771  2.0083200  2
   1694   1698   1700   1702     1  0.0000000  1.2552000  3
   1698   1699   1710   1713     1  0.0000000  0.6508444  3
   1698   1700   1702   1706     1  0.0000000  0.6508444  3
   1699   1710   1713   1714     1  180.0000771  0.0000000  2
   1699   1710   1713   1762     1  180.0000771  0.0000000  2
   1699   1698   1700   1702     1  180.0000771  2.0083200  2
   1699   1698   1700   1702     1  0.0000000  1.2552000  3
   1700   1702   1706   1707     1  180.0000771  0.0000000  2
   1700   1702   1706   1738     1  180.0000771  0.0000000  2
   1700   1698   1699   1710     1  180.0000771  2.0083200  2
   1700   1698   1699   1710     1  0.0000000  1.2552000  3
   1702   1706   1738   1719     1  180.0000771  6.0668000  2
   1702   1706   1738   1719     1  180.0000771  1.4644000  4
   1706   1738   1719   1720     1  0.0000000  1.2552000  3
   1706   1738   1719   1718     1  0.0000000  1.2552000  3
   1707   1706   1738   1719     1  180.0000771  6.0668000  2
   1707   1706   1738   1719     1  180.0000771  1.4644000  4
   1710   1713   1762   1743     1  180.0000771  6.0668000  2
   1710   1713   1762   1743     1  180.0000771  1.4644000  4
   1713   1762   1743   1744     1  0.0000000  1.2552000  3
   1713   1762   1743   1742     1  0.0000000  1.2552000  3
   1714   1713   1762   1743     1  180.0000771  6.0668000  2
   1714   1713   1762   1743     1  180.0000771  1.4644000  4
   1715   1716   1718   1719     1  180.0000771  0.8368000  1
   1715   1716   1718   1719     1  180.0000771  1.0460000  2
   1715   1716   1718   1719     1  0.0000000  0.7531200  3
   1715   1716   1718   1725     1  0.0000000  0.6508444  3
   1715   1733   1720   1724     1  0.0000000  1.6038667  3
   1715   1733   1720   1719     1  180.0000771  0.4184000  2
   1715   1733   1720   1719     1  0.0000000  1.6024720  3
   1716   1718   1719   1720     1  180.0000771  0.8368000  1
   1716   1718   1719   1720     1  180.0000771  1.0460000  2
   1716   1718   1719   1720     1  0.0000000  0.7531200  3
   1716   1718   1719   1738     1  0.0000000  0.6508444  3
   1716   1715   1726   1731     1  0.0000000  0.6508444  3
   1716   1715   1733   1720     1  180.0000771  0.4184000  2
   1716   1715   1733   1720     1  0.0000000  1.6024720  3
   1718   1719   1720   1724     1  0.0000000  0.6508444  3
   1718   1719   1720   1733     1  0.0000000  0.6508444  3
   1718   1716   1715   1726     1  180.0000771  0.8368000  1
   1718   1716   1715   1726     1  180.0000771  1.0460000  2
   1718   1716   1715   1726     1  0.0000000  0.7531200  3
   1718   1716   1715   1733     1  0.0000000  0.6508444  3
   1719   1718   1716   1736     1  0.0000000  0.6508444  3
   1720   1733   1715   1726     1  180.0000771  0.4184000  2
   1720   1733   1715   1726     1  0.0000000  1.6024720  3
   1720   1719   1718   1725     1  0.0000000  0.6508444  3
   1724   1720   1719   1738     1  0.0000000  0.6508444  3
   1725   1718   1719   1738     1  0.0000000  0.6508444  3
   1725   1718   1716   1736     1  0.0000000  4.9162000  2
   1725   1718   1716   1736     1  0.0000000  0.6024960  3
   1726   1715   1716   1736     1  0.0000000  0.6508444  3
   1731   1726   1715   1733     1  0.0000000  4.9162000  2
   1731   1726   1715   1733     1  0.0000000  0.6024960  3
   1733   1720   1719   1738     1  0.0000000  0.6508444  3
   1733   1715   1716   1736     1  0.0000000  4.9162000  2
   1733   1715   1716   1736     1  0.0000000  0.6024960  3
   1739   1740   1742   1743     1  180.0000771  0.8368000  1
   1739   1740   1742   1743     1  180.0000771  1.0460000  2
   1739   1740   1742   1743     1  0.0000000  0.7531200  3
   1739   1740   1742   1749     1  0.0000000  0.6508444  3
   1739   1757   1744   1748     1  0.0000000  1.6038667  3
   1739   1757   1744   1743     1  180.0000771  0.4184000  2
   1739   1757   1744   1743     1  0.0000000  1.6024720  3
   1740   1742   1743   1744     1  180.0000771  0.8368000  1
   1740   1742   1743   1744     1  180.0000771  1.0460000  2
   1740   1742   1743   1744     1  0.0000000  0.7531200  3
   1740   1742   1743   1762     1  0.0000000  0.6508444  3
   1740   1739   1750   1755     1  0.0000000  0.6508444  3
   1740   1739   1757   1744     1  180.0000771  0.4184000  2
   1740   1739   1757   1744     1  0.0000000  1.6024720  3
   1742   1743   1744   1748     1  0.0000000  0.6508444  3
   1742   1743   1744   1757     1  0.0000000  0.6508444  3
   1742   1740   1739   1750     1  180.0000771  0.8368000  1
   1742   1740   1739   1750     1  180.0000771  1.0460000  2
   1742   1740   1739   1750     1  0.0000000  0.7531200  3
   1742   1740   1739   1757     1  0.0000000  0.6508444  3
   1743   1742   1740   1760     1  0.0000000  0.6508444  3
   1744   1757   1739   1750     1  180.0000771  0.4184000  2
   1744   1757   1739   1750     1  0.0000000  1.6024720  3
   1744   1743   1742   1749     1  0.0000000  0.6508444  3
   1748   1744   1743   1762     1  0.0000000  0.6508444  3
   1749   1742   1743   1762     1  0.0000000  0.6508444  3
   1749   1742   1740   1760     1  0.0000000  4.9162000  2
   1749   1742   1740   1760     1  0.0000000  0.6024960  3
   1750   1739   1740   1760     1  0.0000000  0.6508444  3
   1755   1750   1739   1757     1  0.0000000  4.9162000  2
   1755   1750   1739   1757     1  0.0000000  0.6024960  3
   1757   1744   1743   1762     1  0.0000000  0.6508444  3
   1757   1739   1740   1760     1  0.0000000  4.9162000  2
   1757   1739   1740   1760     1  0.0000000  0.6024960  3
   1763   1765   1767   1771     1  0.0000000  0.6508444  3
   1765   1767   1771   1772     1  180.0000771  2.0083200  2
   1765   1767   1771   1772     1  0.0000000  1.2552000  3
   1765   1767   1771   1773     1  180.0000771  2.0083200  2
   1765   1767   1771   1773     1  0.0000000  1.2552000  3
   1767   1771   1772   1783     1  180.0000771  2.0083200  2
   1767   1771   1772   1783     1  0.0000000  1.2552000  3
   1767   1771   1773   1775     1  180.0000771  2.0083200  2
   1767   1771   1773   1775     1  0.0000000  1.2552000  3
   1771   1772   1783   1786     1  0.0000000  0.6508444  3
   1771   1773   1775   1779     1  0.0000000  0.6508444  3
   1772   1771   1773   1775     1  180.0000771  2.0083200  2
   1772   1771   1773   1775     1  0.0000000  1.2552000  3
   1772   1783   1786   1787     1  180.0000771  0.0000000  2
   1772   1783   1786   1835     1  180.0000771  0.0000000  2
   1773   1771   1772   1783     1  180.0000771  2.0083200  2
   1773   1771   1772   1783     1  0.0000000  1.2552000  3
   1773   1775   1779   1780     1  180.0000771  0.0000000  2
   1773   1775   1779   1811     1  180.0000771  0.0000000  2
   1775   1779   1811   1792     1  180.0000771  6.0668000  2
   1775   1779   1811   1792     1  180.0000771  1.4644000  4
   1779   1811   1792   1791     1  0.0000000  1.2552000  3
   1779   1811   1792   1793     1  0.0000000  1.2552000  3
   1780   1779   1811   1792     1  180.0000771  6.0668000  2
   1780   1779   1811   1792     1  180.0000771  1.4644000  4
   1783   1786   1835   1816     1  180.0000771  6.0668000  2
   1783   1786   1835   1816     1  180.0000771  1.4644000  4
   1786   1835   1816   1815     1  0.0000000  1.2552000  3
   1786   1835   1816   1817     1  0.0000000  1.2552000  3
   1787   1786   1835   1816     1  180.0000771  6.0668000  2
   1787   1786   1835   1816     1  180.0000771  1.4644000  4
   1788   1789   1791   1792     1  180.0000771  0.8368000  1
   1788   1789   1791   1792     1  180.0000771  1.0460000  2
   1788   1789   1791   1792     1  0.0000000  0.7531200  3
   1788   1789   1791   1798     1  0.0000000  0.6508444  3
   1788   1806   1793   1792     1  180.0000771  0.4184000  2
   1788   1806   1793   1792     1  0.0000000  1.6024720  3
   1788   1806   1793   1797     1  0.0000000  1.6038667  3
   1789   1788   1799   1804     1  0.0000000  0.6508444  3
   1789   1788   1806   1793     1  180.0000771  0.4184000  2
   1789   1788   1806   1793     1  0.0000000  1.6024720  3
   1789   1791   1792   1793     1  180.0000771  0.8368000  1
   1789   1791   1792   1793     1  180.0000771  1.0460000  2
   1789   1791   1792   1793     1  0.0000000  0.7531200  3
   1789   1791   1792   1811     1  0.0000000  0.6508444  3
   1791   1789   1788   1799     1  180.0000771  0.8368000  1
   1791   1789   1788   1799     1  180.0000771  1.0460000  2
   1791   1789   1788   1799     1  0.0000000  0.7531200  3
   1791   1789   1788   1806     1  0.0000000  0.6508444  3
   1791   1792   1793   1797     1  0.0000000  0.6508444  3
   1791   1792   1793   1806     1  0.0000000  0.6508444  3
   1792   1791   1789   1809     1  0.0000000  0.6508444  3
   1793   1792   1791   1798     1  0.0000000  0.6508444  3
   1793   1806   1788   1799     1  180.0000771  0.4184000  2
   1793   1806   1788   1799     1  0.0000000  1.6024720  3
   1797   1793   1792   1811     1  0.0000000  0.6508444  3
   1798   1791   1789   1809     1  0.0000000  4.9162000  2
   1798   1791   1789   1809     1  0.0000000  0.6024960  3
   1798   1791   1792   1811     1  0.0000000  0.6508444  3
   1799   1788   1789   1809     1  0.0000000  0.6508444  3
   1804   1799   1788   1806     1  0.0000000  4.9162000  2
   1804   1799   1788   1806     1  0.0000000  0.6024960  3
   1806   1788   1789   1809     1  0.0000000  4.9162000  2
   1806   1788   1789   1809     1  0.0000000  0.6024960  3
   1806   1793   1792   1811     1  0.0000000  0.6508444  3
   1812   1813   1815   1816     1  180.0000771  0.8368000  1
   1812   1813   1815   1816     1  180.0000771  1.0460000  2
   1812   1813   1815   1816     1  0.0000000  0.7531200  3
   1812   1813   1815   1822     1  0.0000000  0.6508444  3
   1812   1830   1817   1816     1  180.0000771  0.4184000  2
   1812   1830   1817   1816     1  0.0000000  1.6024720  3
   1812   1830   1817   1821     1  0.0000000  1.6038667  3
   1813   1812   1823   1828     1  0.0000000  0.6508444  3
   1813   1812   1830   1817     1  180.0000771  0.4184000  2
   1813   1812   1830   1817     1  0.0000000  1.6024720  3
   1813   1815   1816   1817     1  180.0000771  0.8368000  1
   1813   1815   1816   1817     1  180.0000771  1.0460000  2
   1813   1815   1816   1817     1  0.0000000  0.7531200  3
   1813   1815   1816   1835     1  0.0000000  0.6508444  3
   1815   1813   1812   1823     1  180.0000771  0.8368000  1
   1815   1813   1812   1823     1  180.0000771  1.0460000  2
   1815   1813   1812   1823     1  0.0000000  0.7531200  3
   1815   1813   1812   1830     1  0.0000000  0.6508444  3
   1815   1816   1817   1821     1  0.0000000  0.6508444  3
   1815   1816   1817   1830     1  0.0000000  0.6508444  3
   1816   1815   1813   1833     1  0.0000000  0.6508444  3
   1817   1816   1815   1822     1  0.0000000  0.6508444  3
   1817   1830   1812   1823     1  180.0000771  0.4184000  2
   1817   1830   1812   1823     1  0.0000000  1.6024720  3
   1821   1817   1816   1835     1  0.0000000  0.6508444  3
   1822   1815   1813   1833     1  0.0000000  4.9162000  2
   1822   1815   1813   1833     1  0.0000000  0.6024960  3
   1822   1815   1816   1835     1  0.0000000  0.6508444  3
   1823   1812   1813   1833     1  0.0000000  0.6508444  3
   1828   1823   1812   1830     1  0.0000000  4.9162000  2
   1828   1823   1812   1830     1  0.0000000  0.6024960  3
   1830   1812   1813   1833     1  0.0000000  4.9162000  2
   1830   1812   1813   1833     1  0.0000000  0.6024960  3
   1830   1817   1816   1835     1  0.0000000  0.6508444  3
   1836   1838   1840   1844     1  0.0000000  0.6508444  3
   1838   1840   1844   1845     1  180.0000771  2.0083200  2
   1838   1840   1844   1845     1  0.0000000  1.2552000  3
   1838   1840   1844   1846     1  180.0000771  2.0083200  2
   1838   1840   1844   1846     1  0.0000000  1.2552000  3
   1840   1844   1845   1856     1  180.0000771  2.0083200  2
   1840   1844   1845   1856     1  0.0000000  1.2552000  3
   1840   1844   1846   1848     1  180.0000771  2.0083200  2
   1840   1844   1846   1848     1  0.0000000  1.2552000  3
   1844   1845   1856   1859     1  0.0000000  0.6508444  3
   1844   1846   1848   1852     1  0.0000000  0.6508444  3
   1845   1856   1859   1860     1  180.0000771  0.0000000  2
   1845   1856   1859   1908     1  180.0000771  0.0000000  2
   1845   1844   1846   1848     1  180.0000771  2.0083200  2
   1845   1844   1846   1848     1  0.0000000  1.2552000  3
   1846   1848   1852   1853     1  180.0000771  0.0000000  2
   1846   1848   1852   1884     1  180.0000771  0.0000000  2
   1846   1844   1845   1856     1  180.0000771  2.0083200  2
   1846   1844   1845   1856     1  0.0000000  1.2552000  3
   1848   1852   1884   1865     1  180.0000771  6.0668000  2
   1848   1852   1884   1865     1  180.0000771  1.4644000  4
   1852   1884   1865   1866     1  0.0000000  1.2552000  3
   1852   1884   1865   1864     1  0.0000000  1.2552000  3
   1853   1852   1884   1865     1  180.0000771  6.0668000  2
   1853   1852   1884   1865     1  180.0000771  1.4644000  4
   1856   1859   1908   1889     1  180.0000771  6.0668000  2
   1856   1859   1908   1889     1  180.0000771  1.4644000  4
   1859   1908   1889   1890     1  0.0000000  1.2552000  3
   1859   1908   1889   1888     1  0.0000000  1.2552000  3
   1860   1859   1908   1889     1  180.0000771  6.0668000  2
   1860   1859   1908   1889     1  180.0000771  1.4644000  4
   1861   1862   1864   1865     1  180.0000771  0.8368000  1
   1861   1862   1864   1865     1  180.0000771  1.0460000  2
   1861   1862   1864   1865     1  0.0000000  0.7531200  3
   1861   1862   1864   1871     1  0.0000000  0.6508444  3
   1861   1879   1866   1870     1  0.0000000  1.6038667  3
   1861   1879   1866   1865     1  180.0000771  0.4184000  2
   1861   1879   1866   1865     1  0.0000000  1.6024720  3
   1862   1864   1865   1866     1  180.0000771  0.8368000  1
   1862   1864   1865   1866     1  180.0000771  1.0460000  2
   1862   1864   1865   1866     1  0.0000000  0.7531200  3
   1862   1864   1865   1884     1  0.0000000  0.6508444  3
   1862   1861   1872   1877     1  0.0000000  0.6508444  3
   1862   1861   1879   1866     1  180.0000771  0.4184000  2
   1862   1861   1879   1866     1  0.0000000  1.6024720  3
   1864   1865   1866   1870     1  0.0000000  0.6508444  3
   1864   1865   1866   1879     1  0.0000000  0.6508444  3
   1864   1862   1861   1872     1  180.0000771  0.8368000  1
   1864   1862   1861   1872     1  180.0000771  1.0460000  2
   1864   1862   1861   1872     1  0.0000000  0.7531200  3
   1864   1862   1861   1879     1  0.0000000  0.6508444  3
   1865   1864   1862   1882     1  0.0000000  0.6508444  3
   1866   1879   1861   1872     1  180.0000771  0.4184000  2
   1866   1879   1861   1872     1  0.0000000  1.6024720  3
   1866   1865   1864   1871     1  0.0000000  0.6508444  3
   1870   1866   1865   1884     1  0.0000000  0.6508444  3
   1871   1864   1865   1884     1  0.0000000  0.6508444  3
   1871   1864   1862   1882     1  0.0000000  4.9162000  2
   1871   1864   1862   1882     1  0.0000000  0.6024960  3
   1872   1861   1862   1882     1  0.0000000  0.6508444  3
   1877   1872   1861   1879     1  0.0000000  4.9162000  2
   1877   1872   1861   1879     1  0.0000000  0.6024960  3
   1879   1866   1865   1884     1  0.0000000  0.6508444  3
   1879   1861   1862   1882     1  0.0000000  4.9162000  2
   1879   1861   1862   1882     1  0.0000000  0.6024960  3
   1885   1886   1888   1889     1  180.0000771  0.8368000  1
   1885   1886   1888   1889     1  180.0000771  1.0460000  2
   1885   1886   1888   1889     1  0.0000000  0.7531200  3
   1885   1886   1888   1895     1  0.0000000  0.6508444  3
   1885   1903   1890   1894     1  0.0000000  1.6038667  3
   1885   1903   1890   1889     1  180.0000771  0.4184000  2
   1885   1903   1890   1889     1  0.0000000  1.6024720  3
   1886   1888   1889   1890     1  180.0000771  0.8368000  1
   1886   1888   1889   1890     1  180.0000771  1.0460000  2
   1886   1888   1889   1890     1  0.0000000  0.7531200  3
   1886   1888   1889   1908     1  0.0000000  0.6508444  3
   1886   1885   1896   1901     1  0.0000000  0.6508444  3
   1886   1885   1903   1890     1  180.0000771  0.4184000  2
   1886   1885   1903   1890     1  0.0000000  1.6024720  3
   1888   1889   1890   1894     1  0.0000000  0.6508444  3
   1888   1889   1890   1903     1  0.0000000  0.6508444  3
   1888   1886   1885   1896     1  180.0000771  0.8368000  1
   1888   1886   1885   1896     1  180.0000771  1.0460000  2
   1888   1886   1885   1896     1  0.0000000  0.7531200  3
   1888   1886   1885   1903     1  0.0000000  0.6508444  3
   1889   1888   1886   1906     1  0.0000000  0.6508444  3
   1890   1903   1885   1896     1  180.0000771  0.4184000  2
   1890   1903   1885   1896     1  0.0000000  1.6024720  3
   1890   1889   1888   1895     1  0.0000000  0.6508444  3
   1894   1890   1889   1908     1  0.0000000  0.6508444  3
   1895   1888   1889   1908     1  0.0000000  0.6508444  3
   1895   1888   1886   1906     1  0.0000000  4.9162000  2
   1895   1888   1886   1906     1  0.0000000  0.6024960  3
   1896   1885   1886   1906     1  0.0000000  0.6508444  3
   1901   1896   1885   1903     1  0.0000000  4.9162000  2
   1901   1896   1885   1903     1  0.0000000  0.6024960  3
   1903   1890   1889   1908     1  0.0000000  0.6508444  3
   1903   1885   1886   1906     1  0.0000000  4.9162000  2
   1903   1885   1886   1906     1  0.0000000  0.6024960  3
   1909   1911   1913   1917     1  0.0000000  0.6508444  3
   1911   1913   1917   1918     1  180.0000771  2.0083200  2
   1911   1913   1917   1918     1  0.0000000  1.2552000  3
   1911   1913   1917   1919     1  180.0000771  2.0083200  2
   1911   1913   1917   1919     1  0.0000000  1.2552000  3
   1913   1917   1918   1929     1  180.0000771  2.0083200  2
   1913   1917   1918   1929     1  0.0000000  1.2552000  3
   1913   1917   1919   1921     1  180.0000771  2.0083200  2
   1913   1917   1919   1921     1  0.0000000  1.2552000  3
   1917   1918   1929   1932     1  0.0000000  0.6508444  3
   1917   1919   1921   1925     1  0.0000000  0.6508444  3
   1918   1917   1919   1921     1  180.0000771  2.0083200  2
   1918   1917   1919   1921     1  0.0000000  1.2552000  3
   1918   1929   1932   1933     1  180.0000771  0.0000000  2
   1918   1929   1932   1981     1  180.0000771  0.0000000  2
   1919   1917   1918   1929     1  180.0000771  2.0083200  2
   1919   1917   1918   1929     1  0.0000000  1.2552000  3
   1919   1921   1925   1926     1  180.0000771  0.0000000  2
   1919   1921   1925   1957     1  180.0000771  0.0000000  2
   1921   1925   1957   1938     1  180.0000771  6.0668000  2
   1921   1925   1957   1938     1  180.0000771  1.4644000  4
   1925   1957   1938   1937     1  0.0000000  1.2552000  3
   1925   1957   1938   1939     1  0.0000000  1.2552000  3
   1926   1925   1957   1938     1  180.0000771  6.0668000  2
   1926   1925   1957   1938     1  180.0000771  1.4644000  4
   1929   1932   1981   1962     1  180.0000771  6.0668000  2
   1929   1932   1981   1962     1  180.0000771  1.4644000  4
   1932   1981   1962   1961     1  0.0000000  1.2552000  3
   1932   1981   1962   1963     1  0.0000000  1.2552000  3
   1933   1932   1981   1962     1  180.0000771  6.0668000  2
   1933   1932   1981   1962     1  180.0000771  1.4644000  4
   1934   1935   1937   1938     1  180.0000771  0.8368000  1
   1934   1935   1937   1938     1  180.0000771  1.0460000  2
   1934   1935   1937   1938     1  0.0000000  0.7531200  3
   1934   1935   1937   1944     1  0.0000000  0.6508444  3
   1934   1952   1939   1938     1  180.0000771  0.4184000  2
   1934   1952   1939   1938     1  0.0000000  1.6024720  3
   1934   1952   1939   1943     1  0.0000000  1.6038667  3
   1935   1934   1945   1950     1  0.0000000  0.6508444  3
   1935   1934   1952   1939     1  180.0000771  0.4184000  2
   1935   1934   1952   1939     1  0.0000000  1.6024720  3
   1935   1937   1938   1939     1  180.0000771  0.8368000  1
   1935   1937   1938   1939     1  180.0000771  1.0460000  2
   1935   1937   1938   1939     1  0.0000000  0.7531200  3
   1935   1937   1938   1957     1  0.0000000  0.6508444  3
   1937   1935   1934   1945     1  180.0000771  0.8368000  1
   1937   1935   1934   1945     1  180.0000771  1.0460000  2
   1937   1935   1934   1945     1  0.0000000  0.7531200  3
   1937   1935   1934   1952     1  0.0000000  0.6508444  3
   1937   1938   1939   1943     1  0.0000000  0.6508444  3
   1937   1938   1939   1952     1  0.0000000  0.6508444  3
   1938   1937   1935   1955     1  0.0000000  0.6508444  3
   1939   1938   1937   1944     1  0.0000000  0.6508444  3
   1939   1952   1934   1945     1  180.0000771  0.4184000  2
   1939   1952   1934   1945     1  0.0000000  1.6024720  3
   1943   1939   1938   1957     1  0.0000000  0.6508444  3
   1944   1937   1935   1955     1  0.0000000  4.9162000  2
   1944   1937   1935   1955     1  0.0000000  0.6024960  3
   1944   1937   1938   1957     1  0.0000000  0.6508444  3
   1945   1934   1935   1955     1  0.0000000  0.6508444  3
   1950   1945   1934   1952     1  0.0000000  4.9162000  2
   1950   1945   1934   1952     1  0.0000000  0.6024960  3
   1952   1934   1935   1955     1  0.0000000  4.9162000  2
   1952   1934   1935   1955     1  0.0000000  0.6024960  3
   1952   1939   1938   1957     1  0.0000000  0.6508444  3
   1958   1959   1961   1962     1  180.0000771  0.8368000  1
   1958   1959   1961   1962     1  180.0000771  1.0460000  2
   1958   1959   1961   1962     1  0.0000000  0.7531200  3
   1958   1959   1961   1968     1  0.0000000  0.6508444  3
   1958   1976   1963   1962     1  180.0000771  0.4184000  2
   1958   1976   1963   1962     1  0.0000000  1.6024720  3
   1958   1976   1963   1967     1  0.0000000  1.6038667  3
   1959   1958   1969   1974     1  0.0000000  0.6508444  3
   1959   1958   1976   1963     1  180.0000771  0.4184000  2
   1959   1958   1976   1963     1  0.0000000  1.6024720  3
   1959   1961   1962   1963     1  180.0000771  0.8368000  1
   1959   1961   1962   1963     1  180.0000771  1.0460000  2
   1959   1961   1962   1963     1  0.0000000  0.7531200  3
   1959   1961   1962   1981     1  0.0000000  0.6508444  3
   1961   1959   1958   1969     1  180.0000771  0.8368000  1
   1961   1959   1958   1969     1  180.0000771  1.0460000  2
   1961   1959   1958   1969     1  0.0000000  0.7531200  3
   1961   1959   1958   1976     1  0.0000000  0.6508444  3
   1961   1962   1963   1967     1  0.0000000  0.6508444  3
   1961   1962   1963   1976     1  0.0000000  0.6508444  3
   1962   1961   1959   1979     1  0.0000000  0.6508444  3
   1963   1962   1961   1968     1  0.0000000  0.6508444  3
   1963   1976   1958   1969     1  180.0000771  0.4184000  2
   1963   1976   1958   1969     1  0.0000000  1.6024720  3
   1967   1963   1962   1981     1  0.0000000  0.6508444  3
   1968   1961   1959   1979     1  0.0000000  4.9162000  2
   1968   1961   1959   1979     1  0.0000000  0.6024960  3
   1968   1961   1962   1981     1  0.0000000  0.6508444  3
   1969   1958   1959   1979     1  0.0000000  0.6508444  3
   1974   1969   1958   1976     1  0.0000000  4.9162000  2
   1974   1969   1958   1976     1  0.0000000  0.6024960  3
   1976   1958   1959   1979     1  0.0000000  4.9162000  2
   1976   1958   1959   1979     1  0.0000000  0.6024960  3
   1976   1963   1962   1981     1  0.0000000  0.6508444  3
   1982   1984   1986   1990     1  0.0000000  0.6508444  3
   1984   1986   1990   1991     1  180.0000771  2.0083200  2
   1984   1986   1990   1991     1  0.0000000  1.2552000  3
   1984   1986   1990   1992     1  180.0000771  2.0083200  2
   1984   1986   1990   1992     1  0.0000000  1.2552000  3
   1986   1990   1991   2002     1  180.0000771  2.0083200  2
   1986   1990   1991   2002     1  0.0000000  1.2552000  3
   1986   1990   1992   1994     1  180.0000771  2.0083200  2
   1986   1990   1992   1994     1  0.0000000  1.2552000  3
   1990   1991   2002   2005     1  0.0000000  0.6508444  3
   1990   1992   1994   1998     1  0.0000000  0.6508444  3
   1991   2002   2005   2006     1  180.0000771  0.0000000  2
   1991   2002   2005   2054     1  180.0000771  0.0000000  2
   1991   1990   1992   1994     1  180.0000771  2.0083200  2
   1991   1990   1992   1994     1  0.0000000  1.2552000  3
   1992   1994   1998   1999     1  180.0000771  0.0000000  2
   1992   1994   1998   2030     1  180.0000771  0.0000000  2
   1992   1990   1991   2002     1  180.0000771  2.0083200  2
   1992   1990   1991   2002     1  0.0000000  1.2552000  3
   1994   1998   2030   2011     1  180.0000771  6.0668000  2
   1994   1998   2030   2011     1  180.0000771  1.4644000  4
   1998   2030   2011   2012     1  0.0000000  1.2552000  3
   1998   2030   2011   2010     1  0.0000000  1.2552000  3
   1999   1998   2030   2011     1  180.0000771  6.0668000  2
   1999   1998   2030   2011     1  180.0000771  1.4644000  4
   2002   2005   2054   2035     1  180.0000771  6.0668000  2
   2002   2005   2054   2035     1  180.0000771  1.4644000  4
   2005   2054   2035   2036     1  0.0000000  1.2552000  3
   2005   2054   2035   2034     1  0.0000000  1.2552000  3
   2006   2005   2054   2035     1  180.0000771  6.0668000  2
   2006   2005   2054   2035     1  180.0000771  1.4644000  4
   2007   2008   2010   2011     1  180.0000771  0.8368000  1
   2007   2008   2010   2011     1  180.0000771  1.0460000  2
   2007   2008   2010   2011     1  0.0000000  0.7531200  3
   2007   2008   2010   2017     1  0.0000000  0.6508444  3
   2007   2025   2012   2016     1  0.0000000  1.6038667  3
   2007   2025   2012   2011     1  180.0000771  0.4184000  2
   2007   2025   2012   2011     1  0.0000000  1.6024720  3
   2008   2010   2011   2012     1  180.0000771  0.8368000  1
   2008   2010   2011   2012     1  180.0000771  1.0460000  2
   2008   2010   2011   2012     1  0.0000000  0.7531200  3
   2008   2010   2011   2030     1  0.0000000  0.6508444  3
   2008   2007   2018   2023     1  0.0000000  0.6508444  3
   2008   2007   2025   2012     1  180.0000771  0.4184000  2
   2008   2007   2025   2012     1  0.0000000  1.6024720  3
   2010   2011   2012   2016     1  0.0000000  0.6508444  3
   2010   2011   2012   2025     1  0.0000000  0.6508444  3
   2010   2008   2007   2018     1  180.0000771  0.8368000  1
   2010   2008   2007   2018     1  180.0000771  1.0460000  2
   2010   2008   2007   2018     1  0.0000000  0.7531200  3
   2010   2008   2007   2025     1  0.0000000  0.6508444  3
   2011   2010   2008   2028     1  0.0000000  0.6508444  3
   2012   2025   2007   2018     1  180.0000771  0.4184000  2
   2012   2025   2007   2018     1  0.0000000  1.6024720  3
   2012   2011   2010   2017     1  0.0000000  0.6508444  3
   2016   2012   2011   2030     1  0.0000000  0.6508444  3
   2017   2010   2011   2030     1  0.0000000  0.6508444  3
   2017   2010   2008   2028     1  0.0000000  4.9162000  2
   2017   2010   2008   2028     1  0.0000000  0.6024960  3
   2018   2007   2008   2028     1  0.0000000  0.6508444  3
   2023   2018   2007   2025     1  0.0000000  4.9162000  2
   2023   2018   2007   2025     1  0.0000000  0.6024960  3
   2025   2012   2011   2030     1  0.0000000  0.6508444  3
   2025   2007   2008   2028     1  0.0000000  4.9162000  2
   2025   2007   2008   2028     1  0.0000000  0.6024960  3
   2031   2032   2034   2035     1  180.0000771  0.8368000  1
   2031   2032   2034   2035     1  180.0000771  1.0460000  2
   2031   2032   2034   2035     1  0.0000000  0.7531200  3
   2031   2032   2034   2041     1  0.0000000  0.6508444  3
   2031   2049   2036   2040     1  0.0000000  1.6038667  3
   2031   2049   2036   2035     1  180.0000771  0.4184000  2
   2031   2049   2036   2035     1  0.0000000  1.6024720  3
   2032   2034   2035   2036     1  180.0000771  0.8368000  1
   2032   2034   2035   2036     1  180.0000771  1.0460000  2
   2032   2034   2035   2036     1  0.0000000  0.7531200  3
   2032   2034   2035   2054     1  0.0000000  0.6508444  3
   2032   2031   2042   2047     1  0.0000000  0.6508444  3
   2032   2031   2049   2036     1  180.0000771  0.4184000  2
   2032   2031   2049   2036     1  0.0000000  1.6024720  3
   2034   2035   2036   2040     1  0.0000000  0.6508444  3
   2034   2035   2036   2049     1  0.0000000  0.6508444  3
   2034   2032   2031   2042     1  180.0000771  0.8368000  1
   2034   2032   2031   2042     1  180.0000771  1.0460000  2
   2034   2032   2031   2042     1  0.0000000  0.7531200  3
   2034   2032   2031   2049     1  0.0000000  0.6508444  3
   2035   2034   2032   2052     1  0.0000000  0.6508444  3
   2036   2049   2031   2042     1  180.0000771  0.4184000  2
   2036   2049   2031   2042     1  0.0000000  1.6024720  3
   2036   2035   2034   2041     1  0.0000000  0.6508444  3
   2040   2036   2035   2054     1  0.0000000  0.6508444  3
   2041   2034   2035   2054     1  0.0000000  0.6508444  3
   2041   2034   2032   2052     1  0.0000000  4.9162000  2
   2041   2034   2032   2052     1  0.0000000  0.6024960  3
   2042   2031   2032   2052     1  0.0000000  0.6508444  3
   2047   2042   2031   2049     1  0.0000000  4.9162000  2
   2047   2042   2031   2049     1  0.0000000  0.6024960  3
   2049   2036   2035   2054     1  0.0000000  0.6508444  3
   2049   2031   2032   2052     1  0.0000000  4.9162000  2
   2049   2031   2032   2052     1  0.0000000  0.6024960  3
   2055   2057   2059   2063     1  0.0000000  0.6508444  3
   2057   2059   2063   2064     1  180.0000771  2.0083200  2
   2057   2059   2063   2064     1  0.0000000  1.2552000  3
   2057   2059   2063   2065     1  180.0000771  2.0083200  2
   2057   2059   2063   2065     1  0.0000000  1.2552000  3
   2059   2063   2064   2075     1  180.0000771  2.0083200  2
   2059   2063   2064   2075     1  0.0000000  1.2552000  3
   2059   2063   2065   2067     1  180.0000771  2.0083200  2
   2059   2063   2065   2067     1  0.0000000  1.2552000  3
   2063   2064   2075   2078     1  0.0000000  0.6508444  3
   2063   2065   2067   2071     1  0.0000000  0.6508444  3
   2064   2063   2065   2067     1  180.0000771  2.0083200  2
   2064   2063   2065   2067     1  0.0000000  1.2552000  3
   2064   2075   2078   2079     1  180.0000771  0.0000000  2
   2064   2075   2078   2127     1  180.0000771  0.0000000  2
   2065   2063   2064   2075     1  180.0000771  2.0083200  2
   2065   2063   2064   2075     1  0.0000000  1.2552000  3
   2065   2067   2071   2072     1  180.0000771  0.0000000  2
   2065   2067   2071   2103     1  180.0000771  0.0000000  2
   2067   2071   2103   2084     1  180.0000771  6.0668000  2
   2067   2071   2103   2084     1  180.0000771  1.4644000  4
   2071   2103   2084   2083     1  0.0000000  1.2552000  3
   2071   2103   2084   2085     1  0.0000000  1.2552000  3
   2072   2071   2103   2084     1  180.0000771  6.0668000  2
   2072   2071   2103   2084     1  180.0000771  1.4644000  4
   2075   2078   2127   2108     1  180.0000771  6.0668000  2
   2075   2078   2127   2108     1  180.0000771  1.4644000  4
   2078   2127   2108   2107     1  0.0000000  1.2552000  3
   2078   2127   2108   2109     1  0.0000000  1.2552000  3
   2079   2078   2127   2108     1  180.0000771  6.0668000  2
   2079   2078   2127   2108     1  180.0000771  1.4644000  4
   2080   2081   2083   2084     1  180.0000771  0.8368000  1
   2080   2081   2083   2084     1  180.0000771  1.0460000  2
   2080   2081   2083   2084     1  0.0000000  0.7531200  3
   2080   2081   2083   2090     1  0.0000000  0.6508444  3
   2080   2098   2085   2084     1  180.0000771  0.4184000  2
   2080   2098   2085   2084     1  0.0000000  1.6024720  3
   2080   2098   2085   2089     1  0.0000000  1.6038667  3
   2081   2080   2091   2096     1  0.0000000  0.6508444  3
   2081   2080   2098   2085     1  180.0000771  0.4184000  2
   2081   2080   2098   2085     1  0.0000000  1.6024720  3
   2081   2083   2084   2085     1  180.0000771  0.8368000  1
   2081   2083   2084   2085     1  180.0000771  1.0460000  2
   2081   2083   2084   2085     1  0.0000000  0.7531200  3
   2081   2083   2084   2103     1  0.0000000  0.6508444  3
   2083   2081   2080   2091     1  180.0000771  0.8368000  1
   2083   2081   2080   2091     1  180.0000771  1.0460000  2
   2083   2081   2080   2091     1  0.0000000  0.7531200  3
   2083   2081   2080   2098     1  0.0000000  0.6508444  3
   2083   2084   2085   2089     1  0.0000000  0.6508444  3
   2083   2084   2085   2098     1  0.0000000  0.6508444  3
   2084   2083   2081   2101     1  0.0000000  0.6508444  3
   2085   2084   2083   2090     1  0.0000000  0.6508444  3
   2085   2098   2080   2091     1  180.0000771  0.4184000  2
   2085   2098   2080   2091     1  0.0000000  1.6024720  3
   2089   2085   2084   2103     1  0.0000000  0.6508444  3
   2090   2083   2081   2101     1  0.0000000  4.9162000  2
   2090   2083   2081   2101     1  0.0000000  0.6024960  3
   2090   2083   2084   2103     1  0.0000000  0.6508444  3
   2091   2080   2081   2101     1  0.0000000  0.6508444  3
   2096   2091   2080   2098     1  0.0000000  4.9162000  2
   2096   2091   2080   2098     1  0.0000000  0.6024960  3
   2098   2080   2081   2101     1  0.0000000  4.9162000  2
   2098   2080   2081   2101     1  0.0000000  0.6024960  3
   2098   2085   2084   2103     1  0.0000000  0.6508444  3
   2104   2105   2107   2108     1  180.0000771  0.8368000  1
   2104   2105   2107   2108     1  180.0000771  1.0460000  2
   2104   2105   2107   2108     1  0.0000000  0.7531200  3
   2104   2105   2107   2114     1  0.0000000  0.6508444  3
   2104   2122   2109   2108     1  180.0000771  0.4184000  2
   2104   2122   2109   2108     1  0.0000000  1.6024720  3
   2104   2122   2109   2113     1  0.0000000  1.6038667  3
   2105   2104   2115   2120     1  0.0000000  0.6508444  3
   2105   2104   2122   2109     1  180.0000771  0.4184000  2
   2105   2104   2122   2109     1  0.0000000  1.6024720  3
   2105   2107   2108   2109     1  180.0000771  0.8368000  1
   2105   2107   2108   2109     1  180.0000771  1.0460000  2
   2105   2107   2108   2109     1  0.0000000  0.7531200  3
   2105   2107   2108   2127     1  0.0000000  0.6508444  3
   2107   2105   2104   2115     1  180.0000771  0.8368000  1
   2107   2105   2104   2115     1  180.0000771  1.0460000  2
   2107   2105   2104   2115     1  0.0000000  0.7531200  3
   2107   2105   2104   2122     1  0.0000000  0.6508444  3
   2107   2108   2109   2113     1  0.0000000  0.6508444  3
   2107   2108   2109   2122     1  0.0000000  0.6508444  3
   2108   2107   2105   2125     1  0.0000000  0.6508444  3
   2109   2108   2107   2114     1  0.0000000  0.6508444  3
   2109   2122   2104   2115     1  180.0000771  0.4184000  2
   2109   2122   2104   2115     1  0.0000000  1.6024720  3
   2113   2109   2108   2127     1  0.0000000  0.6508444  3
   2114   2107   2105   2125     1  0.0000000  4.9162000  2
   2114   2107   2105   2125     1  0.0000000  0.6024960  3
   2114   2107   2108   2127     1  0.0000000  0.6508444  3
   2115   2104   2105   2125     1  0.0000000  0.6508444  3
   2120   2115   2104   2122     1  0.0000000  4.9162000  2
   2120   2115   2104   2122     1  0.0000000  0.6024960  3
   2122   2104   2105   2125     1  0.0000000  4.9162000  2
   2122   2104   2105   2125     1  0.0000000  0.6024960  3
   2122   2109   2108   2127     1  0.0000000  0.6508444  3
   2128   2130   2132   2136     1  0.0000000  0.6508444  3
   2130   2132   2136   2137     1  180.0000771  2.0083200  2
   2130   2132   2136   2137     1  0.0000000  1.2552000  3
   2130   2132   2136   2138     1  180.0000771  2.0083200  2
   2130   2132   2136   2138     1  0.0000000  1.2552000  3
   2132   2136   2137   2148     1  180.0000771  2.0083200  2
   2132   2136   2137   2148     1  0.0000000  1.2552000  3
   2132   2136   2138   2140     1  180.0000771  2.0083200  2
   2132   2136   2138   2140     1  0.0000000  1.2552000  3
   2136   2137   2148   2151     1  0.0000000  0.6508444  3
   2136   2138   2140   2144     1  0.0000000  0.6508444  3
   2137   2148   2151   2152     1  180.0000771  0.0000000  2
   2137   2148   2151   2200     1  180.0000771  0.0000000  2
   2137   2136   2138   2140     1  180.0000771  2.0083200  2
   2137   2136   2138   2140     1  0.0000000  1.2552000  3
   2138   2140   2144   2145     1  180.0000771  0.0000000  2
   2138   2140   2144   2176     1  180.0000771  0.0000000  2
   2138   2136   2137   2148     1  180.0000771  2.0083200  2
   2138   2136   2137   2148     1  0.0000000  1.2552000  3
   2140   2144   2176   2157     1  180.0000771  6.0668000  2
   2140   2144   2176   2157     1  180.0000771  1.4644000  4
   2144   2176   2157   2158     1  0.0000000  1.2552000  3
   2144   2176   2157   2156     1  0.0000000  1.2552000  3
   2145   2144   2176   2157     1  180.0000771  6.0668000  2
   2145   2144   2176   2157     1  180.0000771  1.4644000  4
   2148   2151   2200   2181     1  180.0000771  6.0668000  2
   2148   2151   2200   2181     1  180.0000771  1.4644000  4
   2151   2200   2181   2182     1  0.0000000  1.2552000  3
   2151   2200   2181   2180     1  0.0000000  1.2552000  3
   2152   2151   2200   2181     1  180.0000771  6.0668000  2
   2152   2151   2200   2181     1  180.0000771  1.4644000  4
   2153   2154   2156   2157     1  180.0000771  0.8368000  1
   2153   2154   2156   2157     1  180.0000771  1.0460000  2
   2153   2154   2156   2157     1  0.0000000  0.7531200  3
   2153   2154   2156   2163     1  0.0000000  0.6508444  3
   2153   2171   2158   2162     1  0.0000000  1.6038667  3
   2153   2171   2158   2157     1  180.0000771  0.4184000  2
   2153   2171   2158   2157     1  0.0000000  1.6024720  3
   2154   2156   2157   2158     1  180.0000771  0.8368000  1
   2154   2156   2157   2158     1  180.0000771  1.0460000  2
   2154   2156   2157   2158     1  0.0000000  0.7531200  3
   2154   2156   2157   2176     1  0.0000000  0.6508444  3
   2154   2153   2164   2169     1  0.0000000  0.6508444  3
   2154   2153   2171   2158     1  180.0000771  0.4184000  2
   2154   2153   2171   2158     1  0.0000000  1.6024720  3
   2156   2157   2158   2162     1  0.0000000  0.6508444  3
   2156   2157   2158   2171     1  0.0000000  0.6508444  3
   2156   2154   2153   2164     1  180.0000771  0.8368000  1
   2156   2154   2153   2164     1  180.0000771  1.0460000  2
   2156   2154   2153   2164     1  0.0000000  0.7531200  3
   2156   2154   2153   2171     1  0.0000000  0.6508444  3
   2157   2156   2154   2174     1  0.0000000  0.6508444  3
   2158   2171   2153   2164     1  180.0000771  0.4184000  2
   2158   2171   2153   2164     1  0.0000000  1.6024720  3
   2158   2157   2156   2163     1  0.0000000  0.6508444  3
   2162   2158   2157   2176     1  0.0000000  0.6508444  3
   2163   2156   2157   2176     1  0.0000000  0.6508444  3
   2163   2156   2154   2174     1  0.0000000  4.9162000  2
   2163   2156   2154   2174     1  0.0000000  0.6024960  3
   2164   2153   2154   2174     1  0.0000000  0.6508444  3
   2169   2164   2153   2171     1  0.0000000  4.9162000  2
   2169   2164   2153   2171     1  0.0000000  0.6024960  3
   2171   2158   2157   2176     1  0.0000000  0.6508444  3
   2171   2153   2154   2174     1  0.0000000  4.9162000  2
   2171   2153   2154   2174     1  0.0000000  0.6024960  3
   2177   2178   2180   2181     1  180.0000771  0.8368000  1
   2177   2178   2180   2181     1  180.0000771  1.0460000  2
   2177   2178   2180   2181     1  0.0000000  0.7531200  3
   2177   2178   2180   2187     1  0.0000000  0.6508444  3
   2177   2195   2182   2186     1  0.0000000  1.6038667  3
   2177   2195   2182   2181     1  180.0000771  0.4184000  2
   2177   2195   2182   2181     1  0.0000000  1.6024720  3
   2178   2180   2181   2182     1  180.0000771  0.8368000  1
   2178   2180   2181   2182     1  180.0000771  1.0460000  2
   2178   2180   2181   2182     1  0.0000000  0.7531200  3
   2178   2180   2181   2200     1  0.0000000  0.6508444  3
   2178   2177   2188   2193     1  0.0000000  0.6508444  3
   2178   2177   2195   2182     1  180.0000771  0.4184000  2
   2178   2177   2195   2182     1  0.0000000  1.6024720  3
   2180   2181   2182   2186     1  0.0000000  0.6508444  3
   2180   2181   2182   2195     1  0.0000000  0.6508444  3
   2180   2178   2177   2188     1  180.0000771  0.8368000  1
   2180   2178   2177   2188     1  180.0000771  1.0460000  2
   2180   2178   2177   2188     1  0.0000000  0.7531200  3
   2180   2178   2177   2195     1  0.0000000  0.6508444  3
   2181   2180   2178   2198     1  0.0000000  0.6508444  3
   2182   2195   2177   2188     1  180.0000771  0.4184000  2
   2182   2195   2177   2188     1  0.0000000  1.6024720  3
   2182   2181   2180   2187     1  0.0000000  0.6508444  3
   2186   2182   2181   2200     1  0.0000000  0.6508444  3
   2187   2180   2181   2200     1  0.0000000  0.6508444  3
   2187   2180   2178   2198     1  0.0000000  4.9162000  2
   2187   2180   2178   2198     1  0.0000000  0.6024960  3
   2188   2177   2178   2198     1  0.0000000  0.6508444  3
   2193   2188   2177   2195     1  0.0000000  4.9162000  2
   2193   2188   2177   2195     1  0.0000000  0.6024960  3
   2195   2182   2181   2200     1  0.0000000  0.6508444  3
   2195   2177   2178   2198     1  0.0000000  4.9162000  2
   2195   2177   2178   2198     1  0.0000000  0.6024960  3
   2201   2203   2205   2209     1  0.0000000  0.6508444  3
   2203   2205   2209   2210     1  180.0000771  2.0083200  2
   2203   2205   2209   2210     1  0.0000000  1.2552000  3
   2203   2205   2209   2211     1  180.0000771  2.0083200  2
   2203   2205   2209   2211     1  0.0000000  1.2552000  3
   2205   2209   2210   2221     1  180.0000771  2.0083200  2
   2205   2209   2210   2221     1  0.0000000  1.2552000  3
   2205   2209   2211   2213     1  180.0000771  2.0083200  2
   2205   2209   2211   2213     1  0.0000000  1.2552000  3
   2209   2210   2221   2224     1  0.0000000  0.6508444  3
   2209   2211   2213   2217     1  0.0000000  0.6508444  3
   2210   2209   2211   2213     1  180.0000771  2.0083200  2
   2210   2209   2211   2213     1  0.0000000  1.2552000  3
   2210   2221   2224   2225     1  180.0000771  0.0000000  2
   2210   2221   2224   2273     1  180.0000771  0.0000000  2
   2211   2209   2210   2221     1  180.0000771  2.0083200  2
   2211   2209   2210   2221     1  0.0000000  1.2552000  3
   2211   2213   2217   2218     1  180.0000771  0.0000000  2
   2211   2213   2217   2249     1  180.0000771  0.0000000  2
   2213   2217   2249   2230     1  180.0000771  6.0668000  2
   2213   2217   2249   2230     1  180.0000771  1.4644000  4
   2217   2249   2230   2229     1  0.0000000  1.2552000  3
   2217   2249   2230   2231     1  0.0000000  1.2552000  3
   2218   2217   2249   2230     1  180.0000771  6.0668000  2
   2218   2217   2249   2230     1  180.0000771  1.4644000  4
   2221   2224   2273   2254     1  180.0000771  6.0668000  2
   2221   2224   2273   2254     1  180.0000771  1.4644000  4
   2224   2273   2254   2253     1  0.0000000  1.2552000  3
   2224   2273   2254   2255     1  0.0000000  1.2552000  3
   2225   2224   2273   2254     1  180.0000771  6.0668000  2
   2225   2224   2273   2254     1  180.0000771  1.4644000  4
   2226   2227   2229   2230     1  180.0000771  0.8368000  1
   2226   2227   2229   2230     1  180.0000771  1.0460000  2
   2226   2227   2229   2230     1  0.0000000  0.7531200  3
   2226   2227   2229   2236     1  0.0000000  0.6508444  3
   2226   2244   2231   2230     1  180.0000771  0.4184000  2
   2226   2244   2231   2230     1  0.0000000  1.6024720  3
   2226   2244   2231   2235     1  0.0000000  1.6038667  3
   2227   2226   2237   2242     1  0.0000000  0.6508444  3
   2227   2226   2244   2231     1  180.0000771  0.4184000  2
   2227   2226   2244   2231     1  0.0000000  1.6024720  3
   2227   2229   2230   2231     1  180.0000771  0.8368000  1
   2227   2229   2230   2231     1  180.0000771  1.0460000  2
   2227   2229   2230   2231     1  0.0000000  0.7531200  3
   2227   2229   2230   2249     1  0.0000000  0.6508444  3
   2229   2227   2226   2237     1  180.0000771  0.8368000  1
   2229   2227   2226   2237     1  180.0000771  1.0460000  2
   2229   2227   2226   2237     1  0.0000000  0.7531200  3
   2229   2227   2226   2244     1  0.0000000  0.6508444  3
   2229   2230   2231   2235     1  0.0000000  0.6508444  3
   2229   2230   2231   2244     1  0.0000000  0.6508444  3
   2230   2229   2227   2247     1  0.0000000  0.6508444  3
   2231   2230   2229   2236     1  0.0000000  0.6508444  3
   2231   2244   2226   2237     1  180.0000771  0.4184000  2
   2231   2244   2226   2237     1  0.0000000  1.6024720  3
   2235   2231   2230   2249     1  0.0000000  0.6508444  3
   2236   2229   2227   2247     1  0.0000000  4.9162000  2
   2236   2229   2227   2247     1  0.0000000  0.6024960  3
   2236   2229   2230   2249     1  0.0000000  0.6508444  3
   2237   2226   2227   2247     1  0.0000000  0.6508444  3
   2242   2237   2226   2244     1  0.0000000  4.9162000  2
   2242   2237   2226   2244     1  0.0000000  0.6024960  3
   2244   2226   2227   2247     1  0.0000000  4.9162000  2
   2244   2226   2227   2247     1  0.0000000  0.6024960  3
   2244   2231   2230   2249     1  0.0000000  0.6508444  3
   2250   2251   2253   2254     1  180.0000771  0.8368000  1
   2250   2251   2253   2254     1  180.0000771  1.0460000  2
   2250   2251   2253   2254     1  0.0000000  0.7531200  3
   2250   2251   2253   2260     1  0.0000000  0.6508444  3
   2250   2268   2255   2254     1  180.0000771  0.4184000  2
   2250   2268   2255   2254     1  0.0000000  1.6024720  3
   2250   2268   2255   2259     1  0.0000000  1.6038667  3
   2251   2250   2261   2266     1  0.0000000  0.6508444  3
   2251   2250   2268   2255     1  180.0000771  0.4184000  2
   2251   2250   2268   2255     1  0.0000000  1.6024720  3
   2251   2253   2254   2255     1  180.0000771  0.8368000  1
   2251   2253   2254   2255     1  180.0000771  1.0460000  2
   2251   2253   2254   2255     1  0.0000000  0.7531200  3
   2251   2253   2254   2273     1  0.0000000  0.6508444  3
   2253   2251   2250   2261     1  180.0000771  0.8368000  1
   2253   2251   2250   2261     1  180.0000771  1.0460000  2
   2253   2251   2250   2261     1  0.0000000  0.7531200  3
   2253   2251   2250   2268     1  0.0000000  0.6508444  3
   2253   2254   2255   2259     1  0.0000000  0.6508444  3
   2253   2254   2255   2268     1  0.0000000  0.6508444  3
   2254   2253   2251   2271     1  0.0000000  0.6508444  3
   2255   2254   2253   2260     1  0.0000000  0.6508444  3
   2255   2268   2250   2261     1  180.0000771  0.4184000  2
   2255   2268   2250   2261     1  0.0000000  1.6024720  3
   2259   2255   2254   2273     1  0.0000000  0.6508444  3
   2260   2253   2251   2271     1  0.0000000  4.9162000  2
   2260   2253   2251   2271     1  0.0000000  0.6024960  3
   2260   2253   2254   2273     1  0.0000000  0.6508444  3
   2261   2250   2251   2271     1  0.0000000  0.6508444  3
   2266   2261   2250   2268     1  0.0000000  4.9162000  2
   2266   2261   2250   2268     1  0.0000000  0.6024960  3
   2268   2250   2251   2271     1  0.0000000  4.9162000  2
   2268   2250   2251   2271     1  0.0000000  0.6024960  3
   2268   2255   2254   2273     1  0.0000000  0.6508444  3
   2274   2276   2278   2282     1  0.0000000  0.6508444  3
   2276   2278   2282   2283     1  180.0000771  2.0083200  2
   2276   2278   2282   2283     1  0.0000000  1.2552000  3
   2276   2278   2282   2284     1  180.0000771  2.0083200  2
   2276   2278   2282   2284     1  0.0000000  1.2552000  3
   2278   2282   2283   2294     1  180.0000771  2.0083200  2
   2278   2282   2283   2294     1  0.0000000  1.2552000  3
   2278   2282   2284   2286     1  180.0000771  2.0083200  2
   2278   2282   2284   2286     1  0.0000000  1.2552000  3
   2282   2283   2294   2297     1  0.0000000  0.6508444  3
   2282   2284   2286   2290     1  0.0000000  0.6508444  3
   2283   2294   2297   2298     1  180.0000771  0.0000000  2
   2283   2294   2297   2346     1  180.0000771  0.0000000  2
   2283   2282   2284   2286     1  180.0000771  2.0083200  2
   2283   2282   2284   2286     1  0.0000000  1.2552000  3
   2284   2286   2290   2291     1  180.0000771  0.0000000  2
   2284   2286   2290   2322     1  180.0000771  0.0000000  2
   2284   2282   2283   2294     1  180.0000771  2.0083200  2
   2284   2282   2283   2294     1  0.0000000  1.2552000  3
   2286   2290   2322   2303     1  180.0000771  6.0668000  2
   2286   2290   2322   2303     1  180.0000771  1.4644000  4
   2290   2322   2303   2304     1  0.0000000  1.2552000  3
   2290   2322   2303   2302     1  0.0000000  1.2552000  3
   2291   2290   2322   2303     1  180.0000771  6.0668000  2
   2291   2290   2322   2303     1  180.0000771  1.4644000  4
   2294   2297   2346   2327     1  180.0000771  6.0668000  2
   2294   2297   2346   2327     1  180.0000771  1.4644000  4
   2297   2346   2327   2328     1  0.0000000  1.2552000  3
   2297   2346   2327   2326     1  0.0000000  1.2552000  3
   2298   2297   2346   2327     1  180.0000771  6.0668000  2
   2298   2297   2346   2327     1  180.0000771  1.4644000  4
   2299   2300   2302   2303     1  180.0000771  0.8368000  1
   2299   2300   2302   2303     1  180.0000771  1.0460000  2
   2299   2300   2302   2303     1  0.0000000  0.7531200  3
   2299   2300   2302   2309     1  0.0000000  0.6508444  3
   2299   2317   2304   2308     1  0.0000000  1.6038667  3
   2299   2317   2304   2303     1  180.0000771  0.4184000  2
   2299   2317   2304   2303     1  0.0000000  1.6024720  3
   2300   2302   2303   2304     1  180.0000771  0.8368000  1
   2300   2302   2303   2304     1  180.0000771  1.0460000  2
   2300   2302   2303   2304     1  0.0000000  0.7531200  3
   2300   2302   2303   2322     1  0.0000000  0.6508444  3
   2300   2299   2310   2315     1  0.0000000  0.6508444  3
   2300   2299   2317   2304     1  180.0000771  0.4184000  2
   2300   2299   2317   2304     1  0.0000000  1.6024720  3
   2302   2303   2304   2308     1  0.0000000  0.6508444  3
   2302   2303   2304   2317     1  0.0000000  0.6508444  3
   2302   2300   2299   2310     1  180.0000771  0.8368000  1
   2302   2300   2299   2310     1  180.0000771  1.0460000  2
   2302   2300   2299   2310     1  0.0000000  0.7531200  3
   2302   2300   2299   2317     1  0.0000000  0.6508444  3
   2303   2302   2300   2320     1  0.0000000  0.6508444  3
   2304   2317   2299   2310     1  180.0000771  0.4184000  2
   2304   2317   2299   2310     1  0.0000000  1.6024720  3
   2304   2303   2302   2309     1  0.0000000  0.6508444  3
   2308   2304   2303   2322     1  0.0000000  0.6508444  3
   2309   2302   2303   2322     1  0.0000000  0.6508444  3
   2309   2302   2300   2320     1  0.0000000  4.9162000  2
   2309   2302   2300   2320     1  0.0000000  0.6024960  3
   2310   2299   2300   2320     1  0.0000000  0.6508444  3
   2315   2310   2299   2317     1  0.0000000  4.9162000  2
   2315   2310   2299   2317     1  0.0000000  0.6024960  3
   2317   2304   2303   2322     1  0.0000000  0.6508444  3
   2317   2299   2300   2320     1  0.0000000  4.9162000  2
   2317   2299   2300   2320     1  0.0000000  0.6024960  3
   2323   2324   2326   2327     1  180.0000771  0.8368000  1
   2323   2324   2326   2327     1  180.0000771  1.0460000  2
   2323   2324   2326   2327     1  0.0000000  0.7531200  3
   2323   2324   2326   2333     1  0.0000000  0.6508444  3
   2323   2341   2328   2332     1  0.0000000  1.6038667  3
   2323   2341   2328   2327     1  180.0000771  0.4184000  2
   2323   2341   2328   2327     1  0.0000000  1.6024720  3
   2324   2326   2327   2328     1  180.0000771  0.8368000  1
   2324   2326   2327   2328     1  180.0000771  1.0460000  2
   2324   2326   2327   2328     1  0.0000000  0.7531200  3
   2324   2326   2327   2346     1  0.0000000  0.6508444  3
   2324   2323   2334   2339     1  0.0000000  0.6508444  3
   2324   2323   2341   2328     1  180.0000771  0.4184000  2
   2324   2323   2341   2328     1  0.0000000  1.6024720  3
   2326   2327   2328   2332     1  0.0000000  0.6508444  3
   2326   2327   2328   2341     1  0.0000000  0.6508444  3
   2326   2324   2323   2334     1  180.0000771  0.8368000  1
   2326   2324   2323   2334     1  180.0000771  1.0460000  2
   2326   2324   2323   2334     1  0.0000000  0.7531200  3
   2326   2324   2323   2341     1  0.0000000  0.6508444  3
   2327   2326   2324   2344     1  0.0000000  0.6508444  3
   2328   2341   2323   2334     1  180.0000771  0.4184000  2
   2328   2341   2323   2334     1  0.0000000  1.6024720  3
   2328   2327   2326   2333     1  0.0000000  0.6508444  3
   2332   2328   2327   2346     1  0.0000000  0.6508444  3
   2333   2326   2327   2346     1  0.0000000  0.6508444  3
   2333   2326   2324   2344     1  0.0000000  4.9162000  2
   2333   2326   2324   2344     1  0.0000000  0.6024960  3
   2334   2323   2324   2344     1  0.0000000  0.6508444  3
   2339   2334   2323   2341     1  0.0000000  4.9162000  2
   2339   2334   2323   2341     1  0.0000000  0.6024960  3
   2341   2328   2327   2346     1  0.0000000  0.6508444  3
   2341   2323   2324   2344     1  0.0000000  4.9162000  2
   2341   2323   2324   2344     1  0.0000000  0.6024960  3
   2347   2349   2351   2355     1  0.0000000  0.6508444  3
   2349   2351   2355   2356     1  180.0000771  2.0083200  2
   2349   2351   2355   2356     1  0.0000000  1.2552000  3
   2349   2351   2355   2357     1  180.0000771  2.0083200  2
   2349   2351   2355   2357     1  0.0000000  1.2552000  3
   2351   2355   2356   2367     1  180.0000771  2.0083200  2
   2351   2355   2356   2367     1  0.0000000  1.2552000  3
   2351   2355   2357   2359     1  180.0000771  2.0083200  2
   2351   2355   2357   2359     1  0.0000000  1.2552000  3
   2355   2356   2367   2370     1  0.0000000  0.6508444  3
   2355   2357   2359   2363     1  0.0000000  0.6508444  3
   2356   2355   2357   2359     1  180.0000771  2.0083200  2
   2356   2355   2357   2359     1  0.0000000  1.2552000  3
   2356   2367   2370   2371     1  180.0000771  0.0000000  2
   2356   2367   2370   2419     1  180.0000771  0.0000000  2
   2357   2355   2356   2367     1  180.0000771  2.0083200  2
   2357   2355   2356   2367     1  0.0000000  1.2552000  3
   2357   2359   2363   2364     1  180.0000771  0.0000000  2
   2357   2359   2363   2395     1  180.0000771  0.0000000  2
   2359   2363   2395   2376     1  180.0000771  6.0668000  2
   2359   2363   2395   2376     1  180.0000771  1.4644000  4
   2363   2395   2376   2375     1  0.0000000  1.2552000  3
   2363   2395   2376   2377     1  0.0000000  1.2552000  3
   2364   2363   2395   2376     1  180.0000771  6.0668000  2
   2364   2363   2395   2376     1  180.0000771  1.4644000  4
   2367   2370   2419   2400     1  180.0000771  6.0668000  2
   2367   2370   2419   2400     1  180.0000771  1.4644000  4
   2370   2419   2400   2399     1  0.0000000  1.2552000  3
   2370   2419   2400   2401     1  0.0000000  1.2552000  3
   2371   2370   2419   2400     1  180.0000771  6.0668000  2
   2371   2370   2419   2400     1  180.0000771  1.4644000  4
   2372   2373   2375   2376     1  180.0000771  0.8368000  1
   2372   2373   2375   2376     1  180.0000771  1.0460000  2
   2372   2373   2375   2376     1  0.0000000  0.7531200  3
   2372   2373   2375   2382     1  0.0000000  0.6508444  3
   2372   2390   2377   2376     1  180.0000771  0.4184000  2
   2372   2390   2377   2376     1  0.0000000  1.6024720  3
   2372   2390   2377   2381     1  0.0000000  1.6038667  3
   2373   2372   2383   2388     1  0.0000000  0.6508444  3
   2373   2372   2390   2377     1  180.0000771  0.4184000  2
   2373   2372   2390   2377     1  0.0000000  1.6024720  3
   2373   2375   2376   2377     1  180.0000771  0.8368000  1
   2373   2375   2376   2377     1  180.0000771  1.0460000  2
   2373   2375   2376   2377     1  0.0000000  0.7531200  3
   2373   2375   2376   2395     1  0.0000000  0.6508444  3
   2375   2373   2372   2383     1  180.0000771  0.8368000  1
   2375   2373   2372   2383     1  180.0000771  1.0460000  2
   2375   2373   2372   2383     1  0.0000000  0.7531200  3
   2375   2373   2372   2390     1  0.0000000  0.6508444  3
   2375   2376   2377   2381     1  0.0000000  0.6508444  3
   2375   2376   2377   2390     1  0.0000000  0.6508444  3
   2376   2375   2373   2393     1  0.0000000  0.6508444  3
   2377   2376   2375   2382     1  0.0000000  0.6508444  3
   2377   2390   2372   2383     1  180.0000771  0.4184000  2
   2377   2390   2372   2383     1  0.0000000  1.6024720  3
   2381   2377   2376   2395     1  0.0000000  0.6508444  3
   2382   2375   2373   2393     1  0.0000000  4.9162000  2
   2382   2375   2373   2393     1  0.0000000  0.6024960  3
   2382   2375   2376   2395     1  0.0000000  0.6508444  3
   2383   2372   2373   2393     1  0.0000000  0.6508444  3
   2388   2383   2372   2390     1  0.0000000  4.9162000  2
   2388   2383   2372   2390     1  0.0000000  0.6024960  3
   2390   2372   2373   2393     1  0.0000000  4.9162000  2
   2390   2372   2373   2393     1  0.0000000  0.6024960  3
   2390   2377   2376   2395     1  0.0000000  0.6508444  3
   2396   2397   2399   2400     1  180.0000771  0.8368000  1
   2396   2397   2399   2400     1  180.0000771  1.0460000  2
   2396   2397   2399   2400     1  0.0000000  0.7531200  3
   2396   2397   2399   2406     1  0.0000000  0.6508444  3
   2396   2414   2401   2400     1  180.0000771  0.4184000  2
   2396   2414   2401   2400     1  0.0000000  1.6024720  3
   2396   2414   2401   2405     1  0.0000000  1.6038667  3
   2397   2396   2407   2412     1  0.0000000  0.6508444  3
   2397   2396   2414   2401     1  180.0000771  0.4184000  2
   2397   2396   2414   2401     1  0.0000000  1.6024720  3
   2397   2399   2400   2401     1  180.0000771  0.8368000  1
   2397   2399   2400   2401     1  180.0000771  1.0460000  2
   2397   2399   2400   2401     1  0.0000000  0.7531200  3
   2397   2399   2400   2419     1  0.0000000  0.6508444  3
   2399   2397   2396   2407     1  180.0000771  0.8368000  1
   2399   2397   2396   2407     1  180.0000771  1.0460000  2
   2399   2397   2396   2407     1  0.0000000  0.7531200  3
   2399   2397   2396   2414     1  0.0000000  0.6508444  3
   2399   2400   2401   2405     1  0.0000000  0.6508444  3
   2399   2400   2401   2414     1  0.0000000  0.6508444  3
   2400   2399   2397   2417     1  0.0000000  0.6508444  3
   2401   2400   2399   2406     1  0.0000000  0.6508444  3
   2401   2414   2396   2407     1  180.0000771  0.4184000  2
   2401   2414   2396   2407     1  0.0000000  1.6024720  3
   2405   2401   2400   2419     1  0.0000000  0.6508444  3
   2406   2399   2397   2417     1  0.0000000  4.9162000  2
   2406   2399   2397   2417     1  0.0000000  0.6024960  3
   2406   2399   2400   2419     1  0.0000000  0.6508444  3
   2407   2396   2397   2417     1  0.0000000  0.6508444  3
   2412   2407   2396   2414     1  0.0000000  4.9162000  2
   2412   2407   2396   2414     1  0.0000000  0.6024960  3
   2414   2396   2397   2417     1  0.0000000  4.9162000  2
   2414   2396   2397   2417     1  0.0000000  0.6024960  3
   2414   2401   2400   2419     1  0.0000000  0.6508444  3
   2420   2422   2424   2428     1  0.0000000  0.6508444  3
   2422   2424   2428   2429     1  180.0000771  2.0083200  2
   2422   2424   2428   2429     1  0.0000000  1.2552000  3
   2422   2424   2428   2430     1  180.0000771  2.0083200  2
   2422   2424   2428   2430     1  0.0000000  1.2552000  3
   2424   2428   2429   2440     1  180.0000771  2.0083200  2
   2424   2428   2429   2440     1  0.0000000  1.2552000  3
   2424   2428   2430   2432     1  180.0000771  2.0083200  2
   2424   2428   2430   2432     1  0.0000000  1.2552000  3
   2428   2429   2440   2443     1  0.0000000  0.6508444  3
   2428   2430   2432   2436     1  0.0000000  0.6508444  3
   2429   2440   2443   2444     1  180.0000771  0.0000000  2
   2429   2440   2443   2492     1  180.0000771  0.0000000  2
   2429   2428   2430   2432     1  180.0000771  2.0083200  2
   2429   2428   2430   2432     1  0.0000000  1.2552000  3
   2430   2432   2436   2437     1  180.0000771  0.0000000  2
   2430   2432   2436   2468     1  180.0000771  0.0000000  2
   2430   2428   2429   2440     1  180.0000771  2.0083200  2
   2430   2428   2429   2440     1  0.0000000  1.2552000  3
   2432   2436   2468   2449     1  180.0000771  6.0668000  2
   2432   2436   2468   2449     1  180.0000771  1.4644000  4
   2436   2468   2449   2450     1  0.0000000  1.2552000  3
   2436   2468   2449   2448     1  0.0000000  1.2552000  3
   2437   2436   2468   2449     1  180.0000771  6.0668000  2
   2437   2436   2468   2449     1  180.0000771  1.4644000  4
   2440   2443   2492   2473     1  180.0000771  6.0668000  2
   2440   2443   2492   2473     1  180.0000771  1.4644000  4
   2443   2492   2473   2474     1  0.0000000  1.2552000  3
   2443   2492   2473   2472     1  0.0000000  1.2552000  3
   2444   2443   2492   2473     1  180.0000771  6.0668000  2
   2444   2443   2492   2473     1  180.0000771  1.4644000  4
   2445   2446   2448   2449     1  180.0000771  0.8368000  1
   2445   2446   2448   2449     1  180.0000771  1.0460000  2
   2445   2446   2448   2449     1  0.0000000  0.7531200  3
   2445   2446   2448   2455     1  0.0000000  0.6508444  3
   2445   2463   2450   2454     1  0.0000000  1.6038667  3
   2445   2463   2450   2449     1  180.0000771  0.4184000  2
   2445   2463   2450   2449     1  0.0000000  1.6024720  3
   2446   2448   2449   2450     1  180.0000771  0.8368000  1
   2446   2448   2449   2450     1  180.0000771  1.0460000  2
   2446   2448   2449   2450     1  0.0000000  0.7531200  3
   2446   2448   2449   2468     1  0.0000000  0.6508444  3
   2446   2445   2456   2461     1  0.0000000  0.6508444  3
   2446   2445   2463   2450     1  180.0000771  0.4184000  2
   2446   2445   2463   2450     1  0.0000000  1.6024720  3
   2448   2449   2450   2454     1  0.0000000  0.6508444  3
   2448   2449   2450   2463     1  0.0000000  0.6508444  3
   2448   2446   2445   2456     1  180.0000771  0.8368000  1
   2448   2446   2445   2456     1  180.0000771  1.0460000  2
   2448   2446   2445   2456     1  0.0000000  0.7531200  3
   2448   2446   2445   2463     1  0.0000000  0.6508444  3
   2449   2448   2446   2466     1  0.0000000  0.6508444  3
   2450   2463   2445   2456     1  180.0000771  0.4184000  2
   2450   2463   2445   2456     1  0.0000000  1.6024720  3
   2450   2449   2448   2455     1  0.0000000  0.6508444  3
   2454   2450   2449   2468     1  0.0000000  0.6508444  3
   2455   2448   2449   2468     1  0.0000000  0.6508444  3
   2455   2448   2446   2466     1  0.0000000  4.9162000  2
   2455   2448   2446   2466     1  0.0000000  0.6024960  3
   2456   2445   2446   2466     1  0.0000000  0.6508444  3
   2461   2456   2445   2463     1  0.0000000  4.9162000  2
   2461   2456   2445   2463     1  0.0000000  0.6024960  3
   2463   2450   2449   2468     1  0.0000000  0.6508444  3
   2463   2445   2446   2466     1  0.0000000  4.9162000  2
   2463   2445   2446   2466     1  0.0000000  0.6024960  3
   2469   2470   2472   2473     1  180.0000771  0.8368000  1
   2469   2470   2472   2473     1  180.0000771  1.0460000  2
   2469   2470   2472   2473     1  0.0000000  0.7531200  3
   2469   2470   2472   2479     1  0.0000000  0.6508444  3
   2469   2487   2474   2478     1  0.0000000  1.6038667  3
   2469   2487   2474   2473     1  180.0000771  0.4184000  2
   2469   2487   2474   2473     1  0.0000000  1.6024720  3
   2470   2472   2473   2474     1  180.0000771  0.8368000  1
   2470   2472   2473   2474     1  180.0000771  1.0460000  2
   2470   2472   2473   2474     1  0.0000000  0.7531200  3
   2470   2472   2473   2492     1  0.0000000  0.6508444  3
   2470   2469   2480   2485     1  0.0000000  0.6508444  3
   2470   2469   2487   2474     1  180.0000771  0.4184000  2
   2470   2469   2487   2474     1  0.0000000  1.6024720  3
   2472   2473   2474   2478     1  0.0000000  0.6508444  3
   2472   2473   2474   2487     1  0.0000000  0.6508444  3
   2472   2470   2469   2480     1  180.0000771  0.8368000  1
   2472   2470   2469   2480     1  180.0000771  1.0460000  2
   2472   2470   2469   2480     1  0.0000000  0.7531200  3
   2472   2470   2469   2487     1  0.0000000  0.6508444  3
   2473   2472   2470   2490     1  0.0000000  0.6508444  3
   2474   2487   2469   2480     1  180.0000771  0.4184000  2
   2474   2487   2469   2480     1  0.0000000  1.6024720  3
   2474   2473   2472   2479     1  0.0000000  0.6508444  3
   2478   2474   2473   2492     1  0.0000000  0.6508444  3
   2479   2472   2473   2492     1  0.0000000  0.6508444  3
   2479   2472   2470   2490     1  0.0000000  4.9162000  2
   2479   2472   2470   2490     1  0.0000000  0.6024960  3
   2480   2469   2470   2490     1  0.0000000  0.6508444  3
   2485   2480   2469   2487     1  0.0000000  4.9162000  2
   2485   2480   2469   2487     1  0.0000000  0.6024960  3
   2487   2474   2473   2492     1  0.0000000  0.6508444  3
   2487   2469   2470   2490     1  0.0000000  4.9162000  2
   2487   2469   2470   2490     1  0.0000000  0.6024960  3
   2493   2495   2497   2501     1  0.0000000  0.6508444  3
   2495   2497   2501   2502     1  180.0000771  2.0083200  2
   2495   2497   2501   2502     1  0.0000000  1.2552000  3
   2495   2497   2501   2503     1  180.0000771  2.0083200  2
   2495   2497   2501   2503     1  0.0000000  1.2552000  3
   2497   2501   2502   2513     1  180.0000771  2.0083200  2
   2497   2501   2502   2513     1  0.0000000  1.2552000  3
   2497   2501   2503   2505     1  180.0000771  2.0083200  2
   2497   2501   2503   2505     1  0.0000000  1.2552000  3
   2501   2502   2513   2516     1  0.0000000  0.6508444  3
   2501   2503   2505   2509     1  0.0000000  0.6508444  3
   2502   2501   2503   2505     1  180.0000771  2.0083200  2
   2502   2501   2503   2505     1  0.0000000  1.2552000  3
   2502   2513   2516   2517     1  180.0000771  0.0000000  2
   2502   2513   2516   2565     1  180.0000771  0.0000000  2
   2503   2501   2502   2513     1  180.0000771  2.0083200  2
   2503   2501   2502   2513     1  0.0000000  1.2552000  3
   2503   2505   2509   2510     1  180.0000771  0.0000000  2
   2503   2505   2509   2541     1  180.0000771  0.0000000  2
   2505   2509   2541   2522     1  180.0000771  6.0668000  2
   2505   2509   2541   2522     1  180.0000771  1.4644000  4
   2509   2541   2522   2521     1  0.0000000  1.2552000  3
   2509   2541   2522   2523     1  0.0000000  1.2552000  3
   2510   2509   2541   2522     1  180.0000771  6.0668000  2
   2510   2509   2541   2522     1  180.0000771  1.4644000  4
   2513   2516   2565   2546     1  180.0000771  6.0668000  2
   2513   2516   2565   2546     1  180.0000771  1.4644000  4
   2516   2565   2546   2545     1  0.0000000  1.2552000  3
   2516   2565   2546   2547     1  0.0000000  1.2552000  3
   2517   2516   2565   2546     1  180.0000771  6.0668000  2
   2517   2516   2565   2546     1  180.0000771  1.4644000  4
   2518   2519   2521   2522     1  180.0000771  0.8368000  1
   2518   2519   2521   2522     1  180.0000771  1.0460000  2
   2518   2519   2521   2522     1  0.0000000  0.7531200  3
   2518   2519   2521   2528     1  0.0000000  0.6508444  3
   2518   2536   2523   2522     1  180.0000771  0.4184000  2
   2518   2536   2523   2522     1  0.0000000  1.6024720  3
   2518   2536   2523   2527     1  0.0000000  1.6038667  3
   2519   2518   2529   2534     1  0.0000000  0.6508444  3
   2519   2518   2536   2523     1  180.0000771  0.4184000  2
   2519   2518   2536   2523     1  0.0000000  1.6024720  3
   2519   2521   2522   2523     1  180.0000771  0.8368000  1
   2519   2521   2522   2523     1  180.0000771  1.0460000  2
   2519   2521   2522   2523     1  0.0000000  0.7531200  3
   2519   2521   2522   2541     1  0.0000000  0.6508444  3
   2521   2519   2518   2529     1  180.0000771  0.8368000  1
   2521   2519   2518   2529     1  180.0000771  1.0460000  2
   2521   2519   2518   2529     1  0.0000000  0.7531200  3
   2521   2519   2518   2536     1  0.0000000  0.6508444  3
   2521   2522   2523   2527     1  0.0000000  0.6508444  3
   2521   2522   2523   2536     1  0.0000000  0.6508444  3
   2522   2521   2519   2539     1  0.0000000  0.6508444  3
   2523   2522   2521   2528     1  0.0000000  0.6508444  3
   2523   2536   2518   2529     1  180.0000771  0.4184000  2
   2523   2536   2518   2529     1  0.0000000  1.6024720  3
   2527   2523   2522   2541     1  0.0000000  0.6508444  3
   2528   2521   2519   2539     1  0.0000000  4.9162000  2
   2528   2521   2519   2539     1  0.0000000  0.6024960  3
   2528   2521   2522   2541     1  0.0000000  0.6508444  3
   2529   2518   2519   2539     1  0.0000000  0.6508444  3
   2534   2529   2518   2536     1  0.0000000  4.9162000  2
   2534   2529   2518   2536     1  0.0000000  0.6024960  3
   2536   2518   2519   2539     1  0.0000000  4.9162000  2
   2536   2518   2519   2539     1  0.0000000  0.6024960  3
   2536   2523   2522   2541     1  0.0000000  0.6508444  3
   2542   2543   2545   2546     1  180.0000771  0.8368000  1
   2542   2543   2545   2546     1  180.0000771  1.0460000  2
   2542   2543   2545   2546     1  0.0000000  0.7531200  3
   2542   2543   2545   2552     1  0.0000000  0.6508444  3
   2542   2560   2547   2546     1  180.0000771  0.4184000  2
   2542   2560   2547   2546     1  0.0000000  1.6024720  3
   2542   2560   2547   2551     1  0.0000000  1.6038667  3
   2543   2542   2553   2558     1  0.0000000  0.6508444  3
   2543   2542   2560   2547     1  180.0000771  0.4184000  2
   2543   2542   2560   2547     1  0.0000000  1.6024720  3
   2543   2545   2546   2547     1  180.0000771  0.8368000  1
   2543   2545   2546   2547     1  180.0000771  1.0460000  2
   2543   2545   2546   2547     1  0.0000000  0.7531200  3
   2543   2545   2546   2565     1  0.0000000  0.6508444  3
   2545   2543   2542   2553     1  180.0000771  0.8368000  1
   2545   2543   2542   2553     1  180.0000771  1.0460000  2
   2545   2543   2542   2553     1  0.0000000  0.7531200  3
   2545   2543   2542   2560     1  0.0000000  0.6508444  3
   2545   2546   2547   2551     1  0.0000000  0.6508444  3
   2545   2546   2547   2560     1  0.0000000  0.6508444  3
   2546   2545   2543   2563     1  0.0000000  0.6508444  3
   2547   2546   2545   2552     1  0.0000000  0.6508444  3
   2547   2560   2542   2553     1  180.0000771  0.4184000  2
   2547   2560   2542   2553     1  0.0000000  1.6024720  3
   2551   2547   2546   2565     1  0.0000000  0.6508444  3
   2552   2545   2543   2563     1  0.0000000  4.9162000  2
   2552   2545   2543   2563     1  0.0000000  0.6024960  3
   2552   2545   2546   2565     1  0.0000000  0.6508444  3
   2553   2542   2543   2563     1  0.0000000  0.6508444  3
   2558   2553   2542   2560     1  0.0000000  4.9162000  2
   2558   2553   2542   2560     1  0.0000000  0.6024960  3
   2560   2542   2543   2563     1  0.0000000  4.9162000  2
   2560   2542   2543   2563     1  0.0000000  0.6024960  3
   2560   2547   2546   2565     1  0.0000000  0.6508444  3
   2566   2568   2570   2574     1  0.0000000  0.6508444  3
   2568   2570   2574   2575     1  180.0000771  2.0083200  2
   2568   2570   2574   2575     1  0.0000000  1.2552000  3
   2568   2570   2574   2576     1  180.0000771  2.0083200  2
   2568   2570   2574   2576     1  0.0000000  1.2552000  3
   2570   2574   2575   2586     1  180.0000771  2.0083200  2
   2570   2574   2575   2586     1  0.0000000  1.2552000  3
   2570   2574   2576   2578     1  180.0000771  2.0083200  2
   2570   2574   2576   2578     1  0.0000000  1.2552000  3
   2574   2575   2586   2589     1  0.0000000  0.6508444  3
   2574   2576   2578   2582     1  0.0000000  0.6508444  3
   2575   2586   2589   2590     1  180.0000771  0.0000000  2
   2575   2586   2589   2638     1  180.0000771  0.0000000  2
   2575   2574   2576   2578     1  180.0000771  2.0083200  2
   2575   2574   2576   2578     1  0.0000000  1.2552000  3
   2576   2578   2582   2583     1  180.0000771  0.0000000  2
   2576   2578   2582   2614     1  180.0000771  0.0000000  2
   2576   2574   2575   2586     1  180.0000771  2.0083200  2
   2576   2574   2575   2586     1  0.0000000  1.2552000  3
   2578   2582   2614   2595     1  180.0000771  6.0668000  2
   2578   2582   2614   2595     1  180.0000771  1.4644000  4
   2582   2614   2595   2596     1  0.0000000  1.2552000  3
   2582   2614   2595   2594     1  0.0000000  1.2552000  3
   2583   2582   2614   2595     1  180.0000771  6.0668000  2
   2583   2582   2614   2595     1  180.0000771  1.4644000  4
   2586   2589   2638   2619     1  180.0000771  6.0668000  2
   2586   2589   2638   2619     1  180.0000771  1.4644000  4
   2589   2638   2619   2620     1  0.0000000  1.2552000  3
   2589   2638   2619   2618     1  0.0000000  1.2552000  3
   2590   2589   2638   2619     1  180.0000771  6.0668000  2
   2590   2589   2638   2619     1  180.0000771  1.4644000  4
   2591   2592   2594   2595     1  180.0000771  0.8368000  1
   2591   2592   2594   2595     1  180.0000771  1.0460000  2
   2591   2592   2594   2595     1  0.0000000  0.7531200  3
   2591   2592   2594   2601     1  0.0000000  0.6508444  3
   2591   2609   2596   2600     1  0.0000000  1.6038667  3
   2591   2609   2596   2595     1  180.0000771  0.4184000  2
   2591   2609   2596   2595     1  0.0000000  1.6024720  3
   2592   2594   2595   2596     1  180.0000771  0.8368000  1
   2592   2594   2595   2596     1  180.0000771  1.0460000  2
   2592   2594   2595   2596     1  0.0000000  0.7531200  3
   2592   2594   2595   2614     1  0.0000000  0.6508444  3
   2592   2591   2602   2607     1  0.0000000  0.6508444  3
   2592   2591   2609   2596     1  180.0000771  0.4184000  2
   2592   2591   2609   2596     1  0.0000000  1.6024720  3
   2594   2595   2596   2600     1  0.0000000  0.6508444  3
   2594   2595   2596   2609     1  0.0000000  0.6508444  3
   2594   2592   2591   2602     1  180.0000771  0.8368000  1
   2594   2592   2591   2602     1  180.0000771  1.0460000  2
   2594   2592   2591   2602     1  0.0000000  0.7531200  3
   2594   2592   2591   2609     1  0.0000000  0.6508444  3
   2595   2594   2592   2612     1  0.0000000  0.6508444  3
   2596   2609   2591   2602     1  180.0000771  0.4184000  2
   2596   2609   2591   2602     1  0.0000000  1.6024720  3
   2596   2595   2594   2601     1  0.0000000  0.6508444  3
   2600   2596   2595   2614     1  0.0000000  0.6508444  3
   2601   2594   2595   2614     1  0.0000000  0.6508444  3
   2601   2594   2592   2612     1  0.0000000  4.9162000  2
   2601   2594   2592   2612     1  0.0000000  0.6024960  3
   2602   2591   2592   2612     1  0.0000000  0.6508444  3
   2607   2602   2591   2609     1  0.0000000  4.9162000  2
   2607   2602   2591   2609     1  0.0000000  0.6024960  3
   2609   2596   2595   2614     1  0.0000000  0.6508444  3
   2609   2591   2592   2612     1  0.0000000  4.9162000  2
   2609   2591   2592   2612     1  0.0000000  0.6024960  3
   2615   2616   2618   2619     1  180.0000771  0.8368000  1
   2615   2616   2618   2619     1  180.0000771  1.0460000  2
   2615   2616   2618   2619     1  0.0000000  0.7531200  3
   2615   2616   2618   2625     1  0.0000000  0.6508444  3
   2615   2633   2620   2624     1  0.0000000  1.6038667  3
   2615   2633   2620   2619     1  180.0000771  0.4184000  2
   2615   2633   2620   2619     1  0.0000000  1.6024720  3
   2616   2618   2619   2620     1  180.0000771  0.8368000  1
   2616   2618   2619   2620     1  180.0000771  1.0460000  2
   2616   2618   2619   2620     1  0.0000000  0.7531200  3
   2616   2618   2619   2638     1  0.0000000  0.6508444  3
   2616   2615   2626   2631     1  0.0000000  0.6508444  3
   2616   2615   2633   2620     1  180.0000771  0.4184000  2
   2616   2615   2633   2620     1  0.0000000  1.6024720  3
   2618   2619   2620   2624     1  0.0000000  0.6508444  3
   2618   2619   2620   2633     1  0.0000000  0.6508444  3
   2618   2616   2615   2626     1  180.0000771  0.8368000  1
   2618   2616   2615   2626     1  180.0000771  1.0460000  2
   2618   2616   2615   2626     1  0.0000000  0.7531200  3
   2618   2616   2615   2633     1  0.0000000  0.6508444  3
   2619   2618   2616   2636     1  0.0000000  0.6508444  3
   2620   2633   2615   2626     1  180.0000771  0.4184000  2
   2620   2633   2615   2626     1  0.0000000  1.6024720  3
   2620   2619   2618   2625     1  0.0000000  0.6508444  3
   2624   2620   2619   2638     1  0.0000000  0.6508444  3
   2625   2618   2619   2638     1  0.0000000  0.6508444  3
   2625   2618   2616   2636     1  0.0000000  4.9162000  2
   2625   2618   2616   2636     1  0.0000000  0.6024960  3
   2626   2615   2616   2636     1  0.0000000  0.6508444  3
   2631   2626   2615   2633     1  0.0000000  4.9162000  2
   2631   2626   2615   2633     1  0.0000000  0.6024960  3
   2633   2620   2619   2638     1  0.0000000  0.6508444  3
   2633   2615   2616   2636     1  0.0000000  4.9162000  2
   2633   2615   2616   2636     1  0.0000000  0.6024960  3
   2639   2641   2643   2647     1  0.0000000  0.6508444  3
   2641   2643   2647   2648     1  180.0000771  2.0083200  2
   2641   2643   2647   2648     1  0.0000000  1.2552000  3
   2641   2643   2647   2649     1  180.0000771  2.0083200  2
   2641   2643   2647   2649     1  0.0000000  1.2552000  3
   2643   2647   2648   2659     1  180.0000771  2.0083200  2
   2643   2647   2648   2659     1  0.0000000  1.2552000  3
   2643   2647   2649   2651     1  180.0000771  2.0083200  2
   2643   2647   2649   2651     1  0.0000000  1.2552000  3
   2647   2648   2659   2662     1  0.0000000  0.6508444  3
   2647   2649   2651   2655     1  0.0000000  0.6508444  3
   2648   2647   2649   2651     1  180.0000771  2.0083200  2
   2648   2647   2649   2651     1  0.0000000  1.2552000  3
   2648   2659   2662   2663     1  180.0000771  0.0000000  2
   2648   2659   2662   2711     1  180.0000771  0.0000000  2
   2649   2647   2648   2659     1  180.0000771  2.0083200  2
   2649   2647   2648   2659     1  0.0000000  1.2552000  3
   2649   2651   2655   2656     1  180.0000771  0.0000000  2
   2649   2651   2655   2687     1  180.0000771  0.0000000  2
   2651   2655   2687   2668     1  180.0000771  6.0668000  2
   2651   2655   2687   2668     1  180.0000771  1.4644000  4
   2655   2687   2668   2667     1  0.0000000  1.2552000  3
   2655   2687   2668   2669     1  0.0000000  1.2552000  3
   2656   2655   2687   2668     1  180.0000771  6.0668000  2
   2656   2655   2687   2668     1  180.0000771  1.4644000  4
   2659   2662   2711   2692     1  180.0000771  6.0668000  2
   2659   2662   2711   2692     1  180.0000771  1.4644000  4
   2662   2711   2692   2691     1  0.0000000  1.2552000  3
   2662   2711   2692   2693     1  0.0000000  1.2552000  3
   2663   2662   2711   2692     1  180.0000771  6.0668000  2
   2663   2662   2711   2692     1  180.0000771  1.4644000  4
   2664   2665   2667   2668     1  180.0000771  0.8368000  1
   2664   2665   2667   2668     1  180.0000771  1.0460000  2
   2664   2665   2667   2668     1  0.0000000  0.7531200  3
   2664   2665   2667   2674     1  0.0000000  0.6508444  3
   2664   2682   2669   2668     1  180.0000771  0.4184000  2
   2664   2682   2669   2668     1  0.0000000  1.6024720  3
   2664   2682   2669   2673     1  0.0000000  1.6038667  3
   2665   2664   2675   2680     1  0.0000000  0.6508444  3
   2665   2664   2682   2669     1  180.0000771  0.4184000  2
   2665   2664   2682   2669     1  0.0000000  1.6024720  3
   2665   2667   2668   2669     1  180.0000771  0.8368000  1
   2665   2667   2668   2669     1  180.0000771  1.0460000  2
   2665   2667   2668   2669     1  0.0000000  0.7531200  3
   2665   2667   2668   2687     1  0.0000000  0.6508444  3
   2667   2665   2664   2675     1  180.0000771  0.8368000  1
   2667   2665   2664   2675     1  180.0000771  1.0460000  2
   2667   2665   2664   2675     1  0.0000000  0.7531200  3
   2667   2665   2664   2682     1  0.0000000  0.6508444  3
   2667   2668   2669   2673     1  0.0000000  0.6508444  3
   2667   2668   2669   2682     1  0.0000000  0.6508444  3
   2668   2667   2665   2685     1  0.0000000  0.6508444  3
   2669   2668   2667   2674     1  0.0000000  0.6508444  3
   2669   2682   2664   2675     1  180.0000771  0.4184000  2
   2669   2682   2664   2675     1  0.0000000  1.6024720  3
   2673   2669   2668   2687     1  0.0000000  0.6508444  3
   2674   2667   2665   2685     1  0.0000000  4.9162000  2
   2674   2667   2665   2685     1  0.0000000  0.6024960  3
   2674   2667   2668   2687     1  0.0000000  0.6508444  3
   2675   2664   2665   2685     1  0.0000000  0.6508444  3
   2680   2675   2664   2682     1  0.0000000  4.9162000  2
   2680   2675   2664   2682     1  0.0000000  0.6024960  3
   2682   2664   2665   2685     1  0.0000000  4.9162000  2
   2682   2664   2665   2685     1  0.0000000  0.6024960  3
   2682   2669   2668   2687     1  0.0000000  0.6508444  3
   2688   2689   2691   2692     1  180.0000771  0.8368000  1
   2688   2689   2691   2692     1  180.0000771  1.0460000  2
   2688   2689   2691   2692     1  0.0000000  0.7531200  3
   2688   2689   2691   2698     1  0.0000000  0.6508444  3
   2688   2706   2693   2692     1  180.0000771  0.4184000  2
   2688   2706   2693   2692     1  0.0000000  1.6024720  3
   2688   2706   2693   2697     1  0.0000000  1.6038667  3
   2689   2688   2699   2704     1  0.0000000  0.6508444  3
   2689   2688   2706   2693     1  180.0000771  0.4184000  2
   2689   2688   2706   2693     1  0.0000000  1.6024720  3
   2689   2691   2692   2693     1  180.0000771  0.8368000  1
   2689   2691   2692   2693     1  180.0000771  1.0460000  2
   2689   2691   2692   2693     1  0.0000000  0.7531200  3
   2689   2691   2692   2711     1  0.0000000  0.6508444  3
   2691   2689   2688   2699     1  180.0000771  0.8368000  1
   2691   2689   2688   2699     1  180.0000771  1.0460000  2
   2691   2689   2688   2699     1  0.0000000  0.7531200  3
   2691   2689   2688   2706     1  0.0000000  0.6508444  3
   2691   2692   2693   2697     1  0.0000000  0.6508444  3
   2691   2692   2693   2706     1  0.0000000  0.6508444  3
   2692   2691   2689   2709     1  0.0000000  0.6508444  3
   2693   2692   2691   2698     1  0.0000000  0.6508444  3
   2693   2706   2688   2699     1  180.0000771  0.4184000  2
   2693   2706   2688   2699     1  0.0000000  1.6024720  3
   2697   2693   2692   2711     1  0.0000000  0.6508444  3
   2698   2691   2689   2709     1  0.0000000  4.9162000  2
   2698   2691   2689   2709     1  0.0000000  0.6024960  3
   2698   2691   2692   2711     1  0.0000000  0.6508444  3
   2699   2688   2689   2709     1  0.0000000  0.6508444  3
   2704   2699   2688   2706     1  0.0000000  4.9162000  2
   2704   2699   2688   2706     1  0.0000000  0.6024960  3
   2706   2688   2689   2709     1  0.0000000  4.9162000  2
   2706   2688   2689   2709     1  0.0000000  0.6024960  3
   2706   2693   2692   2711     1  0.0000000  0.6508444  3
   2712   2714   2716   2720     1  0.0000000  0.6508444  3
   2714   2716   2720   2721     1  180.0000771  2.0083200  2
   2714   2716   2720   2721     1  0.0000000  1.2552000  3
   2714   2716   2720   2722     1  180.0000771  2.0083200  2
   2714   2716   2720   2722     1  0.0000000  1.2552000  3
   2716   2720   2721   2732     1  180.0000771  2.0083200  2
   2716   2720   2721   2732     1  0.0000000  1.2552000  3
   2716   2720   2722   2724     1  180.0000771  2.0083200  2
   2716   2720   2722   2724     1  0.0000000  1.2552000  3
   2720   2721   2732   2735     1  0.0000000  0.6508444  3
   2720   2722   2724   2728     1  0.0000000  0.6508444  3
   2721   2732   2735   2736     1  180.0000771  0.0000000  2
   2721   2732   2735   2784     1  180.0000771  0.0000000  2
   2721   2720   2722   2724     1  180.0000771  2.0083200  2
   2721   2720   2722   2724     1  0.0000000  1.2552000  3
   2722   2724   2728   2729     1  180.0000771  0.0000000  2
   2722   2724   2728   2760     1  180.0000771  0.0000000  2
   2722   2720   2721   2732     1  180.0000771  2.0083200  2
   2722   2720   2721   2732     1  0.0000000  1.2552000  3
   2724   2728   2760   2741     1  180.0000771  6.0668000  2
   2724   2728   2760   2741     1  180.0000771  1.4644000  4
   2728   2760   2741   2742     1  0.0000000  1.2552000  3
   2728   2760   2741   2740     1  0.0000000  1.2552000  3
   2729   2728   2760   2741     1  180.0000771  6.0668000  2
   2729   2728   2760   2741     1  180.0000771  1.4644000  4
   2732   2735   2784   2765     1  180.0000771  6.0668000  2
   2732   2735   2784   2765     1  180.0000771  1.4644000  4
   2735   2784   2765   2766     1  0.0000000  1.2552000  3
   2735   2784   2765   2764     1  0.0000000  1.2552000  3
   2736   2735   2784   2765     1  180.0000771  6.0668000  2
   2736   2735   2784   2765     1  180.0000771  1.4644000  4
   2737   2738   2740   2741     1  180.0000771  0.8368000  1
   2737   2738   2740   2741     1  180.0000771  1.0460000  2
   2737   2738   2740   2741     1  0.0000000  0.7531200  3
   2737   2738   2740   2747     1  0.0000000  0.6508444  3
   2737   2755   2742   2746     1  0.0000000  1.6038667  3
   2737   2755   2742   2741     1  180.0000771  0.4184000  2
   2737   2755   2742   2741     1  0.0000000  1.6024720  3
   2738   2740   2741   2742     1  180.0000771  0.8368000  1
   2738   2740   2741   2742     1  180.0000771  1.0460000  2
   2738   2740   2741   2742     1  0.0000000  0.7531200  3
   2738   2740   2741   2760     1  0.0000000  0.6508444  3
   2738   2737   2748   2753     1  0.0000000  0.6508444  3
   2738   2737   2755   2742     1  180.0000771  0.4184000  2
   2738   2737   2755   2742     1  0.0000000  1.6024720  3
   2740   2741   2742   2746     1  0.0000000  0.6508444  3
   2740   2741   2742   2755     1  0.0000000  0.6508444  3
   2740   2738   2737   2748     1  180.0000771  0.8368000  1
   2740   2738   2737   2748     1  180.0000771  1.0460000  2
   2740   2738   2737   2748     1  0.0000000  0.7531200  3
   2740   2738   2737   2755     1  0.0000000  0.6508444  3
   2741   2740   2738   2758     1  0.0000000  0.6508444  3
   2742   2755   2737   2748     1  180.0000771  0.4184000  2
   2742   2755   2737   2748     1  0.0000000  1.6024720  3
   2742   2741   2740   2747     1  0.0000000  0.6508444  3
   2746   2742   2741   2760     1  0.0000000  0.6508444  3
   2747   2740   2741   2760     1  0.0000000  0.6508444  3
   2747   2740   2738   2758     1  0.0000000  4.9162000  2
   2747   2740   2738   2758     1  0.0000000  0.6024960  3
   2748   2737   2738   2758     1  0.0000000  0.6508444  3
   2753   2748   2737   2755     1  0.0000000  4.9162000  2
   2753   2748   2737   2755     1  0.0000000  0.6024960  3
   2755   2742   2741   2760     1  0.0000000  0.6508444  3
   2755   2737   2738   2758     1  0.0000000  4.9162000  2
   2755   2737   2738   2758     1  0.0000000  0.6024960  3
   2761   2762   2764   2765     1  180.0000771  0.8368000  1
   2761   2762   2764   2765     1  180.0000771  1.0460000  2
   2761   2762   2764   2765     1  0.0000000  0.7531200  3
   2761   2762   2764   2771     1  0.0000000  0.6508444  3
   2761   2779   2766   2770     1  0.0000000  1.6038667  3
   2761   2779   2766   2765     1  180.0000771  0.4184000  2
   2761   2779   2766   2765     1  0.0000000  1.6024720  3
   2762   2764   2765   2766     1  180.0000771  0.8368000  1
   2762   2764   2765   2766     1  180.0000771  1.0460000  2
   2762   2764   2765   2766     1  0.0000000  0.7531200  3
   2762   2764   2765   2784     1  0.0000000  0.6508444  3
   2762   2761   2772   2777     1  0.0000000  0.6508444  3
   2762   2761   2779   2766     1  180.0000771  0.4184000  2
   2762   2761   2779   2766     1  0.0000000  1.6024720  3
   2764   2765   2766   2770     1  0.0000000  0.6508444  3
   2764   2765   2766   2779     1  0.0000000  0.6508444  3
   2764   2762   2761   2772     1  180.0000771  0.8368000  1
   2764   2762   2761   2772     1  180.0000771  1.0460000  2
   2764   2762   2761   2772     1  0.0000000  0.7531200  3
   2764   2762   2761   2779     1  0.0000000  0.6508444  3
   2765   2764   2762   2782     1  0.0000000  0.6508444  3
   2766   2779   2761   2772     1  180.0000771  0.4184000  2
   2766   2779   2761   2772     1  0.0000000  1.6024720  3
   2766   2765   2764   2771     1  0.0000000  0.6508444  3
   2770   2766   2765   2784     1  0.0000000  0.6508444  3
   2771   2764   2765   2784     1  0.0000000  0.6508444  3
   2771   2764   2762   2782     1  0.0000000  4.9162000  2
   2771   2764   2762   2782     1  0.0000000  0.6024960  3
   2772   2761   2762   2782     1  0.0000000  0.6508444  3
   2777   2772   2761   2779     1  0.0000000  4.9162000  2
   2777   2772   2761   2779     1  0.0000000  0.6024960  3
   2779   2766   2765   2784     1  0.0000000  0.6508444  3
   2779   2761   2762   2782     1  0.0000000  4.9162000  2
   2779   2761   2762   2782     1  0.0000000  0.6024960  3
   2785   2787   2789   2793     1  0.0000000  0.6508444  3
   2787   2789   2793   2794     1  180.0000771  2.0083200  2
   2787   2789   2793   2794     1  0.0000000  1.2552000  3
   2787   2789   2793   2795     1  180.0000771  2.0083200  2
   2787   2789   2793   2795     1  0.0000000  1.2552000  3
   2789   2793   2794   2805     1  180.0000771  2.0083200  2
   2789   2793   2794   2805     1  0.0000000  1.2552000  3
   2789   2793   2795   2797     1  180.0000771  2.0083200  2
   2789   2793   2795   2797     1  0.0000000  1.2552000  3
   2793   2794   2805   2808     1  0.0000000  0.6508444  3
   2793   2795   2797   2801     1  0.0000000  0.6508444  3
   2794   2793   2795   2797     1  180.0000771  2.0083200  2
   2794   2793   2795   2797     1  0.0000000  1.2552000  3
   2794   2805   2808   2809     1  180.0000771  0.0000000  2
   2794   2805   2808   2857     1  180.0000771  0.0000000  2
   2795   2793   2794   2805     1  180.0000771  2.0083200  2
   2795   2793   2794   2805     1  0.0000000  1.2552000  3
   2795   2797   2801   2802     1  180.0000771  0.0000000  2
   2795   2797   2801   2833     1  180.0000771  0.0000000  2
   2797   2801   2833   2814     1  180.0000771  6.0668000  2
   2797   2801   2833   2814     1  180.0000771  1.4644000  4
   2801   2833   2814   2813     1  0.0000000  1.2552000  3
   2801   2833   2814   2815     1  0.0000000  1.2552000  3
   2802   2801   2833   2814     1  180.0000771  6.0668000  2
   2802   2801   2833   2814     1  180.0000771  1.4644000  4
   2805   2808   2857   2838     1  180.0000771  6.0668000  2
   2805   2808   2857   2838     1  180.0000771  1.4644000  4
   2808   2857   2838   2837     1  0.0000000  1.2552000  3
   2808   2857   2838   2839     1  0.0000000  1.2552000  3
   2809   2808   2857   2838     1  180.0000771  6.0668000  2
   2809   2808   2857   2838     1  180.0000771  1.4644000  4
   2810   2811   2813   2814     1  180.0000771  0.8368000  1
   2810   2811   2813   2814     1  180.0000771  1.0460000  2
   2810   2811   2813   2814     1  0.0000000  0.7531200  3
   2810   2811   2813   2820     1  0.0000000  0.6508444  3
   2810   2828   2815   2814     1  180.0000771  0.4184000  2
   2810   2828   2815   2814     1  0.0000000  1.6024720  3
   2810   2828   2815   2819     1  0.0000000  1.6038667  3
   2811   2810   2821   2826     1  0.0000000  0.6508444  3
   2811   2810   2828   2815     1  180.0000771  0.4184000  2
   2811   2810   2828   2815     1  0.0000000  1.6024720  3
   2811   2813   2814   2815     1  180.0000771  0.8368000  1
   2811   2813   2814   2815     1  180.0000771  1.0460000  2
   2811   2813   2814   2815     1  0.0000000  0.7531200  3
   2811   2813   2814   2833     1  0.0000000  0.6508444  3
   2813   2811   2810   2821     1  180.0000771  0.8368000  1
   2813   2811   2810   2821     1  180.0000771  1.0460000  2
   2813   2811   2810   2821     1  0.0000000  0.7531200  3
   2813   2811   2810   2828     1  0.0000000  0.6508444  3
   2813   2814   2815   2819     1  0.0000000  0.6508444  3
   2813   2814   2815   2828     1  0.0000000  0.6508444  3
   2814   2813   2811   2831     1  0.0000000  0.6508444  3
   2815   2814   2813   2820     1  0.0000000  0.6508444  3
   2815   2828   2810   2821     1  180.0000771  0.4184000  2
   2815   2828   2810   2821     1  0.0000000  1.6024720  3
   2819   2815   2814   2833     1  0.0000000  0.6508444  3
   2820   2813   2811   2831     1  0.0000000  4.9162000  2
   2820   2813   2811   2831     1  0.0000000  0.6024960  3
   2820   2813   2814   2833     1  0.0000000  0.6508444  3
   2821   2810   2811   2831     1  0.0000000  0.6508444  3
   2826   2821   2810   2828     1  0.0000000  4.9162000  2
   2826   2821   2810   2828     1  0.0000000  0.6024960  3
   2828   2810   2811   2831     1  0.0000000  4.9162000  2
   2828   2810   2811   2831     1  0.0000000  0.6024960  3
   2828   2815   2814   2833     1  0.0000000  0.6508444  3
   2834   2835   2837   2838     1  180.0000771  0.8368000  1
   2834   2835   2837   2838     1  180.0000771  1.0460000  2
   2834   2835   2837   2838     1  0.0000000  0.7531200  3
   2834   2835   2837   2844     1  0.0000000  0.6508444  3
   2834   2852   2839   2838     1  180.0000771  0.4184000  2
   2834   2852   2839   2838     1  0.0000000  1.6024720  3
   2834   2852   2839   2843     1  0.0000000  1.6038667  3
   2835   2834   2845   2850     1  0.0000000  0.6508444  3
   2835   2834   2852   2839     1  180.0000771  0.4184000  2
   2835   2834   2852   2839     1  0.0000000  1.6024720  3
   2835   2837   2838   2839     1  180.0000771  0.8368000  1
   2835   2837   2838   2839     1  180.0000771  1.0460000  2
   2835   2837   2838   2839     1  0.0000000  0.7531200  3
   2835   2837   2838   2857     1  0.0000000  0.6508444  3
   2837   2835   2834   2845     1  180.0000771  0.8368000  1
   2837   2835   2834   2845     1  180.0000771  1.0460000  2
   2837   2835   2834   2845     1  0.0000000  0.7531200  3
   2837   2835   2834   2852     1  0.0000000  0.6508444  3
   2837   2838   2839   2843     1  0.0000000  0.6508444  3
   2837   2838   2839   2852     1  0.0000000  0.6508444  3
   2838   2837   2835   2855     1  0.0000000  0.6508444  3
   2839   2838   2837   2844     1  0.0000000  0.6508444  3
   2839   2852   2834   2845     1  180.0000771  0.4184000  2
   2839   2852   2834   2845     1  0.0000000  1.6024720  3
   2843   2839   2838   2857     1  0.0000000  0.6508444  3
   2844   2837   2835   2855     1  0.0000000  4.9162000  2
   2844   2837   2835   2855     1  0.0000000  0.6024960  3
   2844   2837   2838   2857     1  0.0000000  0.6508444  3
   2845   2834   2835   2855     1  0.0000000  0.6508444  3
   2850   2845   2834   2852     1  0.0000000  4.9162000  2
   2850   2845   2834   2852     1  0.0000000  0.6024960  3
   2852   2834   2835   2855     1  0.0000000  4.9162000  2
   2852   2834   2835   2855     1  0.0000000  0.6024960  3
   2852   2839   2838   2857     1  0.0000000  0.6508444  3
   2858   2860   2862   2866     1  0.0000000  0.6508444  3
   2860   2862   2866   2867     1  180.0000771  2.0083200  2
   2860   2862   2866   2867     1  0.0000000  1.2552000  3
   2860   2862   2866   2868     1  180.0000771  2.0083200  2
   2860   2862   2866   2868     1  0.0000000  1.2552000  3
   2862   2866   2867   2878     1  180.0000771  2.0083200  2
   2862   2866   2867   2878     1  0.0000000  1.2552000  3
   2862   2866   2868   2870     1  180.0000771  2.0083200  2
   2862   2866   2868   2870     1  0.0000000  1.2552000  3
   2866   2867   2878   2881     1  0.0000000  0.6508444  3
   2866   2868   2870   2874     1  0.0000000  0.6508444  3
   2867   2878   2881   2882     1  180.0000771  0.0000000  2
   2867   2878   2881   2930     1  180.0000771  0.0000000  2
   2867   2866   2868   2870     1  180.0000771  2.0083200  2
   2867   2866   2868   2870     1  0.0000000  1.2552000  3
   2868   2870   2874   2875     1  180.0000771  0.0000000  2
   2868   2870   2874   2906     1  180.0000771  0.0000000  2
   2868   2866   2867   2878     1  180.0000771  2.0083200  2
   2868   2866   2867   2878     1  0.0000000  1.2552000  3
   2870   2874   2906   2887     1  180.0000771  6.0668000  2
   2870   2874   2906   2887     1  180.0000771  1.4644000  4
   2874   2906   2887   2888     1  0.0000000  1.2552000  3
   2874   2906   2887   2886     1  0.0000000  1.2552000  3
   2875   2874   2906   2887     1  180.0000771  6.0668000  2
   2875   2874   2906   2887     1  180.0000771  1.4644000  4
   2878   2881   2930   2911     1  180.0000771  6.0668000  2
   2878   2881   2930   2911     1  180.0000771  1.4644000  4
   2881   2930   2911   2912     1  0.0000000  1.2552000  3
   2881   2930   2911   2910     1  0.0000000  1.2552000  3
   2882   2881   2930   2911     1  180.0000771  6.0668000  2
   2882   2881   2930   2911     1  180.0000771  1.4644000  4
   2883   2884   2886   2887     1  180.0000771  0.8368000  1
   2883   2884   2886   2887     1  180.0000771  1.0460000  2
   2883   2884   2886   2887     1  0.0000000  0.7531200  3
   2883   2884   2886   2893     1  0.0000000  0.6508444  3
   2883   2901   2888   2892     1  0.0000000  1.6038667  3
   2883   2901   2888   2887     1  180.0000771  0.4184000  2
   2883   2901   2888   2887     1  0.0000000  1.6024720  3
   2884   2886   2887   2888     1  180.0000771  0.8368000  1
   2884   2886   2887   2888     1  180.0000771  1.0460000  2
   2884   2886   2887   2888     1  0.0000000  0.7531200  3
   2884   2886   2887   2906     1  0.0000000  0.6508444  3
   2884   2883   2894   2899     1  0.0000000  0.6508444  3
   2884   2883   2901   2888     1  180.0000771  0.4184000  2
   2884   2883   2901   2888     1  0.0000000  1.6024720  3
   2886   2887   2888   2892     1  0.0000000  0.6508444  3
   2886   2887   2888   2901     1  0.0000000  0.6508444  3
   2886   2884   2883   2894     1  180.0000771  0.8368000  1
   2886   2884   2883   2894     1  180.0000771  1.0460000  2
   2886   2884   2883   2894     1  0.0000000  0.7531200  3
   2886   2884   2883   2901     1  0.0000000  0.6508444  3
   2887   2886   2884   2904     1  0.0000000  0.6508444  3
   2888   2901   2883   2894     1  180.0000771  0.4184000  2
   2888   2901   2883   2894     1  0.0000000  1.6024720  3
   2888   2887   2886   2893     1  0.0000000  0.6508444  3
   2892   2888   2887   2906     1  0.0000000  0.6508444  3
   2893   2886   2887   2906     1  0.0000000  0.6508444  3
   2893   2886   2884   2904     1  0.0000000  4.9162000  2
   2893   2886   2884   2904     1  0.0000000  0.6024960  3
   2894   2883   2884   2904     1  0.0000000  0.6508444  3
   2899   2894   2883   2901     1  0.0000000  4.9162000  2
   2899   2894   2883   2901     1  0.0000000  0.6024960  3
   2901   2888   2887   2906     1  0.0000000  0.6508444  3
   2901   2883   2884   2904     1  0.0000000  4.9162000  2
   2901   2883   2884   2904     1  0.0000000  0.6024960  3
   2907   2908   2910   2911     1  180.0000771  0.8368000  1
   2907   2908   2910   2911     1  180.0000771  1.0460000  2
   2907   2908   2910   2911     1  0.0000000  0.7531200  3
   2907   2908   2910   2917     1  0.0000000  0.6508444  3
   2907   2925   2912   2916     1  0.0000000  1.6038667  3
   2907   2925   2912   2911     1  180.0000771  0.4184000  2
   2907   2925   2912   2911     1  0.0000000  1.6024720  3
   2908   2910   2911   2912     1  180.0000771  0.8368000  1
   2908   2910   2911   2912     1  180.0000771  1.0460000  2
   2908   2910   2911   2912     1  0.0000000  0.7531200  3
   2908   2910   2911   2930     1  0.0000000  0.6508444  3
   2908   2907   2918   2923     1  0.0000000  0.6508444  3
   2908   2907   2925   2912     1  180.0000771  0.4184000  2
   2908   2907   2925   2912     1  0.0000000  1.6024720  3
   2910   2911   2912   2916     1  0.0000000  0.6508444  3
   2910   2911   2912   2925     1  0.0000000  0.6508444  3
   2910   2908   2907   2918     1  180.0000771  0.8368000  1
   2910   2908   2907   2918     1  180.0000771  1.0460000  2
   2910   2908   2907   2918     1  0.0000000  0.7531200  3
   2910   2908   2907   2925     1  0.0000000  0.6508444  3
   2911   2910   2908   2928     1  0.0000000  0.6508444  3
   2912   2925   2907   2918     1  180.0000771  0.4184000  2
   2912   2925   2907   2918     1  0.0000000  1.6024720  3
   2912   2911   2910   2917     1  0.0000000  0.6508444  3
   2916   2912   2911   2930     1  0.0000000  0.6508444  3
   2917   2910   2911   2930     1  0.0000000  0.6508444  3
   2917   2910   2908   2928     1  0.0000000  4.9162000  2
   2917   2910   2908   2928     1  0.0000000  0.6024960  3
   2918   2907   2908   2928     1  0.0000000  0.6508444  3
   2923   2918   2907   2925     1  0.0000000  4.9162000  2
   2923   2918   2907   2925     1  0.0000000  0.6024960  3
   2925   2912   2911   2930     1  0.0000000  0.6508444  3
   2925   2907   2908   2928     1  0.0000000  4.9162000  2
   2925   2907   2908   2928     1  0.0000000  0.6024960  3
   2931   2933   2935   2939     1  0.0000000  0.6508444  3
   2933   2935   2939   2940     1  180.0000771  2.0083200  2
   2933   2935   2939   2940     1  0.0000000  1.2552000  3
   2933   2935   2939   2941     1  180.0000771  2.0083200  2
   2933   2935   2939   2941     1  0.0000000  1.2552000  3
   2935   2939   2940   2951     1  180.0000771  2.0083200  2
   2935   2939   2940   2951     1  0.0000000  1.2552000  3
   2935   2939   2941   2943     1  180.0000771  2.0083200  2
   2935   2939   2941   2943     1  0.0000000  1.2552000  3
   2939   2940   2951   2954     1  0.0000000  0.6508444  3
   2939   2941   2943   2947     1  0.0000000  0.6508444  3
   2940   2939   2941   2943     1  180.0000771  2.0083200  2
   2940   2939   2941   2943     1  0.0000000  1.2552000  3
   2940   2951   2954   2955     1  180.0000771  0.0000000  2
   2940   2951   2954   3003     1  180.0000771  0.0000000  2
   2941   2939   2940   2951     1  180.0000771  2.0083200  2
   2941   2939   2940   2951     1  0.0000000  1.2552000  3
   2941   2943   2947   2948     1  180.0000771  0.0000000  2
   2941   2943   2947   2979     1  180.0000771  0.0000000  2
   2943   2947   2979   2960     1  180.0000771  6.0668000  2
   2943   2947   2979   2960     1  180.0000771  1.4644000  4
   2947   2979   2960   2959     1  0.0000000  1.2552000  3
   2947   2979   2960   2961     1  0.0000000  1.2552000  3
   2948   2947   2979   2960     1  180.0000771  6.0668000  2
   2948   2947   2979   2960     1  180.0000771  1.4644000  4
   2951   2954   3003   2984     1  180.0000771  6.0668000  2
   2951   2954   3003   2984     1  180.0000771  1.4644000  4
   2954   3003   2984   2983     1  0.0000000  1.2552000  3
   2954   3003   2984   2985     1  0.0000000  1.2552000  3
   2955   2954   3003   2984     1  180.0000771  6.0668000  2
   2955   2954   3003   2984     1  180.0000771  1.4644000  4
   2956   2957   2959   2960     1  180.0000771  0.8368000  1
   2956   2957   2959   2960     1  180.0000771  1.0460000  2
   2956   2957   2959   2960     1  0.0000000  0.7531200  3
   2956   2957   2959   2966     1  0.0000000  0.6508444  3
   2956   2974   2961   2960     1  180.0000771  0.4184000  2
   2956   2974   2961   2960     1  0.0000000  1.6024720  3
   2956   2974   2961   2965     1  0.0000000  1.6038667  3
   2957   2956   2967   2972     1  0.0000000  0.6508444  3
   2957   2956   2974   2961     1  180.0000771  0.4184000  2
   2957   2956   2974   2961     1  0.0000000  1.6024720  3
   2957   2959   2960   2961     1  180.0000771  0.8368000  1
   2957   2959   2960   2961     1  180.0000771  1.0460000  2
   2957   2959   2960   2961     1  0.0000000  0.7531200  3
   2957   2959   2960   2979     1  0.0000000  0.6508444  3
   2959   2957   2956   2967     1  180.0000771  0.8368000  1
   2959   2957   2956   2967     1  180.0000771  1.0460000  2
   2959   2957   2956   2967     1  0.0000000  0.7531200  3
   2959   2957   2956   2974     1  0.0000000  0.6508444  3
   2959   2960   2961   2965     1  0.0000000  0.6508444  3
   2959   2960   2961   2974     1  0.0000000  0.6508444  3
   2960   2959   2957   2977     1  0.0000000  0.6508444  3
   2961   2960   2959   2966     1  0.0000000  0.6508444  3
   2961   2974   2956   2967     1  180.0000771  0.4184000  2
   2961   2974   2956   2967     1  0.0000000  1.6024720  3
   2965   2961   2960   2979     1  0.0000000  0.6508444  3
   2966   2959   2957   2977     1  0.0000000  4.9162000  2
   2966   2959   2957   2977     1  0.0000000  0.6024960  3
   2966   2959   2960   2979     1  0.0000000  0.6508444  3
   2967   2956   2957   2977     1  0.0000000  0.6508444  3
   2972   2967   2956   2974     1  0.0000000  4.9162000  2
   2972   2967   2956   2974     1  0.0000000  0.6024960  3
   2974   2956   2957   2977     1  0.0000000  4.9162000  2
   2974   2956   2957   2977     1  0.0000000  0.6024960  3
   2974   2961   2960   2979     1  0.0000000  0.6508444  3
   2980   2981   2983   2984     1  180.0000771  0.8368000  1
   2980   2981   2983   2984     1  180.0000771  1.0460000  2
   2980   2981   2983   2984     1  0.0000000  0.7531200  3
   2980   2981   2983   2990     1  0.0000000  0.6508444  3
   2980   2998   2985   2984     1  180.0000771  0.4184000  2
   2980   2998   2985   2984     1  0.0000000  1.6024720  3
   2980   2998   2985   2989     1  0.0000000  1.6038667  3
   2981   2980   2991   2996     1  0.0000000  0.6508444  3
   2981   2980   2998   2985     1  180.0000771  0.4184000  2
   2981   2980   2998   2985     1  0.0000000  1.6024720  3
   2981   2983   2984   2985     1  180.0000771  0.8368000  1
   2981   2983   2984   2985     1  180.0000771  1.0460000  2
   2981   2983   2984   2985     1  0.0000000  0.7531200  3
   2981   2983   2984   3003     1  0.0000000  0.6508444  3
   2983   2981   2980   2991     1  180.0000771  0.8368000  1
   2983   2981   2980   2991     1  180.0000771  1.0460000  2
   2983   2981   2980   2991     1  0.0000000  0.7531200  3
   2983   2981   2980   2998     1  0.0000000  0.6508444  3
   2983   2984   2985   2989     1  0.0000000  0.6508444  3
   2983   2984   2985   2998     1  0.0000000  0.6508444  3
   2984   2983   2981   3001     1  0.0000000  0.6508444  3
   2985   2984   2983   2990     1  0.0000000  0.6508444  3
   2985   2998   2980   2991     1  180.0000771  0.4184000  2
   2985   2998   2980   2991     1  0.0000000  1.6024720  3
   2989   2985   2984   3003     1  0.0000000  0.6508444  3
   2990   2983   2981   3001     1  0.0000000  4.9162000  2
   2990   2983   2981   3001     1  0.0000000  0.6024960  3
   2990   2983   2984   3003     1  0.0000000  0.6508444  3
   2991   2980   2981   3001     1  0.0000000  0.6508444  3
   2996   2991   2980   2998     1  0.0000000  4.9162000  2
   2996   2991   2980   2998     1  0.0000000  0.6024960  3
   2998   2980   2981   3001     1  0.0000000  4.9162000  2
   2998   2980   2981   3001     1  0.0000000  0.6024960  3
   2998   2985   2984   3003     1  0.0000000  0.6508444  3
   3004   3006   3008   3012     1  0.0000000  0.6508444  3
   3006   3008   3012   3013     1  180.0000771  2.0083200  2
   3006   3008   3012   3013     1  0.0000000  1.2552000  3
   3006   3008   3012   3014     1  180.0000771  2.0083200  2
   3006   3008   3012   3014     1  0.0000000  1.2552000  3
   3008   3012   3013   3024     1  180.0000771  2.0083200  2
   3008   3012   3013   3024     1  0.0000000  1.2552000  3
   3008   3012   3014   3016     1  180.0000771  2.0083200  2
   3008   3012   3014   3016     1  0.0000000  1.2552000  3
   3012   3013   3024   3027     1  0.0000000  0.6508444  3
   3012   3014   3016   3020     1  0.0000000  0.6508444  3
   3013   3024   3027   3028     1  180.0000771  0.0000000  2
   3013   3024   3027   3076     1  180.0000771  0.0000000  2
   3013   3012   3014   3016     1  180.0000771  2.0083200  2
   3013   3012   3014   3016     1  0.0000000  1.2552000  3
   3014   3016   3020   3021     1  180.0000771  0.0000000  2
   3014   3016   3020   3052     1  180.0000771  0.0000000  2
   3014   3012   3013   3024     1  180.0000771  2.0083200  2
   3014   3012   3013   3024     1  0.0000000  1.2552000  3
   3016   3020   3052   3033     1  180.0000771  6.0668000  2
   3016   3020   3052   3033     1  180.0000771  1.4644000  4
   3020   3052   3033   3034     1  0.0000000  1.2552000  3
   3020   3052   3033   3032     1  0.0000000  1.2552000  3
   3021   3020   3052   3033     1  180.0000771  6.0668000  2
   3021   3020   3052   3033     1  180.0000771  1.4644000  4
   3024   3027   3076   3057     1  180.0000771  6.0668000  2
   3024   3027   3076   3057     1  180.0000771  1.4644000  4
   3027   3076   3057   3058     1  0.0000000  1.2552000  3
   3027   3076   3057   3056     1  0.0000000  1.2552000  3
   3028   3027   3076   3057     1  180.0000771  6.0668000  2
   3028   3027   3076   3057     1  180.0000771  1.4644000  4
   3029   3030   3032   3033     1  180.0000771  0.8368000  1
   3029   3030   3032   3033     1  180.0000771  1.0460000  2
   3029   3030   3032   3033     1  0.0000000  0.7531200  3
   3029   3030   3032   3039     1  0.0000000  0.6508444  3
   3029   3047   3034   3038     1  0.0000000  1.6038667  3
   3029   3047   3034   3033     1  180.0000771  0.4184000  2
   3029   3047   3034   3033     1  0.0000000  1.6024720  3
   3030   3032   3033   3034     1  180.0000771  0.8368000  1
   3030   3032   3033   3034     1  180.0000771  1.0460000  2
   3030   3032   3033   3034     1  0.0000000  0.7531200  3
   3030   3032   3033   3052     1  0.0000000  0.6508444  3
   3030   3029   3040   3045     1  0.0000000  0.6508444  3
   3030   3029   3047   3034     1  180.0000771  0.4184000  2
   3030   3029   3047   3034     1  0.0000000  1.6024720  3
   3032   3033   3034   3038     1  0.0000000  0.6508444  3
   3032   3033   3034   3047     1  0.0000000  0.6508444  3
   3032   3030   3029   3040     1  180.0000771  0.8368000  1
   3032   3030   3029   3040     1  180.0000771  1.0460000  2
   3032   3030   3029   3040     1  0.0000000  0.7531200  3
   3032   3030   3029   3047     1  0.0000000  0.6508444  3
   3033   3032   3030   3050     1  0.0000000  0.6508444  3
   3034   3047   3029   3040     1  180.0000771  0.4184000  2
   3034   3047   3029   3040     1  0.0000000  1.6024720  3
   3034   3033   3032   3039     1  0.0000000  0.6508444  3
   3038   3034   3033   3052     1  0.0000000  0.6508444  3
   3039   3032   3033   3052     1  0.0000000  0.6508444  3
   3039   3032   3030   3050     1  0.0000000  4.9162000  2
   3039   3032   3030   3050     1  0.0000000  0.6024960  3
   3040   3029   3030   3050     1  0.0000000  0.6508444  3
   3045   3040   3029   3047     1  0.0000000  4.9162000  2
   3045   3040   3029   3047     1  0.0000000  0.6024960  3
   3047   3034   3033   3052     1  0.0000000  0.6508444  3
   3047   3029   3030   3050     1  0.0000000  4.9162000  2
   3047   3029   3030   3050     1  0.0000000  0.6024960  3
   3053   3054   3056   3057     1  180.0000771  0.8368000  1
   3053   3054   3056   3057     1  180.0000771  1.0460000  2
   3053   3054   3056   3057     1  0.0000000  0.7531200  3
   3053   3054   3056   3063     1  0.0000000  0.6508444  3
   3053   3071   3058   3062     1  0.0000000  1.6038667  3
   3053   3071   3058   3057     1  180.0000771  0.4184000  2
   3053   3071   3058   3057     1  0.0000000  1.6024720  3
   3054   3056   3057   3058     1  180.0000771  0.8368000  1
   3054   3056   3057   3058     1  180.0000771  1.0460000  2
   3054   3056   3057   3058     1  0.0000000  0.7531200  3
   3054   3056   3057   3076     1  0.0000000  0.6508444  3
   3054   3053   3064   3069     1  0.0000000  0.6508444  3
   3054   3053   3071   3058     1  180.0000771  0.4184000  2
   3054   3053   3071   3058     1  0.0000000  1.6024720  3
   3056   3057   3058   3062     1  0.0000000  0.6508444  3
   3056   3057   3058   3071     1  0.0000000  0.6508444  3
   3056   3054   3053   3064     1  180.0000771  0.8368000  1
   3056   3054   3053   3064     1  180.0000771  1.0460000  2
   3056   3054   3053   3064     1  0.0000000  0.7531200  3
   3056   3054   3053   3071     1  0.0000000  0.6508444  3
   3057   3056   3054   3074     1  0.0000000  0.6508444  3
   3058   3071   3053   3064     1  180.0000771  0.4184000  2
   3058   3071   3053   3064     1  0.0000000  1.6024720  3
   3058   3057   3056   3063     1  0.0000000  0.6508444  3
   3062   3058   3057   3076     1  0.0000000  0.6508444  3
   3063   3056   3057   3076     1  0.0000000  0.6508444  3
   3063   3056   3054   3074     1  0.0000000  4.9162000  2
   3063   3056   3054   3074     1  0.0000000  0.6024960  3
   3064   3053   3054   3074     1  0.0000000  0.6508444  3
   3069   3064   3053   3071     1  0.0000000  4.9162000  2
   3069   3064   3053   3071     1  0.0000000  0.6024960  3
   3071   3058   3057   3076     1  0.0000000  0.6508444  3
   3071   3053   3054   3074     1  0.0000000  4.9162000  2
   3071   3053   3054   3074     1  0.0000000  0.6024960  3
     27     64     33     37     4  180.0000771  43.9320000  2
     30     89     34     40     4  180.0000771  43.9320000  2
     21    114     35     38     4  180.0000771  43.9320000  2
     24    139     36     39     4  180.0000771  43.9320000  2
     54    164     60     62     4  180.0000771  43.9320000  2
     57    189     61     63     4  180.0000771  43.9320000  2
     79    214     85     87     4  180.0000771  43.9320000  2
     82    239     86     88     4  180.0000771  43.9320000  2
    104    264    110    112     4  180.0000771  43.9320000  2
    107    289    111    113     4  180.0000771  43.9320000  2
    129    314    135    137     4  180.0000771  43.9320000  2
    132    339    136    138     4  180.0000771  43.9320000  2
    154    364    160    162     4  180.0000771  43.9320000  2
    157    389    161    163     4  180.0000771  43.9320000  2
    179    414    185    187     4  180.0000771  43.9320000  2
    182    439    186    188     4  180.0000771  43.9320000  2
    204    464    210    212     4  180.0000771  43.9320000  2
    207    489    211    213     4  180.0000771  43.9320000  2
    229    514    235    237     4  180.0000771  43.9320000  2
    232    539    236    238     4  180.0000771  43.9320000  2
    254    564    260    262     4  180.0000771  43.9320000  2
    257    589    261    263     4  180.0000771  43.9320000  2
    279    614    285    287     4  180.0000771  43.9320000  2
    282    639    286    288     4  180.0000771  43.9320000  2
    304    664    310    312     4  180.0000771  43.9320000  2
    307    689    311    313     4  180.0000771  43.9320000  2
    329    714    335    337     4  180.0000771  43.9320000  2
    332    739    336    338     4  180.0000771  43.9320000  2
    354    741    360    362     4  180.0000771  43.9320000  2
    357    814    361    363     4  180.0000771  43.9320000  2
    379    887    385    387     4  180.0000771  43.9320000  2
    382    960    386    388     4  180.0000771  43.9320000  2
    404   1033    410    412     4  180.0000771  43.9320000  2
    407   1106    411    413     4  180.0000771  43.9320000  2
    429   1179    435    437     4  180.0000771  43.9320000  2
    432   1252    436    438     4  180.0000771  43.9320000  2
    454   1325    460    462     4  180.0000771  43.9320000  2
    457   1398    461    463     4  180.0000771  43.9320000  2
    479   1471    485    487     4  180.0000771  43.9320000  2
    482   1544    486    488     4  180.0000771  43.9320000  2
    504   1617    510    512     4  180.0000771  43.9320000  2
    507   1690    511    513     4  180.0000771  43.9320000  2
    529   1763    535    537     4  180.0000771  43.9320000  2
    532   1836    536    538     4  180.0000771  43.9320000  2
    554   1909    560    562     4  180.0000771  43.9320000  2
    557   1982    561    563     4  180.0000771  43.9320000  2
    579   2055    585    587     4  180.0000771  43.9320000  2
    582   2128    586    588     4  180.0000771  43.9320000  2
    604   2201    610    612     4  180.0000771  43.9320000  2
    607   2274    611    613     4  180.0000771  43.9320000  2
    629   2347    635    637     4  180.0000771  43.9320000  2
    632   2420    636    638     4  180.0000771  43.9320000  2
    654   2493    660    662     4  180.0000771  43.9320000  2
    657   2566    661    663     4  180.0000771  43.9320000  2
    679   2639    685    687     4  180.0000771  43.9320000  2
    682   2712    686    688     4  180.0000771  43.9320000  2
    704   2785    710    712     4  180.0000771  43.9320000  2
    707   2858    711    713     4  180.0000771  43.9320000  2
    729   2931    735    737     4  180.0000771  43.9320000  2
    732   3004    736    738     4  180.0000771  43.9320000  2
    753    789    757    758     4  180.0000771  43.9320000  2
    761    813    764    765     4  180.0000771  43.9320000  2
    826    862    830    831     4  180.0000771  43.9320000  2
    834    886    837    838     4  180.0000771  43.9320000  2
    899    935    903    904     4  180.0000771  43.9320000  2
    907    959    910    911     4  180.0000771  43.9320000  2
    972   1008    976    977     4  180.0000771  43.9320000  2
    980   1032    983    984     4  180.0000771  43.9320000  2
   1045   1081   1049   1050     4  180.0000771  43.9320000  2
   1053   1105   1056   1057     4  180.0000771  43.9320000  2
   1118   1154   1122   1123     4  180.0000771  43.9320000  2
   1126   1178   1129   1130     4  180.0000771  43.9320000  2
   1191   1227   1195   1196     4  180.0000771  43.9320000  2
   1199   1251   1202   1203     4  180.0000771  43.9320000  2
   1264   1300   1268   1269     4  180.0000771  43.9320000  2
   1272   1324   1275   1276     4  180.0000771  43.9320000  2
   1337   1373   1341   1342     4  180.0000771  43.9320000  2
   1345   1397   1348   1349     4  180.0000771  43.9320000  2
   1410   1446   1414   1415     4  180.0000771  43.9320000  2
   1418   1470   1421   1422     4  180.0000771  43.9320000  2
   1483   1519   1487   1488     4  180.0000771  43.9320000  2
   1491   1543   1494   1495     4  180.0000771  43.9320000  2
   1556   1592   1560   1561     4  180.0000771  43.9320000  2
   1564   1616   1567   1568     4  180.0000771  43.9320000  2
   1629   1665   1633   1634     4  180.0000771  43.9320000  2
   1637   1689   1640   1641     4  180.0000771  43.9320000  2
   1702   1738   1706   1707     4  180.0000771  43.9320000  2
   1710   1762   1713   1714     4  180.0000771  43.9320000  2
   1775   1811   1779   1780     4  180.0000771  43.9320000  2
   1783   1835   1786   1787     4  180.0000771  43.9320000  2
   1848   1884   1852   1853     4  180.0000771  43.9320000  2
   1856   1908   1859   1860     4  180.0000771  43.9320000  2
   1921   1957   1925   1926     4  180.0000771  43.9320000  2
   1929   1981   1932   1933     4  180.0000771  43.9320000  2
   1994   2030   1998   1999     4  180.0000771  43.9320000  2
   2002   2054   2005   2006     4  180.0000771  43.9320000  2
   2067   2103   2071   2072     4  180.0000771  43.9320000  2
   2075   2127   2078   2079     4  180.0000771  43.9320000  2
   2140   2176   2144   2145     4  180.0000771  43.9320000  2
   2148   2200   2151   2152     4  180.0000771  43.9320000  2
   2213   2249   2217   2218     4  180.0000771  43.9320000  2
   2221   2273   2224   2225     4  180.0000771  43.9320000  2
   2286   2322   2290   2291     4  180.0000771  43.9320000  2
   2294   2346   2297   2298     4  180.0000771  43.9320000  2
   2359   2395   2363   2364     4  180.0000771  43.9320000  2
   2367   2419   2370   2371     4  180.0000771  43.9320000  2
   2432   2468   2436   2437     4  180.0000771  43.9320000  2
   2440   2492   2443   2444     4  180.0000771  43.9320000  2
   2505   2541   2509   2510     4  180.0000771  43.9320000  2
   2513   2565   2516   2517     4  180.0000771  43.9320000  2
   2578   2614   2582   2583     4  180.0000771  43.9320000  2
   2586   2638   2589   2590     4  180.0000771  43.9320000  2
   2651   2687   2655   2656     4  180.0000771  43.9320000  2
   2659   2711   2662   2663     4  180.0000771  43.9320000  2
   2724   2760   2728   2729     4  180.0000771  43.9320000  2
   2732   2784   2735   2736     4  180.0000771  43.9320000  2
   2797   2833   2801   2802     4  180.0000771  43.9320000  2
   2805   2857   2808   2809     4  180.0000771  43.9320000  2
   2870   2906   2874   2875     4  180.0000771  43.9320000  2
   2878   2930   2881   2882     4  180.0000771  43.9320000  2
   2943   2979   2947   2948     4  180.0000771  43.9320000  2
   2951   3003   2954   2955     4  180.0000771  43.9320000  2
   3016   3052   3020   3021     4  180.0000771  43.9320000  2
   3024   3076   3027   3028     4  180.0000771  43.9320000  2
      1      8      9     10     1  0.0000000  1.2552000  3
      1      8      9     11     1  0.0000000  1.2552000  3
      1      8     12     13     1  0.0000000  1.2552000  3
      1      8     12     14     1  0.0000000  1.2552000  3
      2      1      4      7     1  0.0000000  0.6508444  3
      2      1      4      5     1  0.0000000  0.6508444  3
      2      1      4      6     1  0.0000000  0.6508444  3
      2      1      8      9     1  0.0000000  1.2552000  3
      2      1      8     12     1  0.0000000  1.2552000  3
      3      1      4      7     1  0.0000000  0.6508444  3
      3      1      4      5     1  0.0000000  0.6508444  3
      3      1      4      6     1  0.0000000  0.6508444  3
      3      1      8      9     1  0.0000000  1.2552000  3
      3      1      8     12     1  0.0000000  1.2552000  3
      4      7     15     16     1  0.0000000  1.2552000  3
      4      7     15     17     1  0.0000000  1.2552000  3
      4      7     18     19     1  0.0000000  1.2552000  3
      4      7     18     20     1  0.0000000  1.2552000  3
      8      1      4      5     1  0.0000000  0.6508444  3
      5      4      7     15     1  0.0000000  1.2552000  3
      5      4      7     18     1  0.0000000  1.2552000  3
      8      1      4      6     1  0.0000000  0.6508444  3
      6      4      7     15     1  0.0000000  1.2552000  3
      6      4      7     18     1  0.0000000  1.2552000  3
      7     15     21     22     1  0.0000000  0.6508444  3
      7     15     21     23     1  0.0000000  0.6508444  3
      7     18     24     25     1  0.0000000  0.6508444  3
      7     18     24     26     1  0.0000000  0.6508444  3
      8      9     30     31     1  0.0000000  0.6508444  3
      8      9     30     32     1  0.0000000  0.6508444  3
      8     12     27     28     1  0.0000000  0.6508444  3
      8     12     27     29     1  0.0000000  0.6508444  3
      9      8     12     13     1  0.0000000  1.2552000  3
      9      8     12     14     1  0.0000000  1.2552000  3
     10      9      8     12     1  0.0000000  1.2552000  3
     10      9     30     34     1  0.0000000  0.6508444  3
     10      9     30     31     1  0.0000000  0.6508444  3
     10      9     30     32     1  0.0000000  0.6508444  3
     11      9      8     12     1  0.0000000  1.2552000  3
     11      9     30     34     1  0.0000000  0.6508444  3
     11      9     30     31     1  0.0000000  0.6508444  3
     11      9     30     32     1  0.0000000  0.6508444  3
     13     12     27     33     1  0.0000000  0.6508444  3
     13     12     27     28     1  0.0000000  0.6508444  3
     13     12     27     29     1  0.0000000  0.6508444  3
     14     12     27     33     1  0.0000000  0.6508444  3
     14     12     27     28     1  0.0000000  0.6508444  3
     14     12     27     29     1  0.0000000  0.6508444  3
     15      7     18     19     1  0.0000000  1.2552000  3
     15      7     18     20     1  0.0000000  1.2552000  3
     16     15      7     18     1  0.0000000  1.2552000  3
     16     15     21     35     1  0.0000000  0.6508444  3
     16     15     21     22     1  0.0000000  0.6508444  3
     16     15     21     23     1  0.0000000  0.6508444  3
     17     15      7     18     1  0.0000000  1.2552000  3
     17     15     21     35     1  0.0000000  0.6508444  3
     17     15     21     22     1  0.0000000  0.6508444  3
     17     15     21     23     1  0.0000000  0.6508444  3
     19     18     24     36     1  0.0000000  0.6508444  3
     19     18     24     25     1  0.0000000  0.6508444  3
     19     18     24     26     1  0.0000000  0.6508444  3
     20     18     24     36     1  0.0000000  0.6508444  3
     20     18     24     25     1  0.0000000  0.6508444  3
     20     18     24     26     1  0.0000000  0.6508444  3
     21     35    114    115     1  180.0000771  10.4600000  2
     22     21     35     38     1  0.0000000  3.3472000  1
     22     21     35     38     1  0.0000000  0.0000000  2
     22     21     35     38     1  180.0000771  0.3347200  3
     22     21     35    114     1  180.0000771  0.0000000  2
     23     21     35     38     1  0.0000000  3.3472000  1
     23     21     35     38     1  0.0000000  0.0000000  2
     23     21     35     38     1  180.0000771  0.3347200  3
     23     21     35    114     1  180.0000771  0.0000000  2
     24     36    139    140     1  180.0000771  10.4600000  2
     25     24     36     39     1  0.0000000  3.3472000  1
     25     24     36     39     1  0.0000000  0.0000000  2
     25     24     36     39     1  180.0000771  0.3347200  3
     25     24     36    139     1  180.0000771  0.0000000  2
     26     24     36     39     1  0.0000000  3.3472000  1
     26     24     36     39     1  0.0000000  0.0000000  2
     26     24     36     39     1  180.0000771  0.3347200  3
     26     24     36    139     1  180.0000771  0.0000000  2
     27     33     64     65     1  180.0000771  10.4600000  2
     28     27     33     37     1  0.0000000  3.3472000  1
     28     27     33     37     1  0.0000000  0.0000000  2
     28     27     33     37     1  180.0000771  0.3347200  3
     28     27     33     64     1  180.0000771  0.0000000  2
     29     27     33     37     1  0.0000000  3.3472000  1
     29     27     33     37     1  0.0000000  0.0000000  2
     29     27     33     37     1  180.0000771  0.3347200  3
     29     27     33     64     1  180.0000771  0.0000000  2
     30     34     89     90     1  180.0000771  10.4600000  2
     31     30     34     40     1  0.0000000  3.3472000  1
     31     30     34     40     1  0.0000000  0.0000000  2
     31     30     34     40     1  180.0000771  0.3347200  3
     31     30     34     89     1  180.0000771  0.0000000  2
     32     30     34     40     1  0.0000000  3.3472000  1
     32     30     34     40     1  0.0000000  0.0000000  2
     32     30     34     40     1  180.0000771  0.3347200  3
     32     30     34     89     1  180.0000771  0.0000000  2
     33     64     44     45     1  0.0000000  0.0000000  2
     33     64     44     46     1  0.0000000  0.0000000  2
     34     89     69     70     1  0.0000000  0.0000000  2
     34     89     69     71     1  0.0000000  0.0000000  2
     35    114     94     95     1  0.0000000  0.0000000  2
     35    114     94     96     1  0.0000000  0.0000000  2
     36    139    119    120     1  0.0000000  0.0000000  2
     36    139    119    121     1  0.0000000  0.0000000  2
     37     33     64     65     1  0.0000000  8.3680000  1
     37     33     64     65     1  180.0000771  10.4600000  2
     38     35    114    115     1  0.0000000  8.3680000  1
     38     35    114    115     1  180.0000771  10.4600000  2
     39     36    139    140     1  0.0000000  8.3680000  1
     39     36    139    140     1  180.0000771  10.4600000  2
     40     34     89     90     1  0.0000000  8.3680000  1
     40     34     89     90     1  180.0000771  10.4600000  2
     41     44     64     65     1  0.0000000  0.0000000  2
     41     47     48     49     1  0.0000000  1.2552000  3
     41     47     48     50     1  0.0000000  1.2552000  3
     41     47     51     52     1  0.0000000  1.2552000  3
     41     47     51     53     1  0.0000000  1.2552000  3
     42     41     44     64     1  0.0000000  0.6508444  3
     42     41     44     45     1  0.0000000  0.6508444  3
     42     41     44     46     1  0.0000000  0.6508444  3
     42     41     47     48     1  0.0000000  1.2552000  3
     42     41     47     51     1  0.0000000  1.2552000  3
     43     41     44     64     1  0.0000000  0.6508444  3
     43     41     44     45     1  0.0000000  0.6508444  3
     43     41     44     46     1  0.0000000  0.6508444  3
     43     41     47     48     1  0.0000000  1.2552000  3
     43     41     47     51     1  0.0000000  1.2552000  3
     45     44     41     47     1  0.0000000  0.6508444  3
     45     44     64     65     1  0.0000000  0.0000000  2
     46     44     41     47     1  0.0000000  0.6508444  3
     46     44     64     65     1  0.0000000  0.0000000  2
     47     48     57     58     1  0.0000000  0.6508444  3
     47     48     57     59     1  0.0000000  0.6508444  3
     47     51     54     55     1  0.0000000  0.6508444  3
     47     51     54     56     1  0.0000000  0.6508444  3
     48     47     51     52     1  0.0000000  1.2552000  3
     48     47     51     53     1  0.0000000  1.2552000  3
     49     48     47     51     1  0.0000000  1.2552000  3
     49     48     57     61     1  0.0000000  0.6508444  3
     49     48     57     58     1  0.0000000  0.6508444  3
     49     48     57     59     1  0.0000000  0.6508444  3
     50     48     47     51     1  0.0000000  1.2552000  3
     50     48     57     61     1  0.0000000  0.6508444  3
     50     48     57     58     1  0.0000000  0.6508444  3
     50     48     57     59     1  0.0000000  0.6508444  3
     52     51     54     60     1  0.0000000  0.6508444  3
     52     51     54     55     1  0.0000000  0.6508444  3
     52     51     54     56     1  0.0000000  0.6508444  3
     53     51     54     60     1  0.0000000  0.6508444  3
     53     51     54     55     1  0.0000000  0.6508444  3
     53     51     54     56     1  0.0000000  0.6508444  3
     54     60    164    165     1  180.0000771  10.4600000  2
     55     54     60     62     1  0.0000000  3.3472000  1
     55     54     60     62     1  0.0000000  0.0000000  2
     55     54     60     62     1  180.0000771  0.3347200  3
     55     54     60    164     1  180.0000771  0.0000000  2
     56     54     60     62     1  0.0000000  3.3472000  1
     56     54     60     62     1  0.0000000  0.0000000  2
     56     54     60     62     1  180.0000771  0.3347200  3
     56     54     60    164     1  180.0000771  0.0000000  2
     57     61    189    190     1  180.0000771  10.4600000  2
     58     57     61     63     1  0.0000000  3.3472000  1
     58     57     61     63     1  0.0000000  0.0000000  2
     58     57     61     63     1  180.0000771  0.3347200  3
     58     57     61    189     1  180.0000771  0.0000000  2
     59     57     61     63     1  0.0000000  3.3472000  1
     59     57     61     63     1  0.0000000  0.0000000  2
     59     57     61     63     1  180.0000771  0.3347200  3
     59     57     61    189     1  180.0000771  0.0000000  2
     60    164    144    145     1  0.0000000  0.0000000  2
     60    164    144    146     1  0.0000000  0.0000000  2
     61    189    169    170     1  0.0000000  0.0000000  2
     61    189    169    171     1  0.0000000  0.0000000  2
     62     60    164    165     1  0.0000000  8.3680000  1
     62     60    164    165     1  180.0000771  10.4600000  2
     63     61    189    190     1  0.0000000  8.3680000  1
     63     61    189    190     1  180.0000771  10.4600000  2
     66     69     89     90     1  0.0000000  0.0000000  2
     66     72     73     74     1  0.0000000  1.2552000  3
     66     72     73     75     1  0.0000000  1.2552000  3
     66     72     76     77     1  0.0000000  1.2552000  3
     66     72     76     78     1  0.0000000  1.2552000  3
     67     66     69     89     1  0.0000000  0.6508444  3
     67     66     69     70     1  0.0000000  0.6508444  3
     67     66     69     71     1  0.0000000  0.6508444  3
     67     66     72     73     1  0.0000000  1.2552000  3
     67     66     72     76     1  0.0000000  1.2552000  3
     68     66     69     89     1  0.0000000  0.6508444  3
     68     66     69     70     1  0.0000000  0.6508444  3
     68     66     69     71     1  0.0000000  0.6508444  3
     68     66     72     73     1  0.0000000  1.2552000  3
     68     66     72     76     1  0.0000000  1.2552000  3
     70     69     66     72     1  0.0000000  0.6508444  3
     70     69     89     90     1  0.0000000  0.0000000  2
     71     69     66     72     1  0.0000000  0.6508444  3
     71     69     89     90     1  0.0000000  0.0000000  2
     72     73     82     83     1  0.0000000  0.6508444  3
     72     73     82     84     1  0.0000000  0.6508444  3
     72     76     79     80     1  0.0000000  0.6508444  3
     72     76     79     81     1  0.0000000  0.6508444  3
     73     72     76     77     1  0.0000000  1.2552000  3
     73     72     76     78     1  0.0000000  1.2552000  3
     74     73     72     76     1  0.0000000  1.2552000  3
     74     73     82     86     1  0.0000000  0.6508444  3
     74     73     82     83     1  0.0000000  0.6508444  3
     74     73     82     84     1  0.0000000  0.6508444  3
     75     73     72     76     1  0.0000000  1.2552000  3
     75     73     82     86     1  0.0000000  0.6508444  3
     75     73     82     83     1  0.0000000  0.6508444  3
     75     73     82     84     1  0.0000000  0.6508444  3
     77     76     79     85     1  0.0000000  0.6508444  3
     77     76     79     80     1  0.0000000  0.6508444  3
     77     76     79     81     1  0.0000000  0.6508444  3
     78     76     79     85     1  0.0000000  0.6508444  3
     78     76     79     80     1  0.0000000  0.6508444  3
     78     76     79     81     1  0.0000000  0.6508444  3
     79     85    214    215     1  180.0000771  10.4600000  2
     80     79     85     87     1  0.0000000  3.3472000  1
     80     79     85     87     1  0.0000000  0.0000000  2
     80     79     85     87     1  180.0000771  0.3347200  3
     80     79     85    214     1  180.0000771  0.0000000  2
     81     79     85     87     1  0.0000000  3.3472000  1
     81     79     85     87     1  0.0000000  0.0000000  2
     81     79     85     87     1  180.0000771  0.3347200  3
     81     79     85    214     1  180.0000771  0.0000000  2
     82     86    239    240     1  180.0000771  10.4600000  2
     83     82     86     88     1  0.0000000  3.3472000  1
     83     82     86     88     1  0.0000000  0.0000000  2
     83     82     86     88     1  180.0000771  0.3347200  3
     83     82     86    239     1  180.0000771  0.0000000  2
     84     82     86     88     1  0.0000000  3.3472000  1
     84     82     86     88     1  0.0000000  0.0000000  2
     84     82     86     88     1  180.0000771  0.3347200  3
     84     82     86    239     1  180.0000771  0.0000000  2
     85    214    194    195     1  0.0000000  0.0000000  2
     85    214    194    196     1  0.0000000  0.0000000  2
     86    239    219    220     1  0.0000000  0.0000000  2
     86    239    219    221     1  0.0000000  0.0000000  2
     87     85    214    215     1  0.0000000  8.3680000  1
     87     85    214    215     1  180.0000771  10.4600000  2
     88     86    239    240     1  0.0000000  8.3680000  1
     88     86    239    240     1  180.0000771  10.4600000  2
     91     94    114    115     1  0.0000000  0.0000000  2
     91     97     98     99     1  0.0000000  1.2552000  3
     91     97     98    100     1  0.0000000  1.2552000  3
     91     97    101    102     1  0.0000000  1.2552000  3
     91     97    101    103     1  0.0000000  1.2552000  3
     92     91     94    114     1  0.0000000  0.6508444  3
     92     91     94     95     1  0.0000000  0.6508444  3
     92     91     94     96     1  0.0000000  0.6508444  3
     92     91     97     98     1  0.0000000  1.2552000  3
     92     91     97    101     1  0.0000000  1.2552000  3
     93     91     94    114     1  0.0000000  0.6508444  3
     93     91     94     95     1  0.0000000  0.6508444  3
     93     91     94     96     1  0.0000000  0.6508444  3
     93     91     97     98     1  0.0000000  1.2552000  3
     93     91     97    101     1  0.0000000  1.2552000  3
     95     94     91     97     1  0.0000000  0.6508444  3
     95     94    114    115     1  0.0000000  0.0000000  2
     96     94     91     97     1  0.0000000  0.6508444  3
     96     94    114    115     1  0.0000000  0.0000000  2
     97     98    107    108     1  0.0000000  0.6508444  3
     97     98    107    109     1  0.0000000  0.6508444  3
     97    101    104    105     1  0.0000000  0.6508444  3
     97    101    104    106     1  0.0000000  0.6508444  3
     98     97    101    102     1  0.0000000  1.2552000  3
     98     97    101    103     1  0.0000000  1.2552000  3
     99     98     97    101     1  0.0000000  1.2552000  3
     99     98    107    111     1  0.0000000  0.6508444  3
     99     98    107    108     1  0.0000000  0.6508444  3
     99     98    107    109     1  0.0000000  0.6508444  3
    100     98     97    101     1  0.0000000  1.2552000  3
    100     98    107    111     1  0.0000000  0.6508444  3
    100     98    107    108     1  0.0000000  0.6508444  3
    100     98    107    109     1  0.0000000  0.6508444  3
    102    101    104    110     1  0.0000000  0.6508444  3
    102    101    104    105     1  0.0000000  0.6508444  3
    102    101    104    106     1  0.0000000  0.6508444  3
    103    101    104    110     1  0.0000000  0.6508444  3
    103    101    104    105     1  0.0000000  0.6508444  3
    103    101    104    106     1  0.0000000  0.6508444  3
    104    110    264    265     1  180.0000771  10.4600000  2
    105    104    110    112     1  0.0000000  3.3472000  1
    105    104    110    112     1  0.0000000  0.0000000  2
    105    104    110    112     1  180.0000771  0.3347200  3
    105    104    110    264     1  180.0000771  0.0000000  2
    106    104    110    112     1  0.0000000  3.3472000  1
    106    104    110    112     1  0.0000000  0.0000000  2
    106    104    110    112     1  180.0000771  0.3347200  3
    106    104    110    264     1  180.0000771  0.0000000  2
    107    111    289    290     1  180.0000771  10.4600000  2
    108    107    111    113     1  0.0000000  3.3472000  1
    108    107    111    113     1  0.0000000  0.0000000  2
    108    107    111    113     1  180.0000771  0.3347200  3
    108    107    111    289     1  180.0000771  0.0000000  2
    109    107    111    113     1  0.0000000  3.3472000  1
    109    107    111    113     1  0.0000000  0.0000000  2
    109    107    111    113     1  180.0000771  0.3347200  3
    109    107    111    289     1  180.0000771  0.0000000  2
    110    264    244    245     1  0.0000000  0.0000000  2
    110    264    244    246     1  0.0000000  0.0000000  2
    111    289    269    270     1  0.0000000  0.0000000  2
    111    289    269    271     1  0.0000000  0.0000000  2
    112    110    264    265     1  0.0000000  8.3680000  1
    112    110    264    265     1  180.0000771  10.4600000  2
    113    111    289    290     1  0.0000000  8.3680000  1
    113    111    289    290     1  180.0000771  10.4600000  2
    116    119    139    140     1  0.0000000  0.0000000  2
    116    122    123    124     1  0.0000000  1.2552000  3
    116    122    123    125     1  0.0000000  1.2552000  3
    116    122    126    127     1  0.0000000  1.2552000  3
    116    122    126    128     1  0.0000000  1.2552000  3
    117    116    119    139     1  0.0000000  0.6508444  3
    117    116    119    120     1  0.0000000  0.6508444  3
    117    116    119    121     1  0.0000000  0.6508444  3
    117    116    122    123     1  0.0000000  1.2552000  3
    117    116    122    126     1  0.0000000  1.2552000  3
    118    116    119    139     1  0.0000000  0.6508444  3
    118    116    119    120     1  0.0000000  0.6508444  3
    118    116    119    121     1  0.0000000  0.6508444  3
    118    116    122    123     1  0.0000000  1.2552000  3
    118    116    122    126     1  0.0000000  1.2552000  3
    120    119    116    122     1  0.0000000  0.6508444  3
    120    119    139    140     1  0.0000000  0.0000000  2
    121    119    116    122     1  0.0000000  0.6508444  3
    121    119    139    140     1  0.0000000  0.0000000  2
    122    123    132    133     1  0.0000000  0.6508444  3
    122    123    132    134     1  0.0000000  0.6508444  3
    122    126    129    130     1  0.0000000  0.6508444  3
    122    126    129    131     1  0.0000000  0.6508444  3
    123    122    126    127     1  0.0000000  1.2552000  3
    123    122    126    128     1  0.0000000  1.2552000  3
    124    123    122    126     1  0.0000000  1.2552000  3
    124    123    132    136     1  0.0000000  0.6508444  3
    124    123    132    133     1  0.0000000  0.6508444  3
    124    123    132    134     1  0.0000000  0.6508444  3
    125    123    122    126     1  0.0000000  1.2552000  3
    125    123    132    136     1  0.0000000  0.6508444  3
    125    123    132    133     1  0.0000000  0.6508444  3
    125    123    132    134     1  0.0000000  0.6508444  3
    127    126    129    135     1  0.0000000  0.6508444  3
    127    126    129    130     1  0.0000000  0.6508444  3
    127    126    129    131     1  0.0000000  0.6508444  3
    128    126    129    135     1  0.0000000  0.6508444  3
    128    126    129    130     1  0.0000000  0.6508444  3
    128    126    129    131     1  0.0000000  0.6508444  3
    129    135    314    315     1  180.0000771  10.4600000  2
    130    129    135    137     1  0.0000000  3.3472000  1
    130    129    135    137     1  0.0000000  0.0000000  2
    130    129    135    137     1  180.0000771  0.3347200  3
    130    129    135    314     1  180.0000771  0.0000000  2
    131    129    135    137     1  0.0000000  3.3472000  1
    131    129    135    137     1  0.0000000  0.0000000  2
    131    129    135    137     1  180.0000771  0.3347200  3
    131    129    135    314     1  180.0000771  0.0000000  2
    132    136    339    340     1  180.0000771  10.4600000  2
    133    132    136    138     1  0.0000000  3.3472000  1
    133    132    136    138     1  0.0000000  0.0000000  2
    133    132    136    138     1  180.0000771  0.3347200  3
    133    132    136    339     1  180.0000771  0.0000000  2
    134    132    136    138     1  0.0000000  3.3472000  1
    134    132    136    138     1  0.0000000  0.0000000  2
    134    132    136    138     1  180.0000771  0.3347200  3
    134    132    136    339     1  180.0000771  0.0000000  2
    135    314    294    295     1  0.0000000  0.0000000  2
    135    314    294    296     1  0.0000000  0.0000000  2
    136    339    319    320     1  0.0000000  0.0000000  2
    136    339    319    321     1  0.0000000  0.0000000  2
    137    135    314    315     1  0.0000000  8.3680000  1
    137    135    314    315     1  180.0000771  10.4600000  2
    138    136    339    340     1  0.0000000  8.3680000  1
    138    136    339    340     1  180.0000771  10.4600000  2
    141    144    164    165     1  0.0000000  0.0000000  2
    141    147    148    149     1  0.0000000  1.2552000  3
    141    147    148    150     1  0.0000000  1.2552000  3
    141    147    151    152     1  0.0000000  1.2552000  3
    141    147    151    153     1  0.0000000  1.2552000  3
    142    141    144    164     1  0.0000000  0.6508444  3
    142    141    144    145     1  0.0000000  0.6508444  3
    142    141    144    146     1  0.0000000  0.6508444  3
    142    141    147    148     1  0.0000000  1.2552000  3
    142    141    147    151     1  0.0000000  1.2552000  3
    143    141    144    164     1  0.0000000  0.6508444  3
    143    141    144    145     1  0.0000000  0.6508444  3
    143    141    144    146     1  0.0000000  0.6508444  3
    143    141    147    148     1  0.0000000  1.2552000  3
    143    141    147    151     1  0.0000000  1.2552000  3
    145    144    141    147     1  0.0000000  0.6508444  3
    145    144    164    165     1  0.0000000  0.0000000  2
    146    144    141    147     1  0.0000000  0.6508444  3
    146    144    164    165     1  0.0000000  0.0000000  2
    147    148    157    158     1  0.0000000  0.6508444  3
    147    148    157    159     1  0.0000000  0.6508444  3
    147    151    154    155     1  0.0000000  0.6508444  3
    147    151    154    156     1  0.0000000  0.6508444  3
    148    147    151    152     1  0.0000000  1.2552000  3
    148    147    151    153     1  0.0000000  1.2552000  3
    149    148    147    151     1  0.0000000  1.2552000  3
    149    148    157    161     1  0.0000000  0.6508444  3
    149    148    157    158     1  0.0000000  0.6508444  3
    149    148    157    159     1  0.0000000  0.6508444  3
    150    148    147    151     1  0.0000000  1.2552000  3
    150    148    157    161     1  0.0000000  0.6508444  3
    150    148    157    158     1  0.0000000  0.6508444  3
    150    148    157    159     1  0.0000000  0.6508444  3
    152    151    154    160     1  0.0000000  0.6508444  3
    152    151    154    155     1  0.0000000  0.6508444  3
    152    151    154    156     1  0.0000000  0.6508444  3
    153    151    154    160     1  0.0000000  0.6508444  3
    153    151    154    155     1  0.0000000  0.6508444  3
    153    151    154    156     1  0.0000000  0.6508444  3
    154    160    364    365     1  180.0000771  10.4600000  2
    155    154    160    162     1  0.0000000  3.3472000  1
    155    154    160    162     1  0.0000000  0.0000000  2
    155    154    160    162     1  180.0000771  0.3347200  3
    155    154    160    364     1  180.0000771  0.0000000  2
    156    154    160    162     1  0.0000000  3.3472000  1
    156    154    160    162     1  0.0000000  0.0000000  2
    156    154    160    162     1  180.0000771  0.3347200  3
    156    154    160    364     1  180.0000771  0.0000000  2
    157    161    389    390     1  180.0000771  10.4600000  2
    158    157    161    163     1  0.0000000  3.3472000  1
    158    157    161    163     1  0.0000000  0.0000000  2
    158    157    161    163     1  180.0000771  0.3347200  3
    158    157    161    389     1  180.0000771  0.0000000  2
    159    157    161    163     1  0.0000000  3.3472000  1
    159    157    161    163     1  0.0000000  0.0000000  2
    159    157    161    163     1  180.0000771  0.3347200  3
    159    157    161    389     1  180.0000771  0.0000000  2
    160    364    344    345     1  0.0000000  0.0000000  2
    160    364    344    346     1  0.0000000  0.0000000  2
    161    389    369    370     1  0.0000000  0.0000000  2
    161    389    369    371     1  0.0000000  0.0000000  2
    162    160    364    365     1  0.0000000  8.3680000  1
    162    160    364    365     1  180.0000771  10.4600000  2
    163    161    389    390     1  0.0000000  8.3680000  1
    163    161    389    390     1  180.0000771  10.4600000  2
    166    169    189    190     1  0.0000000  0.0000000  2
    166    172    173    174     1  0.0000000  1.2552000  3
    166    172    173    175     1  0.0000000  1.2552000  3
    166    172    176    177     1  0.0000000  1.2552000  3
    166    172    176    178     1  0.0000000  1.2552000  3
    167    166    169    189     1  0.0000000  0.6508444  3
    167    166    169    170     1  0.0000000  0.6508444  3
    167    166    169    171     1  0.0000000  0.6508444  3
    167    166    172    173     1  0.0000000  1.2552000  3
    167    166    172    176     1  0.0000000  1.2552000  3
    168    166    169    189     1  0.0000000  0.6508444  3
    168    166    169    170     1  0.0000000  0.6508444  3
    168    166    169    171     1  0.0000000  0.6508444  3
    168    166    172    173     1  0.0000000  1.2552000  3
    168    166    172    176     1  0.0000000  1.2552000  3
    170    169    166    172     1  0.0000000  0.6508444  3
    170    169    189    190     1  0.0000000  0.0000000  2
    171    169    166    172     1  0.0000000  0.6508444  3
    171    169    189    190     1  0.0000000  0.0000000  2
    172    173    182    183     1  0.0000000  0.6508444  3
    172    173    182    184     1  0.0000000  0.6508444  3
    172    176    179    180     1  0.0000000  0.6508444  3
    172    176    179    181     1  0.0000000  0.6508444  3
    173    172    176    177     1  0.0000000  1.2552000  3
    173    172    176    178     1  0.0000000  1.2552000  3
    174    173    172    176     1  0.0000000  1.2552000  3
    174    173    182    186     1  0.0000000  0.6508444  3
    174    173    182    183     1  0.0000000  0.6508444  3
    174    173    182    184     1  0.0000000  0.6508444  3
    175    173    172    176     1  0.0000000  1.2552000  3
    175    173    182    186     1  0.0000000  0.6508444  3
    175    173    182    183     1  0.0000000  0.6508444  3
    175    173    182    184     1  0.0000000  0.6508444  3
    177    176    179    185     1  0.0000000  0.6508444  3
    177    176    179    180     1  0.0000000  0.6508444  3
    177    176    179    181     1  0.0000000  0.6508444  3
    178    176    179    185     1  0.0000000  0.6508444  3
    178    176    179    180     1  0.0000000  0.6508444  3
    178    176    179    181     1  0.0000000  0.6508444  3
    179    185    414    415     1  180.0000771  10.4600000  2
    180    179    185    187     1  0.0000000  3.3472000  1
    180    179    185    187     1  0.0000000  0.0000000  2
    180    179    185    187     1  180.0000771  0.3347200  3
    180    179    185    414     1  180.0000771  0.0000000  2
    181    179    185    187     1  0.0000000  3.3472000  1
    181    179    185    187     1  0.0000000  0.0000000  2
    181    179    185    187     1  180.0000771  0.3347200  3
    181    179    185    414     1  180.0000771  0.0000000  2
    182    186    439    440     1  180.0000771  10.4600000  2
    183    182    186    188     1  0.0000000  3.3472000  1
    183    182    186    188     1  0.0000000  0.0000000  2
    183    182    186    188     1  180.0000771  0.3347200  3
    183    182    186    439     1  180.0000771  0.0000000  2
    184    182    186    188     1  0.0000000  3.3472000  1
    184    182    186    188     1  0.0000000  0.0000000  2
    184    182    186    188     1  180.0000771  0.3347200  3
    184    182    186    439     1  180.0000771  0.0000000  2
    185    414    394    395     1  0.0000000  0.0000000  2
    185    414    394    396     1  0.0000000  0.0000000  2
    186    439    419    420     1  0.0000000  0.0000000  2
    186    439    419    421     1  0.0000000  0.0000000  2
    187    185    414    415     1  0.0000000  8.3680000  1
    187    185    414    415     1  180.0000771  10.4600000  2
    188    186    439    440     1  0.0000000  8.3680000  1
    188    186    439    440     1  180.0000771  10.4600000  2
    191    194    214    215     1  0.0000000  0.0000000  2
    191    197    198    199     1  0.0000000  1.2552000  3
    191    197    198    200     1  0.0000000  1.2552000  3
    191    197    201    202     1  0.0000000  1.2552000  3
    191    197    201    203     1  0.0000000  1.2552000  3
    192    191    194    214     1  0.0000000  0.6508444  3
    192    191    194    195     1  0.0000000  0.6508444  3
    192    191    194    196     1  0.0000000  0.6508444  3
    192    191    197    198     1  0.0000000  1.2552000  3
    192    191    197    201     1  0.0000000  1.2552000  3
    193    191    194    214     1  0.0000000  0.6508444  3
    193    191    194    195     1  0.0000000  0.6508444  3
    193    191    194    196     1  0.0000000  0.6508444  3
    193    191    197    198     1  0.0000000  1.2552000  3
    193    191    197    201     1  0.0000000  1.2552000  3
    195    194    191    197     1  0.0000000  0.6508444  3
    195    194    214    215     1  0.0000000  0.0000000  2
    196    194    191    197     1  0.0000000  0.6508444  3
    196    194    214    215     1  0.0000000  0.0000000  2
    197    198    207    208     1  0.0000000  0.6508444  3
    197    198    207    209     1  0.0000000  0.6508444  3
    197    201    204    205     1  0.0000000  0.6508444  3
    197    201    204    206     1  0.0000000  0.6508444  3
    198    197    201    202     1  0.0000000  1.2552000  3
    198    197    201    203     1  0.0000000  1.2552000  3
    199    198    197    201     1  0.0000000  1.2552000  3
    199    198    207    211     1  0.0000000  0.6508444  3
    199    198    207    208     1  0.0000000  0.6508444  3
    199    198    207    209     1  0.0000000  0.6508444  3
    200    198    197    201     1  0.0000000  1.2552000  3
    200    198    207    211     1  0.0000000  0.6508444  3
    200    198    207    208     1  0.0000000  0.6508444  3
    200    198    207    209     1  0.0000000  0.6508444  3
    202    201    204    210     1  0.0000000  0.6508444  3
    202    201    204    205     1  0.0000000  0.6508444  3
    202    201    204    206     1  0.0000000  0.6508444  3
    203    201    204    210     1  0.0000000  0.6508444  3
    203    201    204    205     1  0.0000000  0.6508444  3
    203    201    204    206     1  0.0000000  0.6508444  3
    204    210    464    465     1  180.0000771  10.4600000  2
    205    204    210    212     1  0.0000000  3.3472000  1
    205    204    210    212     1  0.0000000  0.0000000  2
    205    204    210    212     1  180.0000771  0.3347200  3
    205    204    210    464     1  180.0000771  0.0000000  2
    206    204    210    212     1  0.0000000  3.3472000  1
    206    204    210    212     1  0.0000000  0.0000000  2
    206    204    210    212     1  180.0000771  0.3347200  3
    206    204    210    464     1  180.0000771  0.0000000  2
    207    211    489    490     1  180.0000771  10.4600000  2
    208    207    211    213     1  0.0000000  3.3472000  1
    208    207    211    213     1  0.0000000  0.0000000  2
    208    207    211    213     1  180.0000771  0.3347200  3
    208    207    211    489     1  180.0000771  0.0000000  2
    209    207    211    213     1  0.0000000  3.3472000  1
    209    207    211    213     1  0.0000000  0.0000000  2
    209    207    211    213     1  180.0000771  0.3347200  3
    209    207    211    489     1  180.0000771  0.0000000  2
    210    464    444    445     1  0.0000000  0.0000000  2
    210    464    444    446     1  0.0000000  0.0000000  2
    211    489    469    470     1  0.0000000  0.0000000  2
    211    489    469    471     1  0.0000000  0.0000000  2
    212    210    464    465     1  0.0000000  8.3680000  1
    212    210    464    465     1  180.0000771  10.4600000  2
    213    211    489    490     1  0.0000000  8.3680000  1
    213    211    489    490     1  180.0000771  10.4600000  2
    216    219    239    240     1  0.0000000  0.0000000  2
    216    222    223    224     1  0.0000000  1.2552000  3
    216    222    223    225     1  0.0000000  1.2552000  3
    216    222    226    227     1  0.0000000  1.2552000  3
    216    222    226    228     1  0.0000000  1.2552000  3
    217    216    219    239     1  0.0000000  0.6508444  3
    217    216    219    220     1  0.0000000  0.6508444  3
    217    216    219    221     1  0.0000000  0.6508444  3
    217    216    222    223     1  0.0000000  1.2552000  3
    217    216    222    226     1  0.0000000  1.2552000  3
    218    216    219    239     1  0.0000000  0.6508444  3
    218    216    219    220     1  0.0000000  0.6508444  3
    218    216    219    221     1  0.0000000  0.6508444  3
    218    216    222    223     1  0.0000000  1.2552000  3
    218    216    222    226     1  0.0000000  1.2552000  3
    220    219    216    222     1  0.0000000  0.6508444  3
    220    219    239    240     1  0.0000000  0.0000000  2
    221    219    216    222     1  0.0000000  0.6508444  3
    221    219    239    240     1  0.0000000  0.0000000  2
    222    223    232    233     1  0.0000000  0.6508444  3
    222    223    232    234     1  0.0000000  0.6508444  3
    222    226    229    230     1  0.0000000  0.6508444  3
    222    226    229    231     1  0.0000000  0.6508444  3
    223    222    226    227     1  0.0000000  1.2552000  3
    223    222    226    228     1  0.0000000  1.2552000  3
    224    223    222    226     1  0.0000000  1.2552000  3
    224    223    232    236     1  0.0000000  0.6508444  3
    224    223    232    233     1  0.0000000  0.6508444  3
    224    223    232    234     1  0.0000000  0.6508444  3
    225    223    222    226     1  0.0000000  1.2552000  3
    225    223    232    236     1  0.0000000  0.6508444  3
    225    223    232    233     1  0.0000000  0.6508444  3
    225    223    232    234     1  0.0000000  0.6508444  3
    227    226    229    235     1  0.0000000  0.6508444  3
    227    226    229    230     1  0.0000000  0.6508444  3
    227    226    229    231     1  0.0000000  0.6508444  3
    228    226    229    235     1  0.0000000  0.6508444  3
    228    226    229    230     1  0.0000000  0.6508444  3
    228    226    229    231     1  0.0000000  0.6508444  3
    229    235    514    515     1  180.0000771  10.4600000  2
    230    229    235    237     1  0.0000000  3.3472000  1
    230    229    235    237     1  0.0000000  0.0000000  2
    230    229    235    237     1  180.0000771  0.3347200  3
    230    229    235    514     1  180.0000771  0.0000000  2
    231    229    235    237     1  0.0000000  3.3472000  1
    231    229    235    237     1  0.0000000  0.0000000  2
    231    229    235    237     1  180.0000771  0.3347200  3
    231    229    235    514     1  180.0000771  0.0000000  2
    232    236    539    540     1  180.0000771  10.4600000  2
    233    232    236    238     1  0.0000000  3.3472000  1
    233    232    236    238     1  0.0000000  0.0000000  2
    233    232    236    238     1  180.0000771  0.3347200  3
    233    232    236    539     1  180.0000771  0.0000000  2
    234    232    236    238     1  0.0000000  3.3472000  1
    234    232    236    238     1  0.0000000  0.0000000  2
    234    232    236    238     1  180.0000771  0.3347200  3
    234    232    236    539     1  180.0000771  0.0000000  2
    235    514    494    495     1  0.0000000  0.0000000  2
    235    514    494    496     1  0.0000000  0.0000000  2
    236    539    519    520     1  0.0000000  0.0000000  2
    236    539    519    521     1  0.0000000  0.0000000  2
    237    235    514    515     1  0.0000000  8.3680000  1
    237    235    514    515     1  180.0000771  10.4600000  2
    238    236    539    540     1  0.0000000  8.3680000  1
    238    236    539    540     1  180.0000771  10.4600000  2
    241    244    264    265     1  0.0000000  0.0000000  2
    241    247    248    249     1  0.0000000  1.2552000  3
    241    247    248    250     1  0.0000000  1.2552000  3
    241    247    251    252     1  0.0000000  1.2552000  3
    241    247    251    253     1  0.0000000  1.2552000  3
    242    241    244    264     1  0.0000000  0.6508444  3
    242    241    244    245     1  0.0000000  0.6508444  3
    242    241    244    246     1  0.0000000  0.6508444  3
    242    241    247    248     1  0.0000000  1.2552000  3
    242    241    247    251     1  0.0000000  1.2552000  3
    243    241    244    264     1  0.0000000  0.6508444  3
    243    241    244    245     1  0.0000000  0.6508444  3
    243    241    244    246     1  0.0000000  0.6508444  3
    243    241    247    248     1  0.0000000  1.2552000  3
    243    241    247    251     1  0.0000000  1.2552000  3
    245    244    241    247     1  0.0000000  0.6508444  3
    245    244    264    265     1  0.0000000  0.0000000  2
    246    244    241    247     1  0.0000000  0.6508444  3
    246    244    264    265     1  0.0000000  0.0000000  2
    247    248    257    258     1  0.0000000  0.6508444  3
    247    248    257    259     1  0.0000000  0.6508444  3
    247    251    254    255     1  0.0000000  0.6508444  3
    247    251    254    256     1  0.0000000  0.6508444  3
    248    247    251    252     1  0.0000000  1.2552000  3
    248    247    251    253     1  0.0000000  1.2552000  3
    249    248    247    251     1  0.0000000  1.2552000  3
    249    248    257    261     1  0.0000000  0.6508444  3
    249    248    257    258     1  0.0000000  0.6508444  3
    249    248    257    259     1  0.0000000  0.6508444  3
    250    248    247    251     1  0.0000000  1.2552000  3
    250    248    257    261     1  0.0000000  0.6508444  3
    250    248    257    258     1  0.0000000  0.6508444  3
    250    248    257    259     1  0.0000000  0.6508444  3
    252    251    254    260     1  0.0000000  0.6508444  3
    252    251    254    255     1  0.0000000  0.6508444  3
    252    251    254    256     1  0.0000000  0.6508444  3
    253    251    254    260     1  0.0000000  0.6508444  3
    253    251    254    255     1  0.0000000  0.6508444  3
    253    251    254    256     1  0.0000000  0.6508444  3
    254    260    564    565     1  180.0000771  10.4600000  2
    255    254    260    262     1  0.0000000  3.3472000  1
    255    254    260    262     1  0.0000000  0.0000000  2
    255    254    260    262     1  180.0000771  0.3347200  3
    255    254    260    564     1  180.0000771  0.0000000  2
    256    254    260    262     1  0.0000000  3.3472000  1
    256    254    260    262     1  0.0000000  0.0000000  2
    256    254    260    262     1  180.0000771  0.3347200  3
    256    254    260    564     1  180.0000771  0.0000000  2
    257    261    589    590     1  180.0000771  10.4600000  2
    258    257    261    263     1  0.0000000  3.3472000  1
    258    257    261    263     1  0.0000000  0.0000000  2
    258    257    261    263     1  180.0000771  0.3347200  3
    258    257    261    589     1  180.0000771  0.0000000  2
    259    257    261    263     1  0.0000000  3.3472000  1
    259    257    261    263     1  0.0000000  0.0000000  2
    259    257    261    263     1  180.0000771  0.3347200  3
    259    257    261    589     1  180.0000771  0.0000000  2
    260    564    544    545     1  0.0000000  0.0000000  2
    260    564    544    546     1  0.0000000  0.0000000  2
    261    589    569    570     1  0.0000000  0.0000000  2
    261    589    569    571     1  0.0000000  0.0000000  2
    262    260    564    565     1  0.0000000  8.3680000  1
    262    260    564    565     1  180.0000771  10.4600000  2
    263    261    589    590     1  0.0000000  8.3680000  1
    263    261    589    590     1  180.0000771  10.4600000  2
    266    269    289    290     1  0.0000000  0.0000000  2
    266    272    273    274     1  0.0000000  1.2552000  3
    266    272    273    275     1  0.0000000  1.2552000  3
    266    272    276    277     1  0.0000000  1.2552000  3
    266    272    276    278     1  0.0000000  1.2552000  3
    267    266    269    289     1  0.0000000  0.6508444  3
    267    266    269    270     1  0.0000000  0.6508444  3
    267    266    269    271     1  0.0000000  0.6508444  3
    267    266    272    273     1  0.0000000  1.2552000  3
    267    266    272    276     1  0.0000000  1.2552000  3
    268    266    269    289     1  0.0000000  0.6508444  3
    268    266    269    270     1  0.0000000  0.6508444  3
    268    266    269    271     1  0.0000000  0.6508444  3
    268    266    272    273     1  0.0000000  1.2552000  3
    268    266    272    276     1  0.0000000  1.2552000  3
    270    269    266    272     1  0.0000000  0.6508444  3
    270    269    289    290     1  0.0000000  0.0000000  2
    271    269    266    272     1  0.0000000  0.6508444  3
    271    269    289    290     1  0.0000000  0.0000000  2
    272    273    282    283     1  0.0000000  0.6508444  3
    272    273    282    284     1  0.0000000  0.6508444  3
    272    276    279    280     1  0.0000000  0.6508444  3
    272    276    279    281     1  0.0000000  0.6508444  3
    273    272    276    277     1  0.0000000  1.2552000  3
    273    272    276    278     1  0.0000000  1.2552000  3
    274    273    272    276     1  0.0000000  1.2552000  3
    274    273    282    286     1  0.0000000  0.6508444  3
    274    273    282    283     1  0.0000000  0.6508444  3
    274    273    282    284     1  0.0000000  0.6508444  3
    275    273    272    276     1  0.0000000  1.2552000  3
    275    273    282    286     1  0.0000000  0.6508444  3
    275    273    282    283     1  0.0000000  0.6508444  3
    275    273    282    284     1  0.0000000  0.6508444  3
    277    276    279    285     1  0.0000000  0.6508444  3
    277    276    279    280     1  0.0000000  0.6508444  3
    277    276    279    281     1  0.0000000  0.6508444  3
    278    276    279    285     1  0.0000000  0.6508444  3
    278    276    279    280     1  0.0000000  0.6508444  3
    278    276    279    281     1  0.0000000  0.6508444  3
    279    285    614    615     1  180.0000771  10.4600000  2
    280    279    285    287     1  0.0000000  3.3472000  1
    280    279    285    287     1  0.0000000  0.0000000  2
    280    279    285    287     1  180.0000771  0.3347200  3
    280    279    285    614     1  180.0000771  0.0000000  2
    281    279    285    287     1  0.0000000  3.3472000  1
    281    279    285    287     1  0.0000000  0.0000000  2
    281    279    285    287     1  180.0000771  0.3347200  3
    281    279    285    614     1  180.0000771  0.0000000  2
    282    286    639    640     1  180.0000771  10.4600000  2
    283    282    286    288     1  0.0000000  3.3472000  1
    283    282    286    288     1  0.0000000  0.0000000  2
    283    282    286    288     1  180.0000771  0.3347200  3
    283    282    286    639     1  180.0000771  0.0000000  2
    284    282    286    288     1  0.0000000  3.3472000  1
    284    282    286    288     1  0.0000000  0.0000000  2
    284    282    286    288     1  180.0000771  0.3347200  3
    284    282    286    639     1  180.0000771  0.0000000  2
    285    614    594    595     1  0.0000000  0.0000000  2
    285    614    594    596     1  0.0000000  0.0000000  2
    286    639    619    620     1  0.0000000  0.0000000  2
    286    639    619    621     1  0.0000000  0.0000000  2
    287    285    614    615     1  0.0000000  8.3680000  1
    287    285    614    615     1  180.0000771  10.4600000  2
    288    286    639    640     1  0.0000000  8.3680000  1
    288    286    639    640     1  180.0000771  10.4600000  2
    291    294    314    315     1  0.0000000  0.0000000  2
    291    297    298    299     1  0.0000000  1.2552000  3
    291    297    298    300     1  0.0000000  1.2552000  3
    291    297    301    302     1  0.0000000  1.2552000  3
    291    297    301    303     1  0.0000000  1.2552000  3
    292    291    294    314     1  0.0000000  0.6508444  3
    292    291    294    295     1  0.0000000  0.6508444  3
    292    291    294    296     1  0.0000000  0.6508444  3
    292    291    297    298     1  0.0000000  1.2552000  3
    292    291    297    301     1  0.0000000  1.2552000  3
    293    291    294    314     1  0.0000000  0.6508444  3
    293    291    294    295     1  0.0000000  0.6508444  3
    293    291    294    296     1  0.0000000  0.6508444  3
    293    291    297    298     1  0.0000000  1.2552000  3
    293    291    297    301     1  0.0000000  1.2552000  3
    295    294    291    297     1  0.0000000  0.6508444  3
    295    294    314    315     1  0.0000000  0.0000000  2
    296    294    291    297     1  0.0000000  0.6508444  3
    296    294    314    315     1  0.0000000  0.0000000  2
    297    298    307    308     1  0.0000000  0.6508444  3
    297    298    307    309     1  0.0000000  0.6508444  3
    297    301    304    305     1  0.0000000  0.6508444  3
    297    301    304    306     1  0.0000000  0.6508444  3
    298    297    301    302     1  0.0000000  1.2552000  3
    298    297    301    303     1  0.0000000  1.2552000  3
    299    298    297    301     1  0.0000000  1.2552000  3
    299    298    307    311     1  0.0000000  0.6508444  3
    299    298    307    308     1  0.0000000  0.6508444  3
    299    298    307    309     1  0.0000000  0.6508444  3
    300    298    297    301     1  0.0000000  1.2552000  3
    300    298    307    311     1  0.0000000  0.6508444  3
    300    298    307    308     1  0.0000000  0.6508444  3
    300    298    307    309     1  0.0000000  0.6508444  3
    302    301    304    310     1  0.0000000  0.6508444  3
    302    301    304    305     1  0.0000000  0.6508444  3
    302    301    304    306     1  0.0000000  0.6508444  3
    303    301    304    310     1  0.0000000  0.6508444  3
    303    301    304    305     1  0.0000000  0.6508444  3
    303    301    304    306     1  0.0000000  0.6508444  3
    304    310    664    665     1  180.0000771  10.4600000  2
    305    304    310    312     1  0.0000000  3.3472000  1
    305    304    310    312     1  0.0000000  0.0000000  2
    305    304    310    312     1  180.0000771  0.3347200  3
    305    304    310    664     1  180.0000771  0.0000000  2
    306    304    310    312     1  0.0000000  3.3472000  1
    306    304    310    312     1  0.0000000  0.0000000  2
    306    304    310    312     1  180.0000771  0.3347200  3
    306    304    310    664     1  180.0000771  0.0000000  2
    307    311    689    690     1  180.0000771  10.4600000  2
    308    307    311    313     1  0.0000000  3.3472000  1
    308    307    311    313     1  0.0000000  0.0000000  2
    308    307    311    313     1  180.0000771  0.3347200  3
    308    307    311    689     1  180.0000771  0.0000000  2
    309    307    311    313     1  0.0000000  3.3472000  1
    309    307    311    313     1  0.0000000  0.0000000  2
    309    307    311    313     1  180.0000771  0.3347200  3
    309    307    311    689     1  180.0000771  0.0000000  2
    310    664    644    645     1  0.0000000  0.0000000  2
    310    664    644    646     1  0.0000000  0.0000000  2
    311    689    669    670     1  0.0000000  0.0000000  2
    311    689    669    671     1  0.0000000  0.0000000  2
    312    310    664    665     1  0.0000000  8.3680000  1
    312    310    664    665     1  180.0000771  10.4600000  2
    313    311    689    690     1  0.0000000  8.3680000  1
    313    311    689    690     1  180.0000771  10.4600000  2
    316    319    339    340     1  0.0000000  0.0000000  2
    316    322    323    324     1  0.0000000  1.2552000  3
    316    322    323    325     1  0.0000000  1.2552000  3
    316    322    326    327     1  0.0000000  1.2552000  3
    316    322    326    328     1  0.0000000  1.2552000  3
    317    316    319    339     1  0.0000000  0.6508444  3
    317    316    319    320     1  0.0000000  0.6508444  3
    317    316    319    321     1  0.0000000  0.6508444  3
    317    316    322    323     1  0.0000000  1.2552000  3
    317    316    322    326     1  0.0000000  1.2552000  3
    318    316    319    339     1  0.0000000  0.6508444  3
    318    316    319    320     1  0.0000000  0.6508444  3
    318    316    319    321     1  0.0000000  0.6508444  3
    318    316    322    323     1  0.0000000  1.2552000  3
    318    316    322    326     1  0.0000000  1.2552000  3
    320    319    316    322     1  0.0000000  0.6508444  3
    320    319    339    340     1  0.0000000  0.0000000  2
    321    319    316    322     1  0.0000000  0.6508444  3
    321    319    339    340     1  0.0000000  0.0000000  2
    322    323    332    333     1  0.0000000  0.6508444  3
    322    323    332    334     1  0.0000000  0.6508444  3
    322    326    329    330     1  0.0000000  0.6508444  3
    322    326    329    331     1  0.0000000  0.6508444  3
    323    322    326    327     1  0.0000000  1.2552000  3
    323    322    326    328     1  0.0000000  1.2552000  3
    324    323    322    326     1  0.0000000  1.2552000  3
    324    323    332    336     1  0.0000000  0.6508444  3
    324    323    332    333     1  0.0000000  0.6508444  3
    324    323    332    334     1  0.0000000  0.6508444  3
    325    323    322    326     1  0.0000000  1.2552000  3
    325    323    332    336     1  0.0000000  0.6508444  3
    325    323    332    333     1  0.0000000  0.6508444  3
    325    323    332    334     1  0.0000000  0.6508444  3
    327    326    329    335     1  0.0000000  0.6508444  3
    327    326    329    330     1  0.0000000  0.6508444  3
    327    326    329    331     1  0.0000000  0.6508444  3
    328    326    329    335     1  0.0000000  0.6508444  3
    328    326    329    330     1  0.0000000  0.6508444  3
    328    326    329    331     1  0.0000000  0.6508444  3
    329    335    714    715     1  180.0000771  10.4600000  2
    330    329    335    337     1  0.0000000  3.3472000  1
    330    329    335    337     1  0.0000000  0.0000000  2
    330    329    335    337     1  180.0000771  0.3347200  3
    330    329    335    714     1  180.0000771  0.0000000  2
    331    329    335    337     1  0.0000000  3.3472000  1
    331    329    335    337     1  0.0000000  0.0000000  2
    331    329    335    337     1  180.0000771  0.3347200  3
    331    329    335    714     1  180.0000771  0.0000000  2
    332    336    739    740     1  180.0000771  10.4600000  2
    333    332    336    338     1  0.0000000  3.3472000  1
    333    332    336    338     1  0.0000000  0.0000000  2
    333    332    336    338     1  180.0000771  0.3347200  3
    333    332    336    739     1  180.0000771  0.0000000  2
    334    332    336    338     1  0.0000000  3.3472000  1
    334    332    336    338     1  0.0000000  0.0000000  2
    334    332    336    338     1  180.0000771  0.3347200  3
    334    332    336    739     1  180.0000771  0.0000000  2
    335    714    694    695     1  0.0000000  0.0000000  2
    335    714    694    696     1  0.0000000  0.0000000  2
    336    739    719    720     1  0.0000000  0.0000000  2
    336    739    719    721     1  0.0000000  0.0000000  2
    337    335    714    715     1  0.0000000  8.3680000  1
    337    335    714    715     1  180.0000771  10.4600000  2
    338    336    739    740     1  0.0000000  8.3680000  1
    338    336    739    740     1  180.0000771  10.4600000  2
    341    344    364    365     1  0.0000000  0.0000000  2
    341    347    348    349     1  0.0000000  1.2552000  3
    341    347    348    350     1  0.0000000  1.2552000  3
    341    347    351    352     1  0.0000000  1.2552000  3
    341    347    351    353     1  0.0000000  1.2552000  3
    342    341    344    364     1  0.0000000  0.6508444  3
    342    341    344    345     1  0.0000000  0.6508444  3
    342    341    344    346     1  0.0000000  0.6508444  3
    342    341    347    348     1  0.0000000  1.2552000  3
    342    341    347    351     1  0.0000000  1.2552000  3
    343    341    344    364     1  0.0000000  0.6508444  3
    343    341    344    345     1  0.0000000  0.6508444  3
    343    341    344    346     1  0.0000000  0.6508444  3
    343    341    347    348     1  0.0000000  1.2552000  3
    343    341    347    351     1  0.0000000  1.2552000  3
    345    344    341    347     1  0.0000000  0.6508444  3
    345    344    364    365     1  0.0000000  0.0000000  2
    346    344    341    347     1  0.0000000  0.6508444  3
    346    344    364    365     1  0.0000000  0.0000000  2
    347    348    357    358     1  0.0000000  0.6508444  3
    347    348    357    359     1  0.0000000  0.6508444  3
    347    351    354    355     1  0.0000000  0.6508444  3
    347    351    354    356     1  0.0000000  0.6508444  3
    348    347    351    352     1  0.0000000  1.2552000  3
    348    347    351    353     1  0.0000000  1.2552000  3
    349    348    347    351     1  0.0000000  1.2552000  3
    349    348    357    361     1  0.0000000  0.6508444  3
    349    348    357    358     1  0.0000000  0.6508444  3
    349    348    357    359     1  0.0000000  0.6508444  3
    350    348    347    351     1  0.0000000  1.2552000  3
    350    348    357    361     1  0.0000000  0.6508444  3
    350    348    357    358     1  0.0000000  0.6508444  3
    350    348    357    359     1  0.0000000  0.6508444  3
    352    351    354    360     1  0.0000000  0.6508444  3
    352    351    354    355     1  0.0000000  0.6508444  3
    352    351    354    356     1  0.0000000  0.6508444  3
    353    351    354    360     1  0.0000000  0.6508444  3
    353    351    354    355     1  0.0000000  0.6508444  3
    353    351    354    356     1  0.0000000  0.6508444  3
    354    360    741    742     1  180.0000771  10.4600000  2
    355    354    360    741     1  180.0000771  0.0000000  2
    355    354    360    362     1  0.0000000  3.3472000  1
    355    354    360    362     1  0.0000000  0.0000000  2
    355    354    360    362     1  180.0000771  0.3347200  3
    356    354    360    741     1  180.0000771  0.0000000  2
    356    354    360    362     1  0.0000000  3.3472000  1
    356    354    360    362     1  0.0000000  0.0000000  2
    356    354    360    362     1  180.0000771  0.3347200  3
    357    361    814    815     1  180.0000771  10.4600000  2
    358    357    361    363     1  0.0000000  3.3472000  1
    358    357    361    363     1  0.0000000  0.0000000  2
    358    357    361    363     1  180.0000771  0.3347200  3
    358    357    361    814     1  180.0000771  0.0000000  2
    359    357    361    363     1  0.0000000  3.3472000  1
    359    357    361    363     1  0.0000000  0.0000000  2
    359    357    361    363     1  180.0000771  0.3347200  3
    359    357    361    814     1  180.0000771  0.0000000  2
    360    741    743    744     1  0.0000000  0.0000000  2
    360    741    743    746     1  0.0000000  0.0000000  2
    361    814    816    817     1  0.0000000  0.0000000  2
    361    814    816    819     1  0.0000000  0.0000000  2
    362    360    741    742     1  0.0000000  8.3680000  1
    362    360    741    742     1  180.0000771  10.4600000  2
    363    361    814    815     1  0.0000000  8.3680000  1
    363    361    814    815     1  180.0000771  10.4600000  2
    366    369    389    390     1  0.0000000  0.0000000  2
    366    372    373    374     1  0.0000000  1.2552000  3
    366    372    373    375     1  0.0000000  1.2552000  3
    366    372    376    377     1  0.0000000  1.2552000  3
    366    372    376    378     1  0.0000000  1.2552000  3
    367    366    369    389     1  0.0000000  0.6508444  3
    367    366    369    370     1  0.0000000  0.6508444  3
    367    366    369    371     1  0.0000000  0.6508444  3
    367    366    372    373     1  0.0000000  1.2552000  3
    367    366    372    376     1  0.0000000  1.2552000  3
    368    366    369    389     1  0.0000000  0.6508444  3
    368    366    369    370     1  0.0000000  0.6508444  3
    368    366    369    371     1  0.0000000  0.6508444  3
    368    366    372    373     1  0.0000000  1.2552000  3
    368    366    372    376     1  0.0000000  1.2552000  3
    370    369    366    372     1  0.0000000  0.6508444  3
    370    369    389    390     1  0.0000000  0.0000000  2
    371    369    366    372     1  0.0000000  0.6508444  3
    371    369    389    390     1  0.0000000  0.0000000  2
    372    373    382    383     1  0.0000000  0.6508444  3
    372    373    382    384     1  0.0000000  0.6508444  3
    372    376    379    380     1  0.0000000  0.6508444  3
    372    376    379    381     1  0.0000000  0.6508444  3
    373    372    376    377     1  0.0000000  1.2552000  3
    373    372    376    378     1  0.0000000  1.2552000  3
    374    373    372    376     1  0.0000000  1.2552000  3
    374    373    382    386     1  0.0000000  0.6508444  3
    374    373    382    383     1  0.0000000  0.6508444  3
    374    373    382    384     1  0.0000000  0.6508444  3
    375    373    372    376     1  0.0000000  1.2552000  3
    375    373    382    386     1  0.0000000  0.6508444  3
    375    373    382    383     1  0.0000000  0.6508444  3
    375    373    382    384     1  0.0000000  0.6508444  3
    377    376    379    385     1  0.0000000  0.6508444  3
    377    376    379    380     1  0.0000000  0.6508444  3
    377    376    379    381     1  0.0000000  0.6508444  3
    378    376    379    385     1  0.0000000  0.6508444  3
    378    376    379    380     1  0.0000000  0.6508444  3
    378    376    379    381     1  0.0000000  0.6508444  3
    379    385    887    888     1  180.0000771  10.4600000  2
    380    379    385    887     1  180.0000771  0.0000000  2
    380    379    385    387     1  0.0000000  3.3472000  1
    380    379    385    387     1  0.0000000  0.0000000  2
    380    379    385    387     1  180.0000771  0.3347200  3
    381    379    385    887     1  180.0000771  0.0000000  2
    381    379    385    387     1  0.0000000  3.3472000  1
    381    379    385    387     1  0.0000000  0.0000000  2
    381    379    385    387     1  180.0000771  0.3347200  3
    382    386    960    961     1  180.0000771  10.4600000  2
    383    382    386    388     1  0.0000000  3.3472000  1
    383    382    386    388     1  0.0000000  0.0000000  2
    383    382    386    388     1  180.0000771  0.3347200  3
    383    382    386    960     1  180.0000771  0.0000000  2
    384    382    386    388     1  0.0000000  3.3472000  1
    384    382    386    388     1  0.0000000  0.0000000  2
    384    382    386    388     1  180.0000771  0.3347200  3
    384    382    386    960     1  180.0000771  0.0000000  2
    385    887    889    890     1  0.0000000  0.0000000  2
    385    887    889    892     1  0.0000000  0.0000000  2
    386    960    962    963     1  0.0000000  0.0000000  2
    386    960    962    965     1  0.0000000  0.0000000  2
    387    385    887    888     1  0.0000000  8.3680000  1
    387    385    887    888     1  180.0000771  10.4600000  2
    388    386    960    961     1  0.0000000  8.3680000  1
    388    386    960    961     1  180.0000771  10.4600000  2
    391    394    414    415     1  0.0000000  0.0000000  2
    391    397    398    399     1  0.0000000  1.2552000  3
    391    397    398    400     1  0.0000000  1.2552000  3
    391    397    401    402     1  0.0000000  1.2552000  3
    391    397    401    403     1  0.0000000  1.2552000  3
    392    391    394    414     1  0.0000000  0.6508444  3
    392    391    394    395     1  0.0000000  0.6508444  3
    392    391    394    396     1  0.0000000  0.6508444  3
    392    391    397    398     1  0.0000000  1.2552000  3
    392    391    397    401     1  0.0000000  1.2552000  3
    393    391    394    414     1  0.0000000  0.6508444  3
    393    391    394    395     1  0.0000000  0.6508444  3
    393    391    394    396     1  0.0000000  0.6508444  3
    393    391    397    398     1  0.0000000  1.2552000  3
    393    391    397    401     1  0.0000000  1.2552000  3
    395    394    391    397     1  0.0000000  0.6508444  3
    395    394    414    415     1  0.0000000  0.0000000  2
    396    394    391    397     1  0.0000000  0.6508444  3
    396    394    414    415     1  0.0000000  0.0000000  2
    397    398    407    408     1  0.0000000  0.6508444  3
    397    398    407    409     1  0.0000000  0.6508444  3
    397    401    404    405     1  0.0000000  0.6508444  3
    397    401    404    406     1  0.0000000  0.6508444  3
    398    397    401    402     1  0.0000000  1.2552000  3
    398    397    401    403     1  0.0000000  1.2552000  3
    399    398    397    401     1  0.0000000  1.2552000  3
    399    398    407    411     1  0.0000000  0.6508444  3
    399    398    407    408     1  0.0000000  0.6508444  3
    399    398    407    409     1  0.0000000  0.6508444  3
    400    398    397    401     1  0.0000000  1.2552000  3
    400    398    407    411     1  0.0000000  0.6508444  3
    400    398    407    408     1  0.0000000  0.6508444  3
    400    398    407    409     1  0.0000000  0.6508444  3
    402    401    404    410     1  0.0000000  0.6508444  3
    402    401    404    405     1  0.0000000  0.6508444  3
    402    401    404    406     1  0.0000000  0.6508444  3
    403    401    404    410     1  0.0000000  0.6508444  3
    403    401    404    405     1  0.0000000  0.6508444  3
    403    401    404    406     1  0.0000000  0.6508444  3
    404    410   1033   1034     1  180.0000771  10.4600000  2
    405    404    410   1033     1  180.0000771  0.0000000  2
    405    404    410    412     1  0.0000000  3.3472000  1
    405    404    410    412     1  0.0000000  0.0000000  2
    405    404    410    412     1  180.0000771  0.3347200  3
    406    404    410   1033     1  180.0000771  0.0000000  2
    406    404    410    412     1  0.0000000  3.3472000  1
    406    404    410    412     1  0.0000000  0.0000000  2
    406    404    410    412     1  180.0000771  0.3347200  3
    407    411   1106   1107     1  180.0000771  10.4600000  2
    408    407    411    413     1  0.0000000  3.3472000  1
    408    407    411    413     1  0.0000000  0.0000000  2
    408    407    411    413     1  180.0000771  0.3347200  3
    408    407    411   1106     1  180.0000771  0.0000000  2
    409    407    411    413     1  0.0000000  3.3472000  1
    409    407    411    413     1  0.0000000  0.0000000  2
    409    407    411    413     1  180.0000771  0.3347200  3
    409    407    411   1106     1  180.0000771  0.0000000  2
    410   1033   1035   1036     1  0.0000000  0.0000000  2
    410   1033   1035   1038     1  0.0000000  0.0000000  2
    411   1106   1108   1109     1  0.0000000  0.0000000  2
    411   1106   1108   1111     1  0.0000000  0.0000000  2
    412    410   1033   1034     1  0.0000000  8.3680000  1
    412    410   1033   1034     1  180.0000771  10.4600000  2
    413    411   1106   1107     1  0.0000000  8.3680000  1
    413    411   1106   1107     1  180.0000771  10.4600000  2
    416    419    439    440     1  0.0000000  0.0000000  2
    416    422    423    424     1  0.0000000  1.2552000  3
    416    422    423    425     1  0.0000000  1.2552000  3
    416    422    426    427     1  0.0000000  1.2552000  3
    416    422    426    428     1  0.0000000  1.2552000  3
    417    416    419    439     1  0.0000000  0.6508444  3
    417    416    419    420     1  0.0000000  0.6508444  3
    417    416    419    421     1  0.0000000  0.6508444  3
    417    416    422    423     1  0.0000000  1.2552000  3
    417    416    422    426     1  0.0000000  1.2552000  3
    418    416    419    439     1  0.0000000  0.6508444  3
    418    416    419    420     1  0.0000000  0.6508444  3
    418    416    419    421     1  0.0000000  0.6508444  3
    418    416    422    423     1  0.0000000  1.2552000  3
    418    416    422    426     1  0.0000000  1.2552000  3
    420    419    416    422     1  0.0000000  0.6508444  3
    420    419    439    440     1  0.0000000  0.0000000  2
    421    419    416    422     1  0.0000000  0.6508444  3
    421    419    439    440     1  0.0000000  0.0000000  2
    422    423    432    433     1  0.0000000  0.6508444  3
    422    423    432    434     1  0.0000000  0.6508444  3
    422    426    429    430     1  0.0000000  0.6508444  3
    422    426    429    431     1  0.0000000  0.6508444  3
    423    422    426    427     1  0.0000000  1.2552000  3
    423    422    426    428     1  0.0000000  1.2552000  3
    424    423    422    426     1  0.0000000  1.2552000  3
    424    423    432    436     1  0.0000000  0.6508444  3
    424    423    432    433     1  0.0000000  0.6508444  3
    424    423    432    434     1  0.0000000  0.6508444  3
    425    423    422    426     1  0.0000000  1.2552000  3
    425    423    432    436     1  0.0000000  0.6508444  3
    425    423    432    433     1  0.0000000  0.6508444  3
    425    423    432    434     1  0.0000000  0.6508444  3
    427    426    429    435     1  0.0000000  0.6508444  3
    427    426    429    430     1  0.0000000  0.6508444  3
    427    426    429    431     1  0.0000000  0.6508444  3
    428    426    429    435     1  0.0000000  0.6508444  3
    428    426    429    430     1  0.0000000  0.6508444  3
    428    426    429    431     1  0.0000000  0.6508444  3
    429    435   1179   1180     1  180.0000771  10.4600000  2
    430    429    435   1179     1  180.0000771  0.0000000  2
    430    429    435    437     1  0.0000000  3.3472000  1
    430    429    435    437     1  0.0000000  0.0000000  2
    430    429    435    437     1  180.0000771  0.3347200  3
    431    429    435   1179     1  180.0000771  0.0000000  2
    431    429    435    437     1  0.0000000  3.3472000  1
    431    429    435    437     1  0.0000000  0.0000000  2
    431    429    435    437     1  180.0000771  0.3347200  3
    432    436   1252   1253     1  180.0000771  10.4600000  2
    433    432    436    438     1  0.0000000  3.3472000  1
    433    432    436    438     1  0.0000000  0.0000000  2
    433    432    436    438     1  180.0000771  0.3347200  3
    433    432    436   1252     1  180.0000771  0.0000000  2
    434    432    436    438     1  0.0000000  3.3472000  1
    434    432    436    438     1  0.0000000  0.0000000  2
    434    432    436    438     1  180.0000771  0.3347200  3
    434    432    436   1252     1  180.0000771  0.0000000  2
    435   1179   1181   1182     1  0.0000000  0.0000000  2
    435   1179   1181   1184     1  0.0000000  0.0000000  2
    436   1252   1254   1255     1  0.0000000  0.0000000  2
    436   1252   1254   1257     1  0.0000000  0.0000000  2
    437    435   1179   1180     1  0.0000000  8.3680000  1
    437    435   1179   1180     1  180.0000771  10.4600000  2
    438    436   1252   1253     1  0.0000000  8.3680000  1
    438    436   1252   1253     1  180.0000771  10.4600000  2
    441    444    464    465     1  0.0000000  0.0000000  2
    441    447    448    449     1  0.0000000  1.2552000  3
    441    447    448    450     1  0.0000000  1.2552000  3
    441    447    451    452     1  0.0000000  1.2552000  3
    441    447    451    453     1  0.0000000  1.2552000  3
    442    441    444    464     1  0.0000000  0.6508444  3
    442    441    444    445     1  0.0000000  0.6508444  3
    442    441    444    446     1  0.0000000  0.6508444  3
    442    441    447    448     1  0.0000000  1.2552000  3
    442    441    447    451     1  0.0000000  1.2552000  3
    443    441    444    464     1  0.0000000  0.6508444  3
    443    441    444    445     1  0.0000000  0.6508444  3
    443    441    444    446     1  0.0000000  0.6508444  3
    443    441    447    448     1  0.0000000  1.2552000  3
    443    441    447    451     1  0.0000000  1.2552000  3
    445    444    441    447     1  0.0000000  0.6508444  3
    445    444    464    465     1  0.0000000  0.0000000  2
    446    444    441    447     1  0.0000000  0.6508444  3
    446    444    464    465     1  0.0000000  0.0000000  2
    447    448    457    458     1  0.0000000  0.6508444  3
    447    448    457    459     1  0.0000000  0.6508444  3
    447    451    454    455     1  0.0000000  0.6508444  3
    447    451    454    456     1  0.0000000  0.6508444  3
    448    447    451    452     1  0.0000000  1.2552000  3
    448    447    451    453     1  0.0000000  1.2552000  3
    449    448    447    451     1  0.0000000  1.2552000  3
    449    448    457    461     1  0.0000000  0.6508444  3
    449    448    457    458     1  0.0000000  0.6508444  3
    449    448    457    459     1  0.0000000  0.6508444  3
    450    448    447    451     1  0.0000000  1.2552000  3
    450    448    457    461     1  0.0000000  0.6508444  3
    450    448    457    458     1  0.0000000  0.6508444  3
    450    448    457    459     1  0.0000000  0.6508444  3
    452    451    454    460     1  0.0000000  0.6508444  3
    452    451    454    455     1  0.0000000  0.6508444  3
    452    451    454    456     1  0.0000000  0.6508444  3
    453    451    454    460     1  0.0000000  0.6508444  3
    453    451    454    455     1  0.0000000  0.6508444  3
    453    451    454    456     1  0.0000000  0.6508444  3
    454    460   1325   1326     1  180.0000771  10.4600000  2
    455    454    460   1325     1  180.0000771  0.0000000  2
    455    454    460    462     1  0.0000000  3.3472000  1
    455    454    460    462     1  0.0000000  0.0000000  2
    455    454    460    462     1  180.0000771  0.3347200  3
    456    454    460   1325     1  180.0000771  0.0000000  2
    456    454    460    462     1  0.0000000  3.3472000  1
    456    454    460    462     1  0.0000000  0.0000000  2
    456    454    460    462     1  180.0000771  0.3347200  3
    457    461   1398   1399     1  180.0000771  10.4600000  2
    458    457    461    463     1  0.0000000  3.3472000  1
    458    457    461    463     1  0.0000000  0.0000000  2
    458    457    461    463     1  180.0000771  0.3347200  3
    458    457    461   1398     1  180.0000771  0.0000000  2
    459    457    461    463     1  0.0000000  3.3472000  1
    459    457    461    463     1  0.0000000  0.0000000  2
    459    457    461    463     1  180.0000771  0.3347200  3
    459    457    461   1398     1  180.0000771  0.0000000  2
    460   1325   1327   1328     1  0.0000000  0.0000000  2
    460   1325   1327   1330     1  0.0000000  0.0000000  2
    461   1398   1400   1401     1  0.0000000  0.0000000  2
    461   1398   1400   1403     1  0.0000000  0.0000000  2
    462    460   1325   1326     1  0.0000000  8.3680000  1
    462    460   1325   1326     1  180.0000771  10.4600000  2
    463    461   1398   1399     1  0.0000000  8.3680000  1
    463    461   1398   1399     1  180.0000771  10.4600000  2
    466    469    489    490     1  0.0000000  0.0000000  2
    466    472    473    474     1  0.0000000  1.2552000  3
    466    472    473    475     1  0.0000000  1.2552000  3
    466    472    476    477     1  0.0000000  1.2552000  3
    466    472    476    478     1  0.0000000  1.2552000  3
    467    466    469    489     1  0.0000000  0.6508444  3
    467    466    469    470     1  0.0000000  0.6508444  3
    467    466    469    471     1  0.0000000  0.6508444  3
    467    466    472    473     1  0.0000000  1.2552000  3
    467    466    472    476     1  0.0000000  1.2552000  3
    468    466    469    489     1  0.0000000  0.6508444  3
    468    466    469    470     1  0.0000000  0.6508444  3
    468    466    469    471     1  0.0000000  0.6508444  3
    468    466    472    473     1  0.0000000  1.2552000  3
    468    466    472    476     1  0.0000000  1.2552000  3
    470    469    466    472     1  0.0000000  0.6508444  3
    470    469    489    490     1  0.0000000  0.0000000  2
    471    469    466    472     1  0.0000000  0.6508444  3
    471    469    489    490     1  0.0000000  0.0000000  2
    472    473    482    483     1  0.0000000  0.6508444  3
    472    473    482    484     1  0.0000000  0.6508444  3
    472    476    479    480     1  0.0000000  0.6508444  3
    472    476    479    481     1  0.0000000  0.6508444  3
    473    472    476    477     1  0.0000000  1.2552000  3
    473    472    476    478     1  0.0000000  1.2552000  3
    474    473    472    476     1  0.0000000  1.2552000  3
    474    473    482    486     1  0.0000000  0.6508444  3
    474    473    482    483     1  0.0000000  0.6508444  3
    474    473    482    484     1  0.0000000  0.6508444  3
    475    473    472    476     1  0.0000000  1.2552000  3
    475    473    482    486     1  0.0000000  0.6508444  3
    475    473    482    483     1  0.0000000  0.6508444  3
    475    473    482    484     1  0.0000000  0.6508444  3
    477    476    479    485     1  0.0000000  0.6508444  3
    477    476    479    480     1  0.0000000  0.6508444  3
    477    476    479    481     1  0.0000000  0.6508444  3
    478    476    479    485     1  0.0000000  0.6508444  3
    478    476    479    480     1  0.0000000  0.6508444  3
    478    476    479    481     1  0.0000000  0.6508444  3
    479    485   1471   1472     1  180.0000771  10.4600000  2
    480    479    485   1471     1  180.0000771  0.0000000  2
    480    479    485    487     1  0.0000000  3.3472000  1
    480    479    485    487     1  0.0000000  0.0000000  2
    480    479    485    487     1  180.0000771  0.3347200  3
    481    479    485   1471     1  180.0000771  0.0000000  2
    481    479    485    487     1  0.0000000  3.3472000  1
    481    479    485    487     1  0.0000000  0.0000000  2
    481    479    485    487     1  180.0000771  0.3347200  3
    482    486   1544   1545     1  180.0000771  10.4600000  2
    483    482    486    488     1  0.0000000  3.3472000  1
    483    482    486    488     1  0.0000000  0.0000000  2
    483    482    486    488     1  180.0000771  0.3347200  3
    483    482    486   1544     1  180.0000771  0.0000000  2
    484    482    486    488     1  0.0000000  3.3472000  1
    484    482    486    488     1  0.0000000  0.0000000  2
    484    482    486    488     1  180.0000771  0.3347200  3
    484    482    486   1544     1  180.0000771  0.0000000  2
    485   1471   1473   1474     1  0.0000000  0.0000000  2
    485   1471   1473   1476     1  0.0000000  0.0000000  2
    486   1544   1546   1547     1  0.0000000  0.0000000  2
    486   1544   1546   1549     1  0.0000000  0.0000000  2
    487    485   1471   1472     1  0.0000000  8.3680000  1
    487    485   1471   1472     1  180.0000771  10.4600000  2
    488    486   1544   1545     1  0.0000000  8.3680000  1
    488    486   1544   1545     1  180.0000771  10.4600000  2
    491    494    514    515     1  0.0000000  0.0000000  2
    491    497    498    499     1  0.0000000  1.2552000  3
    491    497    498    500     1  0.0000000  1.2552000  3
    491    497    501    502     1  0.0000000  1.2552000  3
    491    497    501    503     1  0.0000000  1.2552000  3
    492    491    494    514     1  0.0000000  0.6508444  3
    492    491    494    495     1  0.0000000  0.6508444  3
    492    491    494    496     1  0.0000000  0.6508444  3
    492    491    497    498     1  0.0000000  1.2552000  3
    492    491    497    501     1  0.0000000  1.2552000  3
    493    491    494    514     1  0.0000000  0.6508444  3
    493    491    494    495     1  0.0000000  0.6508444  3
    493    491    494    496     1  0.0000000  0.6508444  3
    493    491    497    498     1  0.0000000  1.2552000  3
    493    491    497    501     1  0.0000000  1.2552000  3
    495    494    491    497     1  0.0000000  0.6508444  3
    495    494    514    515     1  0.0000000  0.0000000  2
    496    494    491    497     1  0.0000000  0.6508444  3
    496    494    514    515     1  0.0000000  0.0000000  2
    497    498    507    508     1  0.0000000  0.6508444  3
    497    498    507    509     1  0.0000000  0.6508444  3
    497    501    504    505     1  0.0000000  0.6508444  3
    497    501    504    506     1  0.0000000  0.6508444  3
    498    497    501    502     1  0.0000000  1.2552000  3
    498    497    501    503     1  0.0000000  1.2552000  3
    499    498    497    501     1  0.0000000  1.2552000  3
    499    498    507    511     1  0.0000000  0.6508444  3
    499    498    507    508     1  0.0000000  0.6508444  3
    499    498    507    509     1  0.0000000  0.6508444  3
    500    498    497    501     1  0.0000000  1.2552000  3
    500    498    507    511     1  0.0000000  0.6508444  3
    500    498    507    508     1  0.0000000  0.6508444  3
    500    498    507    509     1  0.0000000  0.6508444  3
    502    501    504    510     1  0.0000000  0.6508444  3
    502    501    504    505     1  0.0000000  0.6508444  3
    502    501    504    506     1  0.0000000  0.6508444  3
    503    501    504    510     1  0.0000000  0.6508444  3
    503    501    504    505     1  0.0000000  0.6508444  3
    503    501    504    506     1  0.0000000  0.6508444  3
    504    510   1617   1618     1  180.0000771  10.4600000  2
    505    504    510   1617     1  180.0000771  0.0000000  2
    505    504    510    512     1  0.0000000  3.3472000  1
    505    504    510    512     1  0.0000000  0.0000000  2
    505    504    510    512     1  180.0000771  0.3347200  3
    506    504    510   1617     1  180.0000771  0.0000000  2
    506    504    510    512     1  0.0000000  3.3472000  1
    506    504    510    512     1  0.0000000  0.0000000  2
    506    504    510    512     1  180.0000771  0.3347200  3
    507    511   1690   1691     1  180.0000771  10.4600000  2
    508    507    511    513     1  0.0000000  3.3472000  1
    508    507    511    513     1  0.0000000  0.0000000  2
    508    507    511    513     1  180.0000771  0.3347200  3
    508    507    511   1690     1  180.0000771  0.0000000  2
    509    507    511    513     1  0.0000000  3.3472000  1
    509    507    511    513     1  0.0000000  0.0000000  2
    509    507    511    513     1  180.0000771  0.3347200  3
    509    507    511   1690     1  180.0000771  0.0000000  2
    510   1617   1619   1620     1  0.0000000  0.0000000  2
    510   1617   1619   1622     1  0.0000000  0.0000000  2
    511   1690   1692   1693     1  0.0000000  0.0000000  2
    511   1690   1692   1695     1  0.0000000  0.0000000  2
    512    510   1617   1618     1  0.0000000  8.3680000  1
    512    510   1617   1618     1  180.0000771  10.4600000  2
    513    511   1690   1691     1  0.0000000  8.3680000  1
    513    511   1690   1691     1  180.0000771  10.4600000  2
    516    519    539    540     1  0.0000000  0.0000000  2
    516    522    523    524     1  0.0000000  1.2552000  3
    516    522    523    525     1  0.0000000  1.2552000  3
    516    522    526    527     1  0.0000000  1.2552000  3
    516    522    526    528     1  0.0000000  1.2552000  3
    517    516    519    539     1  0.0000000  0.6508444  3
    517    516    519    520     1  0.0000000  0.6508444  3
    517    516    519    521     1  0.0000000  0.6508444  3
    517    516    522    523     1  0.0000000  1.2552000  3
    517    516    522    526     1  0.0000000  1.2552000  3
    518    516    519    539     1  0.0000000  0.6508444  3
    518    516    519    520     1  0.0000000  0.6508444  3
    518    516    519    521     1  0.0000000  0.6508444  3
    518    516    522    523     1  0.0000000  1.2552000  3
    518    516    522    526     1  0.0000000  1.2552000  3
    520    519    516    522     1  0.0000000  0.6508444  3
    520    519    539    540     1  0.0000000  0.0000000  2
    521    519    516    522     1  0.0000000  0.6508444  3
    521    519    539    540     1  0.0000000  0.0000000  2
    522    523    532    533     1  0.0000000  0.6508444  3
    522    523    532    534     1  0.0000000  0.6508444  3
    522    526    529    530     1  0.0000000  0.6508444  3
    522    526    529    531     1  0.0000000  0.6508444  3
    523    522    526    527     1  0.0000000  1.2552000  3
    523    522    526    528     1  0.0000000  1.2552000  3
    524    523    522    526     1  0.0000000  1.2552000  3
    524    523    532    536     1  0.0000000  0.6508444  3
    524    523    532    533     1  0.0000000  0.6508444  3
    524    523    532    534     1  0.0000000  0.6508444  3
    525    523    522    526     1  0.0000000  1.2552000  3
    525    523    532    536     1  0.0000000  0.6508444  3
    525    523    532    533     1  0.0000000  0.6508444  3
    525    523    532    534     1  0.0000000  0.6508444  3
    527    526    529    535     1  0.0000000  0.6508444  3
    527    526    529    530     1  0.0000000  0.6508444  3
    527    526    529    531     1  0.0000000  0.6508444  3
    528    526    529    535     1  0.0000000  0.6508444  3
    528    526    529    530     1  0.0000000  0.6508444  3
    528    526    529    531     1  0.0000000  0.6508444  3
    529    535   1763   1764     1  180.0000771  10.4600000  2
    530    529    535   1763     1  180.0000771  0.0000000  2
    530    529    535    537     1  0.0000000  3.3472000  1
    530    529    535    537     1  0.0000000  0.0000000  2
    530    529    535    537     1  180.0000771  0.3347200  3
    531    529    535   1763     1  180.0000771  0.0000000  2
    531    529    535    537     1  0.0000000  3.3472000  1
    531    529    535    537     1  0.0000000  0.0000000  2
    531    529    535    537     1  180.0000771  0.3347200  3
    532    536   1836   1837     1  180.0000771  10.4600000  2
    533    532    536    538     1  0.0000000  3.3472000  1
    533    532    536    538     1  0.0000000  0.0000000  2
    533    532    536    538     1  180.0000771  0.3347200  3
    533    532    536   1836     1  180.0000771  0.0000000  2
    534    532    536    538     1  0.0000000  3.3472000  1
    534    532    536    538     1  0.0000000  0.0000000  2
    534    532    536    538     1  180.0000771  0.3347200  3
    534    532    536   1836     1  180.0000771  0.0000000  2
    535   1763   1765   1766     1  0.0000000  0.0000000  2
    535   1763   1765   1768     1  0.0000000  0.0000000  2
    536   1836   1838   1839     1  0.0000000  0.0000000  2
    536   1836   1838   1841     1  0.0000000  0.0000000  2
    537    535   1763   1764     1  0.0000000  8.3680000  1
    537    535   1763   1764     1  180.0000771  10.4600000  2
    538    536   1836   1837     1  0.0000000  8.3680000  1
    538    536   1836   1837     1  180.0000771  10.4600000  2
    541    544    564    565     1  0.0000000  0.0000000  2
    541    547    548    549     1  0.0000000  1.2552000  3
    541    547    548    550     1  0.0000000  1.2552000  3
    541    547    551    552     1  0.0000000  1.2552000  3
    541    547    551    553     1  0.0000000  1.2552000  3
    542    541    544    564     1  0.0000000  0.6508444  3
    542    541    544    545     1  0.0000000  0.6508444  3
    542    541    544    546     1  0.0000000  0.6508444  3
    542    541    547    548     1  0.0000000  1.2552000  3
    542    541    547    551     1  0.0000000  1.2552000  3
    543    541    544    564     1  0.0000000  0.6508444  3
    543    541    544    545     1  0.0000000  0.6508444  3
    543    541    544    546     1  0.0000000  0.6508444  3
    543    541    547    548     1  0.0000000  1.2552000  3
    543    541    547    551     1  0.0000000  1.2552000  3
    545    544    541    547     1  0.0000000  0.6508444  3
    545    544    564    565     1  0.0000000  0.0000000  2
    546    544    541    547     1  0.0000000  0.6508444  3
    546    544    564    565     1  0.0000000  0.0000000  2
    547    548    557    558     1  0.0000000  0.6508444  3
    547    548    557    559     1  0.0000000  0.6508444  3
    547    551    554    555     1  0.0000000  0.6508444  3
    547    551    554    556     1  0.0000000  0.6508444  3
    548    547    551    552     1  0.0000000  1.2552000  3
    548    547    551    553     1  0.0000000  1.2552000  3
    549    548    547    551     1  0.0000000  1.2552000  3
    549    548    557    561     1  0.0000000  0.6508444  3
    549    548    557    558     1  0.0000000  0.6508444  3
    549    548    557    559     1  0.0000000  0.6508444  3
    550    548    547    551     1  0.0000000  1.2552000  3
    550    548    557    561     1  0.0000000  0.6508444  3
    550    548    557    558     1  0.0000000  0.6508444  3
    550    548    557    559     1  0.0000000  0.6508444  3
    552    551    554    560     1  0.0000000  0.6508444  3
    552    551    554    555     1  0.0000000  0.6508444  3
    552    551    554    556     1  0.0000000  0.6508444  3
    553    551    554    560     1  0.0000000  0.6508444  3
    553    551    554    555     1  0.0000000  0.6508444  3
    553    551    554    556     1  0.0000000  0.6508444  3
    554    560   1909   1910     1  180.0000771  10.4600000  2
    555    554    560   1909     1  180.0000771  0.0000000  2
    555    554    560    562     1  0.0000000  3.3472000  1
    555    554    560    562     1  0.0000000  0.0000000  2
    555    554    560    562     1  180.0000771  0.3347200  3
    556    554    560   1909     1  180.0000771  0.0000000  2
    556    554    560    562     1  0.0000000  3.3472000  1
    556    554    560    562     1  0.0000000  0.0000000  2
    556    554    560    562     1  180.0000771  0.3347200  3
    557    561   1982   1983     1  180.0000771  10.4600000  2
    558    557    561    563     1  0.0000000  3.3472000  1
    558    557    561    563     1  0.0000000  0.0000000  2
    558    557    561    563     1  180.0000771  0.3347200  3
    558    557    561   1982     1  180.0000771  0.0000000  2
    559    557    561    563     1  0.0000000  3.3472000  1
    559    557    561    563     1  0.0000000  0.0000000  2
    559    557    561    563     1  180.0000771  0.3347200  3
    559    557    561   1982     1  180.0000771  0.0000000  2
    560   1909   1911   1912     1  0.0000000  0.0000000  2
    560   1909   1911   1914     1  0.0000000  0.0000000  2
    561   1982   1984   1985     1  0.0000000  0.0000000  2
    561   1982   1984   1987     1  0.0000000  0.0000000  2
    562    560   1909   1910     1  0.0000000  8.3680000  1
    562    560   1909   1910     1  180.0000771  10.4600000  2
    563    561   1982   1983     1  0.0000000  8.3680000  1
    563    561   1982   1983     1  180.0000771  10.4600000  2
    566    569    589    590     1  0.0000000  0.0000000  2
    566    572    573    574     1  0.0000000  1.2552000  3
    566    572    573    575     1  0.0000000  1.2552000  3
    566    572    576    577     1  0.0000000  1.2552000  3
    566    572    576    578     1  0.0000000  1.2552000  3
    567    566    569    589     1  0.0000000  0.6508444  3
    567    566    569    570     1  0.0000000  0.6508444  3
    567    566    569    571     1  0.0000000  0.6508444  3
    567    566    572    573     1  0.0000000  1.2552000  3
    567    566    572    576     1  0.0000000  1.2552000  3
    568    566    569    589     1  0.0000000  0.6508444  3
    568    566    569    570     1  0.0000000  0.6508444  3
    568    566    569    571     1  0.0000000  0.6508444  3
    568    566    572    573     1  0.0000000  1.2552000  3
    568    566    572    576     1  0.0000000  1.2552000  3
    570    569    566    572     1  0.0000000  0.6508444  3
    570    569    589    590     1  0.0000000  0.0000000  2
    571    569    566    572     1  0.0000000  0.6508444  3
    571    569    589    590     1  0.0000000  0.0000000  2
    572    573    582    583     1  0.0000000  0.6508444  3
    572    573    582    584     1  0.0000000  0.6508444  3
    572    576    579    580     1  0.0000000  0.6508444  3
    572    576    579    581     1  0.0000000  0.6508444  3
    573    572    576    577     1  0.0000000  1.2552000  3
    573    572    576    578     1  0.0000000  1.2552000  3
    574    573    572    576     1  0.0000000  1.2552000  3
    574    573    582    586     1  0.0000000  0.6508444  3
    574    573    582    583     1  0.0000000  0.6508444  3
    574    573    582    584     1  0.0000000  0.6508444  3
    575    573    572    576     1  0.0000000  1.2552000  3
    575    573    582    586     1  0.0000000  0.6508444  3
    575    573    582    583     1  0.0000000  0.6508444  3
    575    573    582    584     1  0.0000000  0.6508444  3
    577    576    579    585     1  0.0000000  0.6508444  3
    577    576    579    580     1  0.0000000  0.6508444  3
    577    576    579    581     1  0.0000000  0.6508444  3
    578    576    579    585     1  0.0000000  0.6508444  3
    578    576    579    580     1  0.0000000  0.6508444  3
    578    576    579    581     1  0.0000000  0.6508444  3
    579    585   2055   2056     1  180.0000771  10.4600000  2
    580    579    585   2055     1  180.0000771  0.0000000  2
    580    579    585    587     1  0.0000000  3.3472000  1
    580    579    585    587     1  0.0000000  0.0000000  2
    580    579    585    587     1  180.0000771  0.3347200  3
    581    579    585   2055     1  180.0000771  0.0000000  2
    581    579    585    587     1  0.0000000  3.3472000  1
    581    579    585    587     1  0.0000000  0.0000000  2
    581    579    585    587     1  180.0000771  0.3347200  3
    582    586   2128   2129     1  180.0000771  10.4600000  2
    583    582    586    588     1  0.0000000  3.3472000  1
    583    582    586    588     1  0.0000000  0.0000000  2
    583    582    586    588     1  180.0000771  0.3347200  3
    583    582    586   2128     1  180.0000771  0.0000000  2
    584    582    586    588     1  0.0000000  3.3472000  1
    584    582    586    588     1  0.0000000  0.0000000  2
    584    582    586    588     1  180.0000771  0.3347200  3
    584    582    586   2128     1  180.0000771  0.0000000  2
    585   2055   2057   2058     1  0.0000000  0.0000000  2
    585   2055   2057   2060     1  0.0000000  0.0000000  2
    586   2128   2130   2131     1  0.0000000  0.0000000  2
    586   2128   2130   2133     1  0.0000000  0.0000000  2
    587    585   2055   2056     1  0.0000000  8.3680000  1
    587    585   2055   2056     1  180.0000771  10.4600000  2
    588    586   2128   2129     1  0.0000000  8.3680000  1
    588    586   2128   2129     1  180.0000771  10.4600000  2
    591    594    614    615     1  0.0000000  0.0000000  2
    591    597    598    599     1  0.0000000  1.2552000  3
    591    597    598    600     1  0.0000000  1.2552000  3
    591    597    601    602     1  0.0000000  1.2552000  3
    591    597    601    603     1  0.0000000  1.2552000  3
    592    591    594    614     1  0.0000000  0.6508444  3
    592    591    594    595     1  0.0000000  0.6508444  3
    592    591    594    596     1  0.0000000  0.6508444  3
    592    591    597    598     1  0.0000000  1.2552000  3
    592    591    597    601     1  0.0000000  1.2552000  3
    593    591    594    614     1  0.0000000  0.6508444  3
    593    591    594    595     1  0.0000000  0.6508444  3
    593    591    594    596     1  0.0000000  0.6508444  3
    593    591    597    598     1  0.0000000  1.2552000  3
    593    591    597    601     1  0.0000000  1.2552000  3
    595    594    591    597     1  0.0000000  0.6508444  3
    595    594    614    615     1  0.0000000  0.0000000  2
    596    594    591    597     1  0.0000000  0.6508444  3
    596    594    614    615     1  0.0000000  0.0000000  2
    597    598    607    608     1  0.0000000  0.6508444  3
    597    598    607    609     1  0.0000000  0.6508444  3
    597    601    604    605     1  0.0000000  0.6508444  3
    597    601    604    606     1  0.0000000  0.6508444  3
    598    597    601    602     1  0.0000000  1.2552000  3
    598    597    601    603     1  0.0000000  1.2552000  3
    599    598    597    601     1  0.0000000  1.2552000  3
    599    598    607    611     1  0.0000000  0.6508444  3
    599    598    607    608     1  0.0000000  0.6508444  3
    599    598    607    609     1  0.0000000  0.6508444  3
    600    598    597    601     1  0.0000000  1.2552000  3
    600    598    607    611     1  0.0000000  0.6508444  3
    600    598    607    608     1  0.0000000  0.6508444  3
    600    598    607    609     1  0.0000000  0.6508444  3
    602    601    604    610     1  0.0000000  0.6508444  3
    602    601    604    605     1  0.0000000  0.6508444  3
    602    601    604    606     1  0.0000000  0.6508444  3
    603    601    604    610     1  0.0000000  0.6508444  3
    603    601    604    605     1  0.0000000  0.6508444  3
    603    601    604    606     1  0.0000000  0.6508444  3
    604    610   2201   2202     1  180.0000771  10.4600000  2
    605    604    610   2201     1  180.0000771  0.0000000  2
    605    604    610    612     1  0.0000000  3.3472000  1
    605    604    610    612     1  0.0000000  0.0000000  2
    605    604    610    612     1  180.0000771  0.3347200  3
    606    604    610   2201     1  180.0000771  0.0000000  2
    606    604    610    612     1  0.0000000  3.3472000  1
    606    604    610    612     1  0.0000000  0.0000000  2
    606    604    610    612     1  180.0000771  0.3347200  3
    607    611   2274   2275     1  180.0000771  10.4600000  2
    608    607    611    613     1  0.0000000  3.3472000  1
    608    607    611    613     1  0.0000000  0.0000000  2
    608    607    611    613     1  180.0000771  0.3347200  3
    608    607    611   2274     1  180.0000771  0.0000000  2
    609    607    611    613     1  0.0000000  3.3472000  1
    609    607    611    613     1  0.0000000  0.0000000  2
    609    607    611    613     1  180.0000771  0.3347200  3
    609    607    611   2274     1  180.0000771  0.0000000  2
    610   2201   2203   2204     1  0.0000000  0.0000000  2
    610   2201   2203   2206     1  0.0000000  0.0000000  2
    611   2274   2276   2277     1  0.0000000  0.0000000  2
    611   2274   2276   2279     1  0.0000000  0.0000000  2
    612    610   2201   2202     1  0.0000000  8.3680000  1
    612    610   2201   2202     1  180.0000771  10.4600000  2
    613    611   2274   2275     1  0.0000000  8.3680000  1
    613    611   2274   2275     1  180.0000771  10.4600000  2
    616    619    639    640     1  0.0000000  0.0000000  2
    616    622    623    624     1  0.0000000  1.2552000  3
    616    622    623    625     1  0.0000000  1.2552000  3
    616    622    626    627     1  0.0000000  1.2552000  3
    616    622    626    628     1  0.0000000  1.2552000  3
    617    616    619    639     1  0.0000000  0.6508444  3
    617    616    619    620     1  0.0000000  0.6508444  3
    617    616    619    621     1  0.0000000  0.6508444  3
    617    616    622    623     1  0.0000000  1.2552000  3
    617    616    622    626     1  0.0000000  1.2552000  3
    618    616    619    639     1  0.0000000  0.6508444  3
    618    616    619    620     1  0.0000000  0.6508444  3
    618    616    619    621     1  0.0000000  0.6508444  3
    618    616    622    623     1  0.0000000  1.2552000  3
    618    616    622    626     1  0.0000000  1.2552000  3
    620    619    616    622     1  0.0000000  0.6508444  3
    620    619    639    640     1  0.0000000  0.0000000  2
    621    619    616    622     1  0.0000000  0.6508444  3
    621    619    639    640     1  0.0000000  0.0000000  2
    622    623    632    633     1  0.0000000  0.6508444  3
    622    623    632    634     1  0.0000000  0.6508444  3
    622    626    629    630     1  0.0000000  0.6508444  3
    622    626    629    631     1  0.0000000  0.6508444  3
    623    622    626    627     1  0.0000000  1.2552000  3
    623    622    626    628     1  0.0000000  1.2552000  3
    624    623    622    626     1  0.0000000  1.2552000  3
    624    623    632    636     1  0.0000000  0.6508444  3
    624    623    632    633     1  0.0000000  0.6508444  3
    624    623    632    634     1  0.0000000  0.6508444  3
    625    623    622    626     1  0.0000000  1.2552000  3
    625    623    632    636     1  0.0000000  0.6508444  3
    625    623    632    633     1  0.0000000  0.6508444  3
    625    623    632    634     1  0.0000000  0.6508444  3
    627    626    629    635     1  0.0000000  0.6508444  3
    627    626    629    630     1  0.0000000  0.6508444  3
    627    626    629    631     1  0.0000000  0.6508444  3
    628    626    629    635     1  0.0000000  0.6508444  3
    628    626    629    630     1  0.0000000  0.6508444  3
    628    626    629    631     1  0.0000000  0.6508444  3
    629    635   2347   2348     1  180.0000771  10.4600000  2
    630    629    635   2347     1  180.0000771  0.0000000  2
    630    629    635    637     1  0.0000000  3.3472000  1
    630    629    635    637     1  0.0000000  0.0000000  2
    630    629    635    637     1  180.0000771  0.3347200  3
    631    629    635   2347     1  180.0000771  0.0000000  2
    631    629    635    637     1  0.0000000  3.3472000  1
    631    629    635    637     1  0.0000000  0.0000000  2
    631    629    635    637     1  180.0000771  0.3347200  3
    632    636   2420   2421     1  180.0000771  10.4600000  2
    633    632    636    638     1  0.0000000  3.3472000  1
    633    632    636    638     1  0.0000000  0.0000000  2
    633    632    636    638     1  180.0000771  0.3347200  3
    633    632    636   2420     1  180.0000771  0.0000000  2
    634    632    636    638     1  0.0000000  3.3472000  1
    634    632    636    638     1  0.0000000  0.0000000  2
    634    632    636    638     1  180.0000771  0.3347200  3
    634    632    636   2420     1  180.0000771  0.0000000  2
    635   2347   2349   2350     1  0.0000000  0.0000000  2
    635   2347   2349   2352     1  0.0000000  0.0000000  2
    636   2420   2422   2423     1  0.0000000  0.0000000  2
    636   2420   2422   2425     1  0.0000000  0.0000000  2
    637    635   2347   2348     1  0.0000000  8.3680000  1
    637    635   2347   2348     1  180.0000771  10.4600000  2
    638    636   2420   2421     1  0.0000000  8.3680000  1
    638    636   2420   2421     1  180.0000771  10.4600000  2
    641    644    664    665     1  0.0000000  0.0000000  2
    641    647    648    649     1  0.0000000  1.2552000  3
    641    647    648    650     1  0.0000000  1.2552000  3
    641    647    651    652     1  0.0000000  1.2552000  3
    641    647    651    653     1  0.0000000  1.2552000  3
    642    641    644    664     1  0.0000000  0.6508444  3
    642    641    644    645     1  0.0000000  0.6508444  3
    642    641    644    646     1  0.0000000  0.6508444  3
    642    641    647    648     1  0.0000000  1.2552000  3
    642    641    647    651     1  0.0000000  1.2552000  3
    643    641    644    664     1  0.0000000  0.6508444  3
    643    641    644    645     1  0.0000000  0.6508444  3
    643    641    644    646     1  0.0000000  0.6508444  3
    643    641    647    648     1  0.0000000  1.2552000  3
    643    641    647    651     1  0.0000000  1.2552000  3
    645    644    641    647     1  0.0000000  0.6508444  3
    645    644    664    665     1  0.0000000  0.0000000  2
    646    644    641    647     1  0.0000000  0.6508444  3
    646    644    664    665     1  0.0000000  0.0000000  2
    647    648    657    658     1  0.0000000  0.6508444  3
    647    648    657    659     1  0.0000000  0.6508444  3
    647    651    654    655     1  0.0000000  0.6508444  3
    647    651    654    656     1  0.0000000  0.6508444  3
    648    647    651    652     1  0.0000000  1.2552000  3
    648    647    651    653     1  0.0000000  1.2552000  3
    649    648    647    651     1  0.0000000  1.2552000  3
    649    648    657    661     1  0.0000000  0.6508444  3
    649    648    657    658     1  0.0000000  0.6508444  3
    649    648    657    659     1  0.0000000  0.6508444  3
    650    648    647    651     1  0.0000000  1.2552000  3
    650    648    657    661     1  0.0000000  0.6508444  3
    650    648    657    658     1  0.0000000  0.6508444  3
    650    648    657    659     1  0.0000000  0.6508444  3
    652    651    654    660     1  0.0000000  0.6508444  3
    652    651    654    655     1  0.0000000  0.6508444  3
    652    651    654    656     1  0.0000000  0.6508444  3
    653    651    654    660     1  0.0000000  0.6508444  3
    653    651    654    655     1  0.0000000  0.6508444  3
    653    651    654    656     1  0.0000000  0.6508444  3
    654    660   2493   2494     1  180.0000771  10.4600000  2
    655    654    660   2493     1  180.0000771  0.0000000  2
    655    654    660    662     1  0.0000000  3.3472000  1
    655    654    660    662     1  0.0000000  0.0000000  2
    655    654    660    662     1  180.0000771  0.3347200  3
    656    654    660   2493     1  180.0000771  0.0000000  2
    656    654    660    662     1  0.0000000  3.3472000  1
    656    654    660    662     1  0.0000000  0.0000000  2
    656    654    660    662     1  180.0000771  0.3347200  3
    657    661   2566   2567     1  180.0000771  10.4600000  2
    658    657    661    663     1  0.0000000  3.3472000  1
    658    657    661    663     1  0.0000000  0.0000000  2
    658    657    661    663     1  180.0000771  0.3347200  3
    658    657    661   2566     1  180.0000771  0.0000000  2
    659    657    661    663     1  0.0000000  3.3472000  1
    659    657    661    663     1  0.0000000  0.0000000  2
    659    657    661    663     1  180.0000771  0.3347200  3
    659    657    661   2566     1  180.0000771  0.0000000  2
    660   2493   2495   2496     1  0.0000000  0.0000000  2
    660   2493   2495   2498     1  0.0000000  0.0000000  2
    661   2566   2568   2569     1  0.0000000  0.0000000  2
    661   2566   2568   2571     1  0.0000000  0.0000000  2
    662    660   2493   2494     1  0.0000000  8.3680000  1
    662    660   2493   2494     1  180.0000771  10.4600000  2
    663    661   2566   2567     1  0.0000000  8.3680000  1
    663    661   2566   2567     1  180.0000771  10.4600000  2
    666    669    689    690     1  0.0000000  0.0000000  2
    666    672    673    674     1  0.0000000  1.2552000  3
    666    672    673    675     1  0.0000000  1.2552000  3
    666    672    676    677     1  0.0000000  1.2552000  3
    666    672    676    678     1  0.0000000  1.2552000  3
    667    666    669    689     1  0.0000000  0.6508444  3
    667    666    669    670     1  0.0000000  0.6508444  3
    667    666    669    671     1  0.0000000  0.6508444  3
    667    666    672    673     1  0.0000000  1.2552000  3
    667    666    672    676     1  0.0000000  1.2552000  3
    668    666    669    689     1  0.0000000  0.6508444  3
    668    666    669    670     1  0.0000000  0.6508444  3
    668    666    669    671     1  0.0000000  0.6508444  3
    668    666    672    673     1  0.0000000  1.2552000  3
    668    666    672    676     1  0.0000000  1.2552000  3
    670    669    666    672     1  0.0000000  0.6508444  3
    670    669    689    690     1  0.0000000  0.0000000  2
    671    669    666    672     1  0.0000000  0.6508444  3
    671    669    689    690     1  0.0000000  0.0000000  2
    672    673    682    683     1  0.0000000  0.6508444  3
    672    673    682    684     1  0.0000000  0.6508444  3
    672    676    679    680     1  0.0000000  0.6508444  3
    672    676    679    681     1  0.0000000  0.6508444  3
    673    672    676    677     1  0.0000000  1.2552000  3
    673    672    676    678     1  0.0000000  1.2552000  3
    674    673    672    676     1  0.0000000  1.2552000  3
    674    673    682    686     1  0.0000000  0.6508444  3
    674    673    682    683     1  0.0000000  0.6508444  3
    674    673    682    684     1  0.0000000  0.6508444  3
    675    673    672    676     1  0.0000000  1.2552000  3
    675    673    682    686     1  0.0000000  0.6508444  3
    675    673    682    683     1  0.0000000  0.6508444  3
    675    673    682    684     1  0.0000000  0.6508444  3
    677    676    679    685     1  0.0000000  0.6508444  3
    677    676    679    680     1  0.0000000  0.6508444  3
    677    676    679    681     1  0.0000000  0.6508444  3
    678    676    679    685     1  0.0000000  0.6508444  3
    678    676    679    680     1  0.0000000  0.6508444  3
    678    676    679    681     1  0.0000000  0.6508444  3
    679    685   2639   2640     1  180.0000771  10.4600000  2
    680    679    685   2639     1  180.0000771  0.0000000  2
    680    679    685    687     1  0.0000000  3.3472000  1
    680    679    685    687     1  0.0000000  0.0000000  2
    680    679    685    687     1  180.0000771  0.3347200  3
    681    679    685   2639     1  180.0000771  0.0000000  2
    681    679    685    687     1  0.0000000  3.3472000  1
    681    679    685    687     1  0.0000000  0.0000000  2
    681    679    685    687     1  180.0000771  0.3347200  3
    682    686   2712   2713     1  180.0000771  10.4600000  2
    683    682    686    688     1  0.0000000  3.3472000  1
    683    682    686    688     1  0.0000000  0.0000000  2
    683    682    686    688     1  180.0000771  0.3347200  3
    683    682    686   2712     1  180.0000771  0.0000000  2
    684    682    686    688     1  0.0000000  3.3472000  1
    684    682    686    688     1  0.0000000  0.0000000  2
    684    682    686    688     1  180.0000771  0.3347200  3
    684    682    686   2712     1  180.0000771  0.0000000  2
    685   2639   2641   2642     1  0.0000000  0.0000000  2
    685   2639   2641   2644     1  0.0000000  0.0000000  2
    686   2712   2714   2715     1  0.0000000  0.0000000  2
    686   2712   2714   2717     1  0.0000000  0.0000000  2
    687    685   2639   2640     1  0.0000000  8.3680000  1
    687    685   2639   2640     1  180.0000771  10.4600000  2
    688    686   2712   2713     1  0.0000000  8.3680000  1
    688    686   2712   2713     1  180.0000771  10.4600000  2
    691    694    714    715     1  0.0000000  0.0000000  2
    691    697    698    699     1  0.0000000  1.2552000  3
    691    697    698    700     1  0.0000000  1.2552000  3
    691    697    701    702     1  0.0000000  1.2552000  3
    691    697    701    703     1  0.0000000  1.2552000  3
    692    691    694    714     1  0.0000000  0.6508444  3
    692    691    694    695     1  0.0000000  0.6508444  3
    692    691    694    696     1  0.0000000  0.6508444  3
    692    691    697    698     1  0.0000000  1.2552000  3
    692    691    697    701     1  0.0000000  1.2552000  3
    693    691    694    714     1  0.0000000  0.6508444  3
    693    691    694    695     1  0.0000000  0.6508444  3
    693    691    694    696     1  0.0000000  0.6508444  3
    693    691    697    698     1  0.0000000  1.2552000  3
    693    691    697    701     1  0.0000000  1.2552000  3
    695    694    691    697     1  0.0000000  0.6508444  3
    695    694    714    715     1  0.0000000  0.0000000  2
    696    694    691    697     1  0.0000000  0.6508444  3
    696    694    714    715     1  0.0000000  0.0000000  2
    697    698    707    708     1  0.0000000  0.6508444  3
    697    698    707    709     1  0.0000000  0.6508444  3
    697    701    704    705     1  0.0000000  0.6508444  3
    697    701    704    706     1  0.0000000  0.6508444  3
    698    697    701    702     1  0.0000000  1.2552000  3
    698    697    701    703     1  0.0000000  1.2552000  3
    699    698    697    701     1  0.0000000  1.2552000  3
    699    698    707    711     1  0.0000000  0.6508444  3
    699    698    707    708     1  0.0000000  0.6508444  3
    699    698    707    709     1  0.0000000  0.6508444  3
    700    698    697    701     1  0.0000000  1.2552000  3
    700    698    707    711     1  0.0000000  0.6508444  3
    700    698    707    708     1  0.0000000  0.6508444  3
    700    698    707    709     1  0.0000000  0.6508444  3
    702    701    704    710     1  0.0000000  0.6508444  3
    702    701    704    705     1  0.0000000  0.6508444  3
    702    701    704    706     1  0.0000000  0.6508444  3
    703    701    704    710     1  0.0000000  0.6508444  3
    703    701    704    705     1  0.0000000  0.6508444  3
    703    701    704    706     1  0.0000000  0.6508444  3
    704    710   2785   2786     1  180.0000771  10.4600000  2
    705    704    710   2785     1  180.0000771  0.0000000  2
    705    704    710    712     1  0.0000000  3.3472000  1
    705    704    710    712     1  0.0000000  0.0000000  2
    705    704    710    712     1  180.0000771  0.3347200  3
    706    704    710   2785     1  180.0000771  0.0000000  2
    706    704    710    712     1  0.0000000  3.3472000  1
    706    704    710    712     1  0.0000000  0.0000000  2
    706    704    710    712     1  180.0000771  0.3347200  3
    707    711   2858   2859     1  180.0000771  10.4600000  2
    708    707    711    713     1  0.0000000  3.3472000  1
    708    707    711    713     1  0.0000000  0.0000000  2
    708    707    711    713     1  180.0000771  0.3347200  3
    708    707    711   2858     1  180.0000771  0.0000000  2
    709    707    711    713     1  0.0000000  3.3472000  1
    709    707    711    713     1  0.0000000  0.0000000  2
    709    707    711    713     1  180.0000771  0.3347200  3
    709    707    711   2858     1  180.0000771  0.0000000  2
    710   2785   2787   2788     1  0.0000000  0.0000000  2
    710   2785   2787   2790     1  0.0000000  0.0000000  2
    711   2858   2860   2861     1  0.0000000  0.0000000  2
    711   2858   2860   2863     1  0.0000000  0.0000000  2
    712    710   2785   2786     1  0.0000000  8.3680000  1
    712    710   2785   2786     1  180.0000771  10.4600000  2
    713    711   2858   2859     1  0.0000000  8.3680000  1
    713    711   2858   2859     1  180.0000771  10.4600000  2
    716    719    739    740     1  0.0000000  0.0000000  2
    716    722    723    724     1  0.0000000  1.2552000  3
    716    722    723    725     1  0.0000000  1.2552000  3
    716    722    726    727     1  0.0000000  1.2552000  3
    716    722    726    728     1  0.0000000  1.2552000  3
    717    716    719    739     1  0.0000000  0.6508444  3
    717    716    719    720     1  0.0000000  0.6508444  3
    717    716    719    721     1  0.0000000  0.6508444  3
    717    716    722    723     1  0.0000000  1.2552000  3
    717    716    722    726     1  0.0000000  1.2552000  3
    718    716    719    739     1  0.0000000  0.6508444  3
    718    716    719    720     1  0.0000000  0.6508444  3
    718    716    719    721     1  0.0000000  0.6508444  3
    718    716    722    723     1  0.0000000  1.2552000  3
    718    716    722    726     1  0.0000000  1.2552000  3
    720    719    716    722     1  0.0000000  0.6508444  3
    720    719    739    740     1  0.0000000  0.0000000  2
    721    719    716    722     1  0.0000000  0.6508444  3
    721    719    739    740     1  0.0000000  0.0000000  2
    722    723    732    733     1  0.0000000  0.6508444  3
    722    723    732    734     1  0.0000000  0.6508444  3
    722    726    729    730     1  0.0000000  0.6508444  3
    722    726    729    731     1  0.0000000  0.6508444  3
    723    722    726    727     1  0.0000000  1.2552000  3
    723    722    726    728     1  0.0000000  1.2552000  3
    724    723    722    726     1  0.0000000  1.2552000  3
    724    723    732    736     1  0.0000000  0.6508444  3
    724    723    732    733     1  0.0000000  0.6508444  3
    724    723    732    734     1  0.0000000  0.6508444  3
    725    723    722    726     1  0.0000000  1.2552000  3
    725    723    732    736     1  0.0000000  0.6508444  3
    725    723    732    733     1  0.0000000  0.6508444  3
    725    723    732    734     1  0.0000000  0.6508444  3
    727    726    729    735     1  0.0000000  0.6508444  3
    727    726    729    730     1  0.0000000  0.6508444  3
    727    726    729    731     1  0.0000000  0.6508444  3
    728    726    729    735     1  0.0000000  0.6508444  3
    728    726    729    730     1  0.0000000  0.6508444  3
    728    726    729    731     1  0.0000000  0.6508444  3
    729    735   2931   2932     1  180.0000771  10.4600000  2
    730    729    735   2931     1  180.0000771  0.0000000  2
    730    729    735    737     1  0.0000000  3.3472000  1
    730    729    735    737     1  0.0000000  0.0000000  2
    730    729    735    737     1  180.0000771  0.3347200  3
    731    729    735   2931     1  180.0000771  0.0000000  2
    731    729    735    737     1  0.0000000  3.3472000  1
    731    729    735    737     1  0.0000000  0.0000000  2
    731    729    735    737     1  180.0000771  0.3347200  3
    732    736   3004   3005     1  180.0000771  10.4600000  2
    733    732    736   3004     1  180.0000771  0.0000000  2
    733    732    736    738     1  0.0000000  3.3472000  1
    733    732    736    738     1  0.0000000  0.0000000  2
    733    732    736    738     1  180.0000771  0.3347200  3
    734    732    736   3004     1  180.0000771  0.0000000  2
    734    732    736    738     1  0.0000000  3.3472000  1
    734    732    736    738     1  0.0000000  0.0000000  2
    734    732    736    738     1  180.0000771  0.3347200  3
    735   2931   2933   2934     1  0.0000000  0.0000000  2
    735   2931   2933   2936     1  0.0000000  0.0000000  2
    736   3004   3006   3007     1  0.0000000  0.0000000  2
    736   3004   3006   3009     1  0.0000000  0.0000000  2
    737    735   2931   2932     1  0.0000000  8.3680000  1
    737    735   2931   2932     1  180.0000771  10.4600000  2
    738    736   3004   3005     1  0.0000000  8.3680000  1
    738    736   3004   3005     1  180.0000771  10.4600000  2
    741    743    745    747     1  0.0000000  0.6508444  3
    741    743    745    748     1  0.0000000  0.6508444  3
    742    741    743    745     1  0.0000000  0.0000000  2
    742    741    743    744     1  0.0000000  0.0000000  2
    742    741    743    746     1  0.0000000  0.0000000  2
    744    743    745    749     1  0.0000000  0.6508444  3
    744    743    745    747     1  0.0000000  0.6508444  3
    744    743    745    748     1  0.0000000  0.6508444  3
    745    749    750    759     1  0.0000000  1.2552000  3
    745    749    750    760     1  0.0000000  1.2552000  3
    745    749    751    752     1  0.0000000  1.2552000  3
    745    749    751    754     1  0.0000000  1.2552000  3
    746    743    745    749     1  0.0000000  0.6508444  3
    746    743    745    747     1  0.0000000  0.6508444  3
    746    743    745    748     1  0.0000000  0.6508444  3
    747    745    749    750     1  0.0000000  1.2552000  3
    747    745    749    751     1  0.0000000  1.2552000  3
    748    745    749    750     1  0.0000000  1.2552000  3
    748    745    749    751     1  0.0000000  1.2552000  3
    749    750    761    762     1  0.0000000  0.6508444  3
    749    750    761    763     1  0.0000000  0.6508444  3
    749    751    753    755     1  0.0000000  0.6508444  3
    749    751    753    756     1  0.0000000  0.6508444  3
    750    749    751    752     1  0.0000000  1.2552000  3
    750    749    751    754     1  0.0000000  1.2552000  3
    751    749    750    759     1  0.0000000  1.2552000  3
    751    749    750    760     1  0.0000000  1.2552000  3
    752    751    753    757     1  0.0000000  0.6508444  3
    752    751    753    755     1  0.0000000  0.6508444  3
    752    751    753    756     1  0.0000000  0.6508444  3
    753    757    789    779     1  180.0000771  6.0668000  2
    753    757    789    779     1  180.0000771  1.4644000  4
    754    751    753    757     1  0.0000000  0.6508444  3
    754    751    753    755     1  0.0000000  0.6508444  3
    754    751    753    756     1  0.0000000  0.6508444  3
    755    753    757    758     1  0.0000000  3.3472000  1
    755    753    757    758     1  0.0000000  0.0000000  2
    755    753    757    758     1  180.0000771  0.3347200  3
    755    753    757    789     1  180.0000771  0.0000000  2
    756    753    757    758     1  0.0000000  3.3472000  1
    756    753    757    758     1  0.0000000  0.0000000  2
    756    753    757    758     1  180.0000771  0.3347200  3
    756    753    757    789     1  180.0000771  0.0000000  2
    757    789    770    772     1  0.0000000  1.2552000  3
    758    757    789    779     1  180.0000771  6.0668000  2
    758    757    789    779     1  180.0000771  1.4644000  4
    759    750    761    764     1  0.0000000  0.6508444  3
    759    750    761    762     1  0.0000000  0.6508444  3
    759    750    761    763     1  0.0000000  0.6508444  3
    760    750    761    764     1  0.0000000  0.6508444  3
    760    750    761    762     1  0.0000000  0.6508444  3
    760    750    761    763     1  0.0000000  0.6508444  3
    761    764    813    803     1  180.0000771  6.0668000  2
    761    764    813    803     1  180.0000771  1.4644000  4
    762    761    764    765     1  0.0000000  3.3472000  1
    762    761    764    765     1  0.0000000  0.0000000  2
    762    761    764    765     1  180.0000771  0.3347200  3
    762    761    764    813     1  180.0000771  0.0000000  2
    763    761    764    765     1  0.0000000  3.3472000  1
    763    761    764    765     1  0.0000000  0.0000000  2
    763    761    764    765     1  180.0000771  0.3347200  3
    763    761    764    813     1  180.0000771  0.0000000  2
    764    813    794    796     1  0.0000000  1.2552000  3
    765    764    813    803     1  180.0000771  6.0668000  2
    765    764    813    803     1  180.0000771  1.4644000  4
    766    767    769    773     1  0.0000000  0.6508444  3
    766    767    787    788     1  0.0000000  1.0460000  1
    766    767    787    788     1  0.0000000  0.6694400  3
    766    777    782    783     1  0.0000000  1.0460000  1
    766    777    782    783     1  0.0000000  0.6694400  3
    766    784    771    774     1  0.0000000  1.6038667  3
    767    766    777    780     1  0.0000000  0.6508444  3
    767    766    777    781     1  0.0000000  0.6508444  3
    767    769    770    772     1  0.0000000  0.6508444  3
    767    769    776    778     1  0.0000000  1.0460000  1
    767    769    776    778     1  0.0000000  0.6694400  3
    768    766    767    769     1  0.0000000  0.6508444  3
    768    766    767    787     1  0.0000000  1.0460000  1
    768    766    767    787     1  0.0000000  0.0000000  3
    768    766    767    786     1  0.0000000  0.6508444  3
    768    766    777    782     1  0.0000000  1.0460000  1
    768    766    777    782     1  0.0000000  0.0000000  3
    768    766    777    780     1  0.0000000  0.6508444  3
    768    766    777    781     1  0.0000000  0.6508444  3
    768    766    784    771     1  0.0000000  1.6038667  3
    769    767    787    788     1  0.0000000  1.0460000  1
    769    767    787    788     1  0.0000000  0.6694400  3
    769    770    771    774     1  0.0000000  0.6508444  3
    769    770    789    779     1  0.0000000  1.2552000  3
    770    769    767    786     1  0.0000000  0.6508444  3
    770    769    776    778     1  0.0000000  1.0460000  1
    770    769    776    778     1  0.0000000  0.6694400  3
    770    771    775    785     1  0.0000000  1.0460000  1
    770    771    775    785     1  0.0000000  0.6694400  3
    771    770    769    773     1  0.0000000  0.6508444  3
    771    770    789    779     1  0.0000000  1.2552000  3
    772    770    769    776     1  0.0000000  1.0460000  1
    772    770    769    776     1  0.0000000  0.0000000  3
    772    770    769    773     1  0.0000000  0.6508444  3
    772    770    771    775     1  0.0000000  1.0460000  1
    772    770    771    775     1  0.0000000  0.0000000  3
    772    770    771    784     1  0.0000000  1.0460000  1
    772    770    771    784     1  0.0000000  0.0000000  3
    772    770    771    774     1  0.0000000  0.6508444  3
    772    770    789    779     1  0.0000000  1.2552000  3
    773    769    767    787     1  0.0000000  1.0460000  1
    773    769    767    787     1  0.0000000  0.0000000  3
    773    769    767    786     1  0.0000000  0.6508444  3
    773    769    770    789     1  0.0000000  0.6508444  3
    773    769    776    778     1  0.0000000  0.6973333  3
    774    771    770    789     1  0.0000000  0.6508444  3
    774    771    775    785     1  0.0000000  0.6973333  3
    776    769    767    786     1  0.0000000  1.0460000  1
    776    769    767    786     1  0.0000000  0.0000000  3
    777    766    767    786     1  0.0000000  0.6508444  3
    780    777    766    784     1  0.0000000  1.0460000  1
    780    777    766    784     1  0.0000000  0.0000000  3
    780    777    782    783     1  0.0000000  0.6973333  3
    781    777    766    784     1  0.0000000  1.0460000  1
    781    777    766    784     1  0.0000000  0.0000000  3
    781    777    782    783     1  0.0000000  0.6973333  3
    784    766    767    786     1  0.0000000  1.0460000  1
    784    766    767    786     1  0.0000000  0.0000000  3
    784    771    775    785     1  0.0000000  0.6973333  3
    786    767    787    788     1  0.0000000  0.6973333  3
    790    791    793    797     1  0.0000000  0.6508444  3
    790    791    811    812     1  0.0000000  1.0460000  1
    790    791    811    812     1  0.0000000  0.6694400  3
    790    801    806    807     1  0.0000000  1.0460000  1
    790    801    806    807     1  0.0000000  0.6694400  3
    790    808    795    798     1  0.0000000  1.6038667  3
    791    790    801    804     1  0.0000000  0.6508444  3
    791    790    801    805     1  0.0000000  0.6508444  3
    791    793    794    796     1  0.0000000  0.6508444  3
    791    793    800    802     1  0.0000000  1.0460000  1
    791    793    800    802     1  0.0000000  0.6694400  3
    792    790    791    793     1  0.0000000  0.6508444  3
    792    790    791    811     1  0.0000000  1.0460000  1
    792    790    791    811     1  0.0000000  0.0000000  3
    792    790    791    810     1  0.0000000  0.6508444  3
    792    790    801    806     1  0.0000000  1.0460000  1
    792    790    801    806     1  0.0000000  0.0000000  3
    792    790    801    804     1  0.0000000  0.6508444  3
    792    790    801    805     1  0.0000000  0.6508444  3
    792    790    808    795     1  0.0000000  1.6038667  3
    793    791    811    812     1  0.0000000  1.0460000  1
    793    791    811    812     1  0.0000000  0.6694400  3
    793    794    795    798     1  0.0000000  0.6508444  3
    793    794    813    803     1  0.0000000  1.2552000  3
    794    793    791    810     1  0.0000000  0.6508444  3
    794    793    800    802     1  0.0000000  1.0460000  1
    794    793    800    802     1  0.0000000  0.6694400  3
    794    795    799    809     1  0.0000000  1.0460000  1
    794    795    799    809     1  0.0000000  0.6694400  3
    795    794    793    797     1  0.0000000  0.6508444  3
    795    794    813    803     1  0.0000000  1.2552000  3
    796    794    793    800     1  0.0000000  1.0460000  1
    796    794    793    800     1  0.0000000  0.0000000  3
    796    794    793    797     1  0.0000000  0.6508444  3
    796    794    795    799     1  0.0000000  1.0460000  1
    796    794    795    799     1  0.0000000  0.0000000  3
    796    794    795    808     1  0.0000000  1.0460000  1
    796    794    795    808     1  0.0000000  0.0000000  3
    796    794    795    798     1  0.0000000  0.6508444  3
    796    794    813    803     1  0.0000000  1.2552000  3
    797    793    791    811     1  0.0000000  1.0460000  1
    797    793    791    811     1  0.0000000  0.0000000  3
    797    793    791    810     1  0.0000000  0.6508444  3
    797    793    794    813     1  0.0000000  0.6508444  3
    797    793    800    802     1  0.0000000  0.6973333  3
    798    795    794    813     1  0.0000000  0.6508444  3
    798    795    799    809     1  0.0000000  0.6973333  3
    800    793    791    810     1  0.0000000  1.0460000  1
    800    793    791    810     1  0.0000000  0.0000000  3
    801    790    791    810     1  0.0000000  0.6508444  3
    804    801    790    808     1  0.0000000  1.0460000  1
    804    801    790    808     1  0.0000000  0.0000000  3
    804    801    806    807     1  0.0000000  0.6973333  3
    805    801    790    808     1  0.0000000  1.0460000  1
    805    801    790    808     1  0.0000000  0.0000000  3
    805    801    806    807     1  0.0000000  0.6973333  3
    808    790    791    810     1  0.0000000  1.0460000  1
    808    790    791    810     1  0.0000000  0.0000000  3
    808    795    799    809     1  0.0000000  0.6973333  3
    810    791    811    812     1  0.0000000  0.6973333  3
    814    816    818    820     1  0.0000000  0.6508444  3
    814    816    818    821     1  0.0000000  0.6508444  3
    815    814    816    818     1  0.0000000  0.0000000  2
    815    814    816    817     1  0.0000000  0.0000000  2
    815    814    816    819     1  0.0000000  0.0000000  2
    817    816    818    822     1  0.0000000  0.6508444  3
    817    816    818    820     1  0.0000000  0.6508444  3
    817    816    818    821     1  0.0000000  0.6508444  3
    818    822    823    832     1  0.0000000  1.2552000  3
    818    822    823    833     1  0.0000000  1.2552000  3
    818    822    824    825     1  0.0000000  1.2552000  3
    818    822    824    827     1  0.0000000  1.2552000  3
    819    816    818    822     1  0.0000000  0.6508444  3
    819    816    818    820     1  0.0000000  0.6508444  3
    819    816    818    821     1  0.0000000  0.6508444  3
    820    818    822    823     1  0.0000000  1.2552000  3
    820    818    822    824     1  0.0000000  1.2552000  3
    821    818    822    823     1  0.0000000  1.2552000  3
    821    818    822    824     1  0.0000000  1.2552000  3
    822    823    834    835     1  0.0000000  0.6508444  3
    822    823    834    836     1  0.0000000  0.6508444  3
    822    824    826    828     1  0.0000000  0.6508444  3
    822    824    826    829     1  0.0000000  0.6508444  3
    823    822    824    825     1  0.0000000  1.2552000  3
    823    822    824    827     1  0.0000000  1.2552000  3
    824    822    823    832     1  0.0000000  1.2552000  3
    824    822    823    833     1  0.0000000  1.2552000  3
    825    824    826    830     1  0.0000000  0.6508444  3
    825    824    826    828     1  0.0000000  0.6508444  3
    825    824    826    829     1  0.0000000  0.6508444  3
    826    830    862    852     1  180.0000771  6.0668000  2
    826    830    862    852     1  180.0000771  1.4644000  4
    827    824    826    830     1  0.0000000  0.6508444  3
    827    824    826    828     1  0.0000000  0.6508444  3
    827    824    826    829     1  0.0000000  0.6508444  3
    828    826    830    831     1  0.0000000  3.3472000  1
    828    826    830    831     1  0.0000000  0.0000000  2
    828    826    830    831     1  180.0000771  0.3347200  3
    828    826    830    862     1  180.0000771  0.0000000  2
    829    826    830    831     1  0.0000000  3.3472000  1
    829    826    830    831     1  0.0000000  0.0000000  2
    829    826    830    831     1  180.0000771  0.3347200  3
    829    826    830    862     1  180.0000771  0.0000000  2
    830    862    843    845     1  0.0000000  1.2552000  3
    831    830    862    852     1  180.0000771  6.0668000  2
    831    830    862    852     1  180.0000771  1.4644000  4
    832    823    834    837     1  0.0000000  0.6508444  3
    832    823    834    835     1  0.0000000  0.6508444  3
    832    823    834    836     1  0.0000000  0.6508444  3
    833    823    834    837     1  0.0000000  0.6508444  3
    833    823    834    835     1  0.0000000  0.6508444  3
    833    823    834    836     1  0.0000000  0.6508444  3
    834    837    886    876     1  180.0000771  6.0668000  2
    834    837    886    876     1  180.0000771  1.4644000  4
    835    834    837    838     1  0.0000000  3.3472000  1
    835    834    837    838     1  0.0000000  0.0000000  2
    835    834    837    838     1  180.0000771  0.3347200  3
    835    834    837    886     1  180.0000771  0.0000000  2
    836    834    837    838     1  0.0000000  3.3472000  1
    836    834    837    838     1  0.0000000  0.0000000  2
    836    834    837    838     1  180.0000771  0.3347200  3
    836    834    837    886     1  180.0000771  0.0000000  2
    837    886    867    869     1  0.0000000  1.2552000  3
    838    837    886    876     1  180.0000771  6.0668000  2
    838    837    886    876     1  180.0000771  1.4644000  4
    839    840    842    846     1  0.0000000  0.6508444  3
    839    840    860    861     1  0.0000000  1.0460000  1
    839    840    860    861     1  0.0000000  0.6694400  3
    839    850    855    856     1  0.0000000  1.0460000  1
    839    850    855    856     1  0.0000000  0.6694400  3
    839    857    844    847     1  0.0000000  1.6038667  3
    840    842    843    845     1  0.0000000  0.6508444  3
    840    842    849    851     1  0.0000000  1.0460000  1
    840    842    849    851     1  0.0000000  0.6694400  3
    840    839    850    853     1  0.0000000  0.6508444  3
    840    839    850    854     1  0.0000000  0.6508444  3
    841    839    840    842     1  0.0000000  0.6508444  3
    841    839    840    860     1  0.0000000  1.0460000  1
    841    839    840    860     1  0.0000000  0.0000000  3
    841    839    840    859     1  0.0000000  0.6508444  3
    841    839    850    855     1  0.0000000  1.0460000  1
    841    839    850    855     1  0.0000000  0.0000000  3
    841    839    850    853     1  0.0000000  0.6508444  3
    841    839    850    854     1  0.0000000  0.6508444  3
    841    839    857    844     1  0.0000000  1.6038667  3
    842    843    844    847     1  0.0000000  0.6508444  3
    842    843    862    852     1  0.0000000  1.2552000  3
    842    840    860    861     1  0.0000000  1.0460000  1
    842    840    860    861     1  0.0000000  0.6694400  3
    843    844    848    858     1  0.0000000  1.0460000  1
    843    844    848    858     1  0.0000000  0.6694400  3
    843    842    849    851     1  0.0000000  1.0460000  1
    843    842    849    851     1  0.0000000  0.6694400  3
    843    842    840    859     1  0.0000000  0.6508444  3
    844    843    862    852     1  0.0000000  1.2552000  3
    844    843    842    846     1  0.0000000  0.6508444  3
    845    843    844    848     1  0.0000000  1.0460000  1
    845    843    844    848     1  0.0000000  0.0000000  3
    845    843    844    857     1  0.0000000  1.0460000  1
    845    843    844    857     1  0.0000000  0.0000000  3
    845    843    844    847     1  0.0000000  0.6508444  3
    845    843    862    852     1  0.0000000  1.2552000  3
    845    843    842    849     1  0.0000000  1.0460000  1
    845    843    842    849     1  0.0000000  0.0000000  3
    845    843    842    846     1  0.0000000  0.6508444  3
    846    842    843    862     1  0.0000000  0.6508444  3
    846    842    849    851     1  0.0000000  0.6973333  3
    846    842    840    860     1  0.0000000  1.0460000  1
    846    842    840    860     1  0.0000000  0.0000000  3
    846    842    840    859     1  0.0000000  0.6508444  3
    847    844    848    858     1  0.0000000  0.6973333  3
    847    844    843    862     1  0.0000000  0.6508444  3
    849    842    840    859     1  0.0000000  1.0460000  1
    849    842    840    859     1  0.0000000  0.0000000  3
    850    839    840    859     1  0.0000000  0.6508444  3
    853    850    855    856     1  0.0000000  0.6973333  3
    853    850    839    857     1  0.0000000  1.0460000  1
    853    850    839    857     1  0.0000000  0.0000000  3
    854    850    855    856     1  0.0000000  0.6973333  3
    854    850    839    857     1  0.0000000  1.0460000  1
    854    850    839    857     1  0.0000000  0.0000000  3
    857    844    848    858     1  0.0000000  0.6973333  3
    857    839    840    859     1  0.0000000  1.0460000  1
    857    839    840    859     1  0.0000000  0.0000000  3
    859    840    860    861     1  0.0000000  0.6973333  3
    863    864    866    870     1  0.0000000  0.6508444  3
    863    864    884    885     1  0.0000000  1.0460000  1
    863    864    884    885     1  0.0000000  0.6694400  3
    863    874    879    880     1  0.0000000  1.0460000  1
    863    874    879    880     1  0.0000000  0.6694400  3
    863    881    868    871     1  0.0000000  1.6038667  3
    864    866    867    869     1  0.0000000  0.6508444  3
    864    866    873    875     1  0.0000000  1.0460000  1
    864    866    873    875     1  0.0000000  0.6694400  3
    864    863    874    877     1  0.0000000  0.6508444  3
    864    863    874    878     1  0.0000000  0.6508444  3
    865    863    864    866     1  0.0000000  0.6508444  3
    865    863    864    884     1  0.0000000  1.0460000  1
    865    863    864    884     1  0.0000000  0.0000000  3
    865    863    864    883     1  0.0000000  0.6508444  3
    865    863    874    879     1  0.0000000  1.0460000  1
    865    863    874    879     1  0.0000000  0.0000000  3
    865    863    874    877     1  0.0000000  0.6508444  3
    865    863    874    878     1  0.0000000  0.6508444  3
    865    863    881    868     1  0.0000000  1.6038667  3
    866    867    868    871     1  0.0000000  0.6508444  3
    866    867    886    876     1  0.0000000  1.2552000  3
    866    864    884    885     1  0.0000000  1.0460000  1
    866    864    884    885     1  0.0000000  0.6694400  3
    867    868    872    882     1  0.0000000  1.0460000  1
    867    868    872    882     1  0.0000000  0.6694400  3
    867    866    873    875     1  0.0000000  1.0460000  1
    867    866    873    875     1  0.0000000  0.6694400  3
    867    866    864    883     1  0.0000000  0.6508444  3
    868    867    886    876     1  0.0000000  1.2552000  3
    868    867    866    870     1  0.0000000  0.6508444  3
    869    867    868    872     1  0.0000000  1.0460000  1
    869    867    868    872     1  0.0000000  0.0000000  3
    869    867    868    881     1  0.0000000  1.0460000  1
    869    867    868    881     1  0.0000000  0.0000000  3
    869    867    868    871     1  0.0000000  0.6508444  3
    869    867    886    876     1  0.0000000  1.2552000  3
    869    867    866    873     1  0.0000000  1.0460000  1
    869    867    866    873     1  0.0000000  0.0000000  3
    869    867    866    870     1  0.0000000  0.6508444  3
    870    866    867    886     1  0.0000000  0.6508444  3
    870    866    873    875     1  0.0000000  0.6973333  3
    870    866    864    884     1  0.0000000  1.0460000  1
    870    866    864    884     1  0.0000000  0.0000000  3
    870    866    864    883     1  0.0000000  0.6508444  3
    871    868    872    882     1  0.0000000  0.6973333  3
    871    868    867    886     1  0.0000000  0.6508444  3
    873    866    864    883     1  0.0000000  1.0460000  1
    873    866    864    883     1  0.0000000  0.0000000  3
    874    863    864    883     1  0.0000000  0.6508444  3
    877    874    879    880     1  0.0000000  0.6973333  3
    877    874    863    881     1  0.0000000  1.0460000  1
    877    874    863    881     1  0.0000000  0.0000000  3
    878    874    879    880     1  0.0000000  0.6973333  3
    878    874    863    881     1  0.0000000  1.0460000  1
    878    874    863    881     1  0.0000000  0.0000000  3
    881    868    872    882     1  0.0000000  0.6973333  3
    881    863    864    883     1  0.0000000  1.0460000  1
    881    863    864    883     1  0.0000000  0.0000000  3
    883    864    884    885     1  0.0000000  0.6973333  3
    887    889    891    893     1  0.0000000  0.6508444  3
    887    889    891    894     1  0.0000000  0.6508444  3
    888    887    889    891     1  0.0000000  0.0000000  2
    888    887    889    890     1  0.0000000  0.0000000  2
    888    887    889    892     1  0.0000000  0.0000000  2
    890    889    891    895     1  0.0000000  0.6508444  3
    890    889    891    893     1  0.0000000  0.6508444  3
    890    889    891    894     1  0.0000000  0.6508444  3
    891    895    896    905     1  0.0000000  1.2552000  3
    891    895    896    906     1  0.0000000  1.2552000  3
    891    895    897    898     1  0.0000000  1.2552000  3
    891    895    897    900     1  0.0000000  1.2552000  3
    892    889    891    895     1  0.0000000  0.6508444  3
    892    889    891    893     1  0.0000000  0.6508444  3
    892    889    891    894     1  0.0000000  0.6508444  3
    893    891    895    896     1  0.0000000  1.2552000  3
    893    891    895    897     1  0.0000000  1.2552000  3
    894    891    895    896     1  0.0000000  1.2552000  3
    894    891    895    897     1  0.0000000  1.2552000  3
    895    896    907    908     1  0.0000000  0.6508444  3
    895    896    907    909     1  0.0000000  0.6508444  3
    895    897    899    901     1  0.0000000  0.6508444  3
    895    897    899    902     1  0.0000000  0.6508444  3
    896    895    897    898     1  0.0000000  1.2552000  3
    896    895    897    900     1  0.0000000  1.2552000  3
    897    895    896    905     1  0.0000000  1.2552000  3
    897    895    896    906     1  0.0000000  1.2552000  3
    898    897    899    903     1  0.0000000  0.6508444  3
    898    897    899    901     1  0.0000000  0.6508444  3
    898    897    899    902     1  0.0000000  0.6508444  3
    899    903    935    925     1  180.0000771  6.0668000  2
    899    903    935    925     1  180.0000771  1.4644000  4
    900    897    899    903     1  0.0000000  0.6508444  3
    900    897    899    901     1  0.0000000  0.6508444  3
    900    897    899    902     1  0.0000000  0.6508444  3
    901    899    903    904     1  0.0000000  3.3472000  1
    901    899    903    904     1  0.0000000  0.0000000  2
    901    899    903    904     1  180.0000771  0.3347200  3
    901    899    903    935     1  180.0000771  0.0000000  2
    902    899    903    904     1  0.0000000  3.3472000  1
    902    899    903    904     1  0.0000000  0.0000000  2
    902    899    903    904     1  180.0000771  0.3347200  3
    902    899    903    935     1  180.0000771  0.0000000  2
    903    935    916    918     1  0.0000000  1.2552000  3
    904    903    935    925     1  180.0000771  6.0668000  2
    904    903    935    925     1  180.0000771  1.4644000  4
    905    896    907    910     1  0.0000000  0.6508444  3
    905    896    907    908     1  0.0000000  0.6508444  3
    905    896    907    909     1  0.0000000  0.6508444  3
    906    896    907    910     1  0.0000000  0.6508444  3
    906    896    907    908     1  0.0000000  0.6508444  3
    906    896    907    909     1  0.0000000  0.6508444  3
    907    910    959    949     1  180.0000771  6.0668000  2
    907    910    959    949     1  180.0000771  1.4644000  4
    908    907    910    911     1  0.0000000  3.3472000  1
    908    907    910    911     1  0.0000000  0.0000000  2
    908    907    910    911     1  180.0000771  0.3347200  3
    908    907    910    959     1  180.0000771  0.0000000  2
    909    907    910    911     1  0.0000000  3.3472000  1
    909    907    910    911     1  0.0000000  0.0000000  2
    909    907    910    911     1  180.0000771  0.3347200  3
    909    907    910    959     1  180.0000771  0.0000000  2
    910    959    940    942     1  0.0000000  1.2552000  3
    911    910    959    949     1  180.0000771  6.0668000  2
    911    910    959    949     1  180.0000771  1.4644000  4
    912    913    915    919     1  0.0000000  0.6508444  3
    912    913    933    934     1  0.0000000  1.0460000  1
    912    913    933    934     1  0.0000000  0.6694400  3
    912    923    928    929     1  0.0000000  1.0460000  1
    912    923    928    929     1  0.0000000  0.6694400  3
    912    930    917    920     1  0.0000000  1.6038667  3
    913    912    923    926     1  0.0000000  0.6508444  3
    913    912    923    927     1  0.0000000  0.6508444  3
    913    915    916    918     1  0.0000000  0.6508444  3
    913    915    922    924     1  0.0000000  1.0460000  1
    913    915    922    924     1  0.0000000  0.6694400  3
    914    912    913    915     1  0.0000000  0.6508444  3
    914    912    913    933     1  0.0000000  1.0460000  1
    914    912    913    933     1  0.0000000  0.0000000  3
    914    912    913    932     1  0.0000000  0.6508444  3
    914    912    923    928     1  0.0000000  1.0460000  1
    914    912    923    928     1  0.0000000  0.0000000  3
    914    912    923    926     1  0.0000000  0.6508444  3
    914    912    923    927     1  0.0000000  0.6508444  3
    914    912    930    917     1  0.0000000  1.6038667  3
    915    913    933    934     1  0.0000000  1.0460000  1
    915    913    933    934     1  0.0000000  0.6694400  3
    915    916    917    920     1  0.0000000  0.6508444  3
    915    916    935    925     1  0.0000000  1.2552000  3
    916    915    913    932     1  0.0000000  0.6508444  3
    916    915    922    924     1  0.0000000  1.0460000  1
    916    915    922    924     1  0.0000000  0.6694400  3
    916    917    921    931     1  0.0000000  1.0460000  1
    916    917    921    931     1  0.0000000  0.6694400  3
    917    916    915    919     1  0.0000000  0.6508444  3
    917    916    935    925     1  0.0000000  1.2552000  3
    918    916    915    922     1  0.0000000  1.0460000  1
    918    916    915    922     1  0.0000000  0.0000000  3
    918    916    915    919     1  0.0000000  0.6508444  3
    918    916    917    921     1  0.0000000  1.0460000  1
    918    916    917    921     1  0.0000000  0.0000000  3
    918    916    917    930     1  0.0000000  1.0460000  1
    918    916    917    930     1  0.0000000  0.0000000  3
    918    916    917    920     1  0.0000000  0.6508444  3
    918    916    935    925     1  0.0000000  1.2552000  3
    919    915    913    933     1  0.0000000  1.0460000  1
    919    915    913    933     1  0.0000000  0.0000000  3
    919    915    913    932     1  0.0000000  0.6508444  3
    919    915    916    935     1  0.0000000  0.6508444  3
    919    915    922    924     1  0.0000000  0.6973333  3
    920    917    916    935     1  0.0000000  0.6508444  3
    920    917    921    931     1  0.0000000  0.6973333  3
    922    915    913    932     1  0.0000000  1.0460000  1
    922    915    913    932     1  0.0000000  0.0000000  3
    923    912    913    932     1  0.0000000  0.6508444  3
    926    923    912    930     1  0.0000000  1.0460000  1
    926    923    912    930     1  0.0000000  0.0000000  3
    926    923    928    929     1  0.0000000  0.6973333  3
    927    923    912    930     1  0.0000000  1.0460000  1
    927    923    912    930     1  0.0000000  0.0000000  3
    927    923    928    929     1  0.0000000  0.6973333  3
    930    912    913    932     1  0.0000000  1.0460000  1
    930    912    913    932     1  0.0000000  0.0000000  3
    930    917    921    931     1  0.0000000  0.6973333  3
    932    913    933    934     1  0.0000000  0.6973333  3
    936    937    939    943     1  0.0000000  0.6508444  3
    936    937    957    958     1  0.0000000  1.0460000  1
    936    937    957    958     1  0.0000000  0.6694400  3
    936    947    952    953     1  0.0000000  1.0460000  1
    936    947    952    953     1  0.0000000  0.6694400  3
    936    954    941    944     1  0.0000000  1.6038667  3
    937    936    947    950     1  0.0000000  0.6508444  3
    937    936    947    951     1  0.0000000  0.6508444  3
    937    939    940    942     1  0.0000000  0.6508444  3
    937    939    946    948     1  0.0000000  1.0460000  1
    937    939    946    948     1  0.0000000  0.6694400  3
    938    936    937    939     1  0.0000000  0.6508444  3
    938    936    937    957     1  0.0000000  1.0460000  1
    938    936    937    957     1  0.0000000  0.0000000  3
    938    936    937    956     1  0.0000000  0.6508444  3
    938    936    947    952     1  0.0000000  1.0460000  1
    938    936    947    952     1  0.0000000  0.0000000  3
    938    936    947    950     1  0.0000000  0.6508444  3
    938    936    947    951     1  0.0000000  0.6508444  3
    938    936    954    941     1  0.0000000  1.6038667  3
    939    937    957    958     1  0.0000000  1.0460000  1
    939    937    957    958     1  0.0000000  0.6694400  3
    939    940    941    944     1  0.0000000  0.6508444  3
    939    940    959    949     1  0.0000000  1.2552000  3
    940    939    937    956     1  0.0000000  0.6508444  3
    940    939    946    948     1  0.0000000  1.0460000  1
    940    939    946    948     1  0.0000000  0.6694400  3
    940    941    945    955     1  0.0000000  1.0460000  1
    940    941    945    955     1  0.0000000  0.6694400  3
    941    940    939    943     1  0.0000000  0.6508444  3
    941    940    959    949     1  0.0000000  1.2552000  3
    942    940    939    946     1  0.0000000  1.0460000  1
    942    940    939    946     1  0.0000000  0.0000000  3
    942    940    939    943     1  0.0000000  0.6508444  3
    942    940    941    945     1  0.0000000  1.0460000  1
    942    940    941    945     1  0.0000000  0.0000000  3
    942    940    941    954     1  0.0000000  1.0460000  1
    942    940    941    954     1  0.0000000  0.0000000  3
    942    940    941    944     1  0.0000000  0.6508444  3
    942    940    959    949     1  0.0000000  1.2552000  3
    943    939    937    957     1  0.0000000  1.0460000  1
    943    939    937    957     1  0.0000000  0.0000000  3
    943    939    937    956     1  0.0000000  0.6508444  3
    943    939    940    959     1  0.0000000  0.6508444  3
    943    939    946    948     1  0.0000000  0.6973333  3
    944    941    940    959     1  0.0000000  0.6508444  3
    944    941    945    955     1  0.0000000  0.6973333  3
    946    939    937    956     1  0.0000000  1.0460000  1
    946    939    937    956     1  0.0000000  0.0000000  3
    947    936    937    956     1  0.0000000  0.6508444  3
    950    947    936    954     1  0.0000000  1.0460000  1
    950    947    936    954     1  0.0000000  0.0000000  3
    950    947    952    953     1  0.0000000  0.6973333  3
    951    947    936    954     1  0.0000000  1.0460000  1
    951    947    936    954     1  0.0000000  0.0000000  3
    951    947    952    953     1  0.0000000  0.6973333  3
    954    936    937    956     1  0.0000000  1.0460000  1
    954    936    937    956     1  0.0000000  0.0000000  3
    954    941    945    955     1  0.0000000  0.6973333  3
    956    937    957    958     1  0.0000000  0.6973333  3
    960    962    964    966     1  0.0000000  0.6508444  3
    960    962    964    967     1  0.0000000  0.6508444  3
    961    960    962    964     1  0.0000000  0.0000000  2
    961    960    962    963     1  0.0000000  0.0000000  2
    961    960    962    965     1  0.0000000  0.0000000  2
    963    962    964    968     1  0.0000000  0.6508444  3
    963    962    964    966     1  0.0000000  0.6508444  3
    963    962    964    967     1  0.0000000  0.6508444  3
    964    968    969    978     1  0.0000000  1.2552000  3
    964    968    969    979     1  0.0000000  1.2552000  3
    964    968    970    971     1  0.0000000  1.2552000  3
    964    968    970    973     1  0.0000000  1.2552000  3
    965    962    964    968     1  0.0000000  0.6508444  3
    965    962    964    966     1  0.0000000  0.6508444  3
    965    962    964    967     1  0.0000000  0.6508444  3
    966    964    968    969     1  0.0000000  1.2552000  3
    966    964    968    970     1  0.0000000  1.2552000  3
    967    964    968    969     1  0.0000000  1.2552000  3
    967    964    968    970     1  0.0000000  1.2552000  3
    968    969    980    981     1  0.0000000  0.6508444  3
    968    969    980    982     1  0.0000000  0.6508444  3
    968    970    972    974     1  0.0000000  0.6508444  3
    968    970    972    975     1  0.0000000  0.6508444  3
    969    968    970    971     1  0.0000000  1.2552000  3
    969    968    970    973     1  0.0000000  1.2552000  3
    970    968    969    978     1  0.0000000  1.2552000  3
    970    968    969    979     1  0.0000000  1.2552000  3
    971    970    972    976     1  0.0000000  0.6508444  3
    971    970    972    974     1  0.0000000  0.6508444  3
    971    970    972    975     1  0.0000000  0.6508444  3
    972    976   1008    998     1  180.0000771  6.0668000  2
    972    976   1008    998     1  180.0000771  1.4644000  4
    973    970    972    976     1  0.0000000  0.6508444  3
    973    970    972    974     1  0.0000000  0.6508444  3
    973    970    972    975     1  0.0000000  0.6508444  3
    974    972    976    977     1  0.0000000  3.3472000  1
    974    972    976    977     1  0.0000000  0.0000000  2
    974    972    976    977     1  180.0000771  0.3347200  3
    974    972    976   1008     1  180.0000771  0.0000000  2
    975    972    976    977     1  0.0000000  3.3472000  1
    975    972    976    977     1  0.0000000  0.0000000  2
    975    972    976    977     1  180.0000771  0.3347200  3
    975    972    976   1008     1  180.0000771  0.0000000  2
    976   1008    989    991     1  0.0000000  1.2552000  3
    977    976   1008    998     1  180.0000771  6.0668000  2
    977    976   1008    998     1  180.0000771  1.4644000  4
    978    969    980    983     1  0.0000000  0.6508444  3
    978    969    980    981     1  0.0000000  0.6508444  3
    978    969    980    982     1  0.0000000  0.6508444  3
    979    969    980    983     1  0.0000000  0.6508444  3
    979    969    980    981     1  0.0000000  0.6508444  3
    979    969    980    982     1  0.0000000  0.6508444  3
    980    983   1032   1022     1  180.0000771  6.0668000  2
    980    983   1032   1022     1  180.0000771  1.4644000  4
    981    980    983    984     1  0.0000000  3.3472000  1
    981    980    983    984     1  0.0000000  0.0000000  2
    981    980    983    984     1  180.0000771  0.3347200  3
    981    980    983   1032     1  180.0000771  0.0000000  2
    982    980    983    984     1  0.0000000  3.3472000  1
    982    980    983    984     1  0.0000000  0.0000000  2
    982    980    983    984     1  180.0000771  0.3347200  3
    982    980    983   1032     1  180.0000771  0.0000000  2
    983   1032   1013   1015     1  0.0000000  1.2552000  3
    984    983   1032   1022     1  180.0000771  6.0668000  2
    984    983   1032   1022     1  180.0000771  1.4644000  4
    985    986    988    992     1  0.0000000  0.6508444  3
    985    986   1006   1007     1  0.0000000  1.0460000  1
    985    986   1006   1007     1  0.0000000  0.6694400  3
    985    996   1001   1002     1  0.0000000  1.0460000  1
    985    996   1001   1002     1  0.0000000  0.6694400  3
    985   1003    990    993     1  0.0000000  1.6038667  3
    986    988    989    991     1  0.0000000  0.6508444  3
    986    988    995    997     1  0.0000000  1.0460000  1
    986    988    995    997     1  0.0000000  0.6694400  3
    986    985    996    999     1  0.0000000  0.6508444  3
    986    985    996   1000     1  0.0000000  0.6508444  3
    987    985    986    988     1  0.0000000  0.6508444  3
    987    985    986   1006     1  0.0000000  1.0460000  1
    987    985    986   1006     1  0.0000000  0.0000000  3
    987    985    986   1005     1  0.0000000  0.6508444  3
    987    985    996   1001     1  0.0000000  1.0460000  1
    987    985    996   1001     1  0.0000000  0.0000000  3
    987    985    996    999     1  0.0000000  0.6508444  3
    987    985    996   1000     1  0.0000000  0.6508444  3
    987    985   1003    990     1  0.0000000  1.6038667  3
    988    989    990    993     1  0.0000000  0.6508444  3
    988    989   1008    998     1  0.0000000  1.2552000  3
    988    986   1006   1007     1  0.0000000  1.0460000  1
    988    986   1006   1007     1  0.0000000  0.6694400  3
    989    990    994   1004     1  0.0000000  1.0460000  1
    989    990    994   1004     1  0.0000000  0.6694400  3
    989    988    995    997     1  0.0000000  1.0460000  1
    989    988    995    997     1  0.0000000  0.6694400  3
    989    988    986   1005     1  0.0000000  0.6508444  3
    990    989   1008    998     1  0.0000000  1.2552000  3
    990    989    988    992     1  0.0000000  0.6508444  3
    991    989    990    994     1  0.0000000  1.0460000  1
    991    989    990    994     1  0.0000000  0.0000000  3
    991    989    990   1003     1  0.0000000  1.0460000  1
    991    989    990   1003     1  0.0000000  0.0000000  3
    991    989    990    993     1  0.0000000  0.6508444  3
    991    989   1008    998     1  0.0000000  1.2552000  3
    991    989    988    995     1  0.0000000  1.0460000  1
    991    989    988    995     1  0.0000000  0.0000000  3
    991    989    988    992     1  0.0000000  0.6508444  3
    992    988    989   1008     1  0.0000000  0.6508444  3
    992    988    995    997     1  0.0000000  0.6973333  3
    992    988    986   1006     1  0.0000000  1.0460000  1
    992    988    986   1006     1  0.0000000  0.0000000  3
    992    988    986   1005     1  0.0000000  0.6508444  3
    993    990    994   1004     1  0.0000000  0.6973333  3
    993    990    989   1008     1  0.0000000  0.6508444  3
    995    988    986   1005     1  0.0000000  1.0460000  1
    995    988    986   1005     1  0.0000000  0.0000000  3
    996    985    986   1005     1  0.0000000  0.6508444  3
    999    996   1001   1002     1  0.0000000  0.6973333  3
    999    996    985   1003     1  0.0000000  1.0460000  1
    999    996    985   1003     1  0.0000000  0.0000000  3
   1000    996   1001   1002     1  0.0000000  0.6973333  3
   1000    996    985   1003     1  0.0000000  1.0460000  1
   1000    996    985   1003     1  0.0000000  0.0000000  3
   1003    990    994   1004     1  0.0000000  0.6973333  3
   1003    985    986   1005     1  0.0000000  1.0460000  1
   1003    985    986   1005     1  0.0000000  0.0000000  3
   1005    986   1006   1007     1  0.0000000  0.6973333  3
   1009   1010   1012   1016     1  0.0000000  0.6508444  3
   1009   1010   1030   1031     1  0.0000000  1.0460000  1
   1009   1010   1030   1031     1  0.0000000  0.6694400  3
   1009   1020   1025   1026     1  0.0000000  1.0460000  1
   1009   1020   1025   1026     1  0.0000000  0.6694400  3
   1009   1027   1014   1017     1  0.0000000  1.6038667  3
   1010   1012   1013   1015     1  0.0000000  0.6508444  3
   1010   1012   1019   1021     1  0.0000000  1.0460000  1
   1010   1012   1019   1021     1  0.0000000  0.6694400  3
   1010   1009   1020   1023     1  0.0000000  0.6508444  3
   1010   1009   1020   1024     1  0.0000000  0.6508444  3
   1011   1009   1010   1012     1  0.0000000  0.6508444  3
   1011   1009   1010   1030     1  0.0000000  1.0460000  1
   1011   1009   1010   1030     1  0.0000000  0.0000000  3
   1011   1009   1010   1029     1  0.0000000  0.6508444  3
   1011   1009   1020   1025     1  0.0000000  1.0460000  1
   1011   1009   1020   1025     1  0.0000000  0.0000000  3
   1011   1009   1020   1023     1  0.0000000  0.6508444  3
   1011   1009   1020   1024     1  0.0000000  0.6508444  3
   1011   1009   1027   1014     1  0.0000000  1.6038667  3
   1012   1013   1014   1017     1  0.0000000  0.6508444  3
   1012   1013   1032   1022     1  0.0000000  1.2552000  3
   1012   1010   1030   1031     1  0.0000000  1.0460000  1
   1012   1010   1030   1031     1  0.0000000  0.6694400  3
   1013   1014   1018   1028     1  0.0000000  1.0460000  1
   1013   1014   1018   1028     1  0.0000000  0.6694400  3
   1013   1012   1019   1021     1  0.0000000  1.0460000  1
   1013   1012   1019   1021     1  0.0000000  0.6694400  3
   1013   1012   1010   1029     1  0.0000000  0.6508444  3
   1014   1013   1032   1022     1  0.0000000  1.2552000  3
   1014   1013   1012   1016     1  0.0000000  0.6508444  3
   1015   1013   1014   1018     1  0.0000000  1.0460000  1
   1015   1013   1014   1018     1  0.0000000  0.0000000  3
   1015   1013   1014   1027     1  0.0000000  1.0460000  1
   1015   1013   1014   1027     1  0.0000000  0.0000000  3
   1015   1013   1014   1017     1  0.0000000  0.6508444  3
   1015   1013   1032   1022     1  0.0000000  1.2552000  3
   1015   1013   1012   1019     1  0.0000000  1.0460000  1
   1015   1013   1012   1019     1  0.0000000  0.0000000  3
   1015   1013   1012   1016     1  0.0000000  0.6508444  3
   1016   1012   1013   1032     1  0.0000000  0.6508444  3
   1016   1012   1019   1021     1  0.0000000  0.6973333  3
   1016   1012   1010   1030     1  0.0000000  1.0460000  1
   1016   1012   1010   1030     1  0.0000000  0.0000000  3
   1016   1012   1010   1029     1  0.0000000  0.6508444  3
   1017   1014   1018   1028     1  0.0000000  0.6973333  3
   1017   1014   1013   1032     1  0.0000000  0.6508444  3
   1019   1012   1010   1029     1  0.0000000  1.0460000  1
   1019   1012   1010   1029     1  0.0000000  0.0000000  3
   1020   1009   1010   1029     1  0.0000000  0.6508444  3
   1023   1020   1025   1026     1  0.0000000  0.6973333  3
   1023   1020   1009   1027     1  0.0000000  1.0460000  1
   1023   1020   1009   1027     1  0.0000000  0.0000000  3
   1024   1020   1025   1026     1  0.0000000  0.6973333  3
   1024   1020   1009   1027     1  0.0000000  1.0460000  1
   1024   1020   1009   1027     1  0.0000000  0.0000000  3
   1027   1014   1018   1028     1  0.0000000  0.6973333  3
   1027   1009   1010   1029     1  0.0000000  1.0460000  1
   1027   1009   1010   1029     1  0.0000000  0.0000000  3
   1029   1010   1030   1031     1  0.0000000  0.6973333  3
   1033   1035   1037   1039     1  0.0000000  0.6508444  3
   1033   1035   1037   1040     1  0.0000000  0.6508444  3
   1034   1033   1035   1037     1  0.0000000  0.0000000  2
   1034   1033   1035   1036     1  0.0000000  0.0000000  2
   1034   1033   1035   1038     1  0.0000000  0.0000000  2
   1036   1035   1037   1041     1  0.0000000  0.6508444  3
   1036   1035   1037   1039     1  0.0000000  0.6508444  3
   1036   1035   1037   1040     1  0.0000000  0.6508444  3
   1037   1041   1042   1051     1  0.0000000  1.2552000  3
   1037   1041   1042   1052     1  0.0000000  1.2552000  3
   1037   1041   1043   1044     1  0.0000000  1.2552000  3
   1037   1041   1043   1046     1  0.0000000  1.2552000  3
   1038   1035   1037   1041     1  0.0000000  0.6508444  3
   1038   1035   1037   1039     1  0.0000000  0.6508444  3
   1038   1035   1037   1040     1  0.0000000  0.6508444  3
   1039   1037   1041   1042     1  0.0000000  1.2552000  3
   1039   1037   1041   1043     1  0.0000000  1.2552000  3
   1040   1037   1041   1042     1  0.0000000  1.2552000  3
   1040   1037   1041   1043     1  0.0000000  1.2552000  3
   1041   1042   1053   1054     1  0.0000000  0.6508444  3
   1041   1042   1053   1055     1  0.0000000  0.6508444  3
   1041   1043   1045   1047     1  0.0000000  0.6508444  3
   1041   1043   1045   1048     1  0.0000000  0.6508444  3
   1042   1041   1043   1044     1  0.0000000  1.2552000  3
   1042   1041   1043   1046     1  0.0000000  1.2552000  3
   1043   1041   1042   1051     1  0.0000000  1.2552000  3
   1043   1041   1042   1052     1  0.0000000  1.2552000  3
   1044   1043   1045   1049     1  0.0000000  0.6508444  3
   1044   1043   1045   1047     1  0.0000000  0.6508444  3
   1044   1043   1045   1048     1  0.0000000  0.6508444  3
   1045   1049   1081   1071     1  180.0000771  6.0668000  2
   1045   1049   1081   1071     1  180.0000771  1.4644000  4
   1046   1043   1045   1049     1  0.0000000  0.6508444  3
   1046   1043   1045   1047     1  0.0000000  0.6508444  3
   1046   1043   1045   1048     1  0.0000000  0.6508444  3
   1047   1045   1049   1050     1  0.0000000  3.3472000  1
   1047   1045   1049   1050     1  0.0000000  0.0000000  2
   1047   1045   1049   1050     1  180.0000771  0.3347200  3
   1047   1045   1049   1081     1  180.0000771  0.0000000  2
   1048   1045   1049   1050     1  0.0000000  3.3472000  1
   1048   1045   1049   1050     1  0.0000000  0.0000000  2
   1048   1045   1049   1050     1  180.0000771  0.3347200  3
   1048   1045   1049   1081     1  180.0000771  0.0000000  2
   1049   1081   1062   1064     1  0.0000000  1.2552000  3
   1050   1049   1081   1071     1  180.0000771  6.0668000  2
   1050   1049   1081   1071     1  180.0000771  1.4644000  4
   1051   1042   1053   1056     1  0.0000000  0.6508444  3
   1051   1042   1053   1054     1  0.0000000  0.6508444  3
   1051   1042   1053   1055     1  0.0000000  0.6508444  3
   1052   1042   1053   1056     1  0.0000000  0.6508444  3
   1052   1042   1053   1054     1  0.0000000  0.6508444  3
   1052   1042   1053   1055     1  0.0000000  0.6508444  3
   1053   1056   1105   1095     1  180.0000771  6.0668000  2
   1053   1056   1105   1095     1  180.0000771  1.4644000  4
   1054   1053   1056   1057     1  0.0000000  3.3472000  1
   1054   1053   1056   1057     1  0.0000000  0.0000000  2
   1054   1053   1056   1057     1  180.0000771  0.3347200  3
   1054   1053   1056   1105     1  180.0000771  0.0000000  2
   1055   1053   1056   1057     1  0.0000000  3.3472000  1
   1055   1053   1056   1057     1  0.0000000  0.0000000  2
   1055   1053   1056   1057     1  180.0000771  0.3347200  3
   1055   1053   1056   1105     1  180.0000771  0.0000000  2
   1056   1105   1086   1088     1  0.0000000  1.2552000  3
   1057   1056   1105   1095     1  180.0000771  6.0668000  2
   1057   1056   1105   1095     1  180.0000771  1.4644000  4
   1058   1059   1061   1065     1  0.0000000  0.6508444  3
   1058   1059   1079   1080     1  0.0000000  1.0460000  1
   1058   1059   1079   1080     1  0.0000000  0.6694400  3
   1058   1069   1074   1075     1  0.0000000  1.0460000  1
   1058   1069   1074   1075     1  0.0000000  0.6694400  3
   1058   1076   1063   1066     1  0.0000000  1.6038667  3
   1059   1058   1069   1072     1  0.0000000  0.6508444  3
   1059   1058   1069   1073     1  0.0000000  0.6508444  3
   1059   1061   1062   1064     1  0.0000000  0.6508444  3
   1059   1061   1068   1070     1  0.0000000  1.0460000  1
   1059   1061   1068   1070     1  0.0000000  0.6694400  3
   1060   1058   1059   1061     1  0.0000000  0.6508444  3
   1060   1058   1059   1079     1  0.0000000  1.0460000  1
   1060   1058   1059   1079     1  0.0000000  0.0000000  3
   1060   1058   1059   1078     1  0.0000000  0.6508444  3
   1060   1058   1069   1074     1  0.0000000  1.0460000  1
   1060   1058   1069   1074     1  0.0000000  0.0000000  3
   1060   1058   1069   1072     1  0.0000000  0.6508444  3
   1060   1058   1069   1073     1  0.0000000  0.6508444  3
   1060   1058   1076   1063     1  0.0000000  1.6038667  3
   1061   1059   1079   1080     1  0.0000000  1.0460000  1
   1061   1059   1079   1080     1  0.0000000  0.6694400  3
   1061   1062   1063   1066     1  0.0000000  0.6508444  3
   1061   1062   1081   1071     1  0.0000000  1.2552000  3
   1062   1061   1059   1078     1  0.0000000  0.6508444  3
   1062   1061   1068   1070     1  0.0000000  1.0460000  1
   1062   1061   1068   1070     1  0.0000000  0.6694400  3
   1062   1063   1067   1077     1  0.0000000  1.0460000  1
   1062   1063   1067   1077     1  0.0000000  0.6694400  3
   1063   1062   1061   1065     1  0.0000000  0.6508444  3
   1063   1062   1081   1071     1  0.0000000  1.2552000  3
   1064   1062   1061   1068     1  0.0000000  1.0460000  1
   1064   1062   1061   1068     1  0.0000000  0.0000000  3
   1064   1062   1061   1065     1  0.0000000  0.6508444  3
   1064   1062   1063   1067     1  0.0000000  1.0460000  1
   1064   1062   1063   1067     1  0.0000000  0.0000000  3
   1064   1062   1063   1076     1  0.0000000  1.0460000  1
   1064   1062   1063   1076     1  0.0000000  0.0000000  3
   1064   1062   1063   1066     1  0.0000000  0.6508444  3
   1064   1062   1081   1071     1  0.0000000  1.2552000  3
   1065   1061   1059   1079     1  0.0000000  1.0460000  1
   1065   1061   1059   1079     1  0.0000000  0.0000000  3
   1065   1061   1059   1078     1  0.0000000  0.6508444  3
   1065   1061   1062   1081     1  0.0000000  0.6508444  3
   1065   1061   1068   1070     1  0.0000000  0.6973333  3
   1066   1063   1062   1081     1  0.0000000  0.6508444  3
   1066   1063   1067   1077     1  0.0000000  0.6973333  3
   1068   1061   1059   1078     1  0.0000000  1.0460000  1
   1068   1061   1059   1078     1  0.0000000  0.0000000  3
   1069   1058   1059   1078     1  0.0000000  0.6508444  3
   1072   1069   1058   1076     1  0.0000000  1.0460000  1
   1072   1069   1058   1076     1  0.0000000  0.0000000  3
   1072   1069   1074   1075     1  0.0000000  0.6973333  3
   1073   1069   1058   1076     1  0.0000000  1.0460000  1
   1073   1069   1058   1076     1  0.0000000  0.0000000  3
   1073   1069   1074   1075     1  0.0000000  0.6973333  3
   1076   1058   1059   1078     1  0.0000000  1.0460000  1
   1076   1058   1059   1078     1  0.0000000  0.0000000  3
   1076   1063   1067   1077     1  0.0000000  0.6973333  3
   1078   1059   1079   1080     1  0.0000000  0.6973333  3
   1082   1083   1085   1089     1  0.0000000  0.6508444  3
   1082   1083   1103   1104     1  0.0000000  1.0460000  1
   1082   1083   1103   1104     1  0.0000000  0.6694400  3
   1082   1093   1098   1099     1  0.0000000  1.0460000  1
   1082   1093   1098   1099     1  0.0000000  0.6694400  3
   1082   1100   1087   1090     1  0.0000000  1.6038667  3
   1083   1082   1093   1096     1  0.0000000  0.6508444  3
   1083   1082   1093   1097     1  0.0000000  0.6508444  3
   1083   1085   1086   1088     1  0.0000000  0.6508444  3
   1083   1085   1092   1094     1  0.0000000  1.0460000  1
   1083   1085   1092   1094     1  0.0000000  0.6694400  3
   1084   1082   1083   1085     1  0.0000000  0.6508444  3
   1084   1082   1083   1103     1  0.0000000  1.0460000  1
   1084   1082   1083   1103     1  0.0000000  0.0000000  3
   1084   1082   1083   1102     1  0.0000000  0.6508444  3
   1084   1082   1093   1098     1  0.0000000  1.0460000  1
   1084   1082   1093   1098     1  0.0000000  0.0000000  3
   1084   1082   1093   1096     1  0.0000000  0.6508444  3
   1084   1082   1093   1097     1  0.0000000  0.6508444  3
   1084   1082   1100   1087     1  0.0000000  1.6038667  3
   1085   1083   1103   1104     1  0.0000000  1.0460000  1
   1085   1083   1103   1104     1  0.0000000  0.6694400  3
   1085   1086   1087   1090     1  0.0000000  0.6508444  3
   1085   1086   1105   1095     1  0.0000000  1.2552000  3
   1086   1085   1083   1102     1  0.0000000  0.6508444  3
   1086   1085   1092   1094     1  0.0000000  1.0460000  1
   1086   1085   1092   1094     1  0.0000000  0.6694400  3
   1086   1087   1091   1101     1  0.0000000  1.0460000  1
   1086   1087   1091   1101     1  0.0000000  0.6694400  3
   1087   1086   1085   1089     1  0.0000000  0.6508444  3
   1087   1086   1105   1095     1  0.0000000  1.2552000  3
   1088   1086   1085   1092     1  0.0000000  1.0460000  1
   1088   1086   1085   1092     1  0.0000000  0.0000000  3
   1088   1086   1085   1089     1  0.0000000  0.6508444  3
   1088   1086   1087   1091     1  0.0000000  1.0460000  1
   1088   1086   1087   1091     1  0.0000000  0.0000000  3
   1088   1086   1087   1100     1  0.0000000  1.0460000  1
   1088   1086   1087   1100     1  0.0000000  0.0000000  3
   1088   1086   1087   1090     1  0.0000000  0.6508444  3
   1088   1086   1105   1095     1  0.0000000  1.2552000  3
   1089   1085   1083   1103     1  0.0000000  1.0460000  1
   1089   1085   1083   1103     1  0.0000000  0.0000000  3
   1089   1085   1083   1102     1  0.0000000  0.6508444  3
   1089   1085   1086   1105     1  0.0000000  0.6508444  3
   1089   1085   1092   1094     1  0.0000000  0.6973333  3
   1090   1087   1086   1105     1  0.0000000  0.6508444  3
   1090   1087   1091   1101     1  0.0000000  0.6973333  3
   1092   1085   1083   1102     1  0.0000000  1.0460000  1
   1092   1085   1083   1102     1  0.0000000  0.0000000  3
   1093   1082   1083   1102     1  0.0000000  0.6508444  3
   1096   1093   1082   1100     1  0.0000000  1.0460000  1
   1096   1093   1082   1100     1  0.0000000  0.0000000  3
   1096   1093   1098   1099     1  0.0000000  0.6973333  3
   1097   1093   1082   1100     1  0.0000000  1.0460000  1
   1097   1093   1082   1100     1  0.0000000  0.0000000  3
   1097   1093   1098   1099     1  0.0000000  0.6973333  3
   1100   1082   1083   1102     1  0.0000000  1.0460000  1
   1100   1082   1083   1102     1  0.0000000  0.0000000  3
   1100   1087   1091   1101     1  0.0000000  0.6973333  3
   1102   1083   1103   1104     1  0.0000000  0.6973333  3
   1106   1108   1110   1112     1  0.0000000  0.6508444  3
   1106   1108   1110   1113     1  0.0000000  0.6508444  3
   1107   1106   1108   1110     1  0.0000000  0.0000000  2
   1107   1106   1108   1109     1  0.0000000  0.0000000  2
   1107   1106   1108   1111     1  0.0000000  0.0000000  2
   1109   1108   1110   1114     1  0.0000000  0.6508444  3
   1109   1108   1110   1112     1  0.0000000  0.6508444  3
   1109   1108   1110   1113     1  0.0000000  0.6508444  3
   1110   1114   1115   1124     1  0.0000000  1.2552000  3
   1110   1114   1115   1125     1  0.0000000  1.2552000  3
   1110   1114   1116   1117     1  0.0000000  1.2552000  3
   1110   1114   1116   1119     1  0.0000000  1.2552000  3
   1111   1108   1110   1114     1  0.0000000  0.6508444  3
   1111   1108   1110   1112     1  0.0000000  0.6508444  3
   1111   1108   1110   1113     1  0.0000000  0.6508444  3
   1112   1110   1114   1115     1  0.0000000  1.2552000  3
   1112   1110   1114   1116     1  0.0000000  1.2552000  3
   1113   1110   1114   1115     1  0.0000000  1.2552000  3
   1113   1110   1114   1116     1  0.0000000  1.2552000  3
   1114   1115   1126   1127     1  0.0000000  0.6508444  3
   1114   1115   1126   1128     1  0.0000000  0.6508444  3
   1114   1116   1118   1120     1  0.0000000  0.6508444  3
   1114   1116   1118   1121     1  0.0000000  0.6508444  3
   1115   1114   1116   1117     1  0.0000000  1.2552000  3
   1115   1114   1116   1119     1  0.0000000  1.2552000  3
   1116   1114   1115   1124     1  0.0000000  1.2552000  3
   1116   1114   1115   1125     1  0.0000000  1.2552000  3
   1117   1116   1118   1122     1  0.0000000  0.6508444  3
   1117   1116   1118   1120     1  0.0000000  0.6508444  3
   1117   1116   1118   1121     1  0.0000000  0.6508444  3
   1118   1122   1154   1144     1  180.0000771  6.0668000  2
   1118   1122   1154   1144     1  180.0000771  1.4644000  4
   1119   1116   1118   1122     1  0.0000000  0.6508444  3
   1119   1116   1118   1120     1  0.0000000  0.6508444  3
   1119   1116   1118   1121     1  0.0000000  0.6508444  3
   1120   1118   1122   1123     1  0.0000000  3.3472000  1
   1120   1118   1122   1123     1  0.0000000  0.0000000  2
   1120   1118   1122   1123     1  180.0000771  0.3347200  3
   1120   1118   1122   1154     1  180.0000771  0.0000000  2
   1121   1118   1122   1123     1  0.0000000  3.3472000  1
   1121   1118   1122   1123     1  0.0000000  0.0000000  2
   1121   1118   1122   1123     1  180.0000771  0.3347200  3
   1121   1118   1122   1154     1  180.0000771  0.0000000  2
   1122   1154   1135   1137     1  0.0000000  1.2552000  3
   1123   1122   1154   1144     1  180.0000771  6.0668000  2
   1123   1122   1154   1144     1  180.0000771  1.4644000  4
   1124   1115   1126   1129     1  0.0000000  0.6508444  3
   1124   1115   1126   1127     1  0.0000000  0.6508444  3
   1124   1115   1126   1128     1  0.0000000  0.6508444  3
   1125   1115   1126   1129     1  0.0000000  0.6508444  3
   1125   1115   1126   1127     1  0.0000000  0.6508444  3
   1125   1115   1126   1128     1  0.0000000  0.6508444  3
   1126   1129   1178   1168     1  180.0000771  6.0668000  2
   1126   1129   1178   1168     1  180.0000771  1.4644000  4
   1127   1126   1129   1130     1  0.0000000  3.3472000  1
   1127   1126   1129   1130     1  0.0000000  0.0000000  2
   1127   1126   1129   1130     1  180.0000771  0.3347200  3
   1127   1126   1129   1178     1  180.0000771  0.0000000  2
   1128   1126   1129   1130     1  0.0000000  3.3472000  1
   1128   1126   1129   1130     1  0.0000000  0.0000000  2
   1128   1126   1129   1130     1  180.0000771  0.3347200  3
   1128   1126   1129   1178     1  180.0000771  0.0000000  2
   1129   1178   1159   1161     1  0.0000000  1.2552000  3
   1130   1129   1178   1168     1  180.0000771  6.0668000  2
   1130   1129   1178   1168     1  180.0000771  1.4644000  4
   1131   1132   1134   1138     1  0.0000000  0.6508444  3
   1131   1132   1152   1153     1  0.0000000  1.0460000  1
   1131   1132   1152   1153     1  0.0000000  0.6694400  3
   1131   1142   1147   1148     1  0.0000000  1.0460000  1
   1131   1142   1147   1148     1  0.0000000  0.6694400  3
   1131   1149   1136   1139     1  0.0000000  1.6038667  3
   1132   1134   1135   1137     1  0.0000000  0.6508444  3
   1132   1134   1141   1143     1  0.0000000  1.0460000  1
   1132   1134   1141   1143     1  0.0000000  0.6694400  3
   1132   1131   1142   1145     1  0.0000000  0.6508444  3
   1132   1131   1142   1146     1  0.0000000  0.6508444  3
   1133   1131   1132   1134     1  0.0000000  0.6508444  3
   1133   1131   1132   1152     1  0.0000000  1.0460000  1
   1133   1131   1132   1152     1  0.0000000  0.0000000  3
   1133   1131   1132   1151     1  0.0000000  0.6508444  3
   1133   1131   1142   1147     1  0.0000000  1.0460000  1
   1133   1131   1142   1147     1  0.0000000  0.0000000  3
   1133   1131   1142   1145     1  0.0000000  0.6508444  3
   1133   1131   1142   1146     1  0.0000000  0.6508444  3
   1133   1131   1149   1136     1  0.0000000  1.6038667  3
   1134   1135   1136   1139     1  0.0000000  0.6508444  3
   1134   1135   1154   1144     1  0.0000000  1.2552000  3
   1134   1132   1152   1153     1  0.0000000  1.0460000  1
   1134   1132   1152   1153     1  0.0000000  0.6694400  3
   1135   1136   1140   1150     1  0.0000000  1.0460000  1
   1135   1136   1140   1150     1  0.0000000  0.6694400  3
   1135   1134   1141   1143     1  0.0000000  1.0460000  1
   1135   1134   1141   1143     1  0.0000000  0.6694400  3
   1135   1134   1132   1151     1  0.0000000  0.6508444  3
   1136   1135   1154   1144     1  0.0000000  1.2552000  3
   1136   1135   1134   1138     1  0.0000000  0.6508444  3
   1137   1135   1136   1140     1  0.0000000  1.0460000  1
   1137   1135   1136   1140     1  0.0000000  0.0000000  3
   1137   1135   1136   1149     1  0.0000000  1.0460000  1
   1137   1135   1136   1149     1  0.0000000  0.0000000  3
   1137   1135   1136   1139     1  0.0000000  0.6508444  3
   1137   1135   1154   1144     1  0.0000000  1.2552000  3
   1137   1135   1134   1141     1  0.0000000  1.0460000  1
   1137   1135   1134   1141     1  0.0000000  0.0000000  3
   1137   1135   1134   1138     1  0.0000000  0.6508444  3
   1138   1134   1135   1154     1  0.0000000  0.6508444  3
   1138   1134   1141   1143     1  0.0000000  0.6973333  3
   1138   1134   1132   1152     1  0.0000000  1.0460000  1
   1138   1134   1132   1152     1  0.0000000  0.0000000  3
   1138   1134   1132   1151     1  0.0000000  0.6508444  3
   1139   1136   1140   1150     1  0.0000000  0.6973333  3
   1139   1136   1135   1154     1  0.0000000  0.6508444  3
   1141   1134   1132   1151     1  0.0000000  1.0460000  1
   1141   1134   1132   1151     1  0.0000000  0.0000000  3
   1142   1131   1132   1151     1  0.0000000  0.6508444  3
   1145   1142   1147   1148     1  0.0000000  0.6973333  3
   1145   1142   1131   1149     1  0.0000000  1.0460000  1
   1145   1142   1131   1149     1  0.0000000  0.0000000  3
   1146   1142   1147   1148     1  0.0000000  0.6973333  3
   1146   1142   1131   1149     1  0.0000000  1.0460000  1
   1146   1142   1131   1149     1  0.0000000  0.0000000  3
   1149   1136   1140   1150     1  0.0000000  0.6973333  3
   1149   1131   1132   1151     1  0.0000000  1.0460000  1
   1149   1131   1132   1151     1  0.0000000  0.0000000  3
   1151   1132   1152   1153     1  0.0000000  0.6973333  3
   1155   1156   1158   1162     1  0.0000000  0.6508444  3
   1155   1156   1176   1177     1  0.0000000  1.0460000  1
   1155   1156   1176   1177     1  0.0000000  0.6694400  3
   1155   1166   1171   1172     1  0.0000000  1.0460000  1
   1155   1166   1171   1172     1  0.0000000  0.6694400  3
   1155   1173   1160   1163     1  0.0000000  1.6038667  3
   1156   1158   1159   1161     1  0.0000000  0.6508444  3
   1156   1158   1165   1167     1  0.0000000  1.0460000  1
   1156   1158   1165   1167     1  0.0000000  0.6694400  3
   1156   1155   1166   1169     1  0.0000000  0.6508444  3
   1156   1155   1166   1170     1  0.0000000  0.6508444  3
   1157   1155   1156   1158     1  0.0000000  0.6508444  3
   1157   1155   1156   1176     1  0.0000000  1.0460000  1
   1157   1155   1156   1176     1  0.0000000  0.0000000  3
   1157   1155   1156   1175     1  0.0000000  0.6508444  3
   1157   1155   1166   1171     1  0.0000000  1.0460000  1
   1157   1155   1166   1171     1  0.0000000  0.0000000  3
   1157   1155   1166   1169     1  0.0000000  0.6508444  3
   1157   1155   1166   1170     1  0.0000000  0.6508444  3
   1157   1155   1173   1160     1  0.0000000  1.6038667  3
   1158   1159   1160   1163     1  0.0000000  0.6508444  3
   1158   1159   1178   1168     1  0.0000000  1.2552000  3
   1158   1156   1176   1177     1  0.0000000  1.0460000  1
   1158   1156   1176   1177     1  0.0000000  0.6694400  3
   1159   1160   1164   1174     1  0.0000000  1.0460000  1
   1159   1160   1164   1174     1  0.0000000  0.6694400  3
   1159   1158   1165   1167     1  0.0000000  1.0460000  1
   1159   1158   1165   1167     1  0.0000000  0.6694400  3
   1159   1158   1156   1175     1  0.0000000  0.6508444  3
   1160   1159   1178   1168     1  0.0000000  1.2552000  3
   1160   1159   1158   1162     1  0.0000000  0.6508444  3
   1161   1159   1160   1164     1  0.0000000  1.0460000  1
   1161   1159   1160   1164     1  0.0000000  0.0000000  3
   1161   1159   1160   1173     1  0.0000000  1.0460000  1
   1161   1159   1160   1173     1  0.0000000  0.0000000  3
   1161   1159   1160   1163     1  0.0000000  0.6508444  3
   1161   1159   1178   1168     1  0.0000000  1.2552000  3
   1161   1159   1158   1165     1  0.0000000  1.0460000  1
   1161   1159   1158   1165     1  0.0000000  0.0000000  3
   1161   1159   1158   1162     1  0.0000000  0.6508444  3
   1162   1158   1159   1178     1  0.0000000  0.6508444  3
   1162   1158   1165   1167     1  0.0000000  0.6973333  3
   1162   1158   1156   1176     1  0.0000000  1.0460000  1
   1162   1158   1156   1176     1  0.0000000  0.0000000  3
   1162   1158   1156   1175     1  0.0000000  0.6508444  3
   1163   1160   1164   1174     1  0.0000000  0.6973333  3
   1163   1160   1159   1178     1  0.0000000  0.6508444  3
   1165   1158   1156   1175     1  0.0000000  1.0460000  1
   1165   1158   1156   1175     1  0.0000000  0.0000000  3
   1166   1155   1156   1175     1  0.0000000  0.6508444  3
   1169   1166   1171   1172     1  0.0000000  0.6973333  3
   1169   1166   1155   1173     1  0.0000000  1.0460000  1
   1169   1166   1155   1173     1  0.0000000  0.0000000  3
   1170   1166   1171   1172     1  0.0000000  0.6973333  3
   1170   1166   1155   1173     1  0.0000000  1.0460000  1
   1170   1166   1155   1173     1  0.0000000  0.0000000  3
   1173   1160   1164   1174     1  0.0000000  0.6973333  3
   1173   1155   1156   1175     1  0.0000000  1.0460000  1
   1173   1155   1156   1175     1  0.0000000  0.0000000  3
   1175   1156   1176   1177     1  0.0000000  0.6973333  3
   1179   1181   1183   1185     1  0.0000000  0.6508444  3
   1179   1181   1183   1186     1  0.0000000  0.6508444  3
   1180   1179   1181   1183     1  0.0000000  0.0000000  2
   1180   1179   1181   1182     1  0.0000000  0.0000000  2
   1180   1179   1181   1184     1  0.0000000  0.0000000  2
   1182   1181   1183   1187     1  0.0000000  0.6508444  3
   1182   1181   1183   1185     1  0.0000000  0.6508444  3
   1182   1181   1183   1186     1  0.0000000  0.6508444  3
   1183   1187   1188   1197     1  0.0000000  1.2552000  3
   1183   1187   1188   1198     1  0.0000000  1.2552000  3
   1183   1187   1189   1190     1  0.0000000  1.2552000  3
   1183   1187   1189   1192     1  0.0000000  1.2552000  3
   1184   1181   1183   1187     1  0.0000000  0.6508444  3
   1184   1181   1183   1185     1  0.0000000  0.6508444  3
   1184   1181   1183   1186     1  0.0000000  0.6508444  3
   1185   1183   1187   1188     1  0.0000000  1.2552000  3
   1185   1183   1187   1189     1  0.0000000  1.2552000  3
   1186   1183   1187   1188     1  0.0000000  1.2552000  3
   1186   1183   1187   1189     1  0.0000000  1.2552000  3
   1187   1188   1199   1200     1  0.0000000  0.6508444  3
   1187   1188   1199   1201     1  0.0000000  0.6508444  3
   1187   1189   1191   1193     1  0.0000000  0.6508444  3
   1187   1189   1191   1194     1  0.0000000  0.6508444  3
   1188   1187   1189   1190     1  0.0000000  1.2552000  3
   1188   1187   1189   1192     1  0.0000000  1.2552000  3
   1189   1187   1188   1197     1  0.0000000  1.2552000  3
   1189   1187   1188   1198     1  0.0000000  1.2552000  3
   1190   1189   1191   1195     1  0.0000000  0.6508444  3
   1190   1189   1191   1193     1  0.0000000  0.6508444  3
   1190   1189   1191   1194     1  0.0000000  0.6508444  3
   1191   1195   1227   1217     1  180.0000771  6.0668000  2
   1191   1195   1227   1217     1  180.0000771  1.4644000  4
   1192   1189   1191   1195     1  0.0000000  0.6508444  3
   1192   1189   1191   1193     1  0.0000000  0.6508444  3
   1192   1189   1191   1194     1  0.0000000  0.6508444  3
   1193   1191   1195   1196     1  0.0000000  3.3472000  1
   1193   1191   1195   1196     1  0.0000000  0.0000000  2
   1193   1191   1195   1196     1  180.0000771  0.3347200  3
   1193   1191   1195   1227     1  180.0000771  0.0000000  2
   1194   1191   1195   1196     1  0.0000000  3.3472000  1
   1194   1191   1195   1196     1  0.0000000  0.0000000  2
   1194   1191   1195   1196     1  180.0000771  0.3347200  3
   1194   1191   1195   1227     1  180.0000771  0.0000000  2
   1195   1227   1208   1210     1  0.0000000  1.2552000  3
   1196   1195   1227   1217     1  180.0000771  6.0668000  2
   1196   1195   1227   1217     1  180.0000771  1.4644000  4
   1197   1188   1199   1202     1  0.0000000  0.6508444  3
   1197   1188   1199   1200     1  0.0000000  0.6508444  3
   1197   1188   1199   1201     1  0.0000000  0.6508444  3
   1198   1188   1199   1202     1  0.0000000  0.6508444  3
   1198   1188   1199   1200     1  0.0000000  0.6508444  3
   1198   1188   1199   1201     1  0.0000000  0.6508444  3
   1199   1202   1251   1241     1  180.0000771  6.0668000  2
   1199   1202   1251   1241     1  180.0000771  1.4644000  4
   1200   1199   1202   1203     1  0.0000000  3.3472000  1
   1200   1199   1202   1203     1  0.0000000  0.0000000  2
   1200   1199   1202   1203     1  180.0000771  0.3347200  3
   1200   1199   1202   1251     1  180.0000771  0.0000000  2
   1201   1199   1202   1203     1  0.0000000  3.3472000  1
   1201   1199   1202   1203     1  0.0000000  0.0000000  2
   1201   1199   1202   1203     1  180.0000771  0.3347200  3
   1201   1199   1202   1251     1  180.0000771  0.0000000  2
   1202   1251   1232   1234     1  0.0000000  1.2552000  3
   1203   1202   1251   1241     1  180.0000771  6.0668000  2
   1203   1202   1251   1241     1  180.0000771  1.4644000  4
   1204   1205   1207   1211     1  0.0000000  0.6508444  3
   1204   1205   1225   1226     1  0.0000000  1.0460000  1
   1204   1205   1225   1226     1  0.0000000  0.6694400  3
   1204   1215   1220   1221     1  0.0000000  1.0460000  1
   1204   1215   1220   1221     1  0.0000000  0.6694400  3
   1204   1222   1209   1212     1  0.0000000  1.6038667  3
   1205   1204   1215   1218     1  0.0000000  0.6508444  3
   1205   1204   1215   1219     1  0.0000000  0.6508444  3
   1205   1207   1208   1210     1  0.0000000  0.6508444  3
   1205   1207   1214   1216     1  0.0000000  1.0460000  1
   1205   1207   1214   1216     1  0.0000000  0.6694400  3
   1206   1204   1205   1207     1  0.0000000  0.6508444  3
   1206   1204   1205   1225     1  0.0000000  1.0460000  1
   1206   1204   1205   1225     1  0.0000000  0.0000000  3
   1206   1204   1205   1224     1  0.0000000  0.6508444  3
   1206   1204   1215   1220     1  0.0000000  1.0460000  1
   1206   1204   1215   1220     1  0.0000000  0.0000000  3
   1206   1204   1215   1218     1  0.0000000  0.6508444  3
   1206   1204   1215   1219     1  0.0000000  0.6508444  3
   1206   1204   1222   1209     1  0.0000000  1.6038667  3
   1207   1205   1225   1226     1  0.0000000  1.0460000  1
   1207   1205   1225   1226     1  0.0000000  0.6694400  3
   1207   1208   1209   1212     1  0.0000000  0.6508444  3
   1207   1208   1227   1217     1  0.0000000  1.2552000  3
   1208   1207   1205   1224     1  0.0000000  0.6508444  3
   1208   1207   1214   1216     1  0.0000000  1.0460000  1
   1208   1207   1214   1216     1  0.0000000  0.6694400  3
   1208   1209   1213   1223     1  0.0000000  1.0460000  1
   1208   1209   1213   1223     1  0.0000000  0.6694400  3
   1209   1208   1207   1211     1  0.0000000  0.6508444  3
   1209   1208   1227   1217     1  0.0000000  1.2552000  3
   1210   1208   1207   1214     1  0.0000000  1.0460000  1
   1210   1208   1207   1214     1  0.0000000  0.0000000  3
   1210   1208   1207   1211     1  0.0000000  0.6508444  3
   1210   1208   1209   1213     1  0.0000000  1.0460000  1
   1210   1208   1209   1213     1  0.0000000  0.0000000  3
   1210   1208   1209   1222     1  0.0000000  1.0460000  1
   1210   1208   1209   1222     1  0.0000000  0.0000000  3
   1210   1208   1209   1212     1  0.0000000  0.6508444  3
   1210   1208   1227   1217     1  0.0000000  1.2552000  3
   1211   1207   1205   1225     1  0.0000000  1.0460000  1
   1211   1207   1205   1225     1  0.0000000  0.0000000  3
   1211   1207   1205   1224     1  0.0000000  0.6508444  3
   1211   1207   1208   1227     1  0.0000000  0.6508444  3
   1211   1207   1214   1216     1  0.0000000  0.6973333  3
   1212   1209   1208   1227     1  0.0000000  0.6508444  3
   1212   1209   1213   1223     1  0.0000000  0.6973333  3
   1214   1207   1205   1224     1  0.0000000  1.0460000  1
   1214   1207   1205   1224     1  0.0000000  0.0000000  3
   1215   1204   1205   1224     1  0.0000000  0.6508444  3
   1218   1215   1204   1222     1  0.0000000  1.0460000  1
   1218   1215   1204   1222     1  0.0000000  0.0000000  3
   1218   1215   1220   1221     1  0.0000000  0.6973333  3
   1219   1215   1204   1222     1  0.0000000  1.0460000  1
   1219   1215   1204   1222     1  0.0000000  0.0000000  3
   1219   1215   1220   1221     1  0.0000000  0.6973333  3
   1222   1204   1205   1224     1  0.0000000  1.0460000  1
   1222   1204   1205   1224     1  0.0000000  0.0000000  3
   1222   1209   1213   1223     1  0.0000000  0.6973333  3
   1224   1205   1225   1226     1  0.0000000  0.6973333  3
   1228   1229   1231   1235     1  0.0000000  0.6508444  3
   1228   1229   1249   1250     1  0.0000000  1.0460000  1
   1228   1229   1249   1250     1  0.0000000  0.6694400  3
   1228   1239   1244   1245     1  0.0000000  1.0460000  1
   1228   1239   1244   1245     1  0.0000000  0.6694400  3
   1228   1246   1233   1236     1  0.0000000  1.6038667  3
   1229   1228   1239   1242     1  0.0000000  0.6508444  3
   1229   1228   1239   1243     1  0.0000000  0.6508444  3
   1229   1231   1232   1234     1  0.0000000  0.6508444  3
   1229   1231   1238   1240     1  0.0000000  1.0460000  1
   1229   1231   1238   1240     1  0.0000000  0.6694400  3
   1230   1228   1229   1231     1  0.0000000  0.6508444  3
   1230   1228   1229   1249     1  0.0000000  1.0460000  1
   1230   1228   1229   1249     1  0.0000000  0.0000000  3
   1230   1228   1229   1248     1  0.0000000  0.6508444  3
   1230   1228   1239   1244     1  0.0000000  1.0460000  1
   1230   1228   1239   1244     1  0.0000000  0.0000000  3
   1230   1228   1239   1242     1  0.0000000  0.6508444  3
   1230   1228   1239   1243     1  0.0000000  0.6508444  3
   1230   1228   1246   1233     1  0.0000000  1.6038667  3
   1231   1229   1249   1250     1  0.0000000  1.0460000  1
   1231   1229   1249   1250     1  0.0000000  0.6694400  3
   1231   1232   1233   1236     1  0.0000000  0.6508444  3
   1231   1232   1251   1241     1  0.0000000  1.2552000  3
   1232   1231   1229   1248     1  0.0000000  0.6508444  3
   1232   1231   1238   1240     1  0.0000000  1.0460000  1
   1232   1231   1238   1240     1  0.0000000  0.6694400  3
   1232   1233   1237   1247     1  0.0000000  1.0460000  1
   1232   1233   1237   1247     1  0.0000000  0.6694400  3
   1233   1232   1231   1235     1  0.0000000  0.6508444  3
   1233   1232   1251   1241     1  0.0000000  1.2552000  3
   1234   1232   1231   1238     1  0.0000000  1.0460000  1
   1234   1232   1231   1238     1  0.0000000  0.0000000  3
   1234   1232   1231   1235     1  0.0000000  0.6508444  3
   1234   1232   1233   1237     1  0.0000000  1.0460000  1
   1234   1232   1233   1237     1  0.0000000  0.0000000  3
   1234   1232   1233   1246     1  0.0000000  1.0460000  1
   1234   1232   1233   1246     1  0.0000000  0.0000000  3
   1234   1232   1233   1236     1  0.0000000  0.6508444  3
   1234   1232   1251   1241     1  0.0000000  1.2552000  3
   1235   1231   1229   1249     1  0.0000000  1.0460000  1
   1235   1231   1229   1249     1  0.0000000  0.0000000  3
   1235   1231   1229   1248     1  0.0000000  0.6508444  3
   1235   1231   1232   1251     1  0.0000000  0.6508444  3
   1235   1231   1238   1240     1  0.0000000  0.6973333  3
   1236   1233   1232   1251     1  0.0000000  0.6508444  3
   1236   1233   1237   1247     1  0.0000000  0.6973333  3
   1238   1231   1229   1248     1  0.0000000  1.0460000  1
   1238   1231   1229   1248     1  0.0000000  0.0000000  3
   1239   1228   1229   1248     1  0.0000000  0.6508444  3
   1242   1239   1228   1246     1  0.0000000  1.0460000  1
   1242   1239   1228   1246     1  0.0000000  0.0000000  3
   1242   1239   1244   1245     1  0.0000000  0.6973333  3
   1243   1239   1228   1246     1  0.0000000  1.0460000  1
   1243   1239   1228   1246     1  0.0000000  0.0000000  3
   1243   1239   1244   1245     1  0.0000000  0.6973333  3
   1246   1228   1229   1248     1  0.0000000  1.0460000  1
   1246   1228   1229   1248     1  0.0000000  0.0000000  3
   1246   1233   1237   1247     1  0.0000000  0.6973333  3
   1248   1229   1249   1250     1  0.0000000  0.6973333  3
   1252   1254   1256   1258     1  0.0000000  0.6508444  3
   1252   1254   1256   1259     1  0.0000000  0.6508444  3
   1253   1252   1254   1256     1  0.0000000  0.0000000  2
   1253   1252   1254   1255     1  0.0000000  0.0000000  2
   1253   1252   1254   1257     1  0.0000000  0.0000000  2
   1255   1254   1256   1260     1  0.0000000  0.6508444  3
   1255   1254   1256   1258     1  0.0000000  0.6508444  3
   1255   1254   1256   1259     1  0.0000000  0.6508444  3
   1256   1260   1261   1270     1  0.0000000  1.2552000  3
   1256   1260   1261   1271     1  0.0000000  1.2552000  3
   1256   1260   1262   1263     1  0.0000000  1.2552000  3
   1256   1260   1262   1265     1  0.0000000  1.2552000  3
   1257   1254   1256   1260     1  0.0000000  0.6508444  3
   1257   1254   1256   1258     1  0.0000000  0.6508444  3
   1257   1254   1256   1259     1  0.0000000  0.6508444  3
   1258   1256   1260   1261     1  0.0000000  1.2552000  3
   1258   1256   1260   1262     1  0.0000000  1.2552000  3
   1259   1256   1260   1261     1  0.0000000  1.2552000  3
   1259   1256   1260   1262     1  0.0000000  1.2552000  3
   1260   1261   1272   1273     1  0.0000000  0.6508444  3
   1260   1261   1272   1274     1  0.0000000  0.6508444  3
   1260   1262   1264   1266     1  0.0000000  0.6508444  3
   1260   1262   1264   1267     1  0.0000000  0.6508444  3
   1261   1260   1262   1263     1  0.0000000  1.2552000  3
   1261   1260   1262   1265     1  0.0000000  1.2552000  3
   1262   1260   1261   1270     1  0.0000000  1.2552000  3
   1262   1260   1261   1271     1  0.0000000  1.2552000  3
   1263   1262   1264   1268     1  0.0000000  0.6508444  3
   1263   1262   1264   1266     1  0.0000000  0.6508444  3
   1263   1262   1264   1267     1  0.0000000  0.6508444  3
   1264   1268   1300   1290     1  180.0000771  6.0668000  2
   1264   1268   1300   1290     1  180.0000771  1.4644000  4
   1265   1262   1264   1268     1  0.0000000  0.6508444  3
   1265   1262   1264   1266     1  0.0000000  0.6508444  3
   1265   1262   1264   1267     1  0.0000000  0.6508444  3
   1266   1264   1268   1269     1  0.0000000  3.3472000  1
   1266   1264   1268   1269     1  0.0000000  0.0000000  2
   1266   1264   1268   1269     1  180.0000771  0.3347200  3
   1266   1264   1268   1300     1  180.0000771  0.0000000  2
   1267   1264   1268   1269     1  0.0000000  3.3472000  1
   1267   1264   1268   1269     1  0.0000000  0.0000000  2
   1267   1264   1268   1269     1  180.0000771  0.3347200  3
   1267   1264   1268   1300     1  180.0000771  0.0000000  2
   1268   1300   1281   1283     1  0.0000000  1.2552000  3
   1269   1268   1300   1290     1  180.0000771  6.0668000  2
   1269   1268   1300   1290     1  180.0000771  1.4644000  4
   1270   1261   1272   1275     1  0.0000000  0.6508444  3
   1270   1261   1272   1273     1  0.0000000  0.6508444  3
   1270   1261   1272   1274     1  0.0000000  0.6508444  3
   1271   1261   1272   1275     1  0.0000000  0.6508444  3
   1271   1261   1272   1273     1  0.0000000  0.6508444  3
   1271   1261   1272   1274     1  0.0000000  0.6508444  3
   1272   1275   1324   1314     1  180.0000771  6.0668000  2
   1272   1275   1324   1314     1  180.0000771  1.4644000  4
   1273   1272   1275   1276     1  0.0000000  3.3472000  1
   1273   1272   1275   1276     1  0.0000000  0.0000000  2
   1273   1272   1275   1276     1  180.0000771  0.3347200  3
   1273   1272   1275   1324     1  180.0000771  0.0000000  2
   1274   1272   1275   1276     1  0.0000000  3.3472000  1
   1274   1272   1275   1276     1  0.0000000  0.0000000  2
   1274   1272   1275   1276     1  180.0000771  0.3347200  3
   1274   1272   1275   1324     1  180.0000771  0.0000000  2
   1275   1324   1305   1307     1  0.0000000  1.2552000  3
   1276   1275   1324   1314     1  180.0000771  6.0668000  2
   1276   1275   1324   1314     1  180.0000771  1.4644000  4
   1277   1278   1280   1284     1  0.0000000  0.6508444  3
   1277   1278   1298   1299     1  0.0000000  1.0460000  1
   1277   1278   1298   1299     1  0.0000000  0.6694400  3
   1277   1288   1293   1294     1  0.0000000  1.0460000  1
   1277   1288   1293   1294     1  0.0000000  0.6694400  3
   1277   1295   1282   1285     1  0.0000000  1.6038667  3
   1278   1280   1281   1283     1  0.0000000  0.6508444  3
   1278   1280   1287   1289     1  0.0000000  1.0460000  1
   1278   1280   1287   1289     1  0.0000000  0.6694400  3
   1278   1277   1288   1291     1  0.0000000  0.6508444  3
   1278   1277   1288   1292     1  0.0000000  0.6508444  3
   1279   1277   1278   1280     1  0.0000000  0.6508444  3
   1279   1277   1278   1298     1  0.0000000  1.0460000  1
   1279   1277   1278   1298     1  0.0000000  0.0000000  3
   1279   1277   1278   1297     1  0.0000000  0.6508444  3
   1279   1277   1288   1293     1  0.0000000  1.0460000  1
   1279   1277   1288   1293     1  0.0000000  0.0000000  3
   1279   1277   1288   1291     1  0.0000000  0.6508444  3
   1279   1277   1288   1292     1  0.0000000  0.6508444  3
   1279   1277   1295   1282     1  0.0000000  1.6038667  3
   1280   1281   1282   1285     1  0.0000000  0.6508444  3
   1280   1281   1300   1290     1  0.0000000  1.2552000  3
   1280   1278   1298   1299     1  0.0000000  1.0460000  1
   1280   1278   1298   1299     1  0.0000000  0.6694400  3
   1281   1282   1286   1296     1  0.0000000  1.0460000  1
   1281   1282   1286   1296     1  0.0000000  0.6694400  3
   1281   1280   1287   1289     1  0.0000000  1.0460000  1
   1281   1280   1287   1289     1  0.0000000  0.6694400  3
   1281   1280   1278   1297     1  0.0000000  0.6508444  3
   1282   1281   1300   1290     1  0.0000000  1.2552000  3
   1282   1281   1280   1284     1  0.0000000  0.6508444  3
   1283   1281   1282   1286     1  0.0000000  1.0460000  1
   1283   1281   1282   1286     1  0.0000000  0.0000000  3
   1283   1281   1282   1295     1  0.0000000  1.0460000  1
   1283   1281   1282   1295     1  0.0000000  0.0000000  3
   1283   1281   1282   1285     1  0.0000000  0.6508444  3
   1283   1281   1300   1290     1  0.0000000  1.2552000  3
   1283   1281   1280   1287     1  0.0000000  1.0460000  1
   1283   1281   1280   1287     1  0.0000000  0.0000000  3
   1283   1281   1280   1284     1  0.0000000  0.6508444  3
   1284   1280   1281   1300     1  0.0000000  0.6508444  3
   1284   1280   1287   1289     1  0.0000000  0.6973333  3
   1284   1280   1278   1298     1  0.0000000  1.0460000  1
   1284   1280   1278   1298     1  0.0000000  0.0000000  3
   1284   1280   1278   1297     1  0.0000000  0.6508444  3
   1285   1282   1286   1296     1  0.0000000  0.6973333  3
   1285   1282   1281   1300     1  0.0000000  0.6508444  3
   1287   1280   1278   1297     1  0.0000000  1.0460000  1
   1287   1280   1278   1297     1  0.0000000  0.0000000  3
   1288   1277   1278   1297     1  0.0000000  0.6508444  3
   1291   1288   1293   1294     1  0.0000000  0.6973333  3
   1291   1288   1277   1295     1  0.0000000  1.0460000  1
   1291   1288   1277   1295     1  0.0000000  0.0000000  3
   1292   1288   1293   1294     1  0.0000000  0.6973333  3
   1292   1288   1277   1295     1  0.0000000  1.0460000  1
   1292   1288   1277   1295     1  0.0000000  0.0000000  3
   1295   1282   1286   1296     1  0.0000000  0.6973333  3
   1295   1277   1278   1297     1  0.0000000  1.0460000  1
   1295   1277   1278   1297     1  0.0000000  0.0000000  3
   1297   1278   1298   1299     1  0.0000000  0.6973333  3
   1301   1302   1304   1308     1  0.0000000  0.6508444  3
   1301   1302   1322   1323     1  0.0000000  1.0460000  1
   1301   1302   1322   1323     1  0.0000000  0.6694400  3
   1301   1312   1317   1318     1  0.0000000  1.0460000  1
   1301   1312   1317   1318     1  0.0000000  0.6694400  3
   1301   1319   1306   1309     1  0.0000000  1.6038667  3
   1302   1304   1305   1307     1  0.0000000  0.6508444  3
   1302   1304   1311   1313     1  0.0000000  1.0460000  1
   1302   1304   1311   1313     1  0.0000000  0.6694400  3
   1302   1301   1312   1315     1  0.0000000  0.6508444  3
   1302   1301   1312   1316     1  0.0000000  0.6508444  3
   1303   1301   1302   1304     1  0.0000000  0.6508444  3
   1303   1301   1302   1322     1  0.0000000  1.0460000  1
   1303   1301   1302   1322     1  0.0000000  0.0000000  3
   1303   1301   1302   1321     1  0.0000000  0.6508444  3
   1303   1301   1312   1317     1  0.0000000  1.0460000  1
   1303   1301   1312   1317     1  0.0000000  0.0000000  3
   1303   1301   1312   1315     1  0.0000000  0.6508444  3
   1303   1301   1312   1316     1  0.0000000  0.6508444  3
   1303   1301   1319   1306     1  0.0000000  1.6038667  3
   1304   1305   1306   1309     1  0.0000000  0.6508444  3
   1304   1305   1324   1314     1  0.0000000  1.2552000  3
   1304   1302   1322   1323     1  0.0000000  1.0460000  1
   1304   1302   1322   1323     1  0.0000000  0.6694400  3
   1305   1306   1310   1320     1  0.0000000  1.0460000  1
   1305   1306   1310   1320     1  0.0000000  0.6694400  3
   1305   1304   1311   1313     1  0.0000000  1.0460000  1
   1305   1304   1311   1313     1  0.0000000  0.6694400  3
   1305   1304   1302   1321     1  0.0000000  0.6508444  3
   1306   1305   1324   1314     1  0.0000000  1.2552000  3
   1306   1305   1304   1308     1  0.0000000  0.6508444  3
   1307   1305   1306   1310     1  0.0000000  1.0460000  1
   1307   1305   1306   1310     1  0.0000000  0.0000000  3
   1307   1305   1306   1319     1  0.0000000  1.0460000  1
   1307   1305   1306   1319     1  0.0000000  0.0000000  3
   1307   1305   1306   1309     1  0.0000000  0.6508444  3
   1307   1305   1324   1314     1  0.0000000  1.2552000  3
   1307   1305   1304   1311     1  0.0000000  1.0460000  1
   1307   1305   1304   1311     1  0.0000000  0.0000000  3
   1307   1305   1304   1308     1  0.0000000  0.6508444  3
   1308   1304   1305   1324     1  0.0000000  0.6508444  3
   1308   1304   1311   1313     1  0.0000000  0.6973333  3
   1308   1304   1302   1322     1  0.0000000  1.0460000  1
   1308   1304   1302   1322     1  0.0000000  0.0000000  3
   1308   1304   1302   1321     1  0.0000000  0.6508444  3
   1309   1306   1310   1320     1  0.0000000  0.6973333  3
   1309   1306   1305   1324     1  0.0000000  0.6508444  3
   1311   1304   1302   1321     1  0.0000000  1.0460000  1
   1311   1304   1302   1321     1  0.0000000  0.0000000  3
   1312   1301   1302   1321     1  0.0000000  0.6508444  3
   1315   1312   1317   1318     1  0.0000000  0.6973333  3
   1315   1312   1301   1319     1  0.0000000  1.0460000  1
   1315   1312   1301   1319     1  0.0000000  0.0000000  3
   1316   1312   1317   1318     1  0.0000000  0.6973333  3
   1316   1312   1301   1319     1  0.0000000  1.0460000  1
   1316   1312   1301   1319     1  0.0000000  0.0000000  3
   1319   1306   1310   1320     1  0.0000000  0.6973333  3
   1319   1301   1302   1321     1  0.0000000  1.0460000  1
   1319   1301   1302   1321     1  0.0000000  0.0000000  3
   1321   1302   1322   1323     1  0.0000000  0.6973333  3
   1325   1327   1329   1331     1  0.0000000  0.6508444  3
   1325   1327   1329   1332     1  0.0000000  0.6508444  3
   1326   1325   1327   1329     1  0.0000000  0.0000000  2
   1326   1325   1327   1328     1  0.0000000  0.0000000  2
   1326   1325   1327   1330     1  0.0000000  0.0000000  2
   1328   1327   1329   1333     1  0.0000000  0.6508444  3
   1328   1327   1329   1331     1  0.0000000  0.6508444  3
   1328   1327   1329   1332     1  0.0000000  0.6508444  3
   1329   1333   1334   1343     1  0.0000000  1.2552000  3
   1329   1333   1334   1344     1  0.0000000  1.2552000  3
   1329   1333   1335   1336     1  0.0000000  1.2552000  3
   1329   1333   1335   1338     1  0.0000000  1.2552000  3
   1330   1327   1329   1333     1  0.0000000  0.6508444  3
   1330   1327   1329   1331     1  0.0000000  0.6508444  3
   1330   1327   1329   1332     1  0.0000000  0.6508444  3
   1331   1329   1333   1334     1  0.0000000  1.2552000  3
   1331   1329   1333   1335     1  0.0000000  1.2552000  3
   1332   1329   1333   1334     1  0.0000000  1.2552000  3
   1332   1329   1333   1335     1  0.0000000  1.2552000  3
   1333   1334   1345   1346     1  0.0000000  0.6508444  3
   1333   1334   1345   1347     1  0.0000000  0.6508444  3
   1333   1335   1337   1339     1  0.0000000  0.6508444  3
   1333   1335   1337   1340     1  0.0000000  0.6508444  3
   1334   1333   1335   1336     1  0.0000000  1.2552000  3
   1334   1333   1335   1338     1  0.0000000  1.2552000  3
   1335   1333   1334   1343     1  0.0000000  1.2552000  3
   1335   1333   1334   1344     1  0.0000000  1.2552000  3
   1336   1335   1337   1341     1  0.0000000  0.6508444  3
   1336   1335   1337   1339     1  0.0000000  0.6508444  3
   1336   1335   1337   1340     1  0.0000000  0.6508444  3
   1337   1341   1373   1363     1  180.0000771  6.0668000  2
   1337   1341   1373   1363     1  180.0000771  1.4644000  4
   1338   1335   1337   1341     1  0.0000000  0.6508444  3
   1338   1335   1337   1339     1  0.0000000  0.6508444  3
   1338   1335   1337   1340     1  0.0000000  0.6508444  3
   1339   1337   1341   1342     1  0.0000000  3.3472000  1
   1339   1337   1341   1342     1  0.0000000  0.0000000  2
   1339   1337   1341   1342     1  180.0000771  0.3347200  3
   1339   1337   1341   1373     1  180.0000771  0.0000000  2
   1340   1337   1341   1342     1  0.0000000  3.3472000  1
   1340   1337   1341   1342     1  0.0000000  0.0000000  2
   1340   1337   1341   1342     1  180.0000771  0.3347200  3
   1340   1337   1341   1373     1  180.0000771  0.0000000  2
   1341   1373   1354   1356     1  0.0000000  1.2552000  3
   1342   1341   1373   1363     1  180.0000771  6.0668000  2
   1342   1341   1373   1363     1  180.0000771  1.4644000  4
   1343   1334   1345   1348     1  0.0000000  0.6508444  3
   1343   1334   1345   1346     1  0.0000000  0.6508444  3
   1343   1334   1345   1347     1  0.0000000  0.6508444  3
   1344   1334   1345   1348     1  0.0000000  0.6508444  3
   1344   1334   1345   1346     1  0.0000000  0.6508444  3
   1344   1334   1345   1347     1  0.0000000  0.6508444  3
   1345   1348   1397   1387     1  180.0000771  6.0668000  2
   1345   1348   1397   1387     1  180.0000771  1.4644000  4
   1346   1345   1348   1349     1  0.0000000  3.3472000  1
   1346   1345   1348   1349     1  0.0000000  0.0000000  2
   1346   1345   1348   1349     1  180.0000771  0.3347200  3
   1346   1345   1348   1397     1  180.0000771  0.0000000  2
   1347   1345   1348   1349     1  0.0000000  3.3472000  1
   1347   1345   1348   1349     1  0.0000000  0.0000000  2
   1347   1345   1348   1349     1  180.0000771  0.3347200  3
   1347   1345   1348   1397     1  180.0000771  0.0000000  2
   1348   1397   1378   1380     1  0.0000000  1.2552000  3
   1349   1348   1397   1387     1  180.0000771  6.0668000  2
   1349   1348   1397   1387     1  180.0000771  1.4644000  4
   1350   1351   1353   1357     1  0.0000000  0.6508444  3
   1350   1351   1371   1372     1  0.0000000  1.0460000  1
   1350   1351   1371   1372     1  0.0000000  0.6694400  3
   1350   1361   1366   1367     1  0.0000000  1.0460000  1
   1350   1361   1366   1367     1  0.0000000  0.6694400  3
   1350   1368   1355   1358     1  0.0000000  1.6038667  3
   1351   1350   1361   1364     1  0.0000000  0.6508444  3
   1351   1350   1361   1365     1  0.0000000  0.6508444  3
   1351   1353   1354   1356     1  0.0000000  0.6508444  3
   1351   1353   1360   1362     1  0.0000000  1.0460000  1
   1351   1353   1360   1362     1  0.0000000  0.6694400  3
   1352   1350   1351   1353     1  0.0000000  0.6508444  3
   1352   1350   1351   1371     1  0.0000000  1.0460000  1
   1352   1350   1351   1371     1  0.0000000  0.0000000  3
   1352   1350   1351   1370     1  0.0000000  0.6508444  3
   1352   1350   1361   1366     1  0.0000000  1.0460000  1
   1352   1350   1361   1366     1  0.0000000  0.0000000  3
   1352   1350   1361   1364     1  0.0000000  0.6508444  3
   1352   1350   1361   1365     1  0.0000000  0.6508444  3
   1352   1350   1368   1355     1  0.0000000  1.6038667  3
   1353   1351   1371   1372     1  0.0000000  1.0460000  1
   1353   1351   1371   1372     1  0.0000000  0.6694400  3
   1353   1354   1355   1358     1  0.0000000  0.6508444  3
   1353   1354   1373   1363     1  0.0000000  1.2552000  3
   1354   1353   1351   1370     1  0.0000000  0.6508444  3
   1354   1353   1360   1362     1  0.0000000  1.0460000  1
   1354   1353   1360   1362     1  0.0000000  0.6694400  3
   1354   1355   1359   1369     1  0.0000000  1.0460000  1
   1354   1355   1359   1369     1  0.0000000  0.6694400  3
   1355   1354   1353   1357     1  0.0000000  0.6508444  3
   1355   1354   1373   1363     1  0.0000000  1.2552000  3
   1356   1354   1353   1360     1  0.0000000  1.0460000  1
   1356   1354   1353   1360     1  0.0000000  0.0000000  3
   1356   1354   1353   1357     1  0.0000000  0.6508444  3
   1356   1354   1355   1359     1  0.0000000  1.0460000  1
   1356   1354   1355   1359     1  0.0000000  0.0000000  3
   1356   1354   1355   1368     1  0.0000000  1.0460000  1
   1356   1354   1355   1368     1  0.0000000  0.0000000  3
   1356   1354   1355   1358     1  0.0000000  0.6508444  3
   1356   1354   1373   1363     1  0.0000000  1.2552000  3
   1357   1353   1351   1371     1  0.0000000  1.0460000  1
   1357   1353   1351   1371     1  0.0000000  0.0000000  3
   1357   1353   1351   1370     1  0.0000000  0.6508444  3
   1357   1353   1354   1373     1  0.0000000  0.6508444  3
   1357   1353   1360   1362     1  0.0000000  0.6973333  3
   1358   1355   1354   1373     1  0.0000000  0.6508444  3
   1358   1355   1359   1369     1  0.0000000  0.6973333  3
   1360   1353   1351   1370     1  0.0000000  1.0460000  1
   1360   1353   1351   1370     1  0.0000000  0.0000000  3
   1361   1350   1351   1370     1  0.0000000  0.6508444  3
   1364   1361   1350   1368     1  0.0000000  1.0460000  1
   1364   1361   1350   1368     1  0.0000000  0.0000000  3
   1364   1361   1366   1367     1  0.0000000  0.6973333  3
   1365   1361   1350   1368     1  0.0000000  1.0460000  1
   1365   1361   1350   1368     1  0.0000000  0.0000000  3
   1365   1361   1366   1367     1  0.0000000  0.6973333  3
   1368   1350   1351   1370     1  0.0000000  1.0460000  1
   1368   1350   1351   1370     1  0.0000000  0.0000000  3
   1368   1355   1359   1369     1  0.0000000  0.6973333  3
   1370   1351   1371   1372     1  0.0000000  0.6973333  3
   1374   1375   1377   1381     1  0.0000000  0.6508444  3
   1374   1375   1395   1396     1  0.0000000  1.0460000  1
   1374   1375   1395   1396     1  0.0000000  0.6694400  3
   1374   1385   1390   1391     1  0.0000000  1.0460000  1
   1374   1385   1390   1391     1  0.0000000  0.6694400  3
   1374   1392   1379   1382     1  0.0000000  1.6038667  3
   1375   1374   1385   1388     1  0.0000000  0.6508444  3
   1375   1374   1385   1389     1  0.0000000  0.6508444  3
   1375   1377   1378   1380     1  0.0000000  0.6508444  3
   1375   1377   1384   1386     1  0.0000000  1.0460000  1
   1375   1377   1384   1386     1  0.0000000  0.6694400  3
   1376   1374   1375   1377     1  0.0000000  0.6508444  3
   1376   1374   1375   1395     1  0.0000000  1.0460000  1
   1376   1374   1375   1395     1  0.0000000  0.0000000  3
   1376   1374   1375   1394     1  0.0000000  0.6508444  3
   1376   1374   1385   1390     1  0.0000000  1.0460000  1
   1376   1374   1385   1390     1  0.0000000  0.0000000  3
   1376   1374   1385   1388     1  0.0000000  0.6508444  3
   1376   1374   1385   1389     1  0.0000000  0.6508444  3
   1376   1374   1392   1379     1  0.0000000  1.6038667  3
   1377   1375   1395   1396     1  0.0000000  1.0460000  1
   1377   1375   1395   1396     1  0.0000000  0.6694400  3
   1377   1378   1379   1382     1  0.0000000  0.6508444  3
   1377   1378   1397   1387     1  0.0000000  1.2552000  3
   1378   1377   1375   1394     1  0.0000000  0.6508444  3
   1378   1377   1384   1386     1  0.0000000  1.0460000  1
   1378   1377   1384   1386     1  0.0000000  0.6694400  3
   1378   1379   1383   1393     1  0.0000000  1.0460000  1
   1378   1379   1383   1393     1  0.0000000  0.6694400  3
   1379   1378   1377   1381     1  0.0000000  0.6508444  3
   1379   1378   1397   1387     1  0.0000000  1.2552000  3
   1380   1378   1377   1384     1  0.0000000  1.0460000  1
   1380   1378   1377   1384     1  0.0000000  0.0000000  3
   1380   1378   1377   1381     1  0.0000000  0.6508444  3
   1380   1378   1379   1383     1  0.0000000  1.0460000  1
   1380   1378   1379   1383     1  0.0000000  0.0000000  3
   1380   1378   1379   1392     1  0.0000000  1.0460000  1
   1380   1378   1379   1392     1  0.0000000  0.0000000  3
   1380   1378   1379   1382     1  0.0000000  0.6508444  3
   1380   1378   1397   1387     1  0.0000000  1.2552000  3
   1381   1377   1375   1395     1  0.0000000  1.0460000  1
   1381   1377   1375   1395     1  0.0000000  0.0000000  3
   1381   1377   1375   1394     1  0.0000000  0.6508444  3
   1381   1377   1378   1397     1  0.0000000  0.6508444  3
   1381   1377   1384   1386     1  0.0000000  0.6973333  3
   1382   1379   1378   1397     1  0.0000000  0.6508444  3
   1382   1379   1383   1393     1  0.0000000  0.6973333  3
   1384   1377   1375   1394     1  0.0000000  1.0460000  1
   1384   1377   1375   1394     1  0.0000000  0.0000000  3
   1385   1374   1375   1394     1  0.0000000  0.6508444  3
   1388   1385   1374   1392     1  0.0000000  1.0460000  1
   1388   1385   1374   1392     1  0.0000000  0.0000000  3
   1388   1385   1390   1391     1  0.0000000  0.6973333  3
   1389   1385   1374   1392     1  0.0000000  1.0460000  1
   1389   1385   1374   1392     1  0.0000000  0.0000000  3
   1389   1385   1390   1391     1  0.0000000  0.6973333  3
   1392   1374   1375   1394     1  0.0000000  1.0460000  1
   1392   1374   1375   1394     1  0.0000000  0.0000000  3
   1392   1379   1383   1393     1  0.0000000  0.6973333  3
   1394   1375   1395   1396     1  0.0000000  0.6973333  3
   1398   1400   1402   1404     1  0.0000000  0.6508444  3
   1398   1400   1402   1405     1  0.0000000  0.6508444  3
   1399   1398   1400   1402     1  0.0000000  0.0000000  2
   1399   1398   1400   1401     1  0.0000000  0.0000000  2
   1399   1398   1400   1403     1  0.0000000  0.0000000  2
   1401   1400   1402   1406     1  0.0000000  0.6508444  3
   1401   1400   1402   1404     1  0.0000000  0.6508444  3
   1401   1400   1402   1405     1  0.0000000  0.6508444  3
   1402   1406   1407   1416     1  0.0000000  1.2552000  3
   1402   1406   1407   1417     1  0.0000000  1.2552000  3
   1402   1406   1408   1409     1  0.0000000  1.2552000  3
   1402   1406   1408   1411     1  0.0000000  1.2552000  3
   1403   1400   1402   1406     1  0.0000000  0.6508444  3
   1403   1400   1402   1404     1  0.0000000  0.6508444  3
   1403   1400   1402   1405     1  0.0000000  0.6508444  3
   1404   1402   1406   1407     1  0.0000000  1.2552000  3
   1404   1402   1406   1408     1  0.0000000  1.2552000  3
   1405   1402   1406   1407     1  0.0000000  1.2552000  3
   1405   1402   1406   1408     1  0.0000000  1.2552000  3
   1406   1407   1418   1419     1  0.0000000  0.6508444  3
   1406   1407   1418   1420     1  0.0000000  0.6508444  3
   1406   1408   1410   1412     1  0.0000000  0.6508444  3
   1406   1408   1410   1413     1  0.0000000  0.6508444  3
   1407   1406   1408   1409     1  0.0000000  1.2552000  3
   1407   1406   1408   1411     1  0.0000000  1.2552000  3
   1408   1406   1407   1416     1  0.0000000  1.2552000  3
   1408   1406   1407   1417     1  0.0000000  1.2552000  3
   1409   1408   1410   1414     1  0.0000000  0.6508444  3
   1409   1408   1410   1412     1  0.0000000  0.6508444  3
   1409   1408   1410   1413     1  0.0000000  0.6508444  3
   1410   1414   1446   1436     1  180.0000771  6.0668000  2
   1410   1414   1446   1436     1  180.0000771  1.4644000  4
   1411   1408   1410   1414     1  0.0000000  0.6508444  3
   1411   1408   1410   1412     1  0.0000000  0.6508444  3
   1411   1408   1410   1413     1  0.0000000  0.6508444  3
   1412   1410   1414   1415     1  0.0000000  3.3472000  1
   1412   1410   1414   1415     1  0.0000000  0.0000000  2
   1412   1410   1414   1415     1  180.0000771  0.3347200  3
   1412   1410   1414   1446     1  180.0000771  0.0000000  2
   1413   1410   1414   1415     1  0.0000000  3.3472000  1
   1413   1410   1414   1415     1  0.0000000  0.0000000  2
   1413   1410   1414   1415     1  180.0000771  0.3347200  3
   1413   1410   1414   1446     1  180.0000771  0.0000000  2
   1414   1446   1427   1429     1  0.0000000  1.2552000  3
   1415   1414   1446   1436     1  180.0000771  6.0668000  2
   1415   1414   1446   1436     1  180.0000771  1.4644000  4
   1416   1407   1418   1421     1  0.0000000  0.6508444  3
   1416   1407   1418   1419     1  0.0000000  0.6508444  3
   1416   1407   1418   1420     1  0.0000000  0.6508444  3
   1417   1407   1418   1421     1  0.0000000  0.6508444  3
   1417   1407   1418   1419     1  0.0000000  0.6508444  3
   1417   1407   1418   1420     1  0.0000000  0.6508444  3
   1418   1421   1470   1460     1  180.0000771  6.0668000  2
   1418   1421   1470   1460     1  180.0000771  1.4644000  4
   1419   1418   1421   1422     1  0.0000000  3.3472000  1
   1419   1418   1421   1422     1  0.0000000  0.0000000  2
   1419   1418   1421   1422     1  180.0000771  0.3347200  3
   1419   1418   1421   1470     1  180.0000771  0.0000000  2
   1420   1418   1421   1422     1  0.0000000  3.3472000  1
   1420   1418   1421   1422     1  0.0000000  0.0000000  2
   1420   1418   1421   1422     1  180.0000771  0.3347200  3
   1420   1418   1421   1470     1  180.0000771  0.0000000  2
   1421   1470   1451   1453     1  0.0000000  1.2552000  3
   1422   1421   1470   1460     1  180.0000771  6.0668000  2
   1422   1421   1470   1460     1  180.0000771  1.4644000  4
   1423   1424   1426   1430     1  0.0000000  0.6508444  3
   1423   1424   1444   1445     1  0.0000000  1.0460000  1
   1423   1424   1444   1445     1  0.0000000  0.6694400  3
   1423   1434   1439   1440     1  0.0000000  1.0460000  1
   1423   1434   1439   1440     1  0.0000000  0.6694400  3
   1423   1441   1428   1431     1  0.0000000  1.6038667  3
   1424   1426   1427   1429     1  0.0000000  0.6508444  3
   1424   1426   1433   1435     1  0.0000000  1.0460000  1
   1424   1426   1433   1435     1  0.0000000  0.6694400  3
   1424   1423   1434   1437     1  0.0000000  0.6508444  3
   1424   1423   1434   1438     1  0.0000000  0.6508444  3
   1425   1423   1424   1426     1  0.0000000  0.6508444  3
   1425   1423   1424   1444     1  0.0000000  1.0460000  1
   1425   1423   1424   1444     1  0.0000000  0.0000000  3
   1425   1423   1424   1443     1  0.0000000  0.6508444  3
   1425   1423   1434   1439     1  0.0000000  1.0460000  1
   1425   1423   1434   1439     1  0.0000000  0.0000000  3
   1425   1423   1434   1437     1  0.0000000  0.6508444  3
   1425   1423   1434   1438     1  0.0000000  0.6508444  3
   1425   1423   1441   1428     1  0.0000000  1.6038667  3
   1426   1427   1428   1431     1  0.0000000  0.6508444  3
   1426   1427   1446   1436     1  0.0000000  1.2552000  3
   1426   1424   1444   1445     1  0.0000000  1.0460000  1
   1426   1424   1444   1445     1  0.0000000  0.6694400  3
   1427   1428   1432   1442     1  0.0000000  1.0460000  1
   1427   1428   1432   1442     1  0.0000000  0.6694400  3
   1427   1426   1433   1435     1  0.0000000  1.0460000  1
   1427   1426   1433   1435     1  0.0000000  0.6694400  3
   1427   1426   1424   1443     1  0.0000000  0.6508444  3
   1428   1427   1446   1436     1  0.0000000  1.2552000  3
   1428   1427   1426   1430     1  0.0000000  0.6508444  3
   1429   1427   1428   1432     1  0.0000000  1.0460000  1
   1429   1427   1428   1432     1  0.0000000  0.0000000  3
   1429   1427   1428   1441     1  0.0000000  1.0460000  1
   1429   1427   1428   1441     1  0.0000000  0.0000000  3
   1429   1427   1428   1431     1  0.0000000  0.6508444  3
   1429   1427   1446   1436     1  0.0000000  1.2552000  3
   1429   1427   1426   1433     1  0.0000000  1.0460000  1
   1429   1427   1426   1433     1  0.0000000  0.0000000  3
   1429   1427   1426   1430     1  0.0000000  0.6508444  3
   1430   1426   1427   1446     1  0.0000000  0.6508444  3
   1430   1426   1433   1435     1  0.0000000  0.6973333  3
   1430   1426   1424   1444     1  0.0000000  1.0460000  1
   1430   1426   1424   1444     1  0.0000000  0.0000000  3
   1430   1426   1424   1443     1  0.0000000  0.6508444  3
   1431   1428   1432   1442     1  0.0000000  0.6973333  3
   1431   1428   1427   1446     1  0.0000000  0.6508444  3
   1433   1426   1424   1443     1  0.0000000  1.0460000  1
   1433   1426   1424   1443     1  0.0000000  0.0000000  3
   1434   1423   1424   1443     1  0.0000000  0.6508444  3
   1437   1434   1439   1440     1  0.0000000  0.6973333  3
   1437   1434   1423   1441     1  0.0000000  1.0460000  1
   1437   1434   1423   1441     1  0.0000000  0.0000000  3
   1438   1434   1439   1440     1  0.0000000  0.6973333  3
   1438   1434   1423   1441     1  0.0000000  1.0460000  1
   1438   1434   1423   1441     1  0.0000000  0.0000000  3
   1441   1428   1432   1442     1  0.0000000  0.6973333  3
   1441   1423   1424   1443     1  0.0000000  1.0460000  1
   1441   1423   1424   1443     1  0.0000000  0.0000000  3
   1443   1424   1444   1445     1  0.0000000  0.6973333  3
   1447   1448   1450   1454     1  0.0000000  0.6508444  3
   1447   1448   1468   1469     1  0.0000000  1.0460000  1
   1447   1448   1468   1469     1  0.0000000  0.6694400  3
   1447   1458   1463   1464     1  0.0000000  1.0460000  1
   1447   1458   1463   1464     1  0.0000000  0.6694400  3
   1447   1465   1452   1455     1  0.0000000  1.6038667  3
   1448   1450   1451   1453     1  0.0000000  0.6508444  3
   1448   1450   1457   1459     1  0.0000000  1.0460000  1
   1448   1450   1457   1459     1  0.0000000  0.6694400  3
   1448   1447   1458   1461     1  0.0000000  0.6508444  3
   1448   1447   1458   1462     1  0.0000000  0.6508444  3
   1449   1447   1448   1450     1  0.0000000  0.6508444  3
   1449   1447   1448   1468     1  0.0000000  1.0460000  1
   1449   1447   1448   1468     1  0.0000000  0.0000000  3
   1449   1447   1448   1467     1  0.0000000  0.6508444  3
   1449   1447   1458   1463     1  0.0000000  1.0460000  1
   1449   1447   1458   1463     1  0.0000000  0.0000000  3
   1449   1447   1458   1461     1  0.0000000  0.6508444  3
   1449   1447   1458   1462     1  0.0000000  0.6508444  3
   1449   1447   1465   1452     1  0.0000000  1.6038667  3
   1450   1451   1452   1455     1  0.0000000  0.6508444  3
   1450   1451   1470   1460     1  0.0000000  1.2552000  3
   1450   1448   1468   1469     1  0.0000000  1.0460000  1
   1450   1448   1468   1469     1  0.0000000  0.6694400  3
   1451   1452   1456   1466     1  0.0000000  1.0460000  1
   1451   1452   1456   1466     1  0.0000000  0.6694400  3
   1451   1450   1457   1459     1  0.0000000  1.0460000  1
   1451   1450   1457   1459     1  0.0000000  0.6694400  3
   1451   1450   1448   1467     1  0.0000000  0.6508444  3
   1452   1451   1470   1460     1  0.0000000  1.2552000  3
   1452   1451   1450   1454     1  0.0000000  0.6508444  3
   1453   1451   1452   1456     1  0.0000000  1.0460000  1
   1453   1451   1452   1456     1  0.0000000  0.0000000  3
   1453   1451   1452   1465     1  0.0000000  1.0460000  1
   1453   1451   1452   1465     1  0.0000000  0.0000000  3
   1453   1451   1452   1455     1  0.0000000  0.6508444  3
   1453   1451   1470   1460     1  0.0000000  1.2552000  3
   1453   1451   1450   1457     1  0.0000000  1.0460000  1
   1453   1451   1450   1457     1  0.0000000  0.0000000  3
   1453   1451   1450   1454     1  0.0000000  0.6508444  3
   1454   1450   1451   1470     1  0.0000000  0.6508444  3
   1454   1450   1457   1459     1  0.0000000  0.6973333  3
   1454   1450   1448   1468     1  0.0000000  1.0460000  1
   1454   1450   1448   1468     1  0.0000000  0.0000000  3
   1454   1450   1448   1467     1  0.0000000  0.6508444  3
   1455   1452   1456   1466     1  0.0000000  0.6973333  3
   1455   1452   1451   1470     1  0.0000000  0.6508444  3
   1457   1450   1448   1467     1  0.0000000  1.0460000  1
   1457   1450   1448   1467     1  0.0000000  0.0000000  3
   1458   1447   1448   1467     1  0.0000000  0.6508444  3
   1461   1458   1463   1464     1  0.0000000  0.6973333  3
   1461   1458   1447   1465     1  0.0000000  1.0460000  1
   1461   1458   1447   1465     1  0.0000000  0.0000000  3
   1462   1458   1463   1464     1  0.0000000  0.6973333  3
   1462   1458   1447   1465     1  0.0000000  1.0460000  1
   1462   1458   1447   1465     1  0.0000000  0.0000000  3
   1465   1452   1456   1466     1  0.0000000  0.6973333  3
   1465   1447   1448   1467     1  0.0000000  1.0460000  1
   1465   1447   1448   1467     1  0.0000000  0.0000000  3
   1467   1448   1468   1469     1  0.0000000  0.6973333  3
   1471   1473   1475   1477     1  0.0000000  0.6508444  3
   1471   1473   1475   1478     1  0.0000000  0.6508444  3
   1472   1471   1473   1475     1  0.0000000  0.0000000  2
   1472   1471   1473   1474     1  0.0000000  0.0000000  2
   1472   1471   1473   1476     1  0.0000000  0.0000000  2
   1474   1473   1475   1479     1  0.0000000  0.6508444  3
   1474   1473   1475   1477     1  0.0000000  0.6508444  3
   1474   1473   1475   1478     1  0.0000000  0.6508444  3
   1475   1479   1480   1489     1  0.0000000  1.2552000  3
   1475   1479   1480   1490     1  0.0000000  1.2552000  3
   1475   1479   1481   1482     1  0.0000000  1.2552000  3
   1475   1479   1481   1484     1  0.0000000  1.2552000  3
   1476   1473   1475   1479     1  0.0000000  0.6508444  3
   1476   1473   1475   1477     1  0.0000000  0.6508444  3
   1476   1473   1475   1478     1  0.0000000  0.6508444  3
   1477   1475   1479   1480     1  0.0000000  1.2552000  3
   1477   1475   1479   1481     1  0.0000000  1.2552000  3
   1478   1475   1479   1480     1  0.0000000  1.2552000  3
   1478   1475   1479   1481     1  0.0000000  1.2552000  3
   1479   1480   1491   1492     1  0.0000000  0.6508444  3
   1479   1480   1491   1493     1  0.0000000  0.6508444  3
   1479   1481   1483   1485     1  0.0000000  0.6508444  3
   1479   1481   1483   1486     1  0.0000000  0.6508444  3
   1480   1479   1481   1482     1  0.0000000  1.2552000  3
   1480   1479   1481   1484     1  0.0000000  1.2552000  3
   1481   1479   1480   1489     1  0.0000000  1.2552000  3
   1481   1479   1480   1490     1  0.0000000  1.2552000  3
   1482   1481   1483   1487     1  0.0000000  0.6508444  3
   1482   1481   1483   1485     1  0.0000000  0.6508444  3
   1482   1481   1483   1486     1  0.0000000  0.6508444  3
   1483   1487   1519   1509     1  180.0000771  6.0668000  2
   1483   1487   1519   1509     1  180.0000771  1.4644000  4
   1484   1481   1483   1487     1  0.0000000  0.6508444  3
   1484   1481   1483   1485     1  0.0000000  0.6508444  3
   1484   1481   1483   1486     1  0.0000000  0.6508444  3
   1485   1483   1487   1488     1  0.0000000  3.3472000  1
   1485   1483   1487   1488     1  0.0000000  0.0000000  2
   1485   1483   1487   1488     1  180.0000771  0.3347200  3
   1485   1483   1487   1519     1  180.0000771  0.0000000  2
   1486   1483   1487   1488     1  0.0000000  3.3472000  1
   1486   1483   1487   1488     1  0.0000000  0.0000000  2
   1486   1483   1487   1488     1  180.0000771  0.3347200  3
   1486   1483   1487   1519     1  180.0000771  0.0000000  2
   1487   1519   1500   1502     1  0.0000000  1.2552000  3
   1488   1487   1519   1509     1  180.0000771  6.0668000  2
   1488   1487   1519   1509     1  180.0000771  1.4644000  4
   1489   1480   1491   1494     1  0.0000000  0.6508444  3
   1489   1480   1491   1492     1  0.0000000  0.6508444  3
   1489   1480   1491   1493     1  0.0000000  0.6508444  3
   1490   1480   1491   1494     1  0.0000000  0.6508444  3
   1490   1480   1491   1492     1  0.0000000  0.6508444  3
   1490   1480   1491   1493     1  0.0000000  0.6508444  3
   1491   1494   1543   1533     1  180.0000771  6.0668000  2
   1491   1494   1543   1533     1  180.0000771  1.4644000  4
   1492   1491   1494   1495     1  0.0000000  3.3472000  1
   1492   1491   1494   1495     1  0.0000000  0.0000000  2
   1492   1491   1494   1495     1  180.0000771  0.3347200  3
   1492   1491   1494   1543     1  180.0000771  0.0000000  2
   1493   1491   1494   1495     1  0.0000000  3.3472000  1
   1493   1491   1494   1495     1  0.0000000  0.0000000  2
   1493   1491   1494   1495     1  180.0000771  0.3347200  3
   1493   1491   1494   1543     1  180.0000771  0.0000000  2
   1494   1543   1524   1526     1  0.0000000  1.2552000  3
   1495   1494   1543   1533     1  180.0000771  6.0668000  2
   1495   1494   1543   1533     1  180.0000771  1.4644000  4
   1496   1497   1499   1503     1  0.0000000  0.6508444  3
   1496   1497   1517   1518     1  0.0000000  1.0460000  1
   1496   1497   1517   1518     1  0.0000000  0.6694400  3
   1496   1507   1512   1513     1  0.0000000  1.0460000  1
   1496   1507   1512   1513     1  0.0000000  0.6694400  3
   1496   1514   1501   1504     1  0.0000000  1.6038667  3
   1497   1496   1507   1510     1  0.0000000  0.6508444  3
   1497   1496   1507   1511     1  0.0000000  0.6508444  3
   1497   1499   1500   1502     1  0.0000000  0.6508444  3
   1497   1499   1506   1508     1  0.0000000  1.0460000  1
   1497   1499   1506   1508     1  0.0000000  0.6694400  3
   1498   1496   1497   1499     1  0.0000000  0.6508444  3
   1498   1496   1497   1517     1  0.0000000  1.0460000  1
   1498   1496   1497   1517     1  0.0000000  0.0000000  3
   1498   1496   1497   1516     1  0.0000000  0.6508444  3
   1498   1496   1507   1512     1  0.0000000  1.0460000  1
   1498   1496   1507   1512     1  0.0000000  0.0000000  3
   1498   1496   1507   1510     1  0.0000000  0.6508444  3
   1498   1496   1507   1511     1  0.0000000  0.6508444  3
   1498   1496   1514   1501     1  0.0000000  1.6038667  3
   1499   1497   1517   1518     1  0.0000000  1.0460000  1
   1499   1497   1517   1518     1  0.0000000  0.6694400  3
   1499   1500   1501   1504     1  0.0000000  0.6508444  3
   1499   1500   1519   1509     1  0.0000000  1.2552000  3
   1500   1499   1497   1516     1  0.0000000  0.6508444  3
   1500   1499   1506   1508     1  0.0000000  1.0460000  1
   1500   1499   1506   1508     1  0.0000000  0.6694400  3
   1500   1501   1505   1515     1  0.0000000  1.0460000  1
   1500   1501   1505   1515     1  0.0000000  0.6694400  3
   1501   1500   1499   1503     1  0.0000000  0.6508444  3
   1501   1500   1519   1509     1  0.0000000  1.2552000  3
   1502   1500   1499   1506     1  0.0000000  1.0460000  1
   1502   1500   1499   1506     1  0.0000000  0.0000000  3
   1502   1500   1499   1503     1  0.0000000  0.6508444  3
   1502   1500   1501   1505     1  0.0000000  1.0460000  1
   1502   1500   1501   1505     1  0.0000000  0.0000000  3
   1502   1500   1501   1514     1  0.0000000  1.0460000  1
   1502   1500   1501   1514     1  0.0000000  0.0000000  3
   1502   1500   1501   1504     1  0.0000000  0.6508444  3
   1502   1500   1519   1509     1  0.0000000  1.2552000  3
   1503   1499   1497   1517     1  0.0000000  1.0460000  1
   1503   1499   1497   1517     1  0.0000000  0.0000000  3
   1503   1499   1497   1516     1  0.0000000  0.6508444  3
   1503   1499   1500   1519     1  0.0000000  0.6508444  3
   1503   1499   1506   1508     1  0.0000000  0.6973333  3
   1504   1501   1500   1519     1  0.0000000  0.6508444  3
   1504   1501   1505   1515     1  0.0000000  0.6973333  3
   1506   1499   1497   1516     1  0.0000000  1.0460000  1
   1506   1499   1497   1516     1  0.0000000  0.0000000  3
   1507   1496   1497   1516     1  0.0000000  0.6508444  3
   1510   1507   1496   1514     1  0.0000000  1.0460000  1
   1510   1507   1496   1514     1  0.0000000  0.0000000  3
   1510   1507   1512   1513     1  0.0000000  0.6973333  3
   1511   1507   1496   1514     1  0.0000000  1.0460000  1
   1511   1507   1496   1514     1  0.0000000  0.0000000  3
   1511   1507   1512   1513     1  0.0000000  0.6973333  3
   1514   1496   1497   1516     1  0.0000000  1.0460000  1
   1514   1496   1497   1516     1  0.0000000  0.0000000  3
   1514   1501   1505   1515     1  0.0000000  0.6973333  3
   1516   1497   1517   1518     1  0.0000000  0.6973333  3
   1520   1521   1523   1527     1  0.0000000  0.6508444  3
   1520   1521   1541   1542     1  0.0000000  1.0460000  1
   1520   1521   1541   1542     1  0.0000000  0.6694400  3
   1520   1531   1536   1537     1  0.0000000  1.0460000  1
   1520   1531   1536   1537     1  0.0000000  0.6694400  3
   1520   1538   1525   1528     1  0.0000000  1.6038667  3
   1521   1520   1531   1534     1  0.0000000  0.6508444  3
   1521   1520   1531   1535     1  0.0000000  0.6508444  3
   1521   1523   1524   1526     1  0.0000000  0.6508444  3
   1521   1523   1530   1532     1  0.0000000  1.0460000  1
   1521   1523   1530   1532     1  0.0000000  0.6694400  3
   1522   1520   1521   1523     1  0.0000000  0.6508444  3
   1522   1520   1521   1541     1  0.0000000  1.0460000  1
   1522   1520   1521   1541     1  0.0000000  0.0000000  3
   1522   1520   1521   1540     1  0.0000000  0.6508444  3
   1522   1520   1531   1536     1  0.0000000  1.0460000  1
   1522   1520   1531   1536     1  0.0000000  0.0000000  3
   1522   1520   1531   1534     1  0.0000000  0.6508444  3
   1522   1520   1531   1535     1  0.0000000  0.6508444  3
   1522   1520   1538   1525     1  0.0000000  1.6038667  3
   1523   1521   1541   1542     1  0.0000000  1.0460000  1
   1523   1521   1541   1542     1  0.0000000  0.6694400  3
   1523   1524   1525   1528     1  0.0000000  0.6508444  3
   1523   1524   1543   1533     1  0.0000000  1.2552000  3
   1524   1523   1521   1540     1  0.0000000  0.6508444  3
   1524   1523   1530   1532     1  0.0000000  1.0460000  1
   1524   1523   1530   1532     1  0.0000000  0.6694400  3
   1524   1525   1529   1539     1  0.0000000  1.0460000  1
   1524   1525   1529   1539     1  0.0000000  0.6694400  3
   1525   1524   1523   1527     1  0.0000000  0.6508444  3
   1525   1524   1543   1533     1  0.0000000  1.2552000  3
   1526   1524   1523   1530     1  0.0000000  1.0460000  1
   1526   1524   1523   1530     1  0.0000000  0.0000000  3
   1526   1524   1523   1527     1  0.0000000  0.6508444  3
   1526   1524   1525   1529     1  0.0000000  1.0460000  1
   1526   1524   1525   1529     1  0.0000000  0.0000000  3
   1526   1524   1525   1538     1  0.0000000  1.0460000  1
   1526   1524   1525   1538     1  0.0000000  0.0000000  3
   1526   1524   1525   1528     1  0.0000000  0.6508444  3
   1526   1524   1543   1533     1  0.0000000  1.2552000  3
   1527   1523   1521   1541     1  0.0000000  1.0460000  1
   1527   1523   1521   1541     1  0.0000000  0.0000000  3
   1527   1523   1521   1540     1  0.0000000  0.6508444  3
   1527   1523   1524   1543     1  0.0000000  0.6508444  3
   1527   1523   1530   1532     1  0.0000000  0.6973333  3
   1528   1525   1524   1543     1  0.0000000  0.6508444  3
   1528   1525   1529   1539     1  0.0000000  0.6973333  3
   1530   1523   1521   1540     1  0.0000000  1.0460000  1
   1530   1523   1521   1540     1  0.0000000  0.0000000  3
   1531   1520   1521   1540     1  0.0000000  0.6508444  3
   1534   1531   1520   1538     1  0.0000000  1.0460000  1
   1534   1531   1520   1538     1  0.0000000  0.0000000  3
   1534   1531   1536   1537     1  0.0000000  0.6973333  3
   1535   1531   1520   1538     1  0.0000000  1.0460000  1
   1535   1531   1520   1538     1  0.0000000  0.0000000  3
   1535   1531   1536   1537     1  0.0000000  0.6973333  3
   1538   1520   1521   1540     1  0.0000000  1.0460000  1
   1538   1520   1521   1540     1  0.0000000  0.0000000  3
   1538   1525   1529   1539     1  0.0000000  0.6973333  3
   1540   1521   1541   1542     1  0.0000000  0.6973333  3
   1544   1546   1548   1550     1  0.0000000  0.6508444  3
   1544   1546   1548   1551     1  0.0000000  0.6508444  3
   1545   1544   1546   1548     1  0.0000000  0.0000000  2
   1545   1544   1546   1547     1  0.0000000  0.0000000  2
   1545   1544   1546   1549     1  0.0000000  0.0000000  2
   1547   1546   1548   1552     1  0.0000000  0.6508444  3
   1547   1546   1548   1550     1  0.0000000  0.6508444  3
   1547   1546   1548   1551     1  0.0000000  0.6508444  3
   1548   1552   1553   1562     1  0.0000000  1.2552000  3
   1548   1552   1553   1563     1  0.0000000  1.2552000  3
   1548   1552   1554   1555     1  0.0000000  1.2552000  3
   1548   1552   1554   1557     1  0.0000000  1.2552000  3
   1549   1546   1548   1552     1  0.0000000  0.6508444  3
   1549   1546   1548   1550     1  0.0000000  0.6508444  3
   1549   1546   1548   1551     1  0.0000000  0.6508444  3
   1550   1548   1552   1553     1  0.0000000  1.2552000  3
   1550   1548   1552   1554     1  0.0000000  1.2552000  3
   1551   1548   1552   1553     1  0.0000000  1.2552000  3
   1551   1548   1552   1554     1  0.0000000  1.2552000  3
   1552   1553   1564   1565     1  0.0000000  0.6508444  3
   1552   1553   1564   1566     1  0.0000000  0.6508444  3
   1552   1554   1556   1558     1  0.0000000  0.6508444  3
   1552   1554   1556   1559     1  0.0000000  0.6508444  3
   1553   1552   1554   1555     1  0.0000000  1.2552000  3
   1553   1552   1554   1557     1  0.0000000  1.2552000  3
   1554   1552   1553   1562     1  0.0000000  1.2552000  3
   1554   1552   1553   1563     1  0.0000000  1.2552000  3
   1555   1554   1556   1560     1  0.0000000  0.6508444  3
   1555   1554   1556   1558     1  0.0000000  0.6508444  3
   1555   1554   1556   1559     1  0.0000000  0.6508444  3
   1556   1560   1592   1582     1  180.0000771  6.0668000  2
   1556   1560   1592   1582     1  180.0000771  1.4644000  4
   1557   1554   1556   1560     1  0.0000000  0.6508444  3
   1557   1554   1556   1558     1  0.0000000  0.6508444  3
   1557   1554   1556   1559     1  0.0000000  0.6508444  3
   1558   1556   1560   1561     1  0.0000000  3.3472000  1
   1558   1556   1560   1561     1  0.0000000  0.0000000  2
   1558   1556   1560   1561     1  180.0000771  0.3347200  3
   1558   1556   1560   1592     1  180.0000771  0.0000000  2
   1559   1556   1560   1561     1  0.0000000  3.3472000  1
   1559   1556   1560   1561     1  0.0000000  0.0000000  2
   1559   1556   1560   1561     1  180.0000771  0.3347200  3
   1559   1556   1560   1592     1  180.0000771  0.0000000  2
   1560   1592   1573   1575     1  0.0000000  1.2552000  3
   1561   1560   1592   1582     1  180.0000771  6.0668000  2
   1561   1560   1592   1582     1  180.0000771  1.4644000  4
   1562   1553   1564   1567     1  0.0000000  0.6508444  3
   1562   1553   1564   1565     1  0.0000000  0.6508444  3
   1562   1553   1564   1566     1  0.0000000  0.6508444  3
   1563   1553   1564   1567     1  0.0000000  0.6508444  3
   1563   1553   1564   1565     1  0.0000000  0.6508444  3
   1563   1553   1564   1566     1  0.0000000  0.6508444  3
   1564   1567   1616   1606     1  180.0000771  6.0668000  2
   1564   1567   1616   1606     1  180.0000771  1.4644000  4
   1565   1564   1567   1568     1  0.0000000  3.3472000  1
   1565   1564   1567   1568     1  0.0000000  0.0000000  2
   1565   1564   1567   1568     1  180.0000771  0.3347200  3
   1565   1564   1567   1616     1  180.0000771  0.0000000  2
   1566   1564   1567   1568     1  0.0000000  3.3472000  1
   1566   1564   1567   1568     1  0.0000000  0.0000000  2
   1566   1564   1567   1568     1  180.0000771  0.3347200  3
   1566   1564   1567   1616     1  180.0000771  0.0000000  2
   1567   1616   1597   1599     1  0.0000000  1.2552000  3
   1568   1567   1616   1606     1  180.0000771  6.0668000  2
   1568   1567   1616   1606     1  180.0000771  1.4644000  4
   1569   1570   1572   1576     1  0.0000000  0.6508444  3
   1569   1570   1590   1591     1  0.0000000  1.0460000  1
   1569   1570   1590   1591     1  0.0000000  0.6694400  3
   1569   1580   1585   1586     1  0.0000000  1.0460000  1
   1569   1580   1585   1586     1  0.0000000  0.6694400  3
   1569   1587   1574   1577     1  0.0000000  1.6038667  3
   1570   1572   1573   1575     1  0.0000000  0.6508444  3
   1570   1572   1579   1581     1  0.0000000  1.0460000  1
   1570   1572   1579   1581     1  0.0000000  0.6694400  3
   1570   1569   1580   1583     1  0.0000000  0.6508444  3
   1570   1569   1580   1584     1  0.0000000  0.6508444  3
   1571   1569   1570   1572     1  0.0000000  0.6508444  3
   1571   1569   1570   1590     1  0.0000000  1.0460000  1
   1571   1569   1570   1590     1  0.0000000  0.0000000  3
   1571   1569   1570   1589     1  0.0000000  0.6508444  3
   1571   1569   1580   1585     1  0.0000000  1.0460000  1
   1571   1569   1580   1585     1  0.0000000  0.0000000  3
   1571   1569   1580   1583     1  0.0000000  0.6508444  3
   1571   1569   1580   1584     1  0.0000000  0.6508444  3
   1571   1569   1587   1574     1  0.0000000  1.6038667  3
   1572   1573   1574   1577     1  0.0000000  0.6508444  3
   1572   1573   1592   1582     1  0.0000000  1.2552000  3
   1572   1570   1590   1591     1  0.0000000  1.0460000  1
   1572   1570   1590   1591     1  0.0000000  0.6694400  3
   1573   1574   1578   1588     1  0.0000000  1.0460000  1
   1573   1574   1578   1588     1  0.0000000  0.6694400  3
   1573   1572   1579   1581     1  0.0000000  1.0460000  1
   1573   1572   1579   1581     1  0.0000000  0.6694400  3
   1573   1572   1570   1589     1  0.0000000  0.6508444  3
   1574   1573   1592   1582     1  0.0000000  1.2552000  3
   1574   1573   1572   1576     1  0.0000000  0.6508444  3
   1575   1573   1574   1578     1  0.0000000  1.0460000  1
   1575   1573   1574   1578     1  0.0000000  0.0000000  3
   1575   1573   1574   1587     1  0.0000000  1.0460000  1
   1575   1573   1574   1587     1  0.0000000  0.0000000  3
   1575   1573   1574   1577     1  0.0000000  0.6508444  3
   1575   1573   1592   1582     1  0.0000000  1.2552000  3
   1575   1573   1572   1579     1  0.0000000  1.0460000  1
   1575   1573   1572   1579     1  0.0000000  0.0000000  3
   1575   1573   1572   1576     1  0.0000000  0.6508444  3
   1576   1572   1573   1592     1  0.0000000  0.6508444  3
   1576   1572   1579   1581     1  0.0000000  0.6973333  3
   1576   1572   1570   1590     1  0.0000000  1.0460000  1
   1576   1572   1570   1590     1  0.0000000  0.0000000  3
   1576   1572   1570   1589     1  0.0000000  0.6508444  3
   1577   1574   1578   1588     1  0.0000000  0.6973333  3
   1577   1574   1573   1592     1  0.0000000  0.6508444  3
   1579   1572   1570   1589     1  0.0000000  1.0460000  1
   1579   1572   1570   1589     1  0.0000000  0.0000000  3
   1580   1569   1570   1589     1  0.0000000  0.6508444  3
   1583   1580   1585   1586     1  0.0000000  0.6973333  3
   1583   1580   1569   1587     1  0.0000000  1.0460000  1
   1583   1580   1569   1587     1  0.0000000  0.0000000  3
   1584   1580   1585   1586     1  0.0000000  0.6973333  3
   1584   1580   1569   1587     1  0.0000000  1.0460000  1
   1584   1580   1569   1587     1  0.0000000  0.0000000  3
   1587   1574   1578   1588     1  0.0000000  0.6973333  3
   1587   1569   1570   1589     1  0.0000000  1.0460000  1
   1587   1569   1570   1589     1  0.0000000  0.0000000  3
   1589   1570   1590   1591     1  0.0000000  0.6973333  3
   1593   1594   1596   1600     1  0.0000000  0.6508444  3
   1593   1594   1614   1615     1  0.0000000  1.0460000  1
   1593   1594   1614   1615     1  0.0000000  0.6694400  3
   1593   1604   1609   1610     1  0.0000000  1.0460000  1
   1593   1604   1609   1610     1  0.0000000  0.6694400  3
   1593   1611   1598   1601     1  0.0000000  1.6038667  3
   1594   1596   1597   1599     1  0.0000000  0.6508444  3
   1594   1596   1603   1605     1  0.0000000  1.0460000  1
   1594   1596   1603   1605     1  0.0000000  0.6694400  3
   1594   1593   1604   1607     1  0.0000000  0.6508444  3
   1594   1593   1604   1608     1  0.0000000  0.6508444  3
   1595   1593   1594   1596     1  0.0000000  0.6508444  3
   1595   1593   1594   1614     1  0.0000000  1.0460000  1
   1595   1593   1594   1614     1  0.0000000  0.0000000  3
   1595   1593   1594   1613     1  0.0000000  0.6508444  3
   1595   1593   1604   1609     1  0.0000000  1.0460000  1
   1595   1593   1604   1609     1  0.0000000  0.0000000  3
   1595   1593   1604   1607     1  0.0000000  0.6508444  3
   1595   1593   1604   1608     1  0.0000000  0.6508444  3
   1595   1593   1611   1598     1  0.0000000  1.6038667  3
   1596   1597   1598   1601     1  0.0000000  0.6508444  3
   1596   1597   1616   1606     1  0.0000000  1.2552000  3
   1596   1594   1614   1615     1  0.0000000  1.0460000  1
   1596   1594   1614   1615     1  0.0000000  0.6694400  3
   1597   1598   1602   1612     1  0.0000000  1.0460000  1
   1597   1598   1602   1612     1  0.0000000  0.6694400  3
   1597   1596   1603   1605     1  0.0000000  1.0460000  1
   1597   1596   1603   1605     1  0.0000000  0.6694400  3
   1597   1596   1594   1613     1  0.0000000  0.6508444  3
   1598   1597   1616   1606     1  0.0000000  1.2552000  3
   1598   1597   1596   1600     1  0.0000000  0.6508444  3
   1599   1597   1598   1602     1  0.0000000  1.0460000  1
   1599   1597   1598   1602     1  0.0000000  0.0000000  3
   1599   1597   1598   1611     1  0.0000000  1.0460000  1
   1599   1597   1598   1611     1  0.0000000  0.0000000  3
   1599   1597   1598   1601     1  0.0000000  0.6508444  3
   1599   1597   1616   1606     1  0.0000000  1.2552000  3
   1599   1597   1596   1603     1  0.0000000  1.0460000  1
   1599   1597   1596   1603     1  0.0000000  0.0000000  3
   1599   1597   1596   1600     1  0.0000000  0.6508444  3
   1600   1596   1597   1616     1  0.0000000  0.6508444  3
   1600   1596   1603   1605     1  0.0000000  0.6973333  3
   1600   1596   1594   1614     1  0.0000000  1.0460000  1
   1600   1596   1594   1614     1  0.0000000  0.0000000  3
   1600   1596   1594   1613     1  0.0000000  0.6508444  3
   1601   1598   1602   1612     1  0.0000000  0.6973333  3
   1601   1598   1597   1616     1  0.0000000  0.6508444  3
   1603   1596   1594   1613     1  0.0000000  1.0460000  1
   1603   1596   1594   1613     1  0.0000000  0.0000000  3
   1604   1593   1594   1613     1  0.0000000  0.6508444  3
   1607   1604   1609   1610     1  0.0000000  0.6973333  3
   1607   1604   1593   1611     1  0.0000000  1.0460000  1
   1607   1604   1593   1611     1  0.0000000  0.0000000  3
   1608   1604   1609   1610     1  0.0000000  0.6973333  3
   1608   1604   1593   1611     1  0.0000000  1.0460000  1
   1608   1604   1593   1611     1  0.0000000  0.0000000  3
   1611   1598   1602   1612     1  0.0000000  0.6973333  3
   1611   1593   1594   1613     1  0.0000000  1.0460000  1
   1611   1593   1594   1613     1  0.0000000  0.0000000  3
   1613   1594   1614   1615     1  0.0000000  0.6973333  3
   1617   1619   1621   1623     1  0.0000000  0.6508444  3
   1617   1619   1621   1624     1  0.0000000  0.6508444  3
   1618   1617   1619   1621     1  0.0000000  0.0000000  2
   1618   1617   1619   1620     1  0.0000000  0.0000000  2
   1618   1617   1619   1622     1  0.0000000  0.0000000  2
   1620   1619   1621   1625     1  0.0000000  0.6508444  3
   1620   1619   1621   1623     1  0.0000000  0.6508444  3
   1620   1619   1621   1624     1  0.0000000  0.6508444  3
   1621   1625   1626   1635     1  0.0000000  1.2552000  3
   1621   1625   1626   1636     1  0.0000000  1.2552000  3
   1621   1625   1627   1628     1  0.0000000  1.2552000  3
   1621   1625   1627   1630     1  0.0000000  1.2552000  3
   1622   1619   1621   1625     1  0.0000000  0.6508444  3
   1622   1619   1621   1623     1  0.0000000  0.6508444  3
   1622   1619   1621   1624     1  0.0000000  0.6508444  3
   1623   1621   1625   1626     1  0.0000000  1.2552000  3
   1623   1621   1625   1627     1  0.0000000  1.2552000  3
   1624   1621   1625   1626     1  0.0000000  1.2552000  3
   1624   1621   1625   1627     1  0.0000000  1.2552000  3
   1625   1626   1637   1638     1  0.0000000  0.6508444  3
   1625   1626   1637   1639     1  0.0000000  0.6508444  3
   1625   1627   1629   1631     1  0.0000000  0.6508444  3
   1625   1627   1629   1632     1  0.0000000  0.6508444  3
   1626   1625   1627   1628     1  0.0000000  1.2552000  3
   1626   1625   1627   1630     1  0.0000000  1.2552000  3
   1627   1625   1626   1635     1  0.0000000  1.2552000  3
   1627   1625   1626   1636     1  0.0000000  1.2552000  3
   1628   1627   1629   1633     1  0.0000000  0.6508444  3
   1628   1627   1629   1631     1  0.0000000  0.6508444  3
   1628   1627   1629   1632     1  0.0000000  0.6508444  3
   1629   1633   1665   1655     1  180.0000771  6.0668000  2
   1629   1633   1665   1655     1  180.0000771  1.4644000  4
   1630   1627   1629   1633     1  0.0000000  0.6508444  3
   1630   1627   1629   1631     1  0.0000000  0.6508444  3
   1630   1627   1629   1632     1  0.0000000  0.6508444  3
   1631   1629   1633   1634     1  0.0000000  3.3472000  1
   1631   1629   1633   1634     1  0.0000000  0.0000000  2
   1631   1629   1633   1634     1  180.0000771  0.3347200  3
   1631   1629   1633   1665     1  180.0000771  0.0000000  2
   1632   1629   1633   1634     1  0.0000000  3.3472000  1
   1632   1629   1633   1634     1  0.0000000  0.0000000  2
   1632   1629   1633   1634     1  180.0000771  0.3347200  3
   1632   1629   1633   1665     1  180.0000771  0.0000000  2
   1633   1665   1646   1648     1  0.0000000  1.2552000  3
   1634   1633   1665   1655     1  180.0000771  6.0668000  2
   1634   1633   1665   1655     1  180.0000771  1.4644000  4
   1635   1626   1637   1640     1  0.0000000  0.6508444  3
   1635   1626   1637   1638     1  0.0000000  0.6508444  3
   1635   1626   1637   1639     1  0.0000000  0.6508444  3
   1636   1626   1637   1640     1  0.0000000  0.6508444  3
   1636   1626   1637   1638     1  0.0000000  0.6508444  3
   1636   1626   1637   1639     1  0.0000000  0.6508444  3
   1637   1640   1689   1679     1  180.0000771  6.0668000  2
   1637   1640   1689   1679     1  180.0000771  1.4644000  4
   1638   1637   1640   1641     1  0.0000000  3.3472000  1
   1638   1637   1640   1641     1  0.0000000  0.0000000  2
   1638   1637   1640   1641     1  180.0000771  0.3347200  3
   1638   1637   1640   1689     1  180.0000771  0.0000000  2
   1639   1637   1640   1641     1  0.0000000  3.3472000  1
   1639   1637   1640   1641     1  0.0000000  0.0000000  2
   1639   1637   1640   1641     1  180.0000771  0.3347200  3
   1639   1637   1640   1689     1  180.0000771  0.0000000  2
   1640   1689   1670   1672     1  0.0000000  1.2552000  3
   1641   1640   1689   1679     1  180.0000771  6.0668000  2
   1641   1640   1689   1679     1  180.0000771  1.4644000  4
   1642   1643   1645   1649     1  0.0000000  0.6508444  3
   1642   1643   1663   1664     1  0.0000000  1.0460000  1
   1642   1643   1663   1664     1  0.0000000  0.6694400  3
   1642   1653   1658   1659     1  0.0000000  1.0460000  1
   1642   1653   1658   1659     1  0.0000000  0.6694400  3
   1642   1660   1647   1650     1  0.0000000  1.6038667  3
   1643   1642   1653   1656     1  0.0000000  0.6508444  3
   1643   1642   1653   1657     1  0.0000000  0.6508444  3
   1643   1645   1646   1648     1  0.0000000  0.6508444  3
   1643   1645   1652   1654     1  0.0000000  1.0460000  1
   1643   1645   1652   1654     1  0.0000000  0.6694400  3
   1644   1642   1643   1645     1  0.0000000  0.6508444  3
   1644   1642   1643   1663     1  0.0000000  1.0460000  1
   1644   1642   1643   1663     1  0.0000000  0.0000000  3
   1644   1642   1643   1662     1  0.0000000  0.6508444  3
   1644   1642   1653   1658     1  0.0000000  1.0460000  1
   1644   1642   1653   1658     1  0.0000000  0.0000000  3
   1644   1642   1653   1656     1  0.0000000  0.6508444  3
   1644   1642   1653   1657     1  0.0000000  0.6508444  3
   1644   1642   1660   1647     1  0.0000000  1.6038667  3
   1645   1643   1663   1664     1  0.0000000  1.0460000  1
   1645   1643   1663   1664     1  0.0000000  0.6694400  3
   1645   1646   1647   1650     1  0.0000000  0.6508444  3
   1645   1646   1665   1655     1  0.0000000  1.2552000  3
   1646   1645   1643   1662     1  0.0000000  0.6508444  3
   1646   1645   1652   1654     1  0.0000000  1.0460000  1
   1646   1645   1652   1654     1  0.0000000  0.6694400  3
   1646   1647   1651   1661     1  0.0000000  1.0460000  1
   1646   1647   1651   1661     1  0.0000000  0.6694400  3
   1647   1646   1645   1649     1  0.0000000  0.6508444  3
   1647   1646   1665   1655     1  0.0000000  1.2552000  3
   1648   1646   1645   1652     1  0.0000000  1.0460000  1
   1648   1646   1645   1652     1  0.0000000  0.0000000  3
   1648   1646   1645   1649     1  0.0000000  0.6508444  3
   1648   1646   1647   1651     1  0.0000000  1.0460000  1
   1648   1646   1647   1651     1  0.0000000  0.0000000  3
   1648   1646   1647   1660     1  0.0000000  1.0460000  1
   1648   1646   1647   1660     1  0.0000000  0.0000000  3
   1648   1646   1647   1650     1  0.0000000  0.6508444  3
   1648   1646   1665   1655     1  0.0000000  1.2552000  3
   1649   1645   1643   1663     1  0.0000000  1.0460000  1
   1649   1645   1643   1663     1  0.0000000  0.0000000  3
   1649   1645   1643   1662     1  0.0000000  0.6508444  3
   1649   1645   1646   1665     1  0.0000000  0.6508444  3
   1649   1645   1652   1654     1  0.0000000  0.6973333  3
   1650   1647   1646   1665     1  0.0000000  0.6508444  3
   1650   1647   1651   1661     1  0.0000000  0.6973333  3
   1652   1645   1643   1662     1  0.0000000  1.0460000  1
   1652   1645   1643   1662     1  0.0000000  0.0000000  3
   1653   1642   1643   1662     1  0.0000000  0.6508444  3
   1656   1653   1642   1660     1  0.0000000  1.0460000  1
   1656   1653   1642   1660     1  0.0000000  0.0000000  3
   1656   1653   1658   1659     1  0.0000000  0.6973333  3
   1657   1653   1642   1660     1  0.0000000  1.0460000  1
   1657   1653   1642   1660     1  0.0000000  0.0000000  3
   1657   1653   1658   1659     1  0.0000000  0.6973333  3
   1660   1642   1643   1662     1  0.0000000  1.0460000  1
   1660   1642   1643   1662     1  0.0000000  0.0000000  3
   1660   1647   1651   1661     1  0.0000000  0.6973333  3
   1662   1643   1663   1664     1  0.0000000  0.6973333  3
   1666   1667   1669   1673     1  0.0000000  0.6508444  3
   1666   1667   1687   1688     1  0.0000000  1.0460000  1
   1666   1667   1687   1688     1  0.0000000  0.6694400  3
   1666   1677   1682   1683     1  0.0000000  1.0460000  1
   1666   1677   1682   1683     1  0.0000000  0.6694400  3
   1666   1684   1671   1674     1  0.0000000  1.6038667  3
   1667   1666   1677   1680     1  0.0000000  0.6508444  3
   1667   1666   1677   1681     1  0.0000000  0.6508444  3
   1667   1669   1670   1672     1  0.0000000  0.6508444  3
   1667   1669   1676   1678     1  0.0000000  1.0460000  1
   1667   1669   1676   1678     1  0.0000000  0.6694400  3
   1668   1666   1667   1669     1  0.0000000  0.6508444  3
   1668   1666   1667   1687     1  0.0000000  1.0460000  1
   1668   1666   1667   1687     1  0.0000000  0.0000000  3
   1668   1666   1667   1686     1  0.0000000  0.6508444  3
   1668   1666   1677   1682     1  0.0000000  1.0460000  1
   1668   1666   1677   1682     1  0.0000000  0.0000000  3
   1668   1666   1677   1680     1  0.0000000  0.6508444  3
   1668   1666   1677   1681     1  0.0000000  0.6508444  3
   1668   1666   1684   1671     1  0.0000000  1.6038667  3
   1669   1667   1687   1688     1  0.0000000  1.0460000  1
   1669   1667   1687   1688     1  0.0000000  0.6694400  3
   1669   1670   1671   1674     1  0.0000000  0.6508444  3
   1669   1670   1689   1679     1  0.0000000  1.2552000  3
   1670   1669   1667   1686     1  0.0000000  0.6508444  3
   1670   1669   1676   1678     1  0.0000000  1.0460000  1
   1670   1669   1676   1678     1  0.0000000  0.6694400  3
   1670   1671   1675   1685     1  0.0000000  1.0460000  1
   1670   1671   1675   1685     1  0.0000000  0.6694400  3
   1671   1670   1669   1673     1  0.0000000  0.6508444  3
   1671   1670   1689   1679     1  0.0000000  1.2552000  3
   1672   1670   1669   1676     1  0.0000000  1.0460000  1
   1672   1670   1669   1676     1  0.0000000  0.0000000  3
   1672   1670   1669   1673     1  0.0000000  0.6508444  3
   1672   1670   1671   1675     1  0.0000000  1.0460000  1
   1672   1670   1671   1675     1  0.0000000  0.0000000  3
   1672   1670   1671   1684     1  0.0000000  1.0460000  1
   1672   1670   1671   1684     1  0.0000000  0.0000000  3
   1672   1670   1671   1674     1  0.0000000  0.6508444  3
   1672   1670   1689   1679     1  0.0000000  1.2552000  3
   1673   1669   1667   1687     1  0.0000000  1.0460000  1
   1673   1669   1667   1687     1  0.0000000  0.0000000  3
   1673   1669   1667   1686     1  0.0000000  0.6508444  3
   1673   1669   1670   1689     1  0.0000000  0.6508444  3
   1673   1669   1676   1678     1  0.0000000  0.6973333  3
   1674   1671   1670   1689     1  0.0000000  0.6508444  3
   1674   1671   1675   1685     1  0.0000000  0.6973333  3
   1676   1669   1667   1686     1  0.0000000  1.0460000  1
   1676   1669   1667   1686     1  0.0000000  0.0000000  3
   1677   1666   1667   1686     1  0.0000000  0.6508444  3
   1680   1677   1666   1684     1  0.0000000  1.0460000  1
   1680   1677   1666   1684     1  0.0000000  0.0000000  3
   1680   1677   1682   1683     1  0.0000000  0.6973333  3
   1681   1677   1666   1684     1  0.0000000  1.0460000  1
   1681   1677   1666   1684     1  0.0000000  0.0000000  3
   1681   1677   1682   1683     1  0.0000000  0.6973333  3
   1684   1666   1667   1686     1  0.0000000  1.0460000  1
   1684   1666   1667   1686     1  0.0000000  0.0000000  3
   1684   1671   1675   1685     1  0.0000000  0.6973333  3
   1686   1667   1687   1688     1  0.0000000  0.6973333  3
   1690   1692   1694   1696     1  0.0000000  0.6508444  3
   1690   1692   1694   1697     1  0.0000000  0.6508444  3
   1691   1690   1692   1694     1  0.0000000  0.0000000  2
   1691   1690   1692   1693     1  0.0000000  0.0000000  2
   1691   1690   1692   1695     1  0.0000000  0.0000000  2
   1693   1692   1694   1698     1  0.0000000  0.6508444  3
   1693   1692   1694   1696     1  0.0000000  0.6508444  3
   1693   1692   1694   1697     1  0.0000000  0.6508444  3
   1694   1698   1699   1708     1  0.0000000  1.2552000  3
   1694   1698   1699   1709     1  0.0000000  1.2552000  3
   1694   1698   1700   1701     1  0.0000000  1.2552000  3
   1694   1698   1700   1703     1  0.0000000  1.2552000  3
   1695   1692   1694   1698     1  0.0000000  0.6508444  3
   1695   1692   1694   1696     1  0.0000000  0.6508444  3
   1695   1692   1694   1697     1  0.0000000  0.6508444  3
   1696   1694   1698   1699     1  0.0000000  1.2552000  3
   1696   1694   1698   1700     1  0.0000000  1.2552000  3
   1697   1694   1698   1699     1  0.0000000  1.2552000  3
   1697   1694   1698   1700     1  0.0000000  1.2552000  3
   1698   1699   1710   1711     1  0.0000000  0.6508444  3
   1698   1699   1710   1712     1  0.0000000  0.6508444  3
   1698   1700   1702   1704     1  0.0000000  0.6508444  3
   1698   1700   1702   1705     1  0.0000000  0.6508444  3
   1699   1698   1700   1701     1  0.0000000  1.2552000  3
   1699   1698   1700   1703     1  0.0000000  1.2552000  3
   1700   1698   1699   1708     1  0.0000000  1.2552000  3
   1700   1698   1699   1709     1  0.0000000  1.2552000  3
   1701   1700   1702   1706     1  0.0000000  0.6508444  3
   1701   1700   1702   1704     1  0.0000000  0.6508444  3
   1701   1700   1702   1705     1  0.0000000  0.6508444  3
   1702   1706   1738   1728     1  180.0000771  6.0668000  2
   1702   1706   1738   1728     1  180.0000771  1.4644000  4
   1703   1700   1702   1706     1  0.0000000  0.6508444  3
   1703   1700   1702   1704     1  0.0000000  0.6508444  3
   1703   1700   1702   1705     1  0.0000000  0.6508444  3
   1704   1702   1706   1707     1  0.0000000  3.3472000  1
   1704   1702   1706   1707     1  0.0000000  0.0000000  2
   1704   1702   1706   1707     1  180.0000771  0.3347200  3
   1704   1702   1706   1738     1  180.0000771  0.0000000  2
   1705   1702   1706   1707     1  0.0000000  3.3472000  1
   1705   1702   1706   1707     1  0.0000000  0.0000000  2
   1705   1702   1706   1707     1  180.0000771  0.3347200  3
   1705   1702   1706   1738     1  180.0000771  0.0000000  2
   1706   1738   1719   1721     1  0.0000000  1.2552000  3
   1707   1706   1738   1728     1  180.0000771  6.0668000  2
   1707   1706   1738   1728     1  180.0000771  1.4644000  4
   1708   1699   1710   1713     1  0.0000000  0.6508444  3
   1708   1699   1710   1711     1  0.0000000  0.6508444  3
   1708   1699   1710   1712     1  0.0000000  0.6508444  3
   1709   1699   1710   1713     1  0.0000000  0.6508444  3
   1709   1699   1710   1711     1  0.0000000  0.6508444  3
   1709   1699   1710   1712     1  0.0000000  0.6508444  3
   1710   1713   1762   1752     1  180.0000771  6.0668000  2
   1710   1713   1762   1752     1  180.0000771  1.4644000  4
   1711   1710   1713   1714     1  0.0000000  3.3472000  1
   1711   1710   1713   1714     1  0.0000000  0.0000000  2
   1711   1710   1713   1714     1  180.0000771  0.3347200  3
   1711   1710   1713   1762     1  180.0000771  0.0000000  2
   1712   1710   1713   1714     1  0.0000000  3.3472000  1
   1712   1710   1713   1714     1  0.0000000  0.0000000  2
   1712   1710   1713   1714     1  180.0000771  0.3347200  3
   1712   1710   1713   1762     1  180.0000771  0.0000000  2
   1713   1762   1743   1745     1  0.0000000  1.2552000  3
   1714   1713   1762   1752     1  180.0000771  6.0668000  2
   1714   1713   1762   1752     1  180.0000771  1.4644000  4
   1715   1716   1718   1722     1  0.0000000  0.6508444  3
   1715   1716   1736   1737     1  0.0000000  1.0460000  1
   1715   1716   1736   1737     1  0.0000000  0.6694400  3
   1715   1726   1731   1732     1  0.0000000  1.0460000  1
   1715   1726   1731   1732     1  0.0000000  0.6694400  3
   1715   1733   1720   1723     1  0.0000000  1.6038667  3
   1716   1718   1719   1721     1  0.0000000  0.6508444  3
   1716   1718   1725   1727     1  0.0000000  1.0460000  1
   1716   1718   1725   1727     1  0.0000000  0.6694400  3
   1716   1715   1726   1729     1  0.0000000  0.6508444  3
   1716   1715   1726   1730     1  0.0000000  0.6508444  3
   1717   1715   1716   1718     1  0.0000000  0.6508444  3
   1717   1715   1716   1736     1  0.0000000  1.0460000  1
   1717   1715   1716   1736     1  0.0000000  0.0000000  3
   1717   1715   1716   1735     1  0.0000000  0.6508444  3
   1717   1715   1726   1731     1  0.0000000  1.0460000  1
   1717   1715   1726   1731     1  0.0000000  0.0000000  3
   1717   1715   1726   1729     1  0.0000000  0.6508444  3
   1717   1715   1726   1730     1  0.0000000  0.6508444  3
   1717   1715   1733   1720     1  0.0000000  1.6038667  3
   1718   1719   1720   1723     1  0.0000000  0.6508444  3
   1718   1719   1738   1728     1  0.0000000  1.2552000  3
   1718   1716   1736   1737     1  0.0000000  1.0460000  1
   1718   1716   1736   1737     1  0.0000000  0.6694400  3
   1719   1720   1724   1734     1  0.0000000  1.0460000  1
   1719   1720   1724   1734     1  0.0000000  0.6694400  3
   1719   1718   1725   1727     1  0.0000000  1.0460000  1
   1719   1718   1725   1727     1  0.0000000  0.6694400  3
   1719   1718   1716   1735     1  0.0000000  0.6508444  3
   1720   1719   1738   1728     1  0.0000000  1.2552000  3
   1720   1719   1718   1722     1  0.0000000  0.6508444  3
   1721   1719   1720   1724     1  0.0000000  1.0460000  1
   1721   1719   1720   1724     1  0.0000000  0.0000000  3
   1721   1719   1720   1733     1  0.0000000  1.0460000  1
   1721   1719   1720   1733     1  0.0000000  0.0000000  3
   1721   1719   1720   1723     1  0.0000000  0.6508444  3
   1721   1719   1738   1728     1  0.0000000  1.2552000  3
   1721   1719   1718   1725     1  0.0000000  1.0460000  1
   1721   1719   1718   1725     1  0.0000000  0.0000000  3
   1721   1719   1718   1722     1  0.0000000  0.6508444  3
   1722   1718   1719   1738     1  0.0000000  0.6508444  3
   1722   1718   1725   1727     1  0.0000000  0.6973333  3
   1722   1718   1716   1736     1  0.0000000  1.0460000  1
   1722   1718   1716   1736     1  0.0000000  0.0000000  3
   1722   1718   1716   1735     1  0.0000000  0.6508444  3
   1723   1720   1724   1734     1  0.0000000  0.6973333  3
   1723   1720   1719   1738     1  0.0000000  0.6508444  3
   1725   1718   1716   1735     1  0.0000000  1.0460000  1
   1725   1718   1716   1735     1  0.0000000  0.0000000  3
   1726   1715   1716   1735     1  0.0000000  0.6508444  3
   1729   1726   1731   1732     1  0.0000000  0.6973333  3
   1729   1726   1715   1733     1  0.0000000  1.0460000  1
   1729   1726   1715   1733     1  0.0000000  0.0000000  3
   1730   1726   1731   1732     1  0.0000000  0.6973333  3
   1730   1726   1715   1733     1  0.0000000  1.0460000  1
   1730   1726   1715   1733     1  0.0000000  0.0000000  3
   1733   1720   1724   1734     1  0.0000000  0.6973333  3
   1733   1715   1716   1735     1  0.0000000  1.0460000  1
   1733   1715   1716   1735     1  0.0000000  0.0000000  3
   1735   1716   1736   1737     1  0.0000000  0.6973333  3
   1739   1740   1742   1746     1  0.0000000  0.6508444  3
   1739   1740   1760   1761     1  0.0000000  1.0460000  1
   1739   1740   1760   1761     1  0.0000000  0.6694400  3
   1739   1750   1755   1756     1  0.0000000  1.0460000  1
   1739   1750   1755   1756     1  0.0000000  0.6694400  3
   1739   1757   1744   1747     1  0.0000000  1.6038667  3
   1740   1742   1743   1745     1  0.0000000  0.6508444  3
   1740   1742   1749   1751     1  0.0000000  1.0460000  1
   1740   1742   1749   1751     1  0.0000000  0.6694400  3
   1740   1739   1750   1753     1  0.0000000  0.6508444  3
   1740   1739   1750   1754     1  0.0000000  0.6508444  3
   1741   1739   1740   1742     1  0.0000000  0.6508444  3
   1741   1739   1740   1760     1  0.0000000  1.0460000  1
   1741   1739   1740   1760     1  0.0000000  0.0000000  3
   1741   1739   1740   1759     1  0.0000000  0.6508444  3
   1741   1739   1750   1755     1  0.0000000  1.0460000  1
   1741   1739   1750   1755     1  0.0000000  0.0000000  3
   1741   1739   1750   1753     1  0.0000000  0.6508444  3
   1741   1739   1750   1754     1  0.0000000  0.6508444  3
   1741   1739   1757   1744     1  0.0000000  1.6038667  3
   1742   1743   1744   1747     1  0.0000000  0.6508444  3
   1742   1743   1762   1752     1  0.0000000  1.2552000  3
   1742   1740   1760   1761     1  0.0000000  1.0460000  1
   1742   1740   1760   1761     1  0.0000000  0.6694400  3
   1743   1744   1748   1758     1  0.0000000  1.0460000  1
   1743   1744   1748   1758     1  0.0000000  0.6694400  3
   1743   1742   1749   1751     1  0.0000000  1.0460000  1
   1743   1742   1749   1751     1  0.0000000  0.6694400  3
   1743   1742   1740   1759     1  0.0000000  0.6508444  3
   1744   1743   1762   1752     1  0.0000000  1.2552000  3
   1744   1743   1742   1746     1  0.0000000  0.6508444  3
   1745   1743   1744   1748     1  0.0000000  1.0460000  1
   1745   1743   1744   1748     1  0.0000000  0.0000000  3
   1745   1743   1744   1757     1  0.0000000  1.0460000  1
   1745   1743   1744   1757     1  0.0000000  0.0000000  3
   1745   1743   1744   1747     1  0.0000000  0.6508444  3
   1745   1743   1762   1752     1  0.0000000  1.2552000  3
   1745   1743   1742   1749     1  0.0000000  1.0460000  1
   1745   1743   1742   1749     1  0.0000000  0.0000000  3
   1745   1743   1742   1746     1  0.0000000  0.6508444  3
   1746   1742   1743   1762     1  0.0000000  0.6508444  3
   1746   1742   1749   1751     1  0.0000000  0.6973333  3
   1746   1742   1740   1760     1  0.0000000  1.0460000  1
   1746   1742   1740   1760     1  0.0000000  0.0000000  3
   1746   1742   1740   1759     1  0.0000000  0.6508444  3
   1747   1744   1748   1758     1  0.0000000  0.6973333  3
   1747   1744   1743   1762     1  0.0000000  0.6508444  3
   1749   1742   1740   1759     1  0.0000000  1.0460000  1
   1749   1742   1740   1759     1  0.0000000  0.0000000  3
   1750   1739   1740   1759     1  0.0000000  0.6508444  3
   1753   1750   1755   1756     1  0.0000000  0.6973333  3
   1753   1750   1739   1757     1  0.0000000  1.0460000  1
   1753   1750   1739   1757     1  0.0000000  0.0000000  3
   1754   1750   1755   1756     1  0.0000000  0.6973333  3
   1754   1750   1739   1757     1  0.0000000  1.0460000  1
   1754   1750   1739   1757     1  0.0000000  0.0000000  3
   1757   1744   1748   1758     1  0.0000000  0.6973333  3
   1757   1739   1740   1759     1  0.0000000  1.0460000  1
   1757   1739   1740   1759     1  0.0000000  0.0000000  3
   1759   1740   1760   1761     1  0.0000000  0.6973333  3
   1763   1765   1767   1769     1  0.0000000  0.6508444  3
   1763   1765   1767   1770     1  0.0000000  0.6508444  3
   1764   1763   1765   1767     1  0.0000000  0.0000000  2
   1764   1763   1765   1766     1  0.0000000  0.0000000  2
   1764   1763   1765   1768     1  0.0000000  0.0000000  2
   1766   1765   1767   1771     1  0.0000000  0.6508444  3
   1766   1765   1767   1769     1  0.0000000  0.6508444  3
   1766   1765   1767   1770     1  0.0000000  0.6508444  3
   1767   1771   1772   1781     1  0.0000000  1.2552000  3
   1767   1771   1772   1782     1  0.0000000  1.2552000  3
   1767   1771   1773   1774     1  0.0000000  1.2552000  3
   1767   1771   1773   1776     1  0.0000000  1.2552000  3
   1768   1765   1767   1771     1  0.0000000  0.6508444  3
   1768   1765   1767   1769     1  0.0000000  0.6508444  3
   1768   1765   1767   1770     1  0.0000000  0.6508444  3
   1769   1767   1771   1772     1  0.0000000  1.2552000  3
   1769   1767   1771   1773     1  0.0000000  1.2552000  3
   1770   1767   1771   1772     1  0.0000000  1.2552000  3
   1770   1767   1771   1773     1  0.0000000  1.2552000  3
   1771   1772   1783   1784     1  0.0000000  0.6508444  3
   1771   1772   1783   1785     1  0.0000000  0.6508444  3
   1771   1773   1775   1777     1  0.0000000  0.6508444  3
   1771   1773   1775   1778     1  0.0000000  0.6508444  3
   1772   1771   1773   1774     1  0.0000000  1.2552000  3
   1772   1771   1773   1776     1  0.0000000  1.2552000  3
   1773   1771   1772   1781     1  0.0000000  1.2552000  3
   1773   1771   1772   1782     1  0.0000000  1.2552000  3
   1774   1773   1775   1779     1  0.0000000  0.6508444  3
   1774   1773   1775   1777     1  0.0000000  0.6508444  3
   1774   1773   1775   1778     1  0.0000000  0.6508444  3
   1775   1779   1811   1801     1  180.0000771  6.0668000  2
   1775   1779   1811   1801     1  180.0000771  1.4644000  4
   1776   1773   1775   1779     1  0.0000000  0.6508444  3
   1776   1773   1775   1777     1  0.0000000  0.6508444  3
   1776   1773   1775   1778     1  0.0000000  0.6508444  3
   1777   1775   1779   1780     1  0.0000000  3.3472000  1
   1777   1775   1779   1780     1  0.0000000  0.0000000  2
   1777   1775   1779   1780     1  180.0000771  0.3347200  3
   1777   1775   1779   1811     1  180.0000771  0.0000000  2
   1778   1775   1779   1780     1  0.0000000  3.3472000  1
   1778   1775   1779   1780     1  0.0000000  0.0000000  2
   1778   1775   1779   1780     1  180.0000771  0.3347200  3
   1778   1775   1779   1811     1  180.0000771  0.0000000  2
   1779   1811   1792   1794     1  0.0000000  1.2552000  3
   1780   1779   1811   1801     1  180.0000771  6.0668000  2
   1780   1779   1811   1801     1  180.0000771  1.4644000  4
   1781   1772   1783   1786     1  0.0000000  0.6508444  3
   1781   1772   1783   1784     1  0.0000000  0.6508444  3
   1781   1772   1783   1785     1  0.0000000  0.6508444  3
   1782   1772   1783   1786     1  0.0000000  0.6508444  3
   1782   1772   1783   1784     1  0.0000000  0.6508444  3
   1782   1772   1783   1785     1  0.0000000  0.6508444  3
   1783   1786   1835   1825     1  180.0000771  6.0668000  2
   1783   1786   1835   1825     1  180.0000771  1.4644000  4
   1784   1783   1786   1787     1  0.0000000  3.3472000  1
   1784   1783   1786   1787     1  0.0000000  0.0000000  2
   1784   1783   1786   1787     1  180.0000771  0.3347200  3
   1784   1783   1786   1835     1  180.0000771  0.0000000  2
   1785   1783   1786   1787     1  0.0000000  3.3472000  1
   1785   1783   1786   1787     1  0.0000000  0.0000000  2
   1785   1783   1786   1787     1  180.0000771  0.3347200  3
   1785   1783   1786   1835     1  180.0000771  0.0000000  2
   1786   1835   1816   1818     1  0.0000000  1.2552000  3
   1787   1786   1835   1825     1  180.0000771  6.0668000  2
   1787   1786   1835   1825     1  180.0000771  1.4644000  4
   1788   1789   1791   1795     1  0.0000000  0.6508444  3
   1788   1789   1809   1810     1  0.0000000  1.0460000  1
   1788   1789   1809   1810     1  0.0000000  0.6694400  3
   1788   1799   1804   1805     1  0.0000000  1.0460000  1
   1788   1799   1804   1805     1  0.0000000  0.6694400  3
   1788   1806   1793   1796     1  0.0000000  1.6038667  3
   1789   1788   1799   1802     1  0.0000000  0.6508444  3
   1789   1788   1799   1803     1  0.0000000  0.6508444  3
   1789   1791   1792   1794     1  0.0000000  0.6508444  3
   1789   1791   1798   1800     1  0.0000000  1.0460000  1
   1789   1791   1798   1800     1  0.0000000  0.6694400  3
   1790   1788   1789   1791     1  0.0000000  0.6508444  3
   1790   1788   1789   1809     1  0.0000000  1.0460000  1
   1790   1788   1789   1809     1  0.0000000  0.0000000  3
   1790   1788   1789   1808     1  0.0000000  0.6508444  3
   1790   1788   1799   1804     1  0.0000000  1.0460000  1
   1790   1788   1799   1804     1  0.0000000  0.0000000  3
   1790   1788   1799   1802     1  0.0000000  0.6508444  3
   1790   1788   1799   1803     1  0.0000000  0.6508444  3
   1790   1788   1806   1793     1  0.0000000  1.6038667  3
   1791   1789   1809   1810     1  0.0000000  1.0460000  1
   1791   1789   1809   1810     1  0.0000000  0.6694400  3
   1791   1792   1793   1796     1  0.0000000  0.6508444  3
   1791   1792   1811   1801     1  0.0000000  1.2552000  3
   1792   1791   1789   1808     1  0.0000000  0.6508444  3
   1792   1791   1798   1800     1  0.0000000  1.0460000  1
   1792   1791   1798   1800     1  0.0000000  0.6694400  3
   1792   1793   1797   1807     1  0.0000000  1.0460000  1
   1792   1793   1797   1807     1  0.0000000  0.6694400  3
   1793   1792   1791   1795     1  0.0000000  0.6508444  3
   1793   1792   1811   1801     1  0.0000000  1.2552000  3
   1794   1792   1791   1798     1  0.0000000  1.0460000  1
   1794   1792   1791   1798     1  0.0000000  0.0000000  3
   1794   1792   1791   1795     1  0.0000000  0.6508444  3
   1794   1792   1793   1797     1  0.0000000  1.0460000  1
   1794   1792   1793   1797     1  0.0000000  0.0000000  3
   1794   1792   1793   1806     1  0.0000000  1.0460000  1
   1794   1792   1793   1806     1  0.0000000  0.0000000  3
   1794   1792   1793   1796     1  0.0000000  0.6508444  3
   1794   1792   1811   1801     1  0.0000000  1.2552000  3
   1795   1791   1789   1809     1  0.0000000  1.0460000  1
   1795   1791   1789   1809     1  0.0000000  0.0000000  3
   1795   1791   1789   1808     1  0.0000000  0.6508444  3
   1795   1791   1792   1811     1  0.0000000  0.6508444  3
   1795   1791   1798   1800     1  0.0000000  0.6973333  3
   1796   1793   1792   1811     1  0.0000000  0.6508444  3
   1796   1793   1797   1807     1  0.0000000  0.6973333  3
   1798   1791   1789   1808     1  0.0000000  1.0460000  1
   1798   1791   1789   1808     1  0.0000000  0.0000000  3
   1799   1788   1789   1808     1  0.0000000  0.6508444  3
   1802   1799   1788   1806     1  0.0000000  1.0460000  1
   1802   1799   1788   1806     1  0.0000000  0.0000000  3
   1802   1799   1804   1805     1  0.0000000  0.6973333  3
   1803   1799   1788   1806     1  0.0000000  1.0460000  1
   1803   1799   1788   1806     1  0.0000000  0.0000000  3
   1803   1799   1804   1805     1  0.0000000  0.6973333  3
   1806   1788   1789   1808     1  0.0000000  1.0460000  1
   1806   1788   1789   1808     1  0.0000000  0.0000000  3
   1806   1793   1797   1807     1  0.0000000  0.6973333  3
   1808   1789   1809   1810     1  0.0000000  0.6973333  3
   1812   1813   1815   1819     1  0.0000000  0.6508444  3
   1812   1813   1833   1834     1  0.0000000  1.0460000  1
   1812   1813   1833   1834     1  0.0000000  0.6694400  3
   1812   1823   1828   1829     1  0.0000000  1.0460000  1
   1812   1823   1828   1829     1  0.0000000  0.6694400  3
   1812   1830   1817   1820     1  0.0000000  1.6038667  3
   1813   1812   1823   1826     1  0.0000000  0.6508444  3
   1813   1812   1823   1827     1  0.0000000  0.6508444  3
   1813   1815   1816   1818     1  0.0000000  0.6508444  3
   1813   1815   1822   1824     1  0.0000000  1.0460000  1
   1813   1815   1822   1824     1  0.0000000  0.6694400  3
   1814   1812   1813   1815     1  0.0000000  0.6508444  3
   1814   1812   1813   1833     1  0.0000000  1.0460000  1
   1814   1812   1813   1833     1  0.0000000  0.0000000  3
   1814   1812   1813   1832     1  0.0000000  0.6508444  3
   1814   1812   1823   1828     1  0.0000000  1.0460000  1
   1814   1812   1823   1828     1  0.0000000  0.0000000  3
   1814   1812   1823   1826     1  0.0000000  0.6508444  3
   1814   1812   1823   1827     1  0.0000000  0.6508444  3
   1814   1812   1830   1817     1  0.0000000  1.6038667  3
   1815   1813   1833   1834     1  0.0000000  1.0460000  1
   1815   1813   1833   1834     1  0.0000000  0.6694400  3
   1815   1816   1817   1820     1  0.0000000  0.6508444  3
   1815   1816   1835   1825     1  0.0000000  1.2552000  3
   1816   1815   1813   1832     1  0.0000000  0.6508444  3
   1816   1815   1822   1824     1  0.0000000  1.0460000  1
   1816   1815   1822   1824     1  0.0000000  0.6694400  3
   1816   1817   1821   1831     1  0.0000000  1.0460000  1
   1816   1817   1821   1831     1  0.0000000  0.6694400  3
   1817   1816   1815   1819     1  0.0000000  0.6508444  3
   1817   1816   1835   1825     1  0.0000000  1.2552000  3
   1818   1816   1815   1822     1  0.0000000  1.0460000  1
   1818   1816   1815   1822     1  0.0000000  0.0000000  3
   1818   1816   1815   1819     1  0.0000000  0.6508444  3
   1818   1816   1817   1821     1  0.0000000  1.0460000  1
   1818   1816   1817   1821     1  0.0000000  0.0000000  3
   1818   1816   1817   1830     1  0.0000000  1.0460000  1
   1818   1816   1817   1830     1  0.0000000  0.0000000  3
   1818   1816   1817   1820     1  0.0000000  0.6508444  3
   1818   1816   1835   1825     1  0.0000000  1.2552000  3
   1819   1815   1813   1833     1  0.0000000  1.0460000  1
   1819   1815   1813   1833     1  0.0000000  0.0000000  3
   1819   1815   1813   1832     1  0.0000000  0.6508444  3
   1819   1815   1816   1835     1  0.0000000  0.6508444  3
   1819   1815   1822   1824     1  0.0000000  0.6973333  3
   1820   1817   1816   1835     1  0.0000000  0.6508444  3
   1820   1817   1821   1831     1  0.0000000  0.6973333  3
   1822   1815   1813   1832     1  0.0000000  1.0460000  1
   1822   1815   1813   1832     1  0.0000000  0.0000000  3
   1823   1812   1813   1832     1  0.0000000  0.6508444  3
   1826   1823   1812   1830     1  0.0000000  1.0460000  1
   1826   1823   1812   1830     1  0.0000000  0.0000000  3
   1826   1823   1828   1829     1  0.0000000  0.6973333  3
   1827   1823   1812   1830     1  0.0000000  1.0460000  1
   1827   1823   1812   1830     1  0.0000000  0.0000000  3
   1827   1823   1828   1829     1  0.0000000  0.6973333  3
   1830   1812   1813   1832     1  0.0000000  1.0460000  1
   1830   1812   1813   1832     1  0.0000000  0.0000000  3
   1830   1817   1821   1831     1  0.0000000  0.6973333  3
   1832   1813   1833   1834     1  0.0000000  0.6973333  3
   1836   1838   1840   1842     1  0.0000000  0.6508444  3
   1836   1838   1840   1843     1  0.0000000  0.6508444  3
   1837   1836   1838   1840     1  0.0000000  0.0000000  2
   1837   1836   1838   1839     1  0.0000000  0.0000000  2
   1837   1836   1838   1841     1  0.0000000  0.0000000  2
   1839   1838   1840   1844     1  0.0000000  0.6508444  3
   1839   1838   1840   1842     1  0.0000000  0.6508444  3
   1839   1838   1840   1843     1  0.0000000  0.6508444  3
   1840   1844   1845   1854     1  0.0000000  1.2552000  3
   1840   1844   1845   1855     1  0.0000000  1.2552000  3
   1840   1844   1846   1847     1  0.0000000  1.2552000  3
   1840   1844   1846   1849     1  0.0000000  1.2552000  3
   1841   1838   1840   1844     1  0.0000000  0.6508444  3
   1841   1838   1840   1842     1  0.0000000  0.6508444  3
   1841   1838   1840   1843     1  0.0000000  0.6508444  3
   1842   1840   1844   1845     1  0.0000000  1.2552000  3
   1842   1840   1844   1846     1  0.0000000  1.2552000  3
   1843   1840   1844   1845     1  0.0000000  1.2552000  3
   1843   1840   1844   1846     1  0.0000000  1.2552000  3
   1844   1845   1856   1857     1  0.0000000  0.6508444  3
   1844   1845   1856   1858     1  0.0000000  0.6508444  3
   1844   1846   1848   1850     1  0.0000000  0.6508444  3
   1844   1846   1848   1851     1  0.0000000  0.6508444  3
   1845   1844   1846   1847     1  0.0000000  1.2552000  3
   1845   1844   1846   1849     1  0.0000000  1.2552000  3
   1846   1844   1845   1854     1  0.0000000  1.2552000  3
   1846   1844   1845   1855     1  0.0000000  1.2552000  3
   1847   1846   1848   1852     1  0.0000000  0.6508444  3
   1847   1846   1848   1850     1  0.0000000  0.6508444  3
   1847   1846   1848   1851     1  0.0000000  0.6508444  3
   1848   1852   1884   1874     1  180.0000771  6.0668000  2
   1848   1852   1884   1874     1  180.0000771  1.4644000  4
   1849   1846   1848   1852     1  0.0000000  0.6508444  3
   1849   1846   1848   1850     1  0.0000000  0.6508444  3
   1849   1846   1848   1851     1  0.0000000  0.6508444  3
   1850   1848   1852   1853     1  0.0000000  3.3472000  1
   1850   1848   1852   1853     1  0.0000000  0.0000000  2
   1850   1848   1852   1853     1  180.0000771  0.3347200  3
   1850   1848   1852   1884     1  180.0000771  0.0000000  2
   1851   1848   1852   1853     1  0.0000000  3.3472000  1
   1851   1848   1852   1853     1  0.0000000  0.0000000  2
   1851   1848   1852   1853     1  180.0000771  0.3347200  3
   1851   1848   1852   1884     1  180.0000771  0.0000000  2
   1852   1884   1865   1867     1  0.0000000  1.2552000  3
   1853   1852   1884   1874     1  180.0000771  6.0668000  2
   1853   1852   1884   1874     1  180.0000771  1.4644000  4
   1854   1845   1856   1859     1  0.0000000  0.6508444  3
   1854   1845   1856   1857     1  0.0000000  0.6508444  3
   1854   1845   1856   1858     1  0.0000000  0.6508444  3
   1855   1845   1856   1859     1  0.0000000  0.6508444  3
   1855   1845   1856   1857     1  0.0000000  0.6508444  3
   1855   1845   1856   1858     1  0.0000000  0.6508444  3
   1856   1859   1908   1898     1  180.0000771  6.0668000  2
   1856   1859   1908   1898     1  180.0000771  1.4644000  4
   1857   1856   1859   1860     1  0.0000000  3.3472000  1
   1857   1856   1859   1860     1  0.0000000  0.0000000  2
   1857   1856   1859   1860     1  180.0000771  0.3347200  3
   1857   1856   1859   1908     1  180.0000771  0.0000000  2
   1858   1856   1859   1860     1  0.0000000  3.3472000  1
   1858   1856   1859   1860     1  0.0000000  0.0000000  2
   1858   1856   1859   1860     1  180.0000771  0.3347200  3
   1858   1856   1859   1908     1  180.0000771  0.0000000  2
   1859   1908   1889   1891     1  0.0000000  1.2552000  3
   1860   1859   1908   1898     1  180.0000771  6.0668000  2
   1860   1859   1908   1898     1  180.0000771  1.4644000  4
   1861   1862   1864   1868     1  0.0000000  0.6508444  3
   1861   1862   1882   1883     1  0.0000000  1.0460000  1
   1861   1862   1882   1883     1  0.0000000  0.6694400  3
   1861   1872   1877   1878     1  0.0000000  1.0460000  1
   1861   1872   1877   1878     1  0.0000000  0.6694400  3
   1861   1879   1866   1869     1  0.0000000  1.6038667  3
   1862   1864   1865   1867     1  0.0000000  0.6508444  3
   1862   1864   1871   1873     1  0.0000000  1.0460000  1
   1862   1864   1871   1873     1  0.0000000  0.6694400  3
   1862   1861   1872   1875     1  0.0000000  0.6508444  3
   1862   1861   1872   1876     1  0.0000000  0.6508444  3
   1863   1861   1862   1864     1  0.0000000  0.6508444  3
   1863   1861   1862   1882     1  0.0000000  1.0460000  1
   1863   1861   1862   1882     1  0.0000000  0.0000000  3
   1863   1861   1862   1881     1  0.0000000  0.6508444  3
   1863   1861   1872   1877     1  0.0000000  1.0460000  1
   1863   1861   1872   1877     1  0.0000000  0.0000000  3
   1863   1861   1872   1875     1  0.0000000  0.6508444  3
   1863   1861   1872   1876     1  0.0000000  0.6508444  3
   1863   1861   1879   1866     1  0.0000000  1.6038667  3
   1864   1865   1866   1869     1  0.0000000  0.6508444  3
   1864   1865   1884   1874     1  0.0000000  1.2552000  3
   1864   1862   1882   1883     1  0.0000000  1.0460000  1
   1864   1862   1882   1883     1  0.0000000  0.6694400  3
   1865   1866   1870   1880     1  0.0000000  1.0460000  1
   1865   1866   1870   1880     1  0.0000000  0.6694400  3
   1865   1864   1871   1873     1  0.0000000  1.0460000  1
   1865   1864   1871   1873     1  0.0000000  0.6694400  3
   1865   1864   1862   1881     1  0.0000000  0.6508444  3
   1866   1865   1884   1874     1  0.0000000  1.2552000  3
   1866   1865   1864   1868     1  0.0000000  0.6508444  3
   1867   1865   1866   1870     1  0.0000000  1.0460000  1
   1867   1865   1866   1870     1  0.0000000  0.0000000  3
   1867   1865   1866   1879     1  0.0000000  1.0460000  1
   1867   1865   1866   1879     1  0.0000000  0.0000000  3
   1867   1865   1866   1869     1  0.0000000  0.6508444  3
   1867   1865   1884   1874     1  0.0000000  1.2552000  3
   1867   1865   1864   1871     1  0.0000000  1.0460000  1
   1867   1865   1864   1871     1  0.0000000  0.0000000  3
   1867   1865   1864   1868     1  0.0000000  0.6508444  3
   1868   1864   1865   1884     1  0.0000000  0.6508444  3
   1868   1864   1871   1873     1  0.0000000  0.6973333  3
   1868   1864   1862   1882     1  0.0000000  1.0460000  1
   1868   1864   1862   1882     1  0.0000000  0.0000000  3
   1868   1864   1862   1881     1  0.0000000  0.6508444  3
   1869   1866   1870   1880     1  0.0000000  0.6973333  3
   1869   1866   1865   1884     1  0.0000000  0.6508444  3
   1871   1864   1862   1881     1  0.0000000  1.0460000  1
   1871   1864   1862   1881     1  0.0000000  0.0000000  3
   1872   1861   1862   1881     1  0.0000000  0.6508444  3
   1875   1872   1877   1878     1  0.0000000  0.6973333  3
   1875   1872   1861   1879     1  0.0000000  1.0460000  1
   1875   1872   1861   1879     1  0.0000000  0.0000000  3
   1876   1872   1877   1878     1  0.0000000  0.6973333  3
   1876   1872   1861   1879     1  0.0000000  1.0460000  1
   1876   1872   1861   1879     1  0.0000000  0.0000000  3
   1879   1866   1870   1880     1  0.0000000  0.6973333  3
   1879   1861   1862   1881     1  0.0000000  1.0460000  1
   1879   1861   1862   1881     1  0.0000000  0.0000000  3
   1881   1862   1882   1883     1  0.0000000  0.6973333  3
   1885   1886   1888   1892     1  0.0000000  0.6508444  3
   1885   1886   1906   1907     1  0.0000000  1.0460000  1
   1885   1886   1906   1907     1  0.0000000  0.6694400  3
   1885   1896   1901   1902     1  0.0000000  1.0460000  1
   1885   1896   1901   1902     1  0.0000000  0.6694400  3
   1885   1903   1890   1893     1  0.0000000  1.6038667  3
   1886   1888   1889   1891     1  0.0000000  0.6508444  3
   1886   1888   1895   1897     1  0.0000000  1.0460000  1
   1886   1888   1895   1897     1  0.0000000  0.6694400  3
   1886   1885   1896   1899     1  0.0000000  0.6508444  3
   1886   1885   1896   1900     1  0.0000000  0.6508444  3
   1887   1885   1886   1888     1  0.0000000  0.6508444  3
   1887   1885   1886   1906     1  0.0000000  1.0460000  1
   1887   1885   1886   1906     1  0.0000000  0.0000000  3
   1887   1885   1886   1905     1  0.0000000  0.6508444  3
   1887   1885   1896   1901     1  0.0000000  1.0460000  1
   1887   1885   1896   1901     1  0.0000000  0.0000000  3
   1887   1885   1896   1899     1  0.0000000  0.6508444  3
   1887   1885   1896   1900     1  0.0000000  0.6508444  3
   1887   1885   1903   1890     1  0.0000000  1.6038667  3
   1888   1889   1890   1893     1  0.0000000  0.6508444  3
   1888   1889   1908   1898     1  0.0000000  1.2552000  3
   1888   1886   1906   1907     1  0.0000000  1.0460000  1
   1888   1886   1906   1907     1  0.0000000  0.6694400  3
   1889   1890   1894   1904     1  0.0000000  1.0460000  1
   1889   1890   1894   1904     1  0.0000000  0.6694400  3
   1889   1888   1895   1897     1  0.0000000  1.0460000  1
   1889   1888   1895   1897     1  0.0000000  0.6694400  3
   1889   1888   1886   1905     1  0.0000000  0.6508444  3
   1890   1889   1908   1898     1  0.0000000  1.2552000  3
   1890   1889   1888   1892     1  0.0000000  0.6508444  3
   1891   1889   1890   1894     1  0.0000000  1.0460000  1
   1891   1889   1890   1894     1  0.0000000  0.0000000  3
   1891   1889   1890   1903     1  0.0000000  1.0460000  1
   1891   1889   1890   1903     1  0.0000000  0.0000000  3
   1891   1889   1890   1893     1  0.0000000  0.6508444  3
   1891   1889   1908   1898     1  0.0000000  1.2552000  3
   1891   1889   1888   1895     1  0.0000000  1.0460000  1
   1891   1889   1888   1895     1  0.0000000  0.0000000  3
   1891   1889   1888   1892     1  0.0000000  0.6508444  3
   1892   1888   1889   1908     1  0.0000000  0.6508444  3
   1892   1888   1895   1897     1  0.0000000  0.6973333  3
   1892   1888   1886   1906     1  0.0000000  1.0460000  1
   1892   1888   1886   1906     1  0.0000000  0.0000000  3
   1892   1888   1886   1905     1  0.0000000  0.6508444  3
   1893   1890   1894   1904     1  0.0000000  0.6973333  3
   1893   1890   1889   1908     1  0.0000000  0.6508444  3
   1895   1888   1886   1905     1  0.0000000  1.0460000  1
   1895   1888   1886   1905     1  0.0000000  0.0000000  3
   1896   1885   1886   1905     1  0.0000000  0.6508444  3
   1899   1896   1901   1902     1  0.0000000  0.6973333  3
   1899   1896   1885   1903     1  0.0000000  1.0460000  1
   1899   1896   1885   1903     1  0.0000000  0.0000000  3
   1900   1896   1901   1902     1  0.0000000  0.6973333  3
   1900   1896   1885   1903     1  0.0000000  1.0460000  1
   1900   1896   1885   1903     1  0.0000000  0.0000000  3
   1903   1890   1894   1904     1  0.0000000  0.6973333  3
   1903   1885   1886   1905     1  0.0000000  1.0460000  1
   1903   1885   1886   1905     1  0.0000000  0.0000000  3
   1905   1886   1906   1907     1  0.0000000  0.6973333  3
   1909   1911   1913   1915     1  0.0000000  0.6508444  3
   1909   1911   1913   1916     1  0.0000000  0.6508444  3
   1910   1909   1911   1913     1  0.0000000  0.0000000  2
   1910   1909   1911   1912     1  0.0000000  0.0000000  2
   1910   1909   1911   1914     1  0.0000000  0.0000000  2
   1912   1911   1913   1917     1  0.0000000  0.6508444  3
   1912   1911   1913   1915     1  0.0000000  0.6508444  3
   1912   1911   1913   1916     1  0.0000000  0.6508444  3
   1913   1917   1918   1927     1  0.0000000  1.2552000  3
   1913   1917   1918   1928     1  0.0000000  1.2552000  3
   1913   1917   1919   1920     1  0.0000000  1.2552000  3
   1913   1917   1919   1922     1  0.0000000  1.2552000  3
   1914   1911   1913   1917     1  0.0000000  0.6508444  3
   1914   1911   1913   1915     1  0.0000000  0.6508444  3
   1914   1911   1913   1916     1  0.0000000  0.6508444  3
   1915   1913   1917   1918     1  0.0000000  1.2552000  3
   1915   1913   1917   1919     1  0.0000000  1.2552000  3
   1916   1913   1917   1918     1  0.0000000  1.2552000  3
   1916   1913   1917   1919     1  0.0000000  1.2552000  3
   1917   1918   1929   1930     1  0.0000000  0.6508444  3
   1917   1918   1929   1931     1  0.0000000  0.6508444  3
   1917   1919   1921   1923     1  0.0000000  0.6508444  3
   1917   1919   1921   1924     1  0.0000000  0.6508444  3
   1918   1917   1919   1920     1  0.0000000  1.2552000  3
   1918   1917   1919   1922     1  0.0000000  1.2552000  3
   1919   1917   1918   1927     1  0.0000000  1.2552000  3
   1919   1917   1918   1928     1  0.0000000  1.2552000  3
   1920   1919   1921   1925     1  0.0000000  0.6508444  3
   1920   1919   1921   1923     1  0.0000000  0.6508444  3
   1920   1919   1921   1924     1  0.0000000  0.6508444  3
   1921   1925   1957   1947     1  180.0000771  6.0668000  2
   1921   1925   1957   1947     1  180.0000771  1.4644000  4
   1922   1919   1921   1925     1  0.0000000  0.6508444  3
   1922   1919   1921   1923     1  0.0000000  0.6508444  3
   1922   1919   1921   1924     1  0.0000000  0.6508444  3
   1923   1921   1925   1926     1  0.0000000  3.3472000  1
   1923   1921   1925   1926     1  0.0000000  0.0000000  2
   1923   1921   1925   1926     1  180.0000771  0.3347200  3
   1923   1921   1925   1957     1  180.0000771  0.0000000  2
   1924   1921   1925   1926     1  0.0000000  3.3472000  1
   1924   1921   1925   1926     1  0.0000000  0.0000000  2
   1924   1921   1925   1926     1  180.0000771  0.3347200  3
   1924   1921   1925   1957     1  180.0000771  0.0000000  2
   1925   1957   1938   1940     1  0.0000000  1.2552000  3
   1926   1925   1957   1947     1  180.0000771  6.0668000  2
   1926   1925   1957   1947     1  180.0000771  1.4644000  4
   1927   1918   1929   1932     1  0.0000000  0.6508444  3
   1927   1918   1929   1930     1  0.0000000  0.6508444  3
   1927   1918   1929   1931     1  0.0000000  0.6508444  3
   1928   1918   1929   1932     1  0.0000000  0.6508444  3
   1928   1918   1929   1930     1  0.0000000  0.6508444  3
   1928   1918   1929   1931     1  0.0000000  0.6508444  3
   1929   1932   1981   1971     1  180.0000771  6.0668000  2
   1929   1932   1981   1971     1  180.0000771  1.4644000  4
   1930   1929   1932   1933     1  0.0000000  3.3472000  1
   1930   1929   1932   1933     1  0.0000000  0.0000000  2
   1930   1929   1932   1933     1  180.0000771  0.3347200  3
   1930   1929   1932   1981     1  180.0000771  0.0000000  2
   1931   1929   1932   1933     1  0.0000000  3.3472000  1
   1931   1929   1932   1933     1  0.0000000  0.0000000  2
   1931   1929   1932   1933     1  180.0000771  0.3347200  3
   1931   1929   1932   1981     1  180.0000771  0.0000000  2
   1932   1981   1962   1964     1  0.0000000  1.2552000  3
   1933   1932   1981   1971     1  180.0000771  6.0668000  2
   1933   1932   1981   1971     1  180.0000771  1.4644000  4
   1934   1935   1937   1941     1  0.0000000  0.6508444  3
   1934   1935   1955   1956     1  0.0000000  1.0460000  1
   1934   1935   1955   1956     1  0.0000000  0.6694400  3
   1934   1945   1950   1951     1  0.0000000  1.0460000  1
   1934   1945   1950   1951     1  0.0000000  0.6694400  3
   1934   1952   1939   1942     1  0.0000000  1.6038667  3
   1935   1934   1945   1948     1  0.0000000  0.6508444  3
   1935   1934   1945   1949     1  0.0000000  0.6508444  3
   1935   1937   1938   1940     1  0.0000000  0.6508444  3
   1935   1937   1944   1946     1  0.0000000  1.0460000  1
   1935   1937   1944   1946     1  0.0000000  0.6694400  3
   1936   1934   1935   1937     1  0.0000000  0.6508444  3
   1936   1934   1935   1955     1  0.0000000  1.0460000  1
   1936   1934   1935   1955     1  0.0000000  0.0000000  3
   1936   1934   1935   1954     1  0.0000000  0.6508444  3
   1936   1934   1945   1950     1  0.0000000  1.0460000  1
   1936   1934   1945   1950     1  0.0000000  0.0000000  3
   1936   1934   1945   1948     1  0.0000000  0.6508444  3
   1936   1934   1945   1949     1  0.0000000  0.6508444  3
   1936   1934   1952   1939     1  0.0000000  1.6038667  3
   1937   1935   1955   1956     1  0.0000000  1.0460000  1
   1937   1935   1955   1956     1  0.0000000  0.6694400  3
   1937   1938   1939   1942     1  0.0000000  0.6508444  3
   1937   1938   1957   1947     1  0.0000000  1.2552000  3
   1938   1937   1935   1954     1  0.0000000  0.6508444  3
   1938   1937   1944   1946     1  0.0000000  1.0460000  1
   1938   1937   1944   1946     1  0.0000000  0.6694400  3
   1938   1939   1943   1953     1  0.0000000  1.0460000  1
   1938   1939   1943   1953     1  0.0000000  0.6694400  3
   1939   1938   1937   1941     1  0.0000000  0.6508444  3
   1939   1938   1957   1947     1  0.0000000  1.2552000  3
   1940   1938   1937   1944     1  0.0000000  1.0460000  1
   1940   1938   1937   1944     1  0.0000000  0.0000000  3
   1940   1938   1937   1941     1  0.0000000  0.6508444  3
   1940   1938   1939   1943     1  0.0000000  1.0460000  1
   1940   1938   1939   1943     1  0.0000000  0.0000000  3
   1940   1938   1939   1952     1  0.0000000  1.0460000  1
   1940   1938   1939   1952     1  0.0000000  0.0000000  3
   1940   1938   1939   1942     1  0.0000000  0.6508444  3
   1940   1938   1957   1947     1  0.0000000  1.2552000  3
   1941   1937   1935   1955     1  0.0000000  1.0460000  1
   1941   1937   1935   1955     1  0.0000000  0.0000000  3
   1941   1937   1935   1954     1  0.0000000  0.6508444  3
   1941   1937   1938   1957     1  0.0000000  0.6508444  3
   1941   1937   1944   1946     1  0.0000000  0.6973333  3
   1942   1939   1938   1957     1  0.0000000  0.6508444  3
   1942   1939   1943   1953     1  0.0000000  0.6973333  3
   1944   1937   1935   1954     1  0.0000000  1.0460000  1
   1944   1937   1935   1954     1  0.0000000  0.0000000  3
   1945   1934   1935   1954     1  0.0000000  0.6508444  3
   1948   1945   1934   1952     1  0.0000000  1.0460000  1
   1948   1945   1934   1952     1  0.0000000  0.0000000  3
   1948   1945   1950   1951     1  0.0000000  0.6973333  3
   1949   1945   1934   1952     1  0.0000000  1.0460000  1
   1949   1945   1934   1952     1  0.0000000  0.0000000  3
   1949   1945   1950   1951     1  0.0000000  0.6973333  3
   1952   1934   1935   1954     1  0.0000000  1.0460000  1
   1952   1934   1935   1954     1  0.0000000  0.0000000  3
   1952   1939   1943   1953     1  0.0000000  0.6973333  3
   1954   1935   1955   1956     1  0.0000000  0.6973333  3
   1958   1959   1961   1965     1  0.0000000  0.6508444  3
   1958   1959   1979   1980     1  0.0000000  1.0460000  1
   1958   1959   1979   1980     1  0.0000000  0.6694400  3
   1958   1969   1974   1975     1  0.0000000  1.0460000  1
   1958   1969   1974   1975     1  0.0000000  0.6694400  3
   1958   1976   1963   1966     1  0.0000000  1.6038667  3
   1959   1958   1969   1972     1  0.0000000  0.6508444  3
   1959   1958   1969   1973     1  0.0000000  0.6508444  3
   1959   1961   1962   1964     1  0.0000000  0.6508444  3
   1959   1961   1968   1970     1  0.0000000  1.0460000  1
   1959   1961   1968   1970     1  0.0000000  0.6694400  3
   1960   1958   1959   1961     1  0.0000000  0.6508444  3
   1960   1958   1959   1979     1  0.0000000  1.0460000  1
   1960   1958   1959   1979     1  0.0000000  0.0000000  3
   1960   1958   1959   1978     1  0.0000000  0.6508444  3
   1960   1958   1969   1974     1  0.0000000  1.0460000  1
   1960   1958   1969   1974     1  0.0000000  0.0000000  3
   1960   1958   1969   1972     1  0.0000000  0.6508444  3
   1960   1958   1969   1973     1  0.0000000  0.6508444  3
   1960   1958   1976   1963     1  0.0000000  1.6038667  3
   1961   1959   1979   1980     1  0.0000000  1.0460000  1
   1961   1959   1979   1980     1  0.0000000  0.6694400  3
   1961   1962   1963   1966     1  0.0000000  0.6508444  3
   1961   1962   1981   1971     1  0.0000000  1.2552000  3
   1962   1961   1959   1978     1  0.0000000  0.6508444  3
   1962   1961   1968   1970     1  0.0000000  1.0460000  1
   1962   1961   1968   1970     1  0.0000000  0.6694400  3
   1962   1963   1967   1977     1  0.0000000  1.0460000  1
   1962   1963   1967   1977     1  0.0000000  0.6694400  3
   1963   1962   1961   1965     1  0.0000000  0.6508444  3
   1963   1962   1981   1971     1  0.0000000  1.2552000  3
   1964   1962   1961   1968     1  0.0000000  1.0460000  1
   1964   1962   1961   1968     1  0.0000000  0.0000000  3
   1964   1962   1961   1965     1  0.0000000  0.6508444  3
   1964   1962   1963   1967     1  0.0000000  1.0460000  1
   1964   1962   1963   1967     1  0.0000000  0.0000000  3
   1964   1962   1963   1976     1  0.0000000  1.0460000  1
   1964   1962   1963   1976     1  0.0000000  0.0000000  3
   1964   1962   1963   1966     1  0.0000000  0.6508444  3
   1964   1962   1981   1971     1  0.0000000  1.2552000  3
   1965   1961   1959   1979     1  0.0000000  1.0460000  1
   1965   1961   1959   1979     1  0.0000000  0.0000000  3
   1965   1961   1959   1978     1  0.0000000  0.6508444  3
   1965   1961   1962   1981     1  0.0000000  0.6508444  3
   1965   1961   1968   1970     1  0.0000000  0.6973333  3
   1966   1963   1962   1981     1  0.0000000  0.6508444  3
   1966   1963   1967   1977     1  0.0000000  0.6973333  3
   1968   1961   1959   1978     1  0.0000000  1.0460000  1
   1968   1961   1959   1978     1  0.0000000  0.0000000  3
   1969   1958   1959   1978     1  0.0000000  0.6508444  3
   1972   1969   1958   1976     1  0.0000000  1.0460000  1
   1972   1969   1958   1976     1  0.0000000  0.0000000  3
   1972   1969   1974   1975     1  0.0000000  0.6973333  3
   1973   1969   1958   1976     1  0.0000000  1.0460000  1
   1973   1969   1958   1976     1  0.0000000  0.0000000  3
   1973   1969   1974   1975     1  0.0000000  0.6973333  3
   1976   1958   1959   1978     1  0.0000000  1.0460000  1
   1976   1958   1959   1978     1  0.0000000  0.0000000  3
   1976   1963   1967   1977     1  0.0000000  0.6973333  3
   1978   1959   1979   1980     1  0.0000000  0.6973333  3
   1982   1984   1986   1988     1  0.0000000  0.6508444  3
   1982   1984   1986   1989     1  0.0000000  0.6508444  3
   1983   1982   1984   1986     1  0.0000000  0.0000000  2
   1983   1982   1984   1985     1  0.0000000  0.0000000  2
   1983   1982   1984   1987     1  0.0000000  0.0000000  2
   1985   1984   1986   1990     1  0.0000000  0.6508444  3
   1985   1984   1986   1988     1  0.0000000  0.6508444  3
   1985   1984   1986   1989     1  0.0000000  0.6508444  3
   1986   1990   1991   2000     1  0.0000000  1.2552000  3
   1986   1990   1991   2001     1  0.0000000  1.2552000  3
   1986   1990   1992   1993     1  0.0000000  1.2552000  3
   1986   1990   1992   1995     1  0.0000000  1.2552000  3
   1987   1984   1986   1990     1  0.0000000  0.6508444  3
   1987   1984   1986   1988     1  0.0000000  0.6508444  3
   1987   1984   1986   1989     1  0.0000000  0.6508444  3
   1988   1986   1990   1991     1  0.0000000  1.2552000  3
   1988   1986   1990   1992     1  0.0000000  1.2552000  3
   1989   1986   1990   1991     1  0.0000000  1.2552000  3
   1989   1986   1990   1992     1  0.0000000  1.2552000  3
   1990   1991   2002   2003     1  0.0000000  0.6508444  3
   1990   1991   2002   2004     1  0.0000000  0.6508444  3
   1990   1992   1994   1996     1  0.0000000  0.6508444  3
   1990   1992   1994   1997     1  0.0000000  0.6508444  3
   1991   1990   1992   1993     1  0.0000000  1.2552000  3
   1991   1990   1992   1995     1  0.0000000  1.2552000  3
   1992   1990   1991   2000     1  0.0000000  1.2552000  3
   1992   1990   1991   2001     1  0.0000000  1.2552000  3
   1993   1992   1994   1998     1  0.0000000  0.6508444  3
   1993   1992   1994   1996     1  0.0000000  0.6508444  3
   1993   1992   1994   1997     1  0.0000000  0.6508444  3
   1994   1998   2030   2020     1  180.0000771  6.0668000  2
   1994   1998   2030   2020     1  180.0000771  1.4644000  4
   1995   1992   1994   1998     1  0.0000000  0.6508444  3
   1995   1992   1994   1996     1  0.0000000  0.6508444  3
   1995   1992   1994   1997     1  0.0000000  0.6508444  3
   1996   1994   1998   1999     1  0.0000000  3.3472000  1
   1996   1994   1998   1999     1  0.0000000  0.0000000  2
   1996   1994   1998   1999     1  180.0000771  0.3347200  3
   1996   1994   1998   2030     1  180.0000771  0.0000000  2
   1997   1994   1998   1999     1  0.0000000  3.3472000  1
   1997   1994   1998   1999     1  0.0000000  0.0000000  2
   1997   1994   1998   1999     1  180.0000771  0.3347200  3
   1997   1994   1998   2030     1  180.0000771  0.0000000  2
   1998   2030   2011   2013     1  0.0000000  1.2552000  3
   1999   1998   2030   2020     1  180.0000771  6.0668000  2
   1999   1998   2030   2020     1  180.0000771  1.4644000  4
   2000   1991   2002   2005     1  0.0000000  0.6508444  3
   2000   1991   2002   2003     1  0.0000000  0.6508444  3
   2000   1991   2002   2004     1  0.0000000  0.6508444  3
   2001   1991   2002   2005     1  0.0000000  0.6508444  3
   2001   1991   2002   2003     1  0.0000000  0.6508444  3
   2001   1991   2002   2004     1  0.0000000  0.6508444  3
   2002   2005   2054   2044     1  180.0000771  6.0668000  2
   2002   2005   2054   2044     1  180.0000771  1.4644000  4
   2003   2002   2005   2006     1  0.0000000  3.3472000  1
   2003   2002   2005   2006     1  0.0000000  0.0000000  2
   2003   2002   2005   2006     1  180.0000771  0.3347200  3
   2003   2002   2005   2054     1  180.0000771  0.0000000  2
   2004   2002   2005   2006     1  0.0000000  3.3472000  1
   2004   2002   2005   2006     1  0.0000000  0.0000000  2
   2004   2002   2005   2006     1  180.0000771  0.3347200  3
   2004   2002   2005   2054     1  180.0000771  0.0000000  2
   2005   2054   2035   2037     1  0.0000000  1.2552000  3
   2006   2005   2054   2044     1  180.0000771  6.0668000  2
   2006   2005   2054   2044     1  180.0000771  1.4644000  4
   2007   2008   2010   2014     1  0.0000000  0.6508444  3
   2007   2008   2028   2029     1  0.0000000  1.0460000  1
   2007   2008   2028   2029     1  0.0000000  0.6694400  3
   2007   2018   2023   2024     1  0.0000000  1.0460000  1
   2007   2018   2023   2024     1  0.0000000  0.6694400  3
   2007   2025   2012   2015     1  0.0000000  1.6038667  3
   2008   2010   2011   2013     1  0.0000000  0.6508444  3
   2008   2010   2017   2019     1  0.0000000  1.0460000  1
   2008   2010   2017   2019     1  0.0000000  0.6694400  3
   2008   2007   2018   2021     1  0.0000000  0.6508444  3
   2008   2007   2018   2022     1  0.0000000  0.6508444  3
   2009   2007   2008   2010     1  0.0000000  0.6508444  3
   2009   2007   2008   2028     1  0.0000000  1.0460000  1
   2009   2007   2008   2028     1  0.0000000  0.0000000  3
   2009   2007   2008   2027     1  0.0000000  0.6508444  3
   2009   2007   2018   2023     1  0.0000000  1.0460000  1
   2009   2007   2018   2023     1  0.0000000  0.0000000  3
   2009   2007   2018   2021     1  0.0000000  0.6508444  3
   2009   2007   2018   2022     1  0.0000000  0.6508444  3
   2009   2007   2025   2012     1  0.0000000  1.6038667  3
   2010   2011   2012   2015     1  0.0000000  0.6508444  3
   2010   2011   2030   2020     1  0.0000000  1.2552000  3
   2010   2008   2028   2029     1  0.0000000  1.0460000  1
   2010   2008   2028   2029     1  0.0000000  0.6694400  3
   2011   2012   2016   2026     1  0.0000000  1.0460000  1
   2011   2012   2016   2026     1  0.0000000  0.6694400  3
   2011   2010   2017   2019     1  0.0000000  1.0460000  1
   2011   2010   2017   2019     1  0.0000000  0.6694400  3
   2011   2010   2008   2027     1  0.0000000  0.6508444  3
   2012   2011   2030   2020     1  0.0000000  1.2552000  3
   2012   2011   2010   2014     1  0.0000000  0.6508444  3
   2013   2011   2012   2016     1  0.0000000  1.0460000  1
   2013   2011   2012   2016     1  0.0000000  0.0000000  3
   2013   2011   2012   2025     1  0.0000000  1.0460000  1
   2013   2011   2012   2025     1  0.0000000  0.0000000  3
   2013   2011   2012   2015     1  0.0000000  0.6508444  3
   2013   2011   2030   2020     1  0.0000000  1.2552000  3
   2013   2011   2010   2017     1  0.0000000  1.0460000  1
   2013   2011   2010   2017     1  0.0000000  0.0000000  3
   2013   2011   2010   2014     1  0.0000000  0.6508444  3
   2014   2010   2011   2030     1  0.0000000  0.6508444  3
   2014   2010   2017   2019     1  0.0000000  0.6973333  3
   2014   2010   2008   2028     1  0.0000000  1.0460000  1
   2014   2010   2008   2028     1  0.0000000  0.0000000  3
   2014   2010   2008   2027     1  0.0000000  0.6508444  3
   2015   2012   2016   2026     1  0.0000000  0.6973333  3
   2015   2012   2011   2030     1  0.0000000  0.6508444  3
   2017   2010   2008   2027     1  0.0000000  1.0460000  1
   2017   2010   2008   2027     1  0.0000000  0.0000000  3
   2018   2007   2008   2027     1  0.0000000  0.6508444  3
   2021   2018   2023   2024     1  0.0000000  0.6973333  3
   2021   2018   2007   2025     1  0.0000000  1.0460000  1
   2021   2018   2007   2025     1  0.0000000  0.0000000  3
   2022   2018   2023   2024     1  0.0000000  0.6973333  3
   2022   2018   2007   2025     1  0.0000000  1.0460000  1
   2022   2018   2007   2025     1  0.0000000  0.0000000  3
   2025   2012   2016   2026     1  0.0000000  0.6973333  3
   2025   2007   2008   2027     1  0.0000000  1.0460000  1
   2025   2007   2008   2027     1  0.0000000  0.0000000  3
   2027   2008   2028   2029     1  0.0000000  0.6973333  3
   2031   2032   2034   2038     1  0.0000000  0.6508444  3
   2031   2032   2052   2053     1  0.0000000  1.0460000  1
   2031   2032   2052   2053     1  0.0000000  0.6694400  3
   2031   2042   2047   2048     1  0.0000000  1.0460000  1
   2031   2042   2047   2048     1  0.0000000  0.6694400  3
   2031   2049   2036   2039     1  0.0000000  1.6038667  3
   2032   2034   2035   2037     1  0.0000000  0.6508444  3
   2032   2034   2041   2043     1  0.0000000  1.0460000  1
   2032   2034   2041   2043     1  0.0000000  0.6694400  3
   2032   2031   2042   2045     1  0.0000000  0.6508444  3
   2032   2031   2042   2046     1  0.0000000  0.6508444  3
   2033   2031   2032   2034     1  0.0000000  0.6508444  3
   2033   2031   2032   2052     1  0.0000000  1.0460000  1
   2033   2031   2032   2052     1  0.0000000  0.0000000  3
   2033   2031   2032   2051     1  0.0000000  0.6508444  3
   2033   2031   2042   2047     1  0.0000000  1.0460000  1
   2033   2031   2042   2047     1  0.0000000  0.0000000  3
   2033   2031   2042   2045     1  0.0000000  0.6508444  3
   2033   2031   2042   2046     1  0.0000000  0.6508444  3
   2033   2031   2049   2036     1  0.0000000  1.6038667  3
   2034   2035   2036   2039     1  0.0000000  0.6508444  3
   2034   2035   2054   2044     1  0.0000000  1.2552000  3
   2034   2032   2052   2053     1  0.0000000  1.0460000  1
   2034   2032   2052   2053     1  0.0000000  0.6694400  3
   2035   2036   2040   2050     1  0.0000000  1.0460000  1
   2035   2036   2040   2050     1  0.0000000  0.6694400  3
   2035   2034   2041   2043     1  0.0000000  1.0460000  1
   2035   2034   2041   2043     1  0.0000000  0.6694400  3
   2035   2034   2032   2051     1  0.0000000  0.6508444  3
   2036   2035   2054   2044     1  0.0000000  1.2552000  3
   2036   2035   2034   2038     1  0.0000000  0.6508444  3
   2037   2035   2036   2040     1  0.0000000  1.0460000  1
   2037   2035   2036   2040     1  0.0000000  0.0000000  3
   2037   2035   2036   2049     1  0.0000000  1.0460000  1
   2037   2035   2036   2049     1  0.0000000  0.0000000  3
   2037   2035   2036   2039     1  0.0000000  0.6508444  3
   2037   2035   2054   2044     1  0.0000000  1.2552000  3
   2037   2035   2034   2041     1  0.0000000  1.0460000  1
   2037   2035   2034   2041     1  0.0000000  0.0000000  3
   2037   2035   2034   2038     1  0.0000000  0.6508444  3
   2038   2034   2035   2054     1  0.0000000  0.6508444  3
   2038   2034   2041   2043     1  0.0000000  0.6973333  3
   2038   2034   2032   2052     1  0.0000000  1.0460000  1
   2038   2034   2032   2052     1  0.0000000  0.0000000  3
   2038   2034   2032   2051     1  0.0000000  0.6508444  3
   2039   2036   2040   2050     1  0.0000000  0.6973333  3
   2039   2036   2035   2054     1  0.0000000  0.6508444  3
   2041   2034   2032   2051     1  0.0000000  1.0460000  1
   2041   2034   2032   2051     1  0.0000000  0.0000000  3
   2042   2031   2032   2051     1  0.0000000  0.6508444  3
   2045   2042   2047   2048     1  0.0000000  0.6973333  3
   2045   2042   2031   2049     1  0.0000000  1.0460000  1
   2045   2042   2031   2049     1  0.0000000  0.0000000  3
   2046   2042   2047   2048     1  0.0000000  0.6973333  3
   2046   2042   2031   2049     1  0.0000000  1.0460000  1
   2046   2042   2031   2049     1  0.0000000  0.0000000  3
   2049   2036   2040   2050     1  0.0000000  0.6973333  3
   2049   2031   2032   2051     1  0.0000000  1.0460000  1
   2049   2031   2032   2051     1  0.0000000  0.0000000  3
   2051   2032   2052   2053     1  0.0000000  0.6973333  3
   2055   2057   2059   2061     1  0.0000000  0.6508444  3
   2055   2057   2059   2062     1  0.0000000  0.6508444  3
   2056   2055   2057   2059     1  0.0000000  0.0000000  2
   2056   2055   2057   2058     1  0.0000000  0.0000000  2
   2056   2055   2057   2060     1  0.0000000  0.0000000  2
   2058   2057   2059   2063     1  0.0000000  0.6508444  3
   2058   2057   2059   2061     1  0.0000000  0.6508444  3
   2058   2057   2059   2062     1  0.0000000  0.6508444  3
   2059   2063   2064   2073     1  0.0000000  1.2552000  3
   2059   2063   2064   2074     1  0.0000000  1.2552000  3
   2059   2063   2065   2066     1  0.0000000  1.2552000  3
   2059   2063   2065   2068     1  0.0000000  1.2552000  3
   2060   2057   2059   2063     1  0.0000000  0.6508444  3
   2060   2057   2059   2061     1  0.0000000  0.6508444  3
   2060   2057   2059   2062     1  0.0000000  0.6508444  3
   2061   2059   2063   2064     1  0.0000000  1.2552000  3
   2061   2059   2063   2065     1  0.0000000  1.2552000  3
   2062   2059   2063   2064     1  0.0000000  1.2552000  3
   2062   2059   2063   2065     1  0.0000000  1.2552000  3
   2063   2064   2075   2076     1  0.0000000  0.6508444  3
   2063   2064   2075   2077     1  0.0000000  0.6508444  3
   2063   2065   2067   2069     1  0.0000000  0.6508444  3
   2063   2065   2067   2070     1  0.0000000  0.6508444  3
   2064   2063   2065   2066     1  0.0000000  1.2552000  3
   2064   2063   2065   2068     1  0.0000000  1.2552000  3
   2065   2063   2064   2073     1  0.0000000  1.2552000  3
   2065   2063   2064   2074     1  0.0000000  1.2552000  3
   2066   2065   2067   2071     1  0.0000000  0.6508444  3
   2066   2065   2067   2069     1  0.0000000  0.6508444  3
   2066   2065   2067   2070     1  0.0000000  0.6508444  3
   2067   2071   2103   2093     1  180.0000771  6.0668000  2
   2067   2071   2103   2093     1  180.0000771  1.4644000  4
   2068   2065   2067   2071     1  0.0000000  0.6508444  3
   2068   2065   2067   2069     1  0.0000000  0.6508444  3
   2068   2065   2067   2070     1  0.0000000  0.6508444  3
   2069   2067   2071   2072     1  0.0000000  3.3472000  1
   2069   2067   2071   2072     1  0.0000000  0.0000000  2
   2069   2067   2071   2072     1  180.0000771  0.3347200  3
   2069   2067   2071   2103     1  180.0000771  0.0000000  2
   2070   2067   2071   2072     1  0.0000000  3.3472000  1
   2070   2067   2071   2072     1  0.0000000  0.0000000  2
   2070   2067   2071   2072     1  180.0000771  0.3347200  3
   2070   2067   2071   2103     1  180.0000771  0.0000000  2
   2071   2103   2084   2086     1  0.0000000  1.2552000  3
   2072   2071   2103   2093     1  180.0000771  6.0668000  2
   2072   2071   2103   2093     1  180.0000771  1.4644000  4
   2073   2064   2075   2078     1  0.0000000  0.6508444  3
   2073   2064   2075   2076     1  0.0000000  0.6508444  3
   2073   2064   2075   2077     1  0.0000000  0.6508444  3
   2074   2064   2075   2078     1  0.0000000  0.6508444  3
   2074   2064   2075   2076     1  0.0000000  0.6508444  3
   2074   2064   2075   2077     1  0.0000000  0.6508444  3
   2075   2078   2127   2117     1  180.0000771  6.0668000  2
   2075   2078   2127   2117     1  180.0000771  1.4644000  4
   2076   2075   2078   2079     1  0.0000000  3.3472000  1
   2076   2075   2078   2079     1  0.0000000  0.0000000  2
   2076   2075   2078   2079     1  180.0000771  0.3347200  3
   2076   2075   2078   2127     1  180.0000771  0.0000000  2
   2077   2075   2078   2079     1  0.0000000  3.3472000  1
   2077   2075   2078   2079     1  0.0000000  0.0000000  2
   2077   2075   2078   2079     1  180.0000771  0.3347200  3
   2077   2075   2078   2127     1  180.0000771  0.0000000  2
   2078   2127   2108   2110     1  0.0000000  1.2552000  3
   2079   2078   2127   2117     1  180.0000771  6.0668000  2
   2079   2078   2127   2117     1  180.0000771  1.4644000  4
   2080   2081   2083   2087     1  0.0000000  0.6508444  3
   2080   2081   2101   2102     1  0.0000000  1.0460000  1
   2080   2081   2101   2102     1  0.0000000  0.6694400  3
   2080   2091   2096   2097     1  0.0000000  1.0460000  1
   2080   2091   2096   2097     1  0.0000000  0.6694400  3
   2080   2098   2085   2088     1  0.0000000  1.6038667  3
   2081   2080   2091   2094     1  0.0000000  0.6508444  3
   2081   2080   2091   2095     1  0.0000000  0.6508444  3
   2081   2083   2084   2086     1  0.0000000  0.6508444  3
   2081   2083   2090   2092     1  0.0000000  1.0460000  1
   2081   2083   2090   2092     1  0.0000000  0.6694400  3
   2082   2080   2081   2083     1  0.0000000  0.6508444  3
   2082   2080   2081   2101     1  0.0000000  1.0460000  1
   2082   2080   2081   2101     1  0.0000000  0.0000000  3
   2082   2080   2081   2100     1  0.0000000  0.6508444  3
   2082   2080   2091   2096     1  0.0000000  1.0460000  1
   2082   2080   2091   2096     1  0.0000000  0.0000000  3
   2082   2080   2091   2094     1  0.0000000  0.6508444  3
   2082   2080   2091   2095     1  0.0000000  0.6508444  3
   2082   2080   2098   2085     1  0.0000000  1.6038667  3
   2083   2081   2101   2102     1  0.0000000  1.0460000  1
   2083   2081   2101   2102     1  0.0000000  0.6694400  3
   2083   2084   2085   2088     1  0.0000000  0.6508444  3
   2083   2084   2103   2093     1  0.0000000  1.2552000  3
   2084   2083   2081   2100     1  0.0000000  0.6508444  3
   2084   2083   2090   2092     1  0.0000000  1.0460000  1
   2084   2083   2090   2092     1  0.0000000  0.6694400  3
   2084   2085   2089   2099     1  0.0000000  1.0460000  1
   2084   2085   2089   2099     1  0.0000000  0.6694400  3
   2085   2084   2083   2087     1  0.0000000  0.6508444  3
   2085   2084   2103   2093     1  0.0000000  1.2552000  3
   2086   2084   2083   2090     1  0.0000000  1.0460000  1
   2086   2084   2083   2090     1  0.0000000  0.0000000  3
   2086   2084   2083   2087     1  0.0000000  0.6508444  3
   2086   2084   2085   2089     1  0.0000000  1.0460000  1
   2086   2084   2085   2089     1  0.0000000  0.0000000  3
   2086   2084   2085   2098     1  0.0000000  1.0460000  1
   2086   2084   2085   2098     1  0.0000000  0.0000000  3
   2086   2084   2085   2088     1  0.0000000  0.6508444  3
   2086   2084   2103   2093     1  0.0000000  1.2552000  3
   2087   2083   2081   2101     1  0.0000000  1.0460000  1
   2087   2083   2081   2101     1  0.0000000  0.0000000  3
   2087   2083   2081   2100     1  0.0000000  0.6508444  3
   2087   2083   2084   2103     1  0.0000000  0.6508444  3
   2087   2083   2090   2092     1  0.0000000  0.6973333  3
   2088   2085   2084   2103     1  0.0000000  0.6508444  3
   2088   2085   2089   2099     1  0.0000000  0.6973333  3
   2090   2083   2081   2100     1  0.0000000  1.0460000  1
   2090   2083   2081   2100     1  0.0000000  0.0000000  3
   2091   2080   2081   2100     1  0.0000000  0.6508444  3
   2094   2091   2080   2098     1  0.0000000  1.0460000  1
   2094   2091   2080   2098     1  0.0000000  0.0000000  3
   2094   2091   2096   2097     1  0.0000000  0.6973333  3
   2095   2091   2080   2098     1  0.0000000  1.0460000  1
   2095   2091   2080   2098     1  0.0000000  0.0000000  3
   2095   2091   2096   2097     1  0.0000000  0.6973333  3
   2098   2080   2081   2100     1  0.0000000  1.0460000  1
   2098   2080   2081   2100     1  0.0000000  0.0000000  3
   2098   2085   2089   2099     1  0.0000000  0.6973333  3
   2100   2081   2101   2102     1  0.0000000  0.6973333  3
   2104   2105   2107   2111     1  0.0000000  0.6508444  3
   2104   2105   2125   2126     1  0.0000000  1.0460000  1
   2104   2105   2125   2126     1  0.0000000  0.6694400  3
   2104   2115   2120   2121     1  0.0000000  1.0460000  1
   2104   2115   2120   2121     1  0.0000000  0.6694400  3
   2104   2122   2109   2112     1  0.0000000  1.6038667  3
   2105   2104   2115   2118     1  0.0000000  0.6508444  3
   2105   2104   2115   2119     1  0.0000000  0.6508444  3
   2105   2107   2108   2110     1  0.0000000  0.6508444  3
   2105   2107   2114   2116     1  0.0000000  1.0460000  1
   2105   2107   2114   2116     1  0.0000000  0.6694400  3
   2106   2104   2105   2107     1  0.0000000  0.6508444  3
   2106   2104   2105   2125     1  0.0000000  1.0460000  1
   2106   2104   2105   2125     1  0.0000000  0.0000000  3
   2106   2104   2105   2124     1  0.0000000  0.6508444  3
   2106   2104   2115   2120     1  0.0000000  1.0460000  1
   2106   2104   2115   2120     1  0.0000000  0.0000000  3
   2106   2104   2115   2118     1  0.0000000  0.6508444  3
   2106   2104   2115   2119     1  0.0000000  0.6508444  3
   2106   2104   2122   2109     1  0.0000000  1.6038667  3
   2107   2105   2125   2126     1  0.0000000  1.0460000  1
   2107   2105   2125   2126     1  0.0000000  0.6694400  3
   2107   2108   2109   2112     1  0.0000000  0.6508444  3
   2107   2108   2127   2117     1  0.0000000  1.2552000  3
   2108   2107   2105   2124     1  0.0000000  0.6508444  3
   2108   2107   2114   2116     1  0.0000000  1.0460000  1
   2108   2107   2114   2116     1  0.0000000  0.6694400  3
   2108   2109   2113   2123     1  0.0000000  1.0460000  1
   2108   2109   2113   2123     1  0.0000000  0.6694400  3
   2109   2108   2107   2111     1  0.0000000  0.6508444  3
   2109   2108   2127   2117     1  0.0000000  1.2552000  3
   2110   2108   2107   2114     1  0.0000000  1.0460000  1
   2110   2108   2107   2114     1  0.0000000  0.0000000  3
   2110   2108   2107   2111     1  0.0000000  0.6508444  3
   2110   2108   2109   2113     1  0.0000000  1.0460000  1
   2110   2108   2109   2113     1  0.0000000  0.0000000  3
   2110   2108   2109   2122     1  0.0000000  1.0460000  1
   2110   2108   2109   2122     1  0.0000000  0.0000000  3
   2110   2108   2109   2112     1  0.0000000  0.6508444  3
   2110   2108   2127   2117     1  0.0000000  1.2552000  3
   2111   2107   2105   2125     1  0.0000000  1.0460000  1
   2111   2107   2105   2125     1  0.0000000  0.0000000  3
   2111   2107   2105   2124     1  0.0000000  0.6508444  3
   2111   2107   2108   2127     1  0.0000000  0.6508444  3
   2111   2107   2114   2116     1  0.0000000  0.6973333  3
   2112   2109   2108   2127     1  0.0000000  0.6508444  3
   2112   2109   2113   2123     1  0.0000000  0.6973333  3
   2114   2107   2105   2124     1  0.0000000  1.0460000  1
   2114   2107   2105   2124     1  0.0000000  0.0000000  3
   2115   2104   2105   2124     1  0.0000000  0.6508444  3
   2118   2115   2104   2122     1  0.0000000  1.0460000  1
   2118   2115   2104   2122     1  0.0000000  0.0000000  3
   2118   2115   2120   2121     1  0.0000000  0.6973333  3
   2119   2115   2104   2122     1  0.0000000  1.0460000  1
   2119   2115   2104   2122     1  0.0000000  0.0000000  3
   2119   2115   2120   2121     1  0.0000000  0.6973333  3
   2122   2104   2105   2124     1  0.0000000  1.0460000  1
   2122   2104   2105   2124     1  0.0000000  0.0000000  3
   2122   2109   2113   2123     1  0.0000000  0.6973333  3
   2124   2105   2125   2126     1  0.0000000  0.6973333  3
   2128   2130   2132   2134     1  0.0000000  0.6508444  3
   2128   2130   2132   2135     1  0.0000000  0.6508444  3
   2129   2128   2130   2132     1  0.0000000  0.0000000  2
   2129   2128   2130   2131     1  0.0000000  0.0000000  2
   2129   2128   2130   2133     1  0.0000000  0.0000000  2
   2131   2130   2132   2136     1  0.0000000  0.6508444  3
   2131   2130   2132   2134     1  0.0000000  0.6508444  3
   2131   2130   2132   2135     1  0.0000000  0.6508444  3
   2132   2136   2137   2146     1  0.0000000  1.2552000  3
   2132   2136   2137   2147     1  0.0000000  1.2552000  3
   2132   2136   2138   2139     1  0.0000000  1.2552000  3
   2132   2136   2138   2141     1  0.0000000  1.2552000  3
   2133   2130   2132   2136     1  0.0000000  0.6508444  3
   2133   2130   2132   2134     1  0.0000000  0.6508444  3
   2133   2130   2132   2135     1  0.0000000  0.6508444  3
   2134   2132   2136   2137     1  0.0000000  1.2552000  3
   2134   2132   2136   2138     1  0.0000000  1.2552000  3
   2135   2132   2136   2137     1  0.0000000  1.2552000  3
   2135   2132   2136   2138     1  0.0000000  1.2552000  3
   2136   2137   2148   2149     1  0.0000000  0.6508444  3
   2136   2137   2148   2150     1  0.0000000  0.6508444  3
   2136   2138   2140   2142     1  0.0000000  0.6508444  3
   2136   2138   2140   2143     1  0.0000000  0.6508444  3
   2137   2136   2138   2139     1  0.0000000  1.2552000  3
   2137   2136   2138   2141     1  0.0000000  1.2552000  3
   2138   2136   2137   2146     1  0.0000000  1.2552000  3
   2138   2136   2137   2147     1  0.0000000  1.2552000  3
   2139   2138   2140   2144     1  0.0000000  0.6508444  3
   2139   2138   2140   2142     1  0.0000000  0.6508444  3
   2139   2138   2140   2143     1  0.0000000  0.6508444  3
   2140   2144   2176   2166     1  180.0000771  6.0668000  2
   2140   2144   2176   2166     1  180.0000771  1.4644000  4
   2141   2138   2140   2144     1  0.0000000  0.6508444  3
   2141   2138   2140   2142     1  0.0000000  0.6508444  3
   2141   2138   2140   2143     1  0.0000000  0.6508444  3
   2142   2140   2144   2145     1  0.0000000  3.3472000  1
   2142   2140   2144   2145     1  0.0000000  0.0000000  2
   2142   2140   2144   2145     1  180.0000771  0.3347200  3
   2142   2140   2144   2176     1  180.0000771  0.0000000  2
   2143   2140   2144   2145     1  0.0000000  3.3472000  1
   2143   2140   2144   2145     1  0.0000000  0.0000000  2
   2143   2140   2144   2145     1  180.0000771  0.3347200  3
   2143   2140   2144   2176     1  180.0000771  0.0000000  2
   2144   2176   2157   2159     1  0.0000000  1.2552000  3
   2145   2144   2176   2166     1  180.0000771  6.0668000  2
   2145   2144   2176   2166     1  180.0000771  1.4644000  4
   2146   2137   2148   2151     1  0.0000000  0.6508444  3
   2146   2137   2148   2149     1  0.0000000  0.6508444  3
   2146   2137   2148   2150     1  0.0000000  0.6508444  3
   2147   2137   2148   2151     1  0.0000000  0.6508444  3
   2147   2137   2148   2149     1  0.0000000  0.6508444  3
   2147   2137   2148   2150     1  0.0000000  0.6508444  3
   2148   2151   2200   2190     1  180.0000771  6.0668000  2
   2148   2151   2200   2190     1  180.0000771  1.4644000  4
   2149   2148   2151   2152     1  0.0000000  3.3472000  1
   2149   2148   2151   2152     1  0.0000000  0.0000000  2
   2149   2148   2151   2152     1  180.0000771  0.3347200  3
   2149   2148   2151   2200     1  180.0000771  0.0000000  2
   2150   2148   2151   2152     1  0.0000000  3.3472000  1
   2150   2148   2151   2152     1  0.0000000  0.0000000  2
   2150   2148   2151   2152     1  180.0000771  0.3347200  3
   2150   2148   2151   2200     1  180.0000771  0.0000000  2
   2151   2200   2181   2183     1  0.0000000  1.2552000  3
   2152   2151   2200   2190     1  180.0000771  6.0668000  2
   2152   2151   2200   2190     1  180.0000771  1.4644000  4
   2153   2154   2156   2160     1  0.0000000  0.6508444  3
   2153   2154   2174   2175     1  0.0000000  1.0460000  1
   2153   2154   2174   2175     1  0.0000000  0.6694400  3
   2153   2164   2169   2170     1  0.0000000  1.0460000  1
   2153   2164   2169   2170     1  0.0000000  0.6694400  3
   2153   2171   2158   2161     1  0.0000000  1.6038667  3
   2154   2156   2157   2159     1  0.0000000  0.6508444  3
   2154   2156   2163   2165     1  0.0000000  1.0460000  1
   2154   2156   2163   2165     1  0.0000000  0.6694400  3
   2154   2153   2164   2167     1  0.0000000  0.6508444  3
   2154   2153   2164   2168     1  0.0000000  0.6508444  3
   2155   2153   2154   2156     1  0.0000000  0.6508444  3
   2155   2153   2154   2174     1  0.0000000  1.0460000  1
   2155   2153   2154   2174     1  0.0000000  0.0000000  3
   2155   2153   2154   2173     1  0.0000000  0.6508444  3
   2155   2153   2164   2169     1  0.0000000  1.0460000  1
   2155   2153   2164   2169     1  0.0000000  0.0000000  3
   2155   2153   2164   2167     1  0.0000000  0.6508444  3
   2155   2153   2164   2168     1  0.0000000  0.6508444  3
   2155   2153   2171   2158     1  0.0000000  1.6038667  3
   2156   2157   2158   2161     1  0.0000000  0.6508444  3
   2156   2157   2176   2166     1  0.0000000  1.2552000  3
   2156   2154   2174   2175     1  0.0000000  1.0460000  1
   2156   2154   2174   2175     1  0.0000000  0.6694400  3
   2157   2158   2162   2172     1  0.0000000  1.0460000  1
   2157   2158   2162   2172     1  0.0000000  0.6694400  3
   2157   2156   2163   2165     1  0.0000000  1.0460000  1
   2157   2156   2163   2165     1  0.0000000  0.6694400  3
   2157   2156   2154   2173     1  0.0000000  0.6508444  3
   2158   2157   2176   2166     1  0.0000000  1.2552000  3
   2158   2157   2156   2160     1  0.0000000  0.6508444  3
   2159   2157   2158   2162     1  0.0000000  1.0460000  1
   2159   2157   2158   2162     1  0.0000000  0.0000000  3
   2159   2157   2158   2171     1  0.0000000  1.0460000  1
   2159   2157   2158   2171     1  0.0000000  0.0000000  3
   2159   2157   2158   2161     1  0.0000000  0.6508444  3
   2159   2157   2176   2166     1  0.0000000  1.2552000  3
   2159   2157   2156   2163     1  0.0000000  1.0460000  1
   2159   2157   2156   2163     1  0.0000000  0.0000000  3
   2159   2157   2156   2160     1  0.0000000  0.6508444  3
   2160   2156   2157   2176     1  0.0000000  0.6508444  3
   2160   2156   2163   2165     1  0.0000000  0.6973333  3
   2160   2156   2154   2174     1  0.0000000  1.0460000  1
   2160   2156   2154   2174     1  0.0000000  0.0000000  3
   2160   2156   2154   2173     1  0.0000000  0.6508444  3
   2161   2158   2162   2172     1  0.0000000  0.6973333  3
   2161   2158   2157   2176     1  0.0000000  0.6508444  3
   2163   2156   2154   2173     1  0.0000000  1.0460000  1
   2163   2156   2154   2173     1  0.0000000  0.0000000  3
   2164   2153   2154   2173     1  0.0000000  0.6508444  3
   2167   2164   2169   2170     1  0.0000000  0.6973333  3
   2167   2164   2153   2171     1  0.0000000  1.0460000  1
   2167   2164   2153   2171     1  0.0000000  0.0000000  3
   2168   2164   2169   2170     1  0.0000000  0.6973333  3
   2168   2164   2153   2171     1  0.0000000  1.0460000  1
   2168   2164   2153   2171     1  0.0000000  0.0000000  3
   2171   2158   2162   2172     1  0.0000000  0.6973333  3
   2171   2153   2154   2173     1  0.0000000  1.0460000  1
   2171   2153   2154   2173     1  0.0000000  0.0000000  3
   2173   2154   2174   2175     1  0.0000000  0.6973333  3
   2177   2178   2180   2184     1  0.0000000  0.6508444  3
   2177   2178   2198   2199     1  0.0000000  1.0460000  1
   2177   2178   2198   2199     1  0.0000000  0.6694400  3
   2177   2188   2193   2194     1  0.0000000  1.0460000  1
   2177   2188   2193   2194     1  0.0000000  0.6694400  3
   2177   2195   2182   2185     1  0.0000000  1.6038667  3
   2178   2180   2181   2183     1  0.0000000  0.6508444  3
   2178   2180   2187   2189     1  0.0000000  1.0460000  1
   2178   2180   2187   2189     1  0.0000000  0.6694400  3
   2178   2177   2188   2191     1  0.0000000  0.6508444  3
   2178   2177   2188   2192     1  0.0000000  0.6508444  3
   2179   2177   2178   2180     1  0.0000000  0.6508444  3
   2179   2177   2178   2198     1  0.0000000  1.0460000  1
   2179   2177   2178   2198     1  0.0000000  0.0000000  3
   2179   2177   2178   2197     1  0.0000000  0.6508444  3
   2179   2177   2188   2193     1  0.0000000  1.0460000  1
   2179   2177   2188   2193     1  0.0000000  0.0000000  3
   2179   2177   2188   2191     1  0.0000000  0.6508444  3
   2179   2177   2188   2192     1  0.0000000  0.6508444  3
   2179   2177   2195   2182     1  0.0000000  1.6038667  3
   2180   2181   2182   2185     1  0.0000000  0.6508444  3
   2180   2181   2200   2190     1  0.0000000  1.2552000  3
   2180   2178   2198   2199     1  0.0000000  1.0460000  1
   2180   2178   2198   2199     1  0.0000000  0.6694400  3
   2181   2182   2186   2196     1  0.0000000  1.0460000  1
   2181   2182   2186   2196     1  0.0000000  0.6694400  3
   2181   2180   2187   2189     1  0.0000000  1.0460000  1
   2181   2180   2187   2189     1  0.0000000  0.6694400  3
   2181   2180   2178   2197     1  0.0000000  0.6508444  3
   2182   2181   2200   2190     1  0.0000000  1.2552000  3
   2182   2181   2180   2184     1  0.0000000  0.6508444  3
   2183   2181   2182   2186     1  0.0000000  1.0460000  1
   2183   2181   2182   2186     1  0.0000000  0.0000000  3
   2183   2181   2182   2195     1  0.0000000  1.0460000  1
   2183   2181   2182   2195     1  0.0000000  0.0000000  3
   2183   2181   2182   2185     1  0.0000000  0.6508444  3
   2183   2181   2200   2190     1  0.0000000  1.2552000  3
   2183   2181   2180   2187     1  0.0000000  1.0460000  1
   2183   2181   2180   2187     1  0.0000000  0.0000000  3
   2183   2181   2180   2184     1  0.0000000  0.6508444  3
   2184   2180   2181   2200     1  0.0000000  0.6508444  3
   2184   2180   2187   2189     1  0.0000000  0.6973333  3
   2184   2180   2178   2198     1  0.0000000  1.0460000  1
   2184   2180   2178   2198     1  0.0000000  0.0000000  3
   2184   2180   2178   2197     1  0.0000000  0.6508444  3
   2185   2182   2186   2196     1  0.0000000  0.6973333  3
   2185   2182   2181   2200     1  0.0000000  0.6508444  3
   2187   2180   2178   2197     1  0.0000000  1.0460000  1
   2187   2180   2178   2197     1  0.0000000  0.0000000  3
   2188   2177   2178   2197     1  0.0000000  0.6508444  3
   2191   2188   2193   2194     1  0.0000000  0.6973333  3
   2191   2188   2177   2195     1  0.0000000  1.0460000  1
   2191   2188   2177   2195     1  0.0000000  0.0000000  3
   2192   2188   2193   2194     1  0.0000000  0.6973333  3
   2192   2188   2177   2195     1  0.0000000  1.0460000  1
   2192   2188   2177   2195     1  0.0000000  0.0000000  3
   2195   2182   2186   2196     1  0.0000000  0.6973333  3
   2195   2177   2178   2197     1  0.0000000  1.0460000  1
   2195   2177   2178   2197     1  0.0000000  0.0000000  3
   2197   2178   2198   2199     1  0.0000000  0.6973333  3
   2201   2203   2205   2207     1  0.0000000  0.6508444  3
   2201   2203   2205   2208     1  0.0000000  0.6508444  3
   2202   2201   2203   2205     1  0.0000000  0.0000000  2
   2202   2201   2203   2204     1  0.0000000  0.0000000  2
   2202   2201   2203   2206     1  0.0000000  0.0000000  2
   2204   2203   2205   2209     1  0.0000000  0.6508444  3
   2204   2203   2205   2207     1  0.0000000  0.6508444  3
   2204   2203   2205   2208     1  0.0000000  0.6508444  3
   2205   2209   2210   2219     1  0.0000000  1.2552000  3
   2205   2209   2210   2220     1  0.0000000  1.2552000  3
   2205   2209   2211   2212     1  0.0000000  1.2552000  3
   2205   2209   2211   2214     1  0.0000000  1.2552000  3
   2206   2203   2205   2209     1  0.0000000  0.6508444  3
   2206   2203   2205   2207     1  0.0000000  0.6508444  3
   2206   2203   2205   2208     1  0.0000000  0.6508444  3
   2207   2205   2209   2210     1  0.0000000  1.2552000  3
   2207   2205   2209   2211     1  0.0000000  1.2552000  3
   2208   2205   2209   2210     1  0.0000000  1.2552000  3
   2208   2205   2209   2211     1  0.0000000  1.2552000  3
   2209   2210   2221   2222     1  0.0000000  0.6508444  3
   2209   2210   2221   2223     1  0.0000000  0.6508444  3
   2209   2211   2213   2215     1  0.0000000  0.6508444  3
   2209   2211   2213   2216     1  0.0000000  0.6508444  3
   2210   2209   2211   2212     1  0.0000000  1.2552000  3
   2210   2209   2211   2214     1  0.0000000  1.2552000  3
   2211   2209   2210   2219     1  0.0000000  1.2552000  3
   2211   2209   2210   2220     1  0.0000000  1.2552000  3
   2212   2211   2213   2217     1  0.0000000  0.6508444  3
   2212   2211   2213   2215     1  0.0000000  0.6508444  3
   2212   2211   2213   2216     1  0.0000000  0.6508444  3
   2213   2217   2249   2239     1  180.0000771  6.0668000  2
   2213   2217   2249   2239     1  180.0000771  1.4644000  4
   2214   2211   2213   2217     1  0.0000000  0.6508444  3
   2214   2211   2213   2215     1  0.0000000  0.6508444  3
   2214   2211   2213   2216     1  0.0000000  0.6508444  3
   2215   2213   2217   2218     1  0.0000000  3.3472000  1
   2215   2213   2217   2218     1  0.0000000  0.0000000  2
   2215   2213   2217   2218     1  180.0000771  0.3347200  3
   2215   2213   2217   2249     1  180.0000771  0.0000000  2
   2216   2213   2217   2218     1  0.0000000  3.3472000  1
   2216   2213   2217   2218     1  0.0000000  0.0000000  2
   2216   2213   2217   2218     1  180.0000771  0.3347200  3
   2216   2213   2217   2249     1  180.0000771  0.0000000  2
   2217   2249   2230   2232     1  0.0000000  1.2552000  3
   2218   2217   2249   2239     1  180.0000771  6.0668000  2
   2218   2217   2249   2239     1  180.0000771  1.4644000  4
   2219   2210   2221   2224     1  0.0000000  0.6508444  3
   2219   2210   2221   2222     1  0.0000000  0.6508444  3
   2219   2210   2221   2223     1  0.0000000  0.6508444  3
   2220   2210   2221   2224     1  0.0000000  0.6508444  3
   2220   2210   2221   2222     1  0.0000000  0.6508444  3
   2220   2210   2221   2223     1  0.0000000  0.6508444  3
   2221   2224   2273   2263     1  180.0000771  6.0668000  2
   2221   2224   2273   2263     1  180.0000771  1.4644000  4
   2222   2221   2224   2225     1  0.0000000  3.3472000  1
   2222   2221   2224   2225     1  0.0000000  0.0000000  2
   2222   2221   2224   2225     1  180.0000771  0.3347200  3
   2222   2221   2224   2273     1  180.0000771  0.0000000  2
   2223   2221   2224   2225     1  0.0000000  3.3472000  1
   2223   2221   2224   2225     1  0.0000000  0.0000000  2
   2223   2221   2224   2225     1  180.0000771  0.3347200  3
   2223   2221   2224   2273     1  180.0000771  0.0000000  2
   2224   2273   2254   2256     1  0.0000000  1.2552000  3
   2225   2224   2273   2263     1  180.0000771  6.0668000  2
   2225   2224   2273   2263     1  180.0000771  1.4644000  4
   2226   2227   2229   2233     1  0.0000000  0.6508444  3
   2226   2227   2247   2248     1  0.0000000  1.0460000  1
   2226   2227   2247   2248     1  0.0000000  0.6694400  3
   2226   2237   2242   2243     1  0.0000000  1.0460000  1
   2226   2237   2242   2243     1  0.0000000  0.6694400  3
   2226   2244   2231   2234     1  0.0000000  1.6038667  3
   2227   2226   2237   2240     1  0.0000000  0.6508444  3
   2227   2226   2237   2241     1  0.0000000  0.6508444  3
   2227   2229   2230   2232     1  0.0000000  0.6508444  3
   2227   2229   2236   2238     1  0.0000000  1.0460000  1
   2227   2229   2236   2238     1  0.0000000  0.6694400  3
   2228   2226   2227   2229     1  0.0000000  0.6508444  3
   2228   2226   2227   2247     1  0.0000000  1.0460000  1
   2228   2226   2227   2247     1  0.0000000  0.0000000  3
   2228   2226   2227   2246     1  0.0000000  0.6508444  3
   2228   2226   2237   2242     1  0.0000000  1.0460000  1
   2228   2226   2237   2242     1  0.0000000  0.0000000  3
   2228   2226   2237   2240     1  0.0000000  0.6508444  3
   2228   2226   2237   2241     1  0.0000000  0.6508444  3
   2228   2226   2244   2231     1  0.0000000  1.6038667  3
   2229   2227   2247   2248     1  0.0000000  1.0460000  1
   2229   2227   2247   2248     1  0.0000000  0.6694400  3
   2229   2230   2231   2234     1  0.0000000  0.6508444  3
   2229   2230   2249   2239     1  0.0000000  1.2552000  3
   2230   2229   2227   2246     1  0.0000000  0.6508444  3
   2230   2229   2236   2238     1  0.0000000  1.0460000  1
   2230   2229   2236   2238     1  0.0000000  0.6694400  3
   2230   2231   2235   2245     1  0.0000000  1.0460000  1
   2230   2231   2235   2245     1  0.0000000  0.6694400  3
   2231   2230   2229   2233     1  0.0000000  0.6508444  3
   2231   2230   2249   2239     1  0.0000000  1.2552000  3
   2232   2230   2229   2236     1  0.0000000  1.0460000  1
   2232   2230   2229   2236     1  0.0000000  0.0000000  3
   2232   2230   2229   2233     1  0.0000000  0.6508444  3
   2232   2230   2231   2235     1  0.0000000  1.0460000  1
   2232   2230   2231   2235     1  0.0000000  0.0000000  3
   2232   2230   2231   2244     1  0.0000000  1.0460000  1
   2232   2230   2231   2244     1  0.0000000  0.0000000  3
   2232   2230   2231   2234     1  0.0000000  0.6508444  3
   2232   2230   2249   2239     1  0.0000000  1.2552000  3
   2233   2229   2227   2247     1  0.0000000  1.0460000  1
   2233   2229   2227   2247     1  0.0000000  0.0000000  3
   2233   2229   2227   2246     1  0.0000000  0.6508444  3
   2233   2229   2230   2249     1  0.0000000  0.6508444  3
   2233   2229   2236   2238     1  0.0000000  0.6973333  3
   2234   2231   2230   2249     1  0.0000000  0.6508444  3
   2234   2231   2235   2245     1  0.0000000  0.6973333  3
   2236   2229   2227   2246     1  0.0000000  1.0460000  1
   2236   2229   2227   2246     1  0.0000000  0.0000000  3
   2237   2226   2227   2246     1  0.0000000  0.6508444  3
   2240   2237   2226   2244     1  0.0000000  1.0460000  1
   2240   2237   2226   2244     1  0.0000000  0.0000000  3
   2240   2237   2242   2243     1  0.0000000  0.6973333  3
   2241   2237   2226   2244     1  0.0000000  1.0460000  1
   2241   2237   2226   2244     1  0.0000000  0.0000000  3
   2241   2237   2242   2243     1  0.0000000  0.6973333  3
   2244   2226   2227   2246     1  0.0000000  1.0460000  1
   2244   2226   2227   2246     1  0.0000000  0.0000000  3
   2244   2231   2235   2245     1  0.0000000  0.6973333  3
   2246   2227   2247   2248     1  0.0000000  0.6973333  3
   2250   2251   2253   2257     1  0.0000000  0.6508444  3
   2250   2251   2271   2272     1  0.0000000  1.0460000  1
   2250   2251   2271   2272     1  0.0000000  0.6694400  3
   2250   2261   2266   2267     1  0.0000000  1.0460000  1
   2250   2261   2266   2267     1  0.0000000  0.6694400  3
   2250   2268   2255   2258     1  0.0000000  1.6038667  3
   2251   2250   2261   2264     1  0.0000000  0.6508444  3
   2251   2250   2261   2265     1  0.0000000  0.6508444  3
   2251   2253   2254   2256     1  0.0000000  0.6508444  3
   2251   2253   2260   2262     1  0.0000000  1.0460000  1
   2251   2253   2260   2262     1  0.0000000  0.6694400  3
   2252   2250   2251   2253     1  0.0000000  0.6508444  3
   2252   2250   2251   2271     1  0.0000000  1.0460000  1
   2252   2250   2251   2271     1  0.0000000  0.0000000  3
   2252   2250   2251   2270     1  0.0000000  0.6508444  3
   2252   2250   2261   2266     1  0.0000000  1.0460000  1
   2252   2250   2261   2266     1  0.0000000  0.0000000  3
   2252   2250   2261   2264     1  0.0000000  0.6508444  3
   2252   2250   2261   2265     1  0.0000000  0.6508444  3
   2252   2250   2268   2255     1  0.0000000  1.6038667  3
   2253   2251   2271   2272     1  0.0000000  1.0460000  1
   2253   2251   2271   2272     1  0.0000000  0.6694400  3
   2253   2254   2255   2258     1  0.0000000  0.6508444  3
   2253   2254   2273   2263     1  0.0000000  1.2552000  3
   2254   2253   2251   2270     1  0.0000000  0.6508444  3
   2254   2253   2260   2262     1  0.0000000  1.0460000  1
   2254   2253   2260   2262     1  0.0000000  0.6694400  3
   2254   2255   2259   2269     1  0.0000000  1.0460000  1
   2254   2255   2259   2269     1  0.0000000  0.6694400  3
   2255   2254   2253   2257     1  0.0000000  0.6508444  3
   2255   2254   2273   2263     1  0.0000000  1.2552000  3
   2256   2254   2253   2260     1  0.0000000  1.0460000  1
   2256   2254   2253   2260     1  0.0000000  0.0000000  3
   2256   2254   2253   2257     1  0.0000000  0.6508444  3
   2256   2254   2255   2259     1  0.0000000  1.0460000  1
   2256   2254   2255   2259     1  0.0000000  0.0000000  3
   2256   2254   2255   2268     1  0.0000000  1.0460000  1
   2256   2254   2255   2268     1  0.0000000  0.0000000  3
   2256   2254   2255   2258     1  0.0000000  0.6508444  3
   2256   2254   2273   2263     1  0.0000000  1.2552000  3
   2257   2253   2251   2271     1  0.0000000  1.0460000  1
   2257   2253   2251   2271     1  0.0000000  0.0000000  3
   2257   2253   2251   2270     1  0.0000000  0.6508444  3
   2257   2253   2254   2273     1  0.0000000  0.6508444  3
   2257   2253   2260   2262     1  0.0000000  0.6973333  3
   2258   2255   2254   2273     1  0.0000000  0.6508444  3
   2258   2255   2259   2269     1  0.0000000  0.6973333  3
   2260   2253   2251   2270     1  0.0000000  1.0460000  1
   2260   2253   2251   2270     1  0.0000000  0.0000000  3
   2261   2250   2251   2270     1  0.0000000  0.6508444  3
   2264   2261   2250   2268     1  0.0000000  1.0460000  1
   2264   2261   2250   2268     1  0.0000000  0.0000000  3
   2264   2261   2266   2267     1  0.0000000  0.6973333  3
   2265   2261   2250   2268     1  0.0000000  1.0460000  1
   2265   2261   2250   2268     1  0.0000000  0.0000000  3
   2265   2261   2266   2267     1  0.0000000  0.6973333  3
   2268   2250   2251   2270     1  0.0000000  1.0460000  1
   2268   2250   2251   2270     1  0.0000000  0.0000000  3
   2268   2255   2259   2269     1  0.0000000  0.6973333  3
   2270   2251   2271   2272     1  0.0000000  0.6973333  3
   2274   2276   2278   2280     1  0.0000000  0.6508444  3
   2274   2276   2278   2281     1  0.0000000  0.6508444  3
   2275   2274   2276   2278     1  0.0000000  0.0000000  2
   2275   2274   2276   2277     1  0.0000000  0.0000000  2
   2275   2274   2276   2279     1  0.0000000  0.0000000  2
   2277   2276   2278   2282     1  0.0000000  0.6508444  3
   2277   2276   2278   2280     1  0.0000000  0.6508444  3
   2277   2276   2278   2281     1  0.0000000  0.6508444  3
   2278   2282   2283   2292     1  0.0000000  1.2552000  3
   2278   2282   2283   2293     1  0.0000000  1.2552000  3
   2278   2282   2284   2285     1  0.0000000  1.2552000  3
   2278   2282   2284   2287     1  0.0000000  1.2552000  3
   2279   2276   2278   2282     1  0.0000000  0.6508444  3
   2279   2276   2278   2280     1  0.0000000  0.6508444  3
   2279   2276   2278   2281     1  0.0000000  0.6508444  3
   2280   2278   2282   2283     1  0.0000000  1.2552000  3
   2280   2278   2282   2284     1  0.0000000  1.2552000  3
   2281   2278   2282   2283     1  0.0000000  1.2552000  3
   2281   2278   2282   2284     1  0.0000000  1.2552000  3
   2282   2283   2294   2295     1  0.0000000  0.6508444  3
   2282   2283   2294   2296     1  0.0000000  0.6508444  3
   2282   2284   2286   2288     1  0.0000000  0.6508444  3
   2282   2284   2286   2289     1  0.0000000  0.6508444  3
   2283   2282   2284   2285     1  0.0000000  1.2552000  3
   2283   2282   2284   2287     1  0.0000000  1.2552000  3
   2284   2282   2283   2292     1  0.0000000  1.2552000  3
   2284   2282   2283   2293     1  0.0000000  1.2552000  3
   2285   2284   2286   2290     1  0.0000000  0.6508444  3
   2285   2284   2286   2288     1  0.0000000  0.6508444  3
   2285   2284   2286   2289     1  0.0000000  0.6508444  3
   2286   2290   2322   2312     1  180.0000771  6.0668000  2
   2286   2290   2322   2312     1  180.0000771  1.4644000  4
   2287   2284   2286   2290     1  0.0000000  0.6508444  3
   2287   2284   2286   2288     1  0.0000000  0.6508444  3
   2287   2284   2286   2289     1  0.0000000  0.6508444  3
   2288   2286   2290   2291     1  0.0000000  3.3472000  1
   2288   2286   2290   2291     1  0.0000000  0.0000000  2
   2288   2286   2290   2291     1  180.0000771  0.3347200  3
   2288   2286   2290   2322     1  180.0000771  0.0000000  2
   2289   2286   2290   2291     1  0.0000000  3.3472000  1
   2289   2286   2290   2291     1  0.0000000  0.0000000  2
   2289   2286   2290   2291     1  180.0000771  0.3347200  3
   2289   2286   2290   2322     1  180.0000771  0.0000000  2
   2290   2322   2303   2305     1  0.0000000  1.2552000  3
   2291   2290   2322   2312     1  180.0000771  6.0668000  2
   2291   2290   2322   2312     1  180.0000771  1.4644000  4
   2292   2283   2294   2297     1  0.0000000  0.6508444  3
   2292   2283   2294   2295     1  0.0000000  0.6508444  3
   2292   2283   2294   2296     1  0.0000000  0.6508444  3
   2293   2283   2294   2297     1  0.0000000  0.6508444  3
   2293   2283   2294   2295     1  0.0000000  0.6508444  3
   2293   2283   2294   2296     1  0.0000000  0.6508444  3
   2294   2297   2346   2336     1  180.0000771  6.0668000  2
   2294   2297   2346   2336     1  180.0000771  1.4644000  4
   2295   2294   2297   2298     1  0.0000000  3.3472000  1
   2295   2294   2297   2298     1  0.0000000  0.0000000  2
   2295   2294   2297   2298     1  180.0000771  0.3347200  3
   2295   2294   2297   2346     1  180.0000771  0.0000000  2
   2296   2294   2297   2298     1  0.0000000  3.3472000  1
   2296   2294   2297   2298     1  0.0000000  0.0000000  2
   2296   2294   2297   2298     1  180.0000771  0.3347200  3
   2296   2294   2297   2346     1  180.0000771  0.0000000  2
   2297   2346   2327   2329     1  0.0000000  1.2552000  3
   2298   2297   2346   2336     1  180.0000771  6.0668000  2
   2298   2297   2346   2336     1  180.0000771  1.4644000  4
   2299   2300   2302   2306     1  0.0000000  0.6508444  3
   2299   2300   2320   2321     1  0.0000000  1.0460000  1
   2299   2300   2320   2321     1  0.0000000  0.6694400  3
   2299   2310   2315   2316     1  0.0000000  1.0460000  1
   2299   2310   2315   2316     1  0.0000000  0.6694400  3
   2299   2317   2304   2307     1  0.0000000  1.6038667  3
   2300   2302   2303   2305     1  0.0000000  0.6508444  3
   2300   2302   2309   2311     1  0.0000000  1.0460000  1
   2300   2302   2309   2311     1  0.0000000  0.6694400  3
   2300   2299   2310   2313     1  0.0000000  0.6508444  3
   2300   2299   2310   2314     1  0.0000000  0.6508444  3
   2301   2299   2300   2302     1  0.0000000  0.6508444  3
   2301   2299   2300   2320     1  0.0000000  1.0460000  1
   2301   2299   2300   2320     1  0.0000000  0.0000000  3
   2301   2299   2300   2319     1  0.0000000  0.6508444  3
   2301   2299   2310   2315     1  0.0000000  1.0460000  1
   2301   2299   2310   2315     1  0.0000000  0.0000000  3
   2301   2299   2310   2313     1  0.0000000  0.6508444  3
   2301   2299   2310   2314     1  0.0000000  0.6508444  3
   2301   2299   2317   2304     1  0.0000000  1.6038667  3
   2302   2303   2304   2307     1  0.0000000  0.6508444  3
   2302   2303   2322   2312     1  0.0000000  1.2552000  3
   2302   2300   2320   2321     1  0.0000000  1.0460000  1
   2302   2300   2320   2321     1  0.0000000  0.6694400  3
   2303   2304   2308   2318     1  0.0000000  1.0460000  1
   2303   2304   2308   2318     1  0.0000000  0.6694400  3
   2303   2302   2309   2311     1  0.0000000  1.0460000  1
   2303   2302   2309   2311     1  0.0000000  0.6694400  3
   2303   2302   2300   2319     1  0.0000000  0.6508444  3
   2304   2303   2322   2312     1  0.0000000  1.2552000  3
   2304   2303   2302   2306     1  0.0000000  0.6508444  3
   2305   2303   2304   2308     1  0.0000000  1.0460000  1
   2305   2303   2304   2308     1  0.0000000  0.0000000  3
   2305   2303   2304   2317     1  0.0000000  1.0460000  1
   2305   2303   2304   2317     1  0.0000000  0.0000000  3
   2305   2303   2304   2307     1  0.0000000  0.6508444  3
   2305   2303   2322   2312     1  0.0000000  1.2552000  3
   2305   2303   2302   2309     1  0.0000000  1.0460000  1
   2305   2303   2302   2309     1  0.0000000  0.0000000  3
   2305   2303   2302   2306     1  0.0000000  0.6508444  3
   2306   2302   2303   2322     1  0.0000000  0.6508444  3
   2306   2302   2309   2311     1  0.0000000  0.6973333  3
   2306   2302   2300   2320     1  0.0000000  1.0460000  1
   2306   2302   2300   2320     1  0.0000000  0.0000000  3
   2306   2302   2300   2319     1  0.0000000  0.6508444  3
   2307   2304   2308   2318     1  0.0000000  0.6973333  3
   2307   2304   2303   2322     1  0.0000000  0.6508444  3
   2309   2302   2300   2319     1  0.0000000  1.0460000  1
   2309   2302   2300   2319     1  0.0000000  0.0000000  3
   2310   2299   2300   2319     1  0.0000000  0.6508444  3
   2313   2310   2315   2316     1  0.0000000  0.6973333  3
   2313   2310   2299   2317     1  0.0000000  1.0460000  1
   2313   2310   2299   2317     1  0.0000000  0.0000000  3
   2314   2310   2315   2316     1  0.0000000  0.6973333  3
   2314   2310   2299   2317     1  0.0000000  1.0460000  1
   2314   2310   2299   2317     1  0.0000000  0.0000000  3
   2317   2304   2308   2318     1  0.0000000  0.6973333  3
   2317   2299   2300   2319     1  0.0000000  1.0460000  1
   2317   2299   2300   2319     1  0.0000000  0.0000000  3
   2319   2300   2320   2321     1  0.0000000  0.6973333  3
   2323   2324   2326   2330     1  0.0000000  0.6508444  3
   2323   2324   2344   2345     1  0.0000000  1.0460000  1
   2323   2324   2344   2345     1  0.0000000  0.6694400  3
   2323   2334   2339   2340     1  0.0000000  1.0460000  1
   2323   2334   2339   2340     1  0.0000000  0.6694400  3
   2323   2341   2328   2331     1  0.0000000  1.6038667  3
   2324   2326   2327   2329     1  0.0000000  0.6508444  3
   2324   2326   2333   2335     1  0.0000000  1.0460000  1
   2324   2326   2333   2335     1  0.0000000  0.6694400  3
   2324   2323   2334   2337     1  0.0000000  0.6508444  3
   2324   2323   2334   2338     1  0.0000000  0.6508444  3
   2325   2323   2324   2326     1  0.0000000  0.6508444  3
   2325   2323   2324   2344     1  0.0000000  1.0460000  1
   2325   2323   2324   2344     1  0.0000000  0.0000000  3
   2325   2323   2324   2343     1  0.0000000  0.6508444  3
   2325   2323   2334   2339     1  0.0000000  1.0460000  1
   2325   2323   2334   2339     1  0.0000000  0.0000000  3
   2325   2323   2334   2337     1  0.0000000  0.6508444  3
   2325   2323   2334   2338     1  0.0000000  0.6508444  3
   2325   2323   2341   2328     1  0.0000000  1.6038667  3
   2326   2327   2328   2331     1  0.0000000  0.6508444  3
   2326   2327   2346   2336     1  0.0000000  1.2552000  3
   2326   2324   2344   2345     1  0.0000000  1.0460000  1
   2326   2324   2344   2345     1  0.0000000  0.6694400  3
   2327   2328   2332   2342     1  0.0000000  1.0460000  1
   2327   2328   2332   2342     1  0.0000000  0.6694400  3
   2327   2326   2333   2335     1  0.0000000  1.0460000  1
   2327   2326   2333   2335     1  0.0000000  0.6694400  3
   2327   2326   2324   2343     1  0.0000000  0.6508444  3
   2328   2327   2346   2336     1  0.0000000  1.2552000  3
   2328   2327   2326   2330     1  0.0000000  0.6508444  3
   2329   2327   2328   2332     1  0.0000000  1.0460000  1
   2329   2327   2328   2332     1  0.0000000  0.0000000  3
   2329   2327   2328   2341     1  0.0000000  1.0460000  1
   2329   2327   2328   2341     1  0.0000000  0.0000000  3
   2329   2327   2328   2331     1  0.0000000  0.6508444  3
   2329   2327   2346   2336     1  0.0000000  1.2552000  3
   2329   2327   2326   2333     1  0.0000000  1.0460000  1
   2329   2327   2326   2333     1  0.0000000  0.0000000  3
   2329   2327   2326   2330     1  0.0000000  0.6508444  3
   2330   2326   2327   2346     1  0.0000000  0.6508444  3
   2330   2326   2333   2335     1  0.0000000  0.6973333  3
   2330   2326   2324   2344     1  0.0000000  1.0460000  1
   2330   2326   2324   2344     1  0.0000000  0.0000000  3
   2330   2326   2324   2343     1  0.0000000  0.6508444  3
   2331   2328   2332   2342     1  0.0000000  0.6973333  3
   2331   2328   2327   2346     1  0.0000000  0.6508444  3
   2333   2326   2324   2343     1  0.0000000  1.0460000  1
   2333   2326   2324   2343     1  0.0000000  0.0000000  3
   2334   2323   2324   2343     1  0.0000000  0.6508444  3
   2337   2334   2339   2340     1  0.0000000  0.6973333  3
   2337   2334   2323   2341     1  0.0000000  1.0460000  1
   2337   2334   2323   2341     1  0.0000000  0.0000000  3
   2338   2334   2339   2340     1  0.0000000  0.6973333  3
   2338   2334   2323   2341     1  0.0000000  1.0460000  1
   2338   2334   2323   2341     1  0.0000000  0.0000000  3
   2341   2328   2332   2342     1  0.0000000  0.6973333  3
   2341   2323   2324   2343     1  0.0000000  1.0460000  1
   2341   2323   2324   2343     1  0.0000000  0.0000000  3
   2343   2324   2344   2345     1  0.0000000  0.6973333  3
   2347   2349   2351   2353     1  0.0000000  0.6508444  3
   2347   2349   2351   2354     1  0.0000000  0.6508444  3
   2348   2347   2349   2351     1  0.0000000  0.0000000  2
   2348   2347   2349   2350     1  0.0000000  0.0000000  2
   2348   2347   2349   2352     1  0.0000000  0.0000000  2
   2350   2349   2351   2355     1  0.0000000  0.6508444  3
   2350   2349   2351   2353     1  0.0000000  0.6508444  3
   2350   2349   2351   2354     1  0.0000000  0.6508444  3
   2351   2355   2356   2365     1  0.0000000  1.2552000  3
   2351   2355   2356   2366     1  0.0000000  1.2552000  3
   2351   2355   2357   2358     1  0.0000000  1.2552000  3
   2351   2355   2357   2360     1  0.0000000  1.2552000  3
   2352   2349   2351   2355     1  0.0000000  0.6508444  3
   2352   2349   2351   2353     1  0.0000000  0.6508444  3
   2352   2349   2351   2354     1  0.0000000  0.6508444  3
   2353   2351   2355   2356     1  0.0000000  1.2552000  3
   2353   2351   2355   2357     1  0.0000000  1.2552000  3
   2354   2351   2355   2356     1  0.0000000  1.2552000  3
   2354   2351   2355   2357     1  0.0000000  1.2552000  3
   2355   2356   2367   2368     1  0.0000000  0.6508444  3
   2355   2356   2367   2369     1  0.0000000  0.6508444  3
   2355   2357   2359   2361     1  0.0000000  0.6508444  3
   2355   2357   2359   2362     1  0.0000000  0.6508444  3
   2356   2355   2357   2358     1  0.0000000  1.2552000  3
   2356   2355   2357   2360     1  0.0000000  1.2552000  3
   2357   2355   2356   2365     1  0.0000000  1.2552000  3
   2357   2355   2356   2366     1  0.0000000  1.2552000  3
   2358   2357   2359   2363     1  0.0000000  0.6508444  3
   2358   2357   2359   2361     1  0.0000000  0.6508444  3
   2358   2357   2359   2362     1  0.0000000  0.6508444  3
   2359   2363   2395   2385     1  180.0000771  6.0668000  2
   2359   2363   2395   2385     1  180.0000771  1.4644000  4
   2360   2357   2359   2363     1  0.0000000  0.6508444  3
   2360   2357   2359   2361     1  0.0000000  0.6508444  3
   2360   2357   2359   2362     1  0.0000000  0.6508444  3
   2361   2359   2363   2364     1  0.0000000  3.3472000  1
   2361   2359   2363   2364     1  0.0000000  0.0000000  2
   2361   2359   2363   2364     1  180.0000771  0.3347200  3
   2361   2359   2363   2395     1  180.0000771  0.0000000  2
   2362   2359   2363   2364     1  0.0000000  3.3472000  1
   2362   2359   2363   2364     1  0.0000000  0.0000000  2
   2362   2359   2363   2364     1  180.0000771  0.3347200  3
   2362   2359   2363   2395     1  180.0000771  0.0000000  2
   2363   2395   2376   2378     1  0.0000000  1.2552000  3
   2364   2363   2395   2385     1  180.0000771  6.0668000  2
   2364   2363   2395   2385     1  180.0000771  1.4644000  4
   2365   2356   2367   2370     1  0.0000000  0.6508444  3
   2365   2356   2367   2368     1  0.0000000  0.6508444  3
   2365   2356   2367   2369     1  0.0000000  0.6508444  3
   2366   2356   2367   2370     1  0.0000000  0.6508444  3
   2366   2356   2367   2368     1  0.0000000  0.6508444  3
   2366   2356   2367   2369     1  0.0000000  0.6508444  3
   2367   2370   2419   2409     1  180.0000771  6.0668000  2
   2367   2370   2419   2409     1  180.0000771  1.4644000  4
   2368   2367   2370   2371     1  0.0000000  3.3472000  1
   2368   2367   2370   2371     1  0.0000000  0.0000000  2
   2368   2367   2370   2371     1  180.0000771  0.3347200  3
   2368   2367   2370   2419     1  180.0000771  0.0000000  2
   2369   2367   2370   2371     1  0.0000000  3.3472000  1
   2369   2367   2370   2371     1  0.0000000  0.0000000  2
   2369   2367   2370   2371     1  180.0000771  0.3347200  3
   2369   2367   2370   2419     1  180.0000771  0.0000000  2
   2370   2419   2400   2402     1  0.0000000  1.2552000  3
   2371   2370   2419   2409     1  180.0000771  6.0668000  2
   2371   2370   2419   2409     1  180.0000771  1.4644000  4
   2372   2373   2375   2379     1  0.0000000  0.6508444  3
   2372   2373   2393   2394     1  0.0000000  1.0460000  1
   2372   2373   2393   2394     1  0.0000000  0.6694400  3
   2372   2383   2388   2389     1  0.0000000  1.0460000  1
   2372   2383   2388   2389     1  0.0000000  0.6694400  3
   2372   2390   2377   2380     1  0.0000000  1.6038667  3
   2373   2372   2383   2386     1  0.0000000  0.6508444  3
   2373   2372   2383   2387     1  0.0000000  0.6508444  3
   2373   2375   2376   2378     1  0.0000000  0.6508444  3
   2373   2375   2382   2384     1  0.0000000  1.0460000  1
   2373   2375   2382   2384     1  0.0000000  0.6694400  3
   2374   2372   2373   2375     1  0.0000000  0.6508444  3
   2374   2372   2373   2393     1  0.0000000  1.0460000  1
   2374   2372   2373   2393     1  0.0000000  0.0000000  3
   2374   2372   2373   2392     1  0.0000000  0.6508444  3
   2374   2372   2383   2388     1  0.0000000  1.0460000  1
   2374   2372   2383   2388     1  0.0000000  0.0000000  3
   2374   2372   2383   2386     1  0.0000000  0.6508444  3
   2374   2372   2383   2387     1  0.0000000  0.6508444  3
   2374   2372   2390   2377     1  0.0000000  1.6038667  3
   2375   2373   2393   2394     1  0.0000000  1.0460000  1
   2375   2373   2393   2394     1  0.0000000  0.6694400  3
   2375   2376   2377   2380     1  0.0000000  0.6508444  3
   2375   2376   2395   2385     1  0.0000000  1.2552000  3
   2376   2375   2373   2392     1  0.0000000  0.6508444  3
   2376   2375   2382   2384     1  0.0000000  1.0460000  1
   2376   2375   2382   2384     1  0.0000000  0.6694400  3
   2376   2377   2381   2391     1  0.0000000  1.0460000  1
   2376   2377   2381   2391     1  0.0000000  0.6694400  3
   2377   2376   2375   2379     1  0.0000000  0.6508444  3
   2377   2376   2395   2385     1  0.0000000  1.2552000  3
   2378   2376   2375   2382     1  0.0000000  1.0460000  1
   2378   2376   2375   2382     1  0.0000000  0.0000000  3
   2378   2376   2375   2379     1  0.0000000  0.6508444  3
   2378   2376   2377   2381     1  0.0000000  1.0460000  1
   2378   2376   2377   2381     1  0.0000000  0.0000000  3
   2378   2376   2377   2390     1  0.0000000  1.0460000  1
   2378   2376   2377   2390     1  0.0000000  0.0000000  3
   2378   2376   2377   2380     1  0.0000000  0.6508444  3
   2378   2376   2395   2385     1  0.0000000  1.2552000  3
   2379   2375   2373   2393     1  0.0000000  1.0460000  1
   2379   2375   2373   2393     1  0.0000000  0.0000000  3
   2379   2375   2373   2392     1  0.0000000  0.6508444  3
   2379   2375   2376   2395     1  0.0000000  0.6508444  3
   2379   2375   2382   2384     1  0.0000000  0.6973333  3
   2380   2377   2376   2395     1  0.0000000  0.6508444  3
   2380   2377   2381   2391     1  0.0000000  0.6973333  3
   2382   2375   2373   2392     1  0.0000000  1.0460000  1
   2382   2375   2373   2392     1  0.0000000  0.0000000  3
   2383   2372   2373   2392     1  0.0000000  0.6508444  3
   2386   2383   2372   2390     1  0.0000000  1.0460000  1
   2386   2383   2372   2390     1  0.0000000  0.0000000  3
   2386   2383   2388   2389     1  0.0000000  0.6973333  3
   2387   2383   2372   2390     1  0.0000000  1.0460000  1
   2387   2383   2372   2390     1  0.0000000  0.0000000  3
   2387   2383   2388   2389     1  0.0000000  0.6973333  3
   2390   2372   2373   2392     1  0.0000000  1.0460000  1
   2390   2372   2373   2392     1  0.0000000  0.0000000  3
   2390   2377   2381   2391     1  0.0000000  0.6973333  3
   2392   2373   2393   2394     1  0.0000000  0.6973333  3
   2396   2397   2399   2403     1  0.0000000  0.6508444  3
   2396   2397   2417   2418     1  0.0000000  1.0460000  1
   2396   2397   2417   2418     1  0.0000000  0.6694400  3
   2396   2407   2412   2413     1  0.0000000  1.0460000  1
   2396   2407   2412   2413     1  0.0000000  0.6694400  3
   2396   2414   2401   2404     1  0.0000000  1.6038667  3
   2397   2396   2407   2410     1  0.0000000  0.6508444  3
   2397   2396   2407   2411     1  0.0000000  0.6508444  3
   2397   2399   2400   2402     1  0.0000000  0.6508444  3
   2397   2399   2406   2408     1  0.0000000  1.0460000  1
   2397   2399   2406   2408     1  0.0000000  0.6694400  3
   2398   2396   2397   2399     1  0.0000000  0.6508444  3
   2398   2396   2397   2417     1  0.0000000  1.0460000  1
   2398   2396   2397   2417     1  0.0000000  0.0000000  3
   2398   2396   2397   2416     1  0.0000000  0.6508444  3
   2398   2396   2407   2412     1  0.0000000  1.0460000  1
   2398   2396   2407   2412     1  0.0000000  0.0000000  3
   2398   2396   2407   2410     1  0.0000000  0.6508444  3
   2398   2396   2407   2411     1  0.0000000  0.6508444  3
   2398   2396   2414   2401     1  0.0000000  1.6038667  3
   2399   2397   2417   2418     1  0.0000000  1.0460000  1
   2399   2397   2417   2418     1  0.0000000  0.6694400  3
   2399   2400   2401   2404     1  0.0000000  0.6508444  3
   2399   2400   2419   2409     1  0.0000000  1.2552000  3
   2400   2399   2397   2416     1  0.0000000  0.6508444  3
   2400   2399   2406   2408     1  0.0000000  1.0460000  1
   2400   2399   2406   2408     1  0.0000000  0.6694400  3
   2400   2401   2405   2415     1  0.0000000  1.0460000  1
   2400   2401   2405   2415     1  0.0000000  0.6694400  3
   2401   2400   2399   2403     1  0.0000000  0.6508444  3
   2401   2400   2419   2409     1  0.0000000  1.2552000  3
   2402   2400   2399   2406     1  0.0000000  1.0460000  1
   2402   2400   2399   2406     1  0.0000000  0.0000000  3
   2402   2400   2399   2403     1  0.0000000  0.6508444  3
   2402   2400   2401   2405     1  0.0000000  1.0460000  1
   2402   2400   2401   2405     1  0.0000000  0.0000000  3
   2402   2400   2401   2414     1  0.0000000  1.0460000  1
   2402   2400   2401   2414     1  0.0000000  0.0000000  3
   2402   2400   2401   2404     1  0.0000000  0.6508444  3
   2402   2400   2419   2409     1  0.0000000  1.2552000  3
   2403   2399   2397   2417     1  0.0000000  1.0460000  1
   2403   2399   2397   2417     1  0.0000000  0.0000000  3
   2403   2399   2397   2416     1  0.0000000  0.6508444  3
   2403   2399   2400   2419     1  0.0000000  0.6508444  3
   2403   2399   2406   2408     1  0.0000000  0.6973333  3
   2404   2401   2400   2419     1  0.0000000  0.6508444  3
   2404   2401   2405   2415     1  0.0000000  0.6973333  3
   2406   2399   2397   2416     1  0.0000000  1.0460000  1
   2406   2399   2397   2416     1  0.0000000  0.0000000  3
   2407   2396   2397   2416     1  0.0000000  0.6508444  3
   2410   2407   2396   2414     1  0.0000000  1.0460000  1
   2410   2407   2396   2414     1  0.0000000  0.0000000  3
   2410   2407   2412   2413     1  0.0000000  0.6973333  3
   2411   2407   2396   2414     1  0.0000000  1.0460000  1
   2411   2407   2396   2414     1  0.0000000  0.0000000  3
   2411   2407   2412   2413     1  0.0000000  0.6973333  3
   2414   2396   2397   2416     1  0.0000000  1.0460000  1
   2414   2396   2397   2416     1  0.0000000  0.0000000  3
   2414   2401   2405   2415     1  0.0000000  0.6973333  3
   2416   2397   2417   2418     1  0.0000000  0.6973333  3
   2420   2422   2424   2426     1  0.0000000  0.6508444  3
   2420   2422   2424   2427     1  0.0000000  0.6508444  3
   2421   2420   2422   2424     1  0.0000000  0.0000000  2
   2421   2420   2422   2423     1  0.0000000  0.0000000  2
   2421   2420   2422   2425     1  0.0000000  0.0000000  2
   2423   2422   2424   2428     1  0.0000000  0.6508444  3
   2423   2422   2424   2426     1  0.0000000  0.6508444  3
   2423   2422   2424   2427     1  0.0000000  0.6508444  3
   2424   2428   2429   2438     1  0.0000000  1.2552000  3
   2424   2428   2429   2439     1  0.0000000  1.2552000  3
   2424   2428   2430   2431     1  0.0000000  1.2552000  3
   2424   2428   2430   2433     1  0.0000000  1.2552000  3
   2425   2422   2424   2428     1  0.0000000  0.6508444  3
   2425   2422   2424   2426     1  0.0000000  0.6508444  3
   2425   2422   2424   2427     1  0.0000000  0.6508444  3
   2426   2424   2428   2429     1  0.0000000  1.2552000  3
   2426   2424   2428   2430     1  0.0000000  1.2552000  3
   2427   2424   2428   2429     1  0.0000000  1.2552000  3
   2427   2424   2428   2430     1  0.0000000  1.2552000  3
   2428   2429   2440   2441     1  0.0000000  0.6508444  3
   2428   2429   2440   2442     1  0.0000000  0.6508444  3
   2428   2430   2432   2434     1  0.0000000  0.6508444  3
   2428   2430   2432   2435     1  0.0000000  0.6508444  3
   2429   2428   2430   2431     1  0.0000000  1.2552000  3
   2429   2428   2430   2433     1  0.0000000  1.2552000  3
   2430   2428   2429   2438     1  0.0000000  1.2552000  3
   2430   2428   2429   2439     1  0.0000000  1.2552000  3
   2431   2430   2432   2436     1  0.0000000  0.6508444  3
   2431   2430   2432   2434     1  0.0000000  0.6508444  3
   2431   2430   2432   2435     1  0.0000000  0.6508444  3
   2432   2436   2468   2458     1  180.0000771  6.0668000  2
   2432   2436   2468   2458     1  180.0000771  1.4644000  4
   2433   2430   2432   2436     1  0.0000000  0.6508444  3
   2433   2430   2432   2434     1  0.0000000  0.6508444  3
   2433   2430   2432   2435     1  0.0000000  0.6508444  3
   2434   2432   2436   2437     1  0.0000000  3.3472000  1
   2434   2432   2436   2437     1  0.0000000  0.0000000  2
   2434   2432   2436   2437     1  180.0000771  0.3347200  3
   2434   2432   2436   2468     1  180.0000771  0.0000000  2
   2435   2432   2436   2437     1  0.0000000  3.3472000  1
   2435   2432   2436   2437     1  0.0000000  0.0000000  2
   2435   2432   2436   2437     1  180.0000771  0.3347200  3
   2435   2432   2436   2468     1  180.0000771  0.0000000  2
   2436   2468   2449   2451     1  0.0000000  1.2552000  3
   2437   2436   2468   2458     1  180.0000771  6.0668000  2
   2437   2436   2468   2458     1  180.0000771  1.4644000  4
   2438   2429   2440   2443     1  0.0000000  0.6508444  3
   2438   2429   2440   2441     1  0.0000000  0.6508444  3
   2438   2429   2440   2442     1  0.0000000  0.6508444  3
   2439   2429   2440   2443     1  0.0000000  0.6508444  3
   2439   2429   2440   2441     1  0.0000000  0.6508444  3
   2439   2429   2440   2442     1  0.0000000  0.6508444  3
   2440   2443   2492   2482     1  180.0000771  6.0668000  2
   2440   2443   2492   2482     1  180.0000771  1.4644000  4
   2441   2440   2443   2444     1  0.0000000  3.3472000  1
   2441   2440   2443   2444     1  0.0000000  0.0000000  2
   2441   2440   2443   2444     1  180.0000771  0.3347200  3
   2441   2440   2443   2492     1  180.0000771  0.0000000  2
   2442   2440   2443   2444     1  0.0000000  3.3472000  1
   2442   2440   2443   2444     1  0.0000000  0.0000000  2
   2442   2440   2443   2444     1  180.0000771  0.3347200  3
   2442   2440   2443   2492     1  180.0000771  0.0000000  2
   2443   2492   2473   2475     1  0.0000000  1.2552000  3
   2444   2443   2492   2482     1  180.0000771  6.0668000  2
   2444   2443   2492   2482     1  180.0000771  1.4644000  4
   2445   2446   2448   2452     1  0.0000000  0.6508444  3
   2445   2446   2466   2467     1  0.0000000  1.0460000  1
   2445   2446   2466   2467     1  0.0000000  0.6694400  3
   2445   2456   2461   2462     1  0.0000000  1.0460000  1
   2445   2456   2461   2462     1  0.0000000  0.6694400  3
   2445   2463   2450   2453     1  0.0000000  1.6038667  3
   2446   2448   2449   2451     1  0.0000000  0.6508444  3
   2446   2448   2455   2457     1  0.0000000  1.0460000  1
   2446   2448   2455   2457     1  0.0000000  0.6694400  3
   2446   2445   2456   2459     1  0.0000000  0.6508444  3
   2446   2445   2456   2460     1  0.0000000  0.6508444  3
   2447   2445   2446   2448     1  0.0000000  0.6508444  3
   2447   2445   2446   2466     1  0.0000000  1.0460000  1
   2447   2445   2446   2466     1  0.0000000  0.0000000  3
   2447   2445   2446   2465     1  0.0000000  0.6508444  3
   2447   2445   2456   2461     1  0.0000000  1.0460000  1
   2447   2445   2456   2461     1  0.0000000  0.0000000  3
   2447   2445   2456   2459     1  0.0000000  0.6508444  3
   2447   2445   2456   2460     1  0.0000000  0.6508444  3
   2447   2445   2463   2450     1  0.0000000  1.6038667  3
   2448   2449   2450   2453     1  0.0000000  0.6508444  3
   2448   2449   2468   2458     1  0.0000000  1.2552000  3
   2448   2446   2466   2467     1  0.0000000  1.0460000  1
   2448   2446   2466   2467     1  0.0000000  0.6694400  3
   2449   2450   2454   2464     1  0.0000000  1.0460000  1
   2449   2450   2454   2464     1  0.0000000  0.6694400  3
   2449   2448   2455   2457     1  0.0000000  1.0460000  1
   2449   2448   2455   2457     1  0.0000000  0.6694400  3
   2449   2448   2446   2465     1  0.0000000  0.6508444  3
   2450   2449   2468   2458     1  0.0000000  1.2552000  3
   2450   2449   2448   2452     1  0.0000000  0.6508444  3
   2451   2449   2450   2454     1  0.0000000  1.0460000  1
   2451   2449   2450   2454     1  0.0000000  0.0000000  3
   2451   2449   2450   2463     1  0.0000000  1.0460000  1
   2451   2449   2450   2463     1  0.0000000  0.0000000  3
   2451   2449   2450   2453     1  0.0000000  0.6508444  3
   2451   2449   2468   2458     1  0.0000000  1.2552000  3
   2451   2449   2448   2455     1  0.0000000  1.0460000  1
   2451   2449   2448   2455     1  0.0000000  0.0000000  3
   2451   2449   2448   2452     1  0.0000000  0.6508444  3
   2452   2448   2449   2468     1  0.0000000  0.6508444  3
   2452   2448   2455   2457     1  0.0000000  0.6973333  3
   2452   2448   2446   2466     1  0.0000000  1.0460000  1
   2452   2448   2446   2466     1  0.0000000  0.0000000  3
   2452   2448   2446   2465     1  0.0000000  0.6508444  3
   2453   2450   2454   2464     1  0.0000000  0.6973333  3
   2453   2450   2449   2468     1  0.0000000  0.6508444  3
   2455   2448   2446   2465     1  0.0000000  1.0460000  1
   2455   2448   2446   2465     1  0.0000000  0.0000000  3
   2456   2445   2446   2465     1  0.0000000  0.6508444  3
   2459   2456   2461   2462     1  0.0000000  0.6973333  3
   2459   2456   2445   2463     1  0.0000000  1.0460000  1
   2459   2456   2445   2463     1  0.0000000  0.0000000  3
   2460   2456   2461   2462     1  0.0000000  0.6973333  3
   2460   2456   2445   2463     1  0.0000000  1.0460000  1
   2460   2456   2445   2463     1  0.0000000  0.0000000  3
   2463   2450   2454   2464     1  0.0000000  0.6973333  3
   2463   2445   2446   2465     1  0.0000000  1.0460000  1
   2463   2445   2446   2465     1  0.0000000  0.0000000  3
   2465   2446   2466   2467     1  0.0000000  0.6973333  3
   2469   2470   2472   2476     1  0.0000000  0.6508444  3
   2469   2470   2490   2491     1  0.0000000  1.0460000  1
   2469   2470   2490   2491     1  0.0000000  0.6694400  3
   2469   2480   2485   2486     1  0.0000000  1.0460000  1
   2469   2480   2485   2486     1  0.0000000  0.6694400  3
   2469   2487   2474   2477     1  0.0000000  1.6038667  3
   2470   2472   2473   2475     1  0.0000000  0.6508444  3
   2470   2472   2479   2481     1  0.0000000  1.0460000  1
   2470   2472   2479   2481     1  0.0000000  0.6694400  3
   2470   2469   2480   2483     1  0.0000000  0.6508444  3
   2470   2469   2480   2484     1  0.0000000  0.6508444  3
   2471   2469   2470   2472     1  0.0000000  0.6508444  3
   2471   2469   2470   2490     1  0.0000000  1.0460000  1
   2471   2469   2470   2490     1  0.0000000  0.0000000  3
   2471   2469   2470   2489     1  0.0000000  0.6508444  3
   2471   2469   2480   2485     1  0.0000000  1.0460000  1
   2471   2469   2480   2485     1  0.0000000  0.0000000  3
   2471   2469   2480   2483     1  0.0000000  0.6508444  3
   2471   2469   2480   2484     1  0.0000000  0.6508444  3
   2471   2469   2487   2474     1  0.0000000  1.6038667  3
   2472   2473   2474   2477     1  0.0000000  0.6508444  3
   2472   2473   2492   2482     1  0.0000000  1.2552000  3
   2472   2470   2490   2491     1  0.0000000  1.0460000  1
   2472   2470   2490   2491     1  0.0000000  0.6694400  3
   2473   2474   2478   2488     1  0.0000000  1.0460000  1
   2473   2474   2478   2488     1  0.0000000  0.6694400  3
   2473   2472   2479   2481     1  0.0000000  1.0460000  1
   2473   2472   2479   2481     1  0.0000000  0.6694400  3
   2473   2472   2470   2489     1  0.0000000  0.6508444  3
   2474   2473   2492   2482     1  0.0000000  1.2552000  3
   2474   2473   2472   2476     1  0.0000000  0.6508444  3
   2475   2473   2474   2478     1  0.0000000  1.0460000  1
   2475   2473   2474   2478     1  0.0000000  0.0000000  3
   2475   2473   2474   2487     1  0.0000000  1.0460000  1
   2475   2473   2474   2487     1  0.0000000  0.0000000  3
   2475   2473   2474   2477     1  0.0000000  0.6508444  3
   2475   2473   2492   2482     1  0.0000000  1.2552000  3
   2475   2473   2472   2479     1  0.0000000  1.0460000  1
   2475   2473   2472   2479     1  0.0000000  0.0000000  3
   2475   2473   2472   2476     1  0.0000000  0.6508444  3
   2476   2472   2473   2492     1  0.0000000  0.6508444  3
   2476   2472   2479   2481     1  0.0000000  0.6973333  3
   2476   2472   2470   2490     1  0.0000000  1.0460000  1
   2476   2472   2470   2490     1  0.0000000  0.0000000  3
   2476   2472   2470   2489     1  0.0000000  0.6508444  3
   2477   2474   2478   2488     1  0.0000000  0.6973333  3
   2477   2474   2473   2492     1  0.0000000  0.6508444  3
   2479   2472   2470   2489     1  0.0000000  1.0460000  1
   2479   2472   2470   2489     1  0.0000000  0.0000000  3
   2480   2469   2470   2489     1  0.0000000  0.6508444  3
   2483   2480   2485   2486     1  0.0000000  0.6973333  3
   2483   2480   2469   2487     1  0.0000000  1.0460000  1
   2483   2480   2469   2487     1  0.0000000  0.0000000  3
   2484   2480   2485   2486     1  0.0000000  0.6973333  3
   2484   2480   2469   2487     1  0.0000000  1.0460000  1
   2484   2480   2469   2487     1  0.0000000  0.0000000  3
   2487   2474   2478   2488     1  0.0000000  0.6973333  3
   2487   2469   2470   2489     1  0.0000000  1.0460000  1
   2487   2469   2470   2489     1  0.0000000  0.0000000  3
   2489   2470   2490   2491     1  0.0000000  0.6973333  3
   2493   2495   2497   2499     1  0.0000000  0.6508444  3
   2493   2495   2497   2500     1  0.0000000  0.6508444  3
   2494   2493   2495   2497     1  0.0000000  0.0000000  2
   2494   2493   2495   2496     1  0.0000000  0.0000000  2
   2494   2493   2495   2498     1  0.0000000  0.0000000  2
   2496   2495   2497   2501     1  0.0000000  0.6508444  3
   2496   2495   2497   2499     1  0.0000000  0.6508444  3
   2496   2495   2497   2500     1  0.0000000  0.6508444  3
   2497   2501   2502   2511     1  0.0000000  1.2552000  3
   2497   2501   2502   2512     1  0.0000000  1.2552000  3
   2497   2501   2503   2504     1  0.0000000  1.2552000  3
   2497   2501   2503   2506     1  0.0000000  1.2552000  3
   2498   2495   2497   2501     1  0.0000000  0.6508444  3
   2498   2495   2497   2499     1  0.0000000  0.6508444  3
   2498   2495   2497   2500     1  0.0000000  0.6508444  3
   2499   2497   2501   2502     1  0.0000000  1.2552000  3
   2499   2497   2501   2503     1  0.0000000  1.2552000  3
   2500   2497   2501   2502     1  0.0000000  1.2552000  3
   2500   2497   2501   2503     1  0.0000000  1.2552000  3
   2501   2502   2513   2514     1  0.0000000  0.6508444  3
   2501   2502   2513   2515     1  0.0000000  0.6508444  3
   2501   2503   2505   2507     1  0.0000000  0.6508444  3
   2501   2503   2505   2508     1  0.0000000  0.6508444  3
   2502   2501   2503   2504     1  0.0000000  1.2552000  3
   2502   2501   2503   2506     1  0.0000000  1.2552000  3
   2503   2501   2502   2511     1  0.0000000  1.2552000  3
   2503   2501   2502   2512     1  0.0000000  1.2552000  3
   2504   2503   2505   2509     1  0.0000000  0.6508444  3
   2504   2503   2505   2507     1  0.0000000  0.6508444  3
   2504   2503   2505   2508     1  0.0000000  0.6508444  3
   2505   2509   2541   2531     1  180.0000771  6.0668000  2
   2505   2509   2541   2531     1  180.0000771  1.4644000  4
   2506   2503   2505   2509     1  0.0000000  0.6508444  3
   2506   2503   2505   2507     1  0.0000000  0.6508444  3
   2506   2503   2505   2508     1  0.0000000  0.6508444  3
   2507   2505   2509   2510     1  0.0000000  3.3472000  1
   2507   2505   2509   2510     1  0.0000000  0.0000000  2
   2507   2505   2509   2510     1  180.0000771  0.3347200  3
   2507   2505   2509   2541     1  180.0000771  0.0000000  2
   2508   2505   2509   2510     1  0.0000000  3.3472000  1
   2508   2505   2509   2510     1  0.0000000  0.0000000  2
   2508   2505   2509   2510     1  180.0000771  0.3347200  3
   2508   2505   2509   2541     1  180.0000771  0.0000000  2
   2509   2541   2522   2524     1  0.0000000  1.2552000  3
   2510   2509   2541   2531     1  180.0000771  6.0668000  2
   2510   2509   2541   2531     1  180.0000771  1.4644000  4
   2511   2502   2513   2516     1  0.0000000  0.6508444  3
   2511   2502   2513   2514     1  0.0000000  0.6508444  3
   2511   2502   2513   2515     1  0.0000000  0.6508444  3
   2512   2502   2513   2516     1  0.0000000  0.6508444  3
   2512   2502   2513   2514     1  0.0000000  0.6508444  3
   2512   2502   2513   2515     1  0.0000000  0.6508444  3
   2513   2516   2565   2555     1  180.0000771  6.0668000  2
   2513   2516   2565   2555     1  180.0000771  1.4644000  4
   2514   2513   2516   2517     1  0.0000000  3.3472000  1
   2514   2513   2516   2517     1  0.0000000  0.0000000  2
   2514   2513   2516   2517     1  180.0000771  0.3347200  3
   2514   2513   2516   2565     1  180.0000771  0.0000000  2
   2515   2513   2516   2517     1  0.0000000  3.3472000  1
   2515   2513   2516   2517     1  0.0000000  0.0000000  2
   2515   2513   2516   2517     1  180.0000771  0.3347200  3
   2515   2513   2516   2565     1  180.0000771  0.0000000  2
   2516   2565   2546   2548     1  0.0000000  1.2552000  3
   2517   2516   2565   2555     1  180.0000771  6.0668000  2
   2517   2516   2565   2555     1  180.0000771  1.4644000  4
   2518   2519   2521   2525     1  0.0000000  0.6508444  3
   2518   2519   2539   2540     1  0.0000000  1.0460000  1
   2518   2519   2539   2540     1  0.0000000  0.6694400  3
   2518   2529   2534   2535     1  0.0000000  1.0460000  1
   2518   2529   2534   2535     1  0.0000000  0.6694400  3
   2518   2536   2523   2526     1  0.0000000  1.6038667  3
   2519   2518   2529   2532     1  0.0000000  0.6508444  3
   2519   2518   2529   2533     1  0.0000000  0.6508444  3
   2519   2521   2522   2524     1  0.0000000  0.6508444  3
   2519   2521   2528   2530     1  0.0000000  1.0460000  1
   2519   2521   2528   2530     1  0.0000000  0.6694400  3
   2520   2518   2519   2521     1  0.0000000  0.6508444  3
   2520   2518   2519   2539     1  0.0000000  1.0460000  1
   2520   2518   2519   2539     1  0.0000000  0.0000000  3
   2520   2518   2519   2538     1  0.0000000  0.6508444  3
   2520   2518   2529   2534     1  0.0000000  1.0460000  1
   2520   2518   2529   2534     1  0.0000000  0.0000000  3
   2520   2518   2529   2532     1  0.0000000  0.6508444  3
   2520   2518   2529   2533     1  0.0000000  0.6508444  3
   2520   2518   2536   2523     1  0.0000000  1.6038667  3
   2521   2519   2539   2540     1  0.0000000  1.0460000  1
   2521   2519   2539   2540     1  0.0000000  0.6694400  3
   2521   2522   2523   2526     1  0.0000000  0.6508444  3
   2521   2522   2541   2531     1  0.0000000  1.2552000  3
   2522   2521   2519   2538     1  0.0000000  0.6508444  3
   2522   2521   2528   2530     1  0.0000000  1.0460000  1
   2522   2521   2528   2530     1  0.0000000  0.6694400  3
   2522   2523   2527   2537     1  0.0000000  1.0460000  1
   2522   2523   2527   2537     1  0.0000000  0.6694400  3
   2523   2522   2521   2525     1  0.0000000  0.6508444  3
   2523   2522   2541   2531     1  0.0000000  1.2552000  3
   2524   2522   2521   2528     1  0.0000000  1.0460000  1
   2524   2522   2521   2528     1  0.0000000  0.0000000  3
   2524   2522   2521   2525     1  0.0000000  0.6508444  3
   2524   2522   2523   2527     1  0.0000000  1.0460000  1
   2524   2522   2523   2527     1  0.0000000  0.0000000  3
   2524   2522   2523   2536     1  0.0000000  1.0460000  1
   2524   2522   2523   2536     1  0.0000000  0.0000000  3
   2524   2522   2523   2526     1  0.0000000  0.6508444  3
   2524   2522   2541   2531     1  0.0000000  1.2552000  3
   2525   2521   2519   2539     1  0.0000000  1.0460000  1
   2525   2521   2519   2539     1  0.0000000  0.0000000  3
   2525   2521   2519   2538     1  0.0000000  0.6508444  3
   2525   2521   2522   2541     1  0.0000000  0.6508444  3
   2525   2521   2528   2530     1  0.0000000  0.6973333  3
   2526   2523   2522   2541     1  0.0000000  0.6508444  3
   2526   2523   2527   2537     1  0.0000000  0.6973333  3
   2528   2521   2519   2538     1  0.0000000  1.0460000  1
   2528   2521   2519   2538     1  0.0000000  0.0000000  3
   2529   2518   2519   2538     1  0.0000000  0.6508444  3
   2532   2529   2518   2536     1  0.0000000  1.0460000  1
   2532   2529   2518   2536     1  0.0000000  0.0000000  3
   2532   2529   2534   2535     1  0.0000000  0.6973333  3
   2533   2529   2518   2536     1  0.0000000  1.0460000  1
   2533   2529   2518   2536     1  0.0000000  0.0000000  3
   2533   2529   2534   2535     1  0.0000000  0.6973333  3
   2536   2518   2519   2538     1  0.0000000  1.0460000  1
   2536   2518   2519   2538     1  0.0000000  0.0000000  3
   2536   2523   2527   2537     1  0.0000000  0.6973333  3
   2538   2519   2539   2540     1  0.0000000  0.6973333  3
   2542   2543   2545   2549     1  0.0000000  0.6508444  3
   2542   2543   2563   2564     1  0.0000000  1.0460000  1
   2542   2543   2563   2564     1  0.0000000  0.6694400  3
   2542   2553   2558   2559     1  0.0000000  1.0460000  1
   2542   2553   2558   2559     1  0.0000000  0.6694400  3
   2542   2560   2547   2550     1  0.0000000  1.6038667  3
   2543   2542   2553   2556     1  0.0000000  0.6508444  3
   2543   2542   2553   2557     1  0.0000000  0.6508444  3
   2543   2545   2546   2548     1  0.0000000  0.6508444  3
   2543   2545   2552   2554     1  0.0000000  1.0460000  1
   2543   2545   2552   2554     1  0.0000000  0.6694400  3
   2544   2542   2543   2545     1  0.0000000  0.6508444  3
   2544   2542   2543   2563     1  0.0000000  1.0460000  1
   2544   2542   2543   2563     1  0.0000000  0.0000000  3
   2544   2542   2543   2562     1  0.0000000  0.6508444  3
   2544   2542   2553   2558     1  0.0000000  1.0460000  1
   2544   2542   2553   2558     1  0.0000000  0.0000000  3
   2544   2542   2553   2556     1  0.0000000  0.6508444  3
   2544   2542   2553   2557     1  0.0000000  0.6508444  3
   2544   2542   2560   2547     1  0.0000000  1.6038667  3
   2545   2543   2563   2564     1  0.0000000  1.0460000  1
   2545   2543   2563   2564     1  0.0000000  0.6694400  3
   2545   2546   2547   2550     1  0.0000000  0.6508444  3
   2545   2546   2565   2555     1  0.0000000  1.2552000  3
   2546   2545   2543   2562     1  0.0000000  0.6508444  3
   2546   2545   2552   2554     1  0.0000000  1.0460000  1
   2546   2545   2552   2554     1  0.0000000  0.6694400  3
   2546   2547   2551   2561     1  0.0000000  1.0460000  1
   2546   2547   2551   2561     1  0.0000000  0.6694400  3
   2547   2546   2545   2549     1  0.0000000  0.6508444  3
   2547   2546   2565   2555     1  0.0000000  1.2552000  3
   2548   2546   2545   2552     1  0.0000000  1.0460000  1
   2548   2546   2545   2552     1  0.0000000  0.0000000  3
   2548   2546   2545   2549     1  0.0000000  0.6508444  3
   2548   2546   2547   2551     1  0.0000000  1.0460000  1
   2548   2546   2547   2551     1  0.0000000  0.0000000  3
   2548   2546   2547   2560     1  0.0000000  1.0460000  1
   2548   2546   2547   2560     1  0.0000000  0.0000000  3
   2548   2546   2547   2550     1  0.0000000  0.6508444  3
   2548   2546   2565   2555     1  0.0000000  1.2552000  3
   2549   2545   2543   2563     1  0.0000000  1.0460000  1
   2549   2545   2543   2563     1  0.0000000  0.0000000  3
   2549   2545   2543   2562     1  0.0000000  0.6508444  3
   2549   2545   2546   2565     1  0.0000000  0.6508444  3
   2549   2545   2552   2554     1  0.0000000  0.6973333  3
   2550   2547   2546   2565     1  0.0000000  0.6508444  3
   2550   2547   2551   2561     1  0.0000000  0.6973333  3
   2552   2545   2543   2562     1  0.0000000  1.0460000  1
   2552   2545   2543   2562     1  0.0000000  0.0000000  3
   2553   2542   2543   2562     1  0.0000000  0.6508444  3
   2556   2553   2542   2560     1  0.0000000  1.0460000  1
   2556   2553   2542   2560     1  0.0000000  0.0000000  3
   2556   2553   2558   2559     1  0.0000000  0.6973333  3
   2557   2553   2542   2560     1  0.0000000  1.0460000  1
   2557   2553   2542   2560     1  0.0000000  0.0000000  3
   2557   2553   2558   2559     1  0.0000000  0.6973333  3
   2560   2542   2543   2562     1  0.0000000  1.0460000  1
   2560   2542   2543   2562     1  0.0000000  0.0000000  3
   2560   2547   2551   2561     1  0.0000000  0.6973333  3
   2562   2543   2563   2564     1  0.0000000  0.6973333  3
   2566   2568   2570   2572     1  0.0000000  0.6508444  3
   2566   2568   2570   2573     1  0.0000000  0.6508444  3
   2567   2566   2568   2570     1  0.0000000  0.0000000  2
   2567   2566   2568   2569     1  0.0000000  0.0000000  2
   2567   2566   2568   2571     1  0.0000000  0.0000000  2
   2569   2568   2570   2574     1  0.0000000  0.6508444  3
   2569   2568   2570   2572     1  0.0000000  0.6508444  3
   2569   2568   2570   2573     1  0.0000000  0.6508444  3
   2570   2574   2575   2584     1  0.0000000  1.2552000  3
   2570   2574   2575   2585     1  0.0000000  1.2552000  3
   2570   2574   2576   2577     1  0.0000000  1.2552000  3
   2570   2574   2576   2579     1  0.0000000  1.2552000  3
   2571   2568   2570   2574     1  0.0000000  0.6508444  3
   2571   2568   2570   2572     1  0.0000000  0.6508444  3
   2571   2568   2570   2573     1  0.0000000  0.6508444  3
   2572   2570   2574   2575     1  0.0000000  1.2552000  3
   2572   2570   2574   2576     1  0.0000000  1.2552000  3
   2573   2570   2574   2575     1  0.0000000  1.2552000  3
   2573   2570   2574   2576     1  0.0000000  1.2552000  3
   2574   2575   2586   2587     1  0.0000000  0.6508444  3
   2574   2575   2586   2588     1  0.0000000  0.6508444  3
   2574   2576   2578   2580     1  0.0000000  0.6508444  3
   2574   2576   2578   2581     1  0.0000000  0.6508444  3
   2575   2574   2576   2577     1  0.0000000  1.2552000  3
   2575   2574   2576   2579     1  0.0000000  1.2552000  3
   2576   2574   2575   2584     1  0.0000000  1.2552000  3
   2576   2574   2575   2585     1  0.0000000  1.2552000  3
   2577   2576   2578   2582     1  0.0000000  0.6508444  3
   2577   2576   2578   2580     1  0.0000000  0.6508444  3
   2577   2576   2578   2581     1  0.0000000  0.6508444  3
   2578   2582   2614   2604     1  180.0000771  6.0668000  2
   2578   2582   2614   2604     1  180.0000771  1.4644000  4
   2579   2576   2578   2582     1  0.0000000  0.6508444  3
   2579   2576   2578   2580     1  0.0000000  0.6508444  3
   2579   2576   2578   2581     1  0.0000000  0.6508444  3
   2580   2578   2582   2583     1  0.0000000  3.3472000  1
   2580   2578   2582   2583     1  0.0000000  0.0000000  2
   2580   2578   2582   2583     1  180.0000771  0.3347200  3
   2580   2578   2582   2614     1  180.0000771  0.0000000  2
   2581   2578   2582   2583     1  0.0000000  3.3472000  1
   2581   2578   2582   2583     1  0.0000000  0.0000000  2
   2581   2578   2582   2583     1  180.0000771  0.3347200  3
   2581   2578   2582   2614     1  180.0000771  0.0000000  2
   2582   2614   2595   2597     1  0.0000000  1.2552000  3
   2583   2582   2614   2604     1  180.0000771  6.0668000  2
   2583   2582   2614   2604     1  180.0000771  1.4644000  4
   2584   2575   2586   2589     1  0.0000000  0.6508444  3
   2584   2575   2586   2587     1  0.0000000  0.6508444  3
   2584   2575   2586   2588     1  0.0000000  0.6508444  3
   2585   2575   2586   2589     1  0.0000000  0.6508444  3
   2585   2575   2586   2587     1  0.0000000  0.6508444  3
   2585   2575   2586   2588     1  0.0000000  0.6508444  3
   2586   2589   2638   2628     1  180.0000771  6.0668000  2
   2586   2589   2638   2628     1  180.0000771  1.4644000  4
   2587   2586   2589   2590     1  0.0000000  3.3472000  1
   2587   2586   2589   2590     1  0.0000000  0.0000000  2
   2587   2586   2589   2590     1  180.0000771  0.3347200  3
   2587   2586   2589   2638     1  180.0000771  0.0000000  2
   2588   2586   2589   2590     1  0.0000000  3.3472000  1
   2588   2586   2589   2590     1  0.0000000  0.0000000  2
   2588   2586   2589   2590     1  180.0000771  0.3347200  3
   2588   2586   2589   2638     1  180.0000771  0.0000000  2
   2589   2638   2619   2621     1  0.0000000  1.2552000  3
   2590   2589   2638   2628     1  180.0000771  6.0668000  2
   2590   2589   2638   2628     1  180.0000771  1.4644000  4
   2591   2592   2594   2598     1  0.0000000  0.6508444  3
   2591   2592   2612   2613     1  0.0000000  1.0460000  1
   2591   2592   2612   2613     1  0.0000000  0.6694400  3
   2591   2602   2607   2608     1  0.0000000  1.0460000  1
   2591   2602   2607   2608     1  0.0000000  0.6694400  3
   2591   2609   2596   2599     1  0.0000000  1.6038667  3
   2592   2594   2595   2597     1  0.0000000  0.6508444  3
   2592   2594   2601   2603     1  0.0000000  1.0460000  1
   2592   2594   2601   2603     1  0.0000000  0.6694400  3
   2592   2591   2602   2605     1  0.0000000  0.6508444  3
   2592   2591   2602   2606     1  0.0000000  0.6508444  3
   2593   2591   2592   2594     1  0.0000000  0.6508444  3
   2593   2591   2592   2612     1  0.0000000  1.0460000  1
   2593   2591   2592   2612     1  0.0000000  0.0000000  3
   2593   2591   2592   2611     1  0.0000000  0.6508444  3
   2593   2591   2602   2607     1  0.0000000  1.0460000  1
   2593   2591   2602   2607     1  0.0000000  0.0000000  3
   2593   2591   2602   2605     1  0.0000000  0.6508444  3
   2593   2591   2602   2606     1  0.0000000  0.6508444  3
   2593   2591   2609   2596     1  0.0000000  1.6038667  3
   2594   2595   2596   2599     1  0.0000000  0.6508444  3
   2594   2595   2614   2604     1  0.0000000  1.2552000  3
   2594   2592   2612   2613     1  0.0000000  1.0460000  1
   2594   2592   2612   2613     1  0.0000000  0.6694400  3
   2595   2596   2600   2610     1  0.0000000  1.0460000  1
   2595   2596   2600   2610     1  0.0000000  0.6694400  3
   2595   2594   2601   2603     1  0.0000000  1.0460000  1
   2595   2594   2601   2603     1  0.0000000  0.6694400  3
   2595   2594   2592   2611     1  0.0000000  0.6508444  3
   2596   2595   2614   2604     1  0.0000000  1.2552000  3
   2596   2595   2594   2598     1  0.0000000  0.6508444  3
   2597   2595   2596   2600     1  0.0000000  1.0460000  1
   2597   2595   2596   2600     1  0.0000000  0.0000000  3
   2597   2595   2596   2609     1  0.0000000  1.0460000  1
   2597   2595   2596   2609     1  0.0000000  0.0000000  3
   2597   2595   2596   2599     1  0.0000000  0.6508444  3
   2597   2595   2614   2604     1  0.0000000  1.2552000  3
   2597   2595   2594   2601     1  0.0000000  1.0460000  1
   2597   2595   2594   2601     1  0.0000000  0.0000000  3
   2597   2595   2594   2598     1  0.0000000  0.6508444  3
   2598   2594   2595   2614     1  0.0000000  0.6508444  3
   2598   2594   2601   2603     1  0.0000000  0.6973333  3
   2598   2594   2592   2612     1  0.0000000  1.0460000  1
   2598   2594   2592   2612     1  0.0000000  0.0000000  3
   2598   2594   2592   2611     1  0.0000000  0.6508444  3
   2599   2596   2600   2610     1  0.0000000  0.6973333  3
   2599   2596   2595   2614     1  0.0000000  0.6508444  3
   2601   2594   2592   2611     1  0.0000000  1.0460000  1
   2601   2594   2592   2611     1  0.0000000  0.0000000  3
   2602   2591   2592   2611     1  0.0000000  0.6508444  3
   2605   2602   2607   2608     1  0.0000000  0.6973333  3
   2605   2602   2591   2609     1  0.0000000  1.0460000  1
   2605   2602   2591   2609     1  0.0000000  0.0000000  3
   2606   2602   2607   2608     1  0.0000000  0.6973333  3
   2606   2602   2591   2609     1  0.0000000  1.0460000  1
   2606   2602   2591   2609     1  0.0000000  0.0000000  3
   2609   2596   2600   2610     1  0.0000000  0.6973333  3
   2609   2591   2592   2611     1  0.0000000  1.0460000  1
   2609   2591   2592   2611     1  0.0000000  0.0000000  3
   2611   2592   2612   2613     1  0.0000000  0.6973333  3
   2615   2616   2618   2622     1  0.0000000  0.6508444  3
   2615   2616   2636   2637     1  0.0000000  1.0460000  1
   2615   2616   2636   2637     1  0.0000000  0.6694400  3
   2615   2626   2631   2632     1  0.0000000  1.0460000  1
   2615   2626   2631   2632     1  0.0000000  0.6694400  3
   2615   2633   2620   2623     1  0.0000000  1.6038667  3
   2616   2618   2619   2621     1  0.0000000  0.6508444  3
   2616   2618   2625   2627     1  0.0000000  1.0460000  1
   2616   2618   2625   2627     1  0.0000000  0.6694400  3
   2616   2615   2626   2629     1  0.0000000  0.6508444  3
   2616   2615   2626   2630     1  0.0000000  0.6508444  3
   2617   2615   2616   2618     1  0.0000000  0.6508444  3
   2617   2615   2616   2636     1  0.0000000  1.0460000  1
   2617   2615   2616   2636     1  0.0000000  0.0000000  3
   2617   2615   2616   2635     1  0.0000000  0.6508444  3
   2617   2615   2626   2631     1  0.0000000  1.0460000  1
   2617   2615   2626   2631     1  0.0000000  0.0000000  3
   2617   2615   2626   2629     1  0.0000000  0.6508444  3
   2617   2615   2626   2630     1  0.0000000  0.6508444  3
   2617   2615   2633   2620     1  0.0000000  1.6038667  3
   2618   2619   2620   2623     1  0.0000000  0.6508444  3
   2618   2619   2638   2628     1  0.0000000  1.2552000  3
   2618   2616   2636   2637     1  0.0000000  1.0460000  1
   2618   2616   2636   2637     1  0.0000000  0.6694400  3
   2619   2620   2624   2634     1  0.0000000  1.0460000  1
   2619   2620   2624   2634     1  0.0000000  0.6694400  3
   2619   2618   2625   2627     1  0.0000000  1.0460000  1
   2619   2618   2625   2627     1  0.0000000  0.6694400  3
   2619   2618   2616   2635     1  0.0000000  0.6508444  3
   2620   2619   2638   2628     1  0.0000000  1.2552000  3
   2620   2619   2618   2622     1  0.0000000  0.6508444  3
   2621   2619   2620   2624     1  0.0000000  1.0460000  1
   2621   2619   2620   2624     1  0.0000000  0.0000000  3
   2621   2619   2620   2633     1  0.0000000  1.0460000  1
   2621   2619   2620   2633     1  0.0000000  0.0000000  3
   2621   2619   2620   2623     1  0.0000000  0.6508444  3
   2621   2619   2638   2628     1  0.0000000  1.2552000  3
   2621   2619   2618   2625     1  0.0000000  1.0460000  1
   2621   2619   2618   2625     1  0.0000000  0.0000000  3
   2621   2619   2618   2622     1  0.0000000  0.6508444  3
   2622   2618   2619   2638     1  0.0000000  0.6508444  3
   2622   2618   2625   2627     1  0.0000000  0.6973333  3
   2622   2618   2616   2636     1  0.0000000  1.0460000  1
   2622   2618   2616   2636     1  0.0000000  0.0000000  3
   2622   2618   2616   2635     1  0.0000000  0.6508444  3
   2623   2620   2624   2634     1  0.0000000  0.6973333  3
   2623   2620   2619   2638     1  0.0000000  0.6508444  3
   2625   2618   2616   2635     1  0.0000000  1.0460000  1
   2625   2618   2616   2635     1  0.0000000  0.0000000  3
   2626   2615   2616   2635     1  0.0000000  0.6508444  3
   2629   2626   2631   2632     1  0.0000000  0.6973333  3
   2629   2626   2615   2633     1  0.0000000  1.0460000  1
   2629   2626   2615   2633     1  0.0000000  0.0000000  3
   2630   2626   2631   2632     1  0.0000000  0.6973333  3
   2630   2626   2615   2633     1  0.0000000  1.0460000  1
   2630   2626   2615   2633     1  0.0000000  0.0000000  3
   2633   2620   2624   2634     1  0.0000000  0.6973333  3
   2633   2615   2616   2635     1  0.0000000  1.0460000  1
   2633   2615   2616   2635     1  0.0000000  0.0000000  3
   2635   2616   2636   2637     1  0.0000000  0.6973333  3
   2639   2641   2643   2645     1  0.0000000  0.6508444  3
   2639   2641   2643   2646     1  0.0000000  0.6508444  3
   2640   2639   2641   2643     1  0.0000000  0.0000000  2
   2640   2639   2641   2642     1  0.0000000  0.0000000  2
   2640   2639   2641   2644     1  0.0000000  0.0000000  2
   2642   2641   2643   2647     1  0.0000000  0.6508444  3
   2642   2641   2643   2645     1  0.0000000  0.6508444  3
   2642   2641   2643   2646     1  0.0000000  0.6508444  3
   2643   2647   2648   2657     1  0.0000000  1.2552000  3
   2643   2647   2648   2658     1  0.0000000  1.2552000  3
   2643   2647   2649   2650     1  0.0000000  1.2552000  3
   2643   2647   2649   2652     1  0.0000000  1.2552000  3
   2644   2641   2643   2647     1  0.0000000  0.6508444  3
   2644   2641   2643   2645     1  0.0000000  0.6508444  3
   2644   2641   2643   2646     1  0.0000000  0.6508444  3
   2645   2643   2647   2648     1  0.0000000  1.2552000  3
   2645   2643   2647   2649     1  0.0000000  1.2552000  3
   2646   2643   2647   2648     1  0.0000000  1.2552000  3
   2646   2643   2647   2649     1  0.0000000  1.2552000  3
   2647   2648   2659   2660     1  0.0000000  0.6508444  3
   2647   2648   2659   2661     1  0.0000000  0.6508444  3
   2647   2649   2651   2653     1  0.0000000  0.6508444  3
   2647   2649   2651   2654     1  0.0000000  0.6508444  3
   2648   2647   2649   2650     1  0.0000000  1.2552000  3
   2648   2647   2649   2652     1  0.0000000  1.2552000  3
   2649   2647   2648   2657     1  0.0000000  1.2552000  3
   2649   2647   2648   2658     1  0.0000000  1.2552000  3
   2650   2649   2651   2655     1  0.0000000  0.6508444  3
   2650   2649   2651   2653     1  0.0000000  0.6508444  3
   2650   2649   2651   2654     1  0.0000000  0.6508444  3
   2651   2655   2687   2677     1  180.0000771  6.0668000  2
   2651   2655   2687   2677     1  180.0000771  1.4644000  4
   2652   2649   2651   2655     1  0.0000000  0.6508444  3
   2652   2649   2651   2653     1  0.0000000  0.6508444  3
   2652   2649   2651   2654     1  0.0000000  0.6508444  3
   2653   2651   2655   2656     1  0.0000000  3.3472000  1
   2653   2651   2655   2656     1  0.0000000  0.0000000  2
   2653   2651   2655   2656     1  180.0000771  0.3347200  3
   2653   2651   2655   2687     1  180.0000771  0.0000000  2
   2654   2651   2655   2656     1  0.0000000  3.3472000  1
   2654   2651   2655   2656     1  0.0000000  0.0000000  2
   2654   2651   2655   2656     1  180.0000771  0.3347200  3
   2654   2651   2655   2687     1  180.0000771  0.0000000  2
   2655   2687   2668   2670     1  0.0000000  1.2552000  3
   2656   2655   2687   2677     1  180.0000771  6.0668000  2
   2656   2655   2687   2677     1  180.0000771  1.4644000  4
   2657   2648   2659   2662     1  0.0000000  0.6508444  3
   2657   2648   2659   2660     1  0.0000000  0.6508444  3
   2657   2648   2659   2661     1  0.0000000  0.6508444  3
   2658   2648   2659   2662     1  0.0000000  0.6508444  3
   2658   2648   2659   2660     1  0.0000000  0.6508444  3
   2658   2648   2659   2661     1  0.0000000  0.6508444  3
   2659   2662   2711   2701     1  180.0000771  6.0668000  2
   2659   2662   2711   2701     1  180.0000771  1.4644000  4
   2660   2659   2662   2663     1  0.0000000  3.3472000  1
   2660   2659   2662   2663     1  0.0000000  0.0000000  2
   2660   2659   2662   2663     1  180.0000771  0.3347200  3
   2660   2659   2662   2711     1  180.0000771  0.0000000  2
   2661   2659   2662   2663     1  0.0000000  3.3472000  1
   2661   2659   2662   2663     1  0.0000000  0.0000000  2
   2661   2659   2662   2663     1  180.0000771  0.3347200  3
   2661   2659   2662   2711     1  180.0000771  0.0000000  2
   2662   2711   2692   2694     1  0.0000000  1.2552000  3
   2663   2662   2711   2701     1  180.0000771  6.0668000  2
   2663   2662   2711   2701     1  180.0000771  1.4644000  4
   2664   2665   2667   2671     1  0.0000000  0.6508444  3
   2664   2665   2685   2686     1  0.0000000  1.0460000  1
   2664   2665   2685   2686     1  0.0000000  0.6694400  3
   2664   2675   2680   2681     1  0.0000000  1.0460000  1
   2664   2675   2680   2681     1  0.0000000  0.6694400  3
   2664   2682   2669   2672     1  0.0000000  1.6038667  3
   2665   2664   2675   2678     1  0.0000000  0.6508444  3
   2665   2664   2675   2679     1  0.0000000  0.6508444  3
   2665   2667   2668   2670     1  0.0000000  0.6508444  3
   2665   2667   2674   2676     1  0.0000000  1.0460000  1
   2665   2667   2674   2676     1  0.0000000  0.6694400  3
   2666   2664   2665   2667     1  0.0000000  0.6508444  3
   2666   2664   2665   2685     1  0.0000000  1.0460000  1
   2666   2664   2665   2685     1  0.0000000  0.0000000  3
   2666   2664   2665   2684     1  0.0000000  0.6508444  3
   2666   2664   2675   2680     1  0.0000000  1.0460000  1
   2666   2664   2675   2680     1  0.0000000  0.0000000  3
   2666   2664   2675   2678     1  0.0000000  0.6508444  3
   2666   2664   2675   2679     1  0.0000000  0.6508444  3
   2666   2664   2682   2669     1  0.0000000  1.6038667  3
   2667   2665   2685   2686     1  0.0000000  1.0460000  1
   2667   2665   2685   2686     1  0.0000000  0.6694400  3
   2667   2668   2669   2672     1  0.0000000  0.6508444  3
   2667   2668   2687   2677     1  0.0000000  1.2552000  3
   2668   2667   2665   2684     1  0.0000000  0.6508444  3
   2668   2667   2674   2676     1  0.0000000  1.0460000  1
   2668   2667   2674   2676     1  0.0000000  0.6694400  3
   2668   2669   2673   2683     1  0.0000000  1.0460000  1
   2668   2669   2673   2683     1  0.0000000  0.6694400  3
   2669   2668   2667   2671     1  0.0000000  0.6508444  3
   2669   2668   2687   2677     1  0.0000000  1.2552000  3
   2670   2668   2667   2674     1  0.0000000  1.0460000  1
   2670   2668   2667   2674     1  0.0000000  0.0000000  3
   2670   2668   2667   2671     1  0.0000000  0.6508444  3
   2670   2668   2669   2673     1  0.0000000  1.0460000  1
   2670   2668   2669   2673     1  0.0000000  0.0000000  3
   2670   2668   2669   2682     1  0.0000000  1.0460000  1
   2670   2668   2669   2682     1  0.0000000  0.0000000  3
   2670   2668   2669   2672     1  0.0000000  0.6508444  3
   2670   2668   2687   2677     1  0.0000000  1.2552000  3
   2671   2667   2665   2685     1  0.0000000  1.0460000  1
   2671   2667   2665   2685     1  0.0000000  0.0000000  3
   2671   2667   2665   2684     1  0.0000000  0.6508444  3
   2671   2667   2668   2687     1  0.0000000  0.6508444  3
   2671   2667   2674   2676     1  0.0000000  0.6973333  3
   2672   2669   2668   2687     1  0.0000000  0.6508444  3
   2672   2669   2673   2683     1  0.0000000  0.6973333  3
   2674   2667   2665   2684     1  0.0000000  1.0460000  1
   2674   2667   2665   2684     1  0.0000000  0.0000000  3
   2675   2664   2665   2684     1  0.0000000  0.6508444  3
   2678   2675   2664   2682     1  0.0000000  1.0460000  1
   2678   2675   2664   2682     1  0.0000000  0.0000000  3
   2678   2675   2680   2681     1  0.0000000  0.6973333  3
   2679   2675   2664   2682     1  0.0000000  1.0460000  1
   2679   2675   2664   2682     1  0.0000000  0.0000000  3
   2679   2675   2680   2681     1  0.0000000  0.6973333  3
   2682   2664   2665   2684     1  0.0000000  1.0460000  1
   2682   2664   2665   2684     1  0.0000000  0.0000000  3
   2682   2669   2673   2683     1  0.0000000  0.6973333  3
   2684   2665   2685   2686     1  0.0000000  0.6973333  3
   2688   2689   2691   2695     1  0.0000000  0.6508444  3
   2688   2689   2709   2710     1  0.0000000  1.0460000  1
   2688   2689   2709   2710     1  0.0000000  0.6694400  3
   2688   2699   2704   2705     1  0.0000000  1.0460000  1
   2688   2699   2704   2705     1  0.0000000  0.6694400  3
   2688   2706   2693   2696     1  0.0000000  1.6038667  3
   2689   2688   2699   2702     1  0.0000000  0.6508444  3
   2689   2688   2699   2703     1  0.0000000  0.6508444  3
   2689   2691   2692   2694     1  0.0000000  0.6508444  3
   2689   2691   2698   2700     1  0.0000000  1.0460000  1
   2689   2691   2698   2700     1  0.0000000  0.6694400  3
   2690   2688   2689   2691     1  0.0000000  0.6508444  3
   2690   2688   2689   2709     1  0.0000000  1.0460000  1
   2690   2688   2689   2709     1  0.0000000  0.0000000  3
   2690   2688   2689   2708     1  0.0000000  0.6508444  3
   2690   2688   2699   2704     1  0.0000000  1.0460000  1
   2690   2688   2699   2704     1  0.0000000  0.0000000  3
   2690   2688   2699   2702     1  0.0000000  0.6508444  3
   2690   2688   2699   2703     1  0.0000000  0.6508444  3
   2690   2688   2706   2693     1  0.0000000  1.6038667  3
   2691   2689   2709   2710     1  0.0000000  1.0460000  1
   2691   2689   2709   2710     1  0.0000000  0.6694400  3
   2691   2692   2693   2696     1  0.0000000  0.6508444  3
   2691   2692   2711   2701     1  0.0000000  1.2552000  3
   2692   2691   2689   2708     1  0.0000000  0.6508444  3
   2692   2691   2698   2700     1  0.0000000  1.0460000  1
   2692   2691   2698   2700     1  0.0000000  0.6694400  3
   2692   2693   2697   2707     1  0.0000000  1.0460000  1
   2692   2693   2697   2707     1  0.0000000  0.6694400  3
   2693   2692   2691   2695     1  0.0000000  0.6508444  3
   2693   2692   2711   2701     1  0.0000000  1.2552000  3
   2694   2692   2691   2698     1  0.0000000  1.0460000  1
   2694   2692   2691   2698     1  0.0000000  0.0000000  3
   2694   2692   2691   2695     1  0.0000000  0.6508444  3
   2694   2692   2693   2697     1  0.0000000  1.0460000  1
   2694   2692   2693   2697     1  0.0000000  0.0000000  3
   2694   2692   2693   2706     1  0.0000000  1.0460000  1
   2694   2692   2693   2706     1  0.0000000  0.0000000  3
   2694   2692   2693   2696     1  0.0000000  0.6508444  3
   2694   2692   2711   2701     1  0.0000000  1.2552000  3
   2695   2691   2689   2709     1  0.0000000  1.0460000  1
   2695   2691   2689   2709     1  0.0000000  0.0000000  3
   2695   2691   2689   2708     1  0.0000000  0.6508444  3
   2695   2691   2692   2711     1  0.0000000  0.6508444  3
   2695   2691   2698   2700     1  0.0000000  0.6973333  3
   2696   2693   2692   2711     1  0.0000000  0.6508444  3
   2696   2693   2697   2707     1  0.0000000  0.6973333  3
   2698   2691   2689   2708     1  0.0000000  1.0460000  1
   2698   2691   2689   2708     1  0.0000000  0.0000000  3
   2699   2688   2689   2708     1  0.0000000  0.6508444  3
   2702   2699   2688   2706     1  0.0000000  1.0460000  1
   2702   2699   2688   2706     1  0.0000000  0.0000000  3
   2702   2699   2704   2705     1  0.0000000  0.6973333  3
   2703   2699   2688   2706     1  0.0000000  1.0460000  1
   2703   2699   2688   2706     1  0.0000000  0.0000000  3
   2703   2699   2704   2705     1  0.0000000  0.6973333  3
   2706   2688   2689   2708     1  0.0000000  1.0460000  1
   2706   2688   2689   2708     1  0.0000000  0.0000000  3
   2706   2693   2697   2707     1  0.0000000  0.6973333  3
   2708   2689   2709   2710     1  0.0000000  0.6973333  3
   2712   2714   2716   2718     1  0.0000000  0.6508444  3
   2712   2714   2716   2719     1  0.0000000  0.6508444  3
   2713   2712   2714   2716     1  0.0000000  0.0000000  2
   2713   2712   2714   2715     1  0.0000000  0.0000000  2
   2713   2712   2714   2717     1  0.0000000  0.0000000  2
   2715   2714   2716   2720     1  0.0000000  0.6508444  3
   2715   2714   2716   2718     1  0.0000000  0.6508444  3
   2715   2714   2716   2719     1  0.0000000  0.6508444  3
   2716   2720   2721   2730     1  0.0000000  1.2552000  3
   2716   2720   2721   2731     1  0.0000000  1.2552000  3
   2716   2720   2722   2723     1  0.0000000  1.2552000  3
   2716   2720   2722   2725     1  0.0000000  1.2552000  3
   2717   2714   2716   2720     1  0.0000000  0.6508444  3
   2717   2714   2716   2718     1  0.0000000  0.6508444  3
   2717   2714   2716   2719     1  0.0000000  0.6508444  3
   2718   2716   2720   2721     1  0.0000000  1.2552000  3
   2718   2716   2720   2722     1  0.0000000  1.2552000  3
   2719   2716   2720   2721     1  0.0000000  1.2552000  3
   2719   2716   2720   2722     1  0.0000000  1.2552000  3
   2720   2721   2732   2733     1  0.0000000  0.6508444  3
   2720   2721   2732   2734     1  0.0000000  0.6508444  3
   2720   2722   2724   2726     1  0.0000000  0.6508444  3
   2720   2722   2724   2727     1  0.0000000  0.6508444  3
   2721   2720   2722   2723     1  0.0000000  1.2552000  3
   2721   2720   2722   2725     1  0.0000000  1.2552000  3
   2722   2720   2721   2730     1  0.0000000  1.2552000  3
   2722   2720   2721   2731     1  0.0000000  1.2552000  3
   2723   2722   2724   2728     1  0.0000000  0.6508444  3
   2723   2722   2724   2726     1  0.0000000  0.6508444  3
   2723   2722   2724   2727     1  0.0000000  0.6508444  3
   2724   2728   2760   2750     1  180.0000771  6.0668000  2
   2724   2728   2760   2750     1  180.0000771  1.4644000  4
   2725   2722   2724   2728     1  0.0000000  0.6508444  3
   2725   2722   2724   2726     1  0.0000000  0.6508444  3
   2725   2722   2724   2727     1  0.0000000  0.6508444  3
   2726   2724   2728   2729     1  0.0000000  3.3472000  1
   2726   2724   2728   2729     1  0.0000000  0.0000000  2
   2726   2724   2728   2729     1  180.0000771  0.3347200  3
   2726   2724   2728   2760     1  180.0000771  0.0000000  2
   2727   2724   2728   2729     1  0.0000000  3.3472000  1
   2727   2724   2728   2729     1  0.0000000  0.0000000  2
   2727   2724   2728   2729     1  180.0000771  0.3347200  3
   2727   2724   2728   2760     1  180.0000771  0.0000000  2
   2728   2760   2741   2743     1  0.0000000  1.2552000  3
   2729   2728   2760   2750     1  180.0000771  6.0668000  2
   2729   2728   2760   2750     1  180.0000771  1.4644000  4
   2730   2721   2732   2735     1  0.0000000  0.6508444  3
   2730   2721   2732   2733     1  0.0000000  0.6508444  3
   2730   2721   2732   2734     1  0.0000000  0.6508444  3
   2731   2721   2732   2735     1  0.0000000  0.6508444  3
   2731   2721   2732   2733     1  0.0000000  0.6508444  3
   2731   2721   2732   2734     1  0.0000000  0.6508444  3
   2732   2735   2784   2774     1  180.0000771  6.0668000  2
   2732   2735   2784   2774     1  180.0000771  1.4644000  4
   2733   2732   2735   2736     1  0.0000000  3.3472000  1
   2733   2732   2735   2736     1  0.0000000  0.0000000  2
   2733   2732   2735   2736     1  180.0000771  0.3347200  3
   2733   2732   2735   2784     1  180.0000771  0.0000000  2
   2734   2732   2735   2736     1  0.0000000  3.3472000  1
   2734   2732   2735   2736     1  0.0000000  0.0000000  2
   2734   2732   2735   2736     1  180.0000771  0.3347200  3
   2734   2732   2735   2784     1  180.0000771  0.0000000  2
   2735   2784   2765   2767     1  0.0000000  1.2552000  3
   2736   2735   2784   2774     1  180.0000771  6.0668000  2
   2736   2735   2784   2774     1  180.0000771  1.4644000  4
   2737   2738   2740   2744     1  0.0000000  0.6508444  3
   2737   2738   2758   2759     1  0.0000000  1.0460000  1
   2737   2738   2758   2759     1  0.0000000  0.6694400  3
   2737   2748   2753   2754     1  0.0000000  1.0460000  1
   2737   2748   2753   2754     1  0.0000000  0.6694400  3
   2737   2755   2742   2745     1  0.0000000  1.6038667  3
   2738   2740   2741   2743     1  0.0000000  0.6508444  3
   2738   2740   2747   2749     1  0.0000000  1.0460000  1
   2738   2740   2747   2749     1  0.0000000  0.6694400  3
   2738   2737   2748   2751     1  0.0000000  0.6508444  3
   2738   2737   2748   2752     1  0.0000000  0.6508444  3
   2739   2737   2738   2740     1  0.0000000  0.6508444  3
   2739   2737   2738   2758     1  0.0000000  1.0460000  1
   2739   2737   2738   2758     1  0.0000000  0.0000000  3
   2739   2737   2738   2757     1  0.0000000  0.6508444  3
   2739   2737   2748   2753     1  0.0000000  1.0460000  1
   2739   2737   2748   2753     1  0.0000000  0.0000000  3
   2739   2737   2748   2751     1  0.0000000  0.6508444  3
   2739   2737   2748   2752     1  0.0000000  0.6508444  3
   2739   2737   2755   2742     1  0.0000000  1.6038667  3
   2740   2741   2742   2745     1  0.0000000  0.6508444  3
   2740   2741   2760   2750     1  0.0000000  1.2552000  3
   2740   2738   2758   2759     1  0.0000000  1.0460000  1
   2740   2738   2758   2759     1  0.0000000  0.6694400  3
   2741   2742   2746   2756     1  0.0000000  1.0460000  1
   2741   2742   2746   2756     1  0.0000000  0.6694400  3
   2741   2740   2747   2749     1  0.0000000  1.0460000  1
   2741   2740   2747   2749     1  0.0000000  0.6694400  3
   2741   2740   2738   2757     1  0.0000000  0.6508444  3
   2742   2741   2760   2750     1  0.0000000  1.2552000  3
   2742   2741   2740   2744     1  0.0000000  0.6508444  3
   2743   2741   2742   2746     1  0.0000000  1.0460000  1
   2743   2741   2742   2746     1  0.0000000  0.0000000  3
   2743   2741   2742   2755     1  0.0000000  1.0460000  1
   2743   2741   2742   2755     1  0.0000000  0.0000000  3
   2743   2741   2742   2745     1  0.0000000  0.6508444  3
   2743   2741   2760   2750     1  0.0000000  1.2552000  3
   2743   2741   2740   2747     1  0.0000000  1.0460000  1
   2743   2741   2740   2747     1  0.0000000  0.0000000  3
   2743   2741   2740   2744     1  0.0000000  0.6508444  3
   2744   2740   2741   2760     1  0.0000000  0.6508444  3
   2744   2740   2747   2749     1  0.0000000  0.6973333  3
   2744   2740   2738   2758     1  0.0000000  1.0460000  1
   2744   2740   2738   2758     1  0.0000000  0.0000000  3
   2744   2740   2738   2757     1  0.0000000  0.6508444  3
   2745   2742   2746   2756     1  0.0000000  0.6973333  3
   2745   2742   2741   2760     1  0.0000000  0.6508444  3
   2747   2740   2738   2757     1  0.0000000  1.0460000  1
   2747   2740   2738   2757     1  0.0000000  0.0000000  3
   2748   2737   2738   2757     1  0.0000000  0.6508444  3
   2751   2748   2753   2754     1  0.0000000  0.6973333  3
   2751   2748   2737   2755     1  0.0000000  1.0460000  1
   2751   2748   2737   2755     1  0.0000000  0.0000000  3
   2752   2748   2753   2754     1  0.0000000  0.6973333  3
   2752   2748   2737   2755     1  0.0000000  1.0460000  1
   2752   2748   2737   2755     1  0.0000000  0.0000000  3
   2755   2742   2746   2756     1  0.0000000  0.6973333  3
   2755   2737   2738   2757     1  0.0000000  1.0460000  1
   2755   2737   2738   2757     1  0.0000000  0.0000000  3
   2757   2738   2758   2759     1  0.0000000  0.6973333  3
   2761   2762   2764   2768     1  0.0000000  0.6508444  3
   2761   2762   2782   2783     1  0.0000000  1.0460000  1
   2761   2762   2782   2783     1  0.0000000  0.6694400  3
   2761   2772   2777   2778     1  0.0000000  1.0460000  1
   2761   2772   2777   2778     1  0.0000000  0.6694400  3
   2761   2779   2766   2769     1  0.0000000  1.6038667  3
   2762   2764   2765   2767     1  0.0000000  0.6508444  3
   2762   2764   2771   2773     1  0.0000000  1.0460000  1
   2762   2764   2771   2773     1  0.0000000  0.6694400  3
   2762   2761   2772   2775     1  0.0000000  0.6508444  3
   2762   2761   2772   2776     1  0.0000000  0.6508444  3
   2763   2761   2762   2764     1  0.0000000  0.6508444  3
   2763   2761   2762   2782     1  0.0000000  1.0460000  1
   2763   2761   2762   2782     1  0.0000000  0.0000000  3
   2763   2761   2762   2781     1  0.0000000  0.6508444  3
   2763   2761   2772   2777     1  0.0000000  1.0460000  1
   2763   2761   2772   2777     1  0.0000000  0.0000000  3
   2763   2761   2772   2775     1  0.0000000  0.6508444  3
   2763   2761   2772   2776     1  0.0000000  0.6508444  3
   2763   2761   2779   2766     1  0.0000000  1.6038667  3
   2764   2765   2766   2769     1  0.0000000  0.6508444  3
   2764   2765   2784   2774     1  0.0000000  1.2552000  3
   2764   2762   2782   2783     1  0.0000000  1.0460000  1
   2764   2762   2782   2783     1  0.0000000  0.6694400  3
   2765   2766   2770   2780     1  0.0000000  1.0460000  1
   2765   2766   2770   2780     1  0.0000000  0.6694400  3
   2765   2764   2771   2773     1  0.0000000  1.0460000  1
   2765   2764   2771   2773     1  0.0000000  0.6694400  3
   2765   2764   2762   2781     1  0.0000000  0.6508444  3
   2766   2765   2784   2774     1  0.0000000  1.2552000  3
   2766   2765   2764   2768     1  0.0000000  0.6508444  3
   2767   2765   2766   2770     1  0.0000000  1.0460000  1
   2767   2765   2766   2770     1  0.0000000  0.0000000  3
   2767   2765   2766   2779     1  0.0000000  1.0460000  1
   2767   2765   2766   2779     1  0.0000000  0.0000000  3
   2767   2765   2766   2769     1  0.0000000  0.6508444  3
   2767   2765   2784   2774     1  0.0000000  1.2552000  3
   2767   2765   2764   2771     1  0.0000000  1.0460000  1
   2767   2765   2764   2771     1  0.0000000  0.0000000  3
   2767   2765   2764   2768     1  0.0000000  0.6508444  3
   2768   2764   2765   2784     1  0.0000000  0.6508444  3
   2768   2764   2771   2773     1  0.0000000  0.6973333  3
   2768   2764   2762   2782     1  0.0000000  1.0460000  1
   2768   2764   2762   2782     1  0.0000000  0.0000000  3
   2768   2764   2762   2781     1  0.0000000  0.6508444  3
   2769   2766   2770   2780     1  0.0000000  0.6973333  3
   2769   2766   2765   2784     1  0.0000000  0.6508444  3
   2771   2764   2762   2781     1  0.0000000  1.0460000  1
   2771   2764   2762   2781     1  0.0000000  0.0000000  3
   2772   2761   2762   2781     1  0.0000000  0.6508444  3
   2775   2772   2777   2778     1  0.0000000  0.6973333  3
   2775   2772   2761   2779     1  0.0000000  1.0460000  1
   2775   2772   2761   2779     1  0.0000000  0.0000000  3
   2776   2772   2777   2778     1  0.0000000  0.6973333  3
   2776   2772   2761   2779     1  0.0000000  1.0460000  1
   2776   2772   2761   2779     1  0.0000000  0.0000000  3
   2779   2766   2770   2780     1  0.0000000  0.6973333  3
   2779   2761   2762   2781     1  0.0000000  1.0460000  1
   2779   2761   2762   2781     1  0.0000000  0.0000000  3
   2781   2762   2782   2783     1  0.0000000  0.6973333  3
   2785   2787   2789   2791     1  0.0000000  0.6508444  3
   2785   2787   2789   2792     1  0.0000000  0.6508444  3
   2786   2785   2787   2789     1  0.0000000  0.0000000  2
   2786   2785   2787   2788     1  0.0000000  0.0000000  2
   2786   2785   2787   2790     1  0.0000000  0.0000000  2
   2788   2787   2789   2793     1  0.0000000  0.6508444  3
   2788   2787   2789   2791     1  0.0000000  0.6508444  3
   2788   2787   2789   2792     1  0.0000000  0.6508444  3
   2789   2793   2794   2803     1  0.0000000  1.2552000  3
   2789   2793   2794   2804     1  0.0000000  1.2552000  3
   2789   2793   2795   2796     1  0.0000000  1.2552000  3
   2789   2793   2795   2798     1  0.0000000  1.2552000  3
   2790   2787   2789   2793     1  0.0000000  0.6508444  3
   2790   2787   2789   2791     1  0.0000000  0.6508444  3
   2790   2787   2789   2792     1  0.0000000  0.6508444  3
   2791   2789   2793   2794     1  0.0000000  1.2552000  3
   2791   2789   2793   2795     1  0.0000000  1.2552000  3
   2792   2789   2793   2794     1  0.0000000  1.2552000  3
   2792   2789   2793   2795     1  0.0000000  1.2552000  3
   2793   2794   2805   2806     1  0.0000000  0.6508444  3
   2793   2794   2805   2807     1  0.0000000  0.6508444  3
   2793   2795   2797   2799     1  0.0000000  0.6508444  3
   2793   2795   2797   2800     1  0.0000000  0.6508444  3
   2794   2793   2795   2796     1  0.0000000  1.2552000  3
   2794   2793   2795   2798     1  0.0000000  1.2552000  3
   2795   2793   2794   2803     1  0.0000000  1.2552000  3
   2795   2793   2794   2804     1  0.0000000  1.2552000  3
   2796   2795   2797   2801     1  0.0000000  0.6508444  3
   2796   2795   2797   2799     1  0.0000000  0.6508444  3
   2796   2795   2797   2800     1  0.0000000  0.6508444  3
   2797   2801   2833   2823     1  180.0000771  6.0668000  2
   2797   2801   2833   2823     1  180.0000771  1.4644000  4
   2798   2795   2797   2801     1  0.0000000  0.6508444  3
   2798   2795   2797   2799     1  0.0000000  0.6508444  3
   2798   2795   2797   2800     1  0.0000000  0.6508444  3
   2799   2797   2801   2802     1  0.0000000  3.3472000  1
   2799   2797   2801   2802     1  0.0000000  0.0000000  2
   2799   2797   2801   2802     1  180.0000771  0.3347200  3
   2799   2797   2801   2833     1  180.0000771  0.0000000  2
   2800   2797   2801   2802     1  0.0000000  3.3472000  1
   2800   2797   2801   2802     1  0.0000000  0.0000000  2
   2800   2797   2801   2802     1  180.0000771  0.3347200  3
   2800   2797   2801   2833     1  180.0000771  0.0000000  2
   2801   2833   2814   2816     1  0.0000000  1.2552000  3
   2802   2801   2833   2823     1  180.0000771  6.0668000  2
   2802   2801   2833   2823     1  180.0000771  1.4644000  4
   2803   2794   2805   2808     1  0.0000000  0.6508444  3
   2803   2794   2805   2806     1  0.0000000  0.6508444  3
   2803   2794   2805   2807     1  0.0000000  0.6508444  3
   2804   2794   2805   2808     1  0.0000000  0.6508444  3
   2804   2794   2805   2806     1  0.0000000  0.6508444  3
   2804   2794   2805   2807     1  0.0000000  0.6508444  3
   2805   2808   2857   2847     1  180.0000771  6.0668000  2
   2805   2808   2857   2847     1  180.0000771  1.4644000  4
   2806   2805   2808   2809     1  0.0000000  3.3472000  1
   2806   2805   2808   2809     1  0.0000000  0.0000000  2
   2806   2805   2808   2809     1  180.0000771  0.3347200  3
   2806   2805   2808   2857     1  180.0000771  0.0000000  2
   2807   2805   2808   2809     1  0.0000000  3.3472000  1
   2807   2805   2808   2809     1  0.0000000  0.0000000  2
   2807   2805   2808   2809     1  180.0000771  0.3347200  3
   2807   2805   2808   2857     1  180.0000771  0.0000000  2
   2808   2857   2838   2840     1  0.0000000  1.2552000  3
   2809   2808   2857   2847     1  180.0000771  6.0668000  2
   2809   2808   2857   2847     1  180.0000771  1.4644000  4
   2810   2811   2813   2817     1  0.0000000  0.6508444  3
   2810   2811   2831   2832     1  0.0000000  1.0460000  1
   2810   2811   2831   2832     1  0.0000000  0.6694400  3
   2810   2821   2826   2827     1  0.0000000  1.0460000  1
   2810   2821   2826   2827     1  0.0000000  0.6694400  3
   2810   2828   2815   2818     1  0.0000000  1.6038667  3
   2811   2810   2821   2824     1  0.0000000  0.6508444  3
   2811   2810   2821   2825     1  0.0000000  0.6508444  3
   2811   2813   2814   2816     1  0.0000000  0.6508444  3
   2811   2813   2820   2822     1  0.0000000  1.0460000  1
   2811   2813   2820   2822     1  0.0000000  0.6694400  3
   2812   2810   2811   2813     1  0.0000000  0.6508444  3
   2812   2810   2811   2831     1  0.0000000  1.0460000  1
   2812   2810   2811   2831     1  0.0000000  0.0000000  3
   2812   2810   2811   2830     1  0.0000000  0.6508444  3
   2812   2810   2821   2826     1  0.0000000  1.0460000  1
   2812   2810   2821   2826     1  0.0000000  0.0000000  3
   2812   2810   2821   2824     1  0.0000000  0.6508444  3
   2812   2810   2821   2825     1  0.0000000  0.6508444  3
   2812   2810   2828   2815     1  0.0000000  1.6038667  3
   2813   2811   2831   2832     1  0.0000000  1.0460000  1
   2813   2811   2831   2832     1  0.0000000  0.6694400  3
   2813   2814   2815   2818     1  0.0000000  0.6508444  3
   2813   2814   2833   2823     1  0.0000000  1.2552000  3
   2814   2813   2811   2830     1  0.0000000  0.6508444  3
   2814   2813   2820   2822     1  0.0000000  1.0460000  1
   2814   2813   2820   2822     1  0.0000000  0.6694400  3
   2814   2815   2819   2829     1  0.0000000  1.0460000  1
   2814   2815   2819   2829     1  0.0000000  0.6694400  3
   2815   2814   2813   2817     1  0.0000000  0.6508444  3
   2815   2814   2833   2823     1  0.0000000  1.2552000  3
   2816   2814   2813   2820     1  0.0000000  1.0460000  1
   2816   2814   2813   2820     1  0.0000000  0.0000000  3
   2816   2814   2813   2817     1  0.0000000  0.6508444  3
   2816   2814   2815   2819     1  0.0000000  1.0460000  1
   2816   2814   2815   2819     1  0.0000000  0.0000000  3
   2816   2814   2815   2828     1  0.0000000  1.0460000  1
   2816   2814   2815   2828     1  0.0000000  0.0000000  3
   2816   2814   2815   2818     1  0.0000000  0.6508444  3
   2816   2814   2833   2823     1  0.0000000  1.2552000  3
   2817   2813   2811   2831     1  0.0000000  1.0460000  1
   2817   2813   2811   2831     1  0.0000000  0.0000000  3
   2817   2813   2811   2830     1  0.0000000  0.6508444  3
   2817   2813   2814   2833     1  0.0000000  0.6508444  3
   2817   2813   2820   2822     1  0.0000000  0.6973333  3
   2818   2815   2814   2833     1  0.0000000  0.6508444  3
   2818   2815   2819   2829     1  0.0000000  0.6973333  3
   2820   2813   2811   2830     1  0.0000000  1.0460000  1
   2820   2813   2811   2830     1  0.0000000  0.0000000  3
   2821   2810   2811   2830     1  0.0000000  0.6508444  3
   2824   2821   2810   2828     1  0.0000000  1.0460000  1
   2824   2821   2810   2828     1  0.0000000  0.0000000  3
   2824   2821   2826   2827     1  0.0000000  0.6973333  3
   2825   2821   2810   2828     1  0.0000000  1.0460000  1
   2825   2821   2810   2828     1  0.0000000  0.0000000  3
   2825   2821   2826   2827     1  0.0000000  0.6973333  3
   2828   2810   2811   2830     1  0.0000000  1.0460000  1
   2828   2810   2811   2830     1  0.0000000  0.0000000  3
   2828   2815   2819   2829     1  0.0000000  0.6973333  3
   2830   2811   2831   2832     1  0.0000000  0.6973333  3
   2834   2835   2837   2841     1  0.0000000  0.6508444  3
   2834   2835   2855   2856     1  0.0000000  1.0460000  1
   2834   2835   2855   2856     1  0.0000000  0.6694400  3
   2834   2845   2850   2851     1  0.0000000  1.0460000  1
   2834   2845   2850   2851     1  0.0000000  0.6694400  3
   2834   2852   2839   2842     1  0.0000000  1.6038667  3
   2835   2834   2845   2848     1  0.0000000  0.6508444  3
   2835   2834   2845   2849     1  0.0000000  0.6508444  3
   2835   2837   2838   2840     1  0.0000000  0.6508444  3
   2835   2837   2844   2846     1  0.0000000  1.0460000  1
   2835   2837   2844   2846     1  0.0000000  0.6694400  3
   2836   2834   2835   2837     1  0.0000000  0.6508444  3
   2836   2834   2835   2855     1  0.0000000  1.0460000  1
   2836   2834   2835   2855     1  0.0000000  0.0000000  3
   2836   2834   2835   2854     1  0.0000000  0.6508444  3
   2836   2834   2845   2850     1  0.0000000  1.0460000  1
   2836   2834   2845   2850     1  0.0000000  0.0000000  3
   2836   2834   2845   2848     1  0.0000000  0.6508444  3
   2836   2834   2845   2849     1  0.0000000  0.6508444  3
   2836   2834   2852   2839     1  0.0000000  1.6038667  3
   2837   2835   2855   2856     1  0.0000000  1.0460000  1
   2837   2835   2855   2856     1  0.0000000  0.6694400  3
   2837   2838   2839   2842     1  0.0000000  0.6508444  3
   2837   2838   2857   2847     1  0.0000000  1.2552000  3
   2838   2837   2835   2854     1  0.0000000  0.6508444  3
   2838   2837   2844   2846     1  0.0000000  1.0460000  1
   2838   2837   2844   2846     1  0.0000000  0.6694400  3
   2838   2839   2843   2853     1  0.0000000  1.0460000  1
   2838   2839   2843   2853     1  0.0000000  0.6694400  3
   2839   2838   2837   2841     1  0.0000000  0.6508444  3
   2839   2838   2857   2847     1  0.0000000  1.2552000  3
   2840   2838   2837   2844     1  0.0000000  1.0460000  1
   2840   2838   2837   2844     1  0.0000000  0.0000000  3
   2840   2838   2837   2841     1  0.0000000  0.6508444  3
   2840   2838   2839   2843     1  0.0000000  1.0460000  1
   2840   2838   2839   2843     1  0.0000000  0.0000000  3
   2840   2838   2839   2852     1  0.0000000  1.0460000  1
   2840   2838   2839   2852     1  0.0000000  0.0000000  3
   2840   2838   2839   2842     1  0.0000000  0.6508444  3
   2840   2838   2857   2847     1  0.0000000  1.2552000  3
   2841   2837   2835   2855     1  0.0000000  1.0460000  1
   2841   2837   2835   2855     1  0.0000000  0.0000000  3
   2841   2837   2835   2854     1  0.0000000  0.6508444  3
   2841   2837   2838   2857     1  0.0000000  0.6508444  3
   2841   2837   2844   2846     1  0.0000000  0.6973333  3
   2842   2839   2838   2857     1  0.0000000  0.6508444  3
   2842   2839   2843   2853     1  0.0000000  0.6973333  3
   2844   2837   2835   2854     1  0.0000000  1.0460000  1
   2844   2837   2835   2854     1  0.0000000  0.0000000  3
   2845   2834   2835   2854     1  0.0000000  0.6508444  3
   2848   2845   2834   2852     1  0.0000000  1.0460000  1
   2848   2845   2834   2852     1  0.0000000  0.0000000  3
   2848   2845   2850   2851     1  0.0000000  0.6973333  3
   2849   2845   2834   2852     1  0.0000000  1.0460000  1
   2849   2845   2834   2852     1  0.0000000  0.0000000  3
   2849   2845   2850   2851     1  0.0000000  0.6973333  3
   2852   2834   2835   2854     1  0.0000000  1.0460000  1
   2852   2834   2835   2854     1  0.0000000  0.0000000  3
   2852   2839   2843   2853     1  0.0000000  0.6973333  3
   2854   2835   2855   2856     1  0.0000000  0.6973333  3
   2858   2860   2862   2864     1  0.0000000  0.6508444  3
   2858   2860   2862   2865     1  0.0000000  0.6508444  3
   2859   2858   2860   2862     1  0.0000000  0.0000000  2
   2859   2858   2860   2861     1  0.0000000  0.0000000  2
   2859   2858   2860   2863     1  0.0000000  0.0000000  2
   2861   2860   2862   2866     1  0.0000000  0.6508444  3
   2861   2860   2862   2864     1  0.0000000  0.6508444  3
   2861   2860   2862   2865     1  0.0000000  0.6508444  3
   2862   2866   2867   2876     1  0.0000000  1.2552000  3
   2862   2866   2867   2877     1  0.0000000  1.2552000  3
   2862   2866   2868   2869     1  0.0000000  1.2552000  3
   2862   2866   2868   2871     1  0.0000000  1.2552000  3
   2863   2860   2862   2866     1  0.0000000  0.6508444  3
   2863   2860   2862   2864     1  0.0000000  0.6508444  3
   2863   2860   2862   2865     1  0.0000000  0.6508444  3
   2864   2862   2866   2867     1  0.0000000  1.2552000  3
   2864   2862   2866   2868     1  0.0000000  1.2552000  3
   2865   2862   2866   2867     1  0.0000000  1.2552000  3
   2865   2862   2866   2868     1  0.0000000  1.2552000  3
   2866   2867   2878   2879     1  0.0000000  0.6508444  3
   2866   2867   2878   2880     1  0.0000000  0.6508444  3
   2866   2868   2870   2872     1  0.0000000  0.6508444  3
   2866   2868   2870   2873     1  0.0000000  0.6508444  3
   2867   2866   2868   2869     1  0.0000000  1.2552000  3
   2867   2866   2868   2871     1  0.0000000  1.2552000  3
   2868   2866   2867   2876     1  0.0000000  1.2552000  3
   2868   2866   2867   2877     1  0.0000000  1.2552000  3
   2869   2868   2870   2874     1  0.0000000  0.6508444  3
   2869   2868   2870   2872     1  0.0000000  0.6508444  3
   2869   2868   2870   2873     1  0.0000000  0.6508444  3
   2870   2874   2906   2896     1  180.0000771  6.0668000  2
   2870   2874   2906   2896     1  180.0000771  1.4644000  4
   2871   2868   2870   2874     1  0.0000000  0.6508444  3
   2871   2868   2870   2872     1  0.0000000  0.6508444  3
   2871   2868   2870   2873     1  0.0000000  0.6508444  3
   2872   2870   2874   2875     1  0.0000000  3.3472000  1
   2872   2870   2874   2875     1  0.0000000  0.0000000  2
   2872   2870   2874   2875     1  180.0000771  0.3347200  3
   2872   2870   2874   2906     1  180.0000771  0.0000000  2
   2873   2870   2874   2875     1  0.0000000  3.3472000  1
   2873   2870   2874   2875     1  0.0000000  0.0000000  2
   2873   2870   2874   2875     1  180.0000771  0.3347200  3
   2873   2870   2874   2906     1  180.0000771  0.0000000  2
   2874   2906   2887   2889     1  0.0000000  1.2552000  3
   2875   2874   2906   2896     1  180.0000771  6.0668000  2
   2875   2874   2906   2896     1  180.0000771  1.4644000  4
   2876   2867   2878   2881     1  0.0000000  0.6508444  3
   2876   2867   2878   2879     1  0.0000000  0.6508444  3
   2876   2867   2878   2880     1  0.0000000  0.6508444  3
   2877   2867   2878   2881     1  0.0000000  0.6508444  3
   2877   2867   2878   2879     1  0.0000000  0.6508444  3
   2877   2867   2878   2880     1  0.0000000  0.6508444  3
   2878   2881   2930   2920     1  180.0000771  6.0668000  2
   2878   2881   2930   2920     1  180.0000771  1.4644000  4
   2879   2878   2881   2882     1  0.0000000  3.3472000  1
   2879   2878   2881   2882     1  0.0000000  0.0000000  2
   2879   2878   2881   2882     1  180.0000771  0.3347200  3
   2879   2878   2881   2930     1  180.0000771  0.0000000  2
   2880   2878   2881   2882     1  0.0000000  3.3472000  1
   2880   2878   2881   2882     1  0.0000000  0.0000000  2
   2880   2878   2881   2882     1  180.0000771  0.3347200  3
   2880   2878   2881   2930     1  180.0000771  0.0000000  2
   2881   2930   2911   2913     1  0.0000000  1.2552000  3
   2882   2881   2930   2920     1  180.0000771  6.0668000  2
   2882   2881   2930   2920     1  180.0000771  1.4644000  4
   2883   2884   2886   2890     1  0.0000000  0.6508444  3
   2883   2884   2904   2905     1  0.0000000  1.0460000  1
   2883   2884   2904   2905     1  0.0000000  0.6694400  3
   2883   2894   2899   2900     1  0.0000000  1.0460000  1
   2883   2894   2899   2900     1  0.0000000  0.6694400  3
   2883   2901   2888   2891     1  0.0000000  1.6038667  3
   2884   2886   2887   2889     1  0.0000000  0.6508444  3
   2884   2886   2893   2895     1  0.0000000  1.0460000  1
   2884   2886   2893   2895     1  0.0000000  0.6694400  3
   2884   2883   2894   2897     1  0.0000000  0.6508444  3
   2884   2883   2894   2898     1  0.0000000  0.6508444  3
   2885   2883   2884   2886     1  0.0000000  0.6508444  3
   2885   2883   2884   2904     1  0.0000000  1.0460000  1
   2885   2883   2884   2904     1  0.0000000  0.0000000  3
   2885   2883   2884   2903     1  0.0000000  0.6508444  3
   2885   2883   2894   2899     1  0.0000000  1.0460000  1
   2885   2883   2894   2899     1  0.0000000  0.0000000  3
   2885   2883   2894   2897     1  0.0000000  0.6508444  3
   2885   2883   2894   2898     1  0.0000000  0.6508444  3
   2885   2883   2901   2888     1  0.0000000  1.6038667  3
   2886   2887   2888   2891     1  0.0000000  0.6508444  3
   2886   2887   2906   2896     1  0.0000000  1.2552000  3
   2886   2884   2904   2905     1  0.0000000  1.0460000  1
   2886   2884   2904   2905     1  0.0000000  0.6694400  3
   2887   2888   2892   2902     1  0.0000000  1.0460000  1
   2887   2888   2892   2902     1  0.0000000  0.6694400  3
   2887   2886   2893   2895     1  0.0000000  1.0460000  1
   2887   2886   2893   2895     1  0.0000000  0.6694400  3
   2887   2886   2884   2903     1  0.0000000  0.6508444  3
   2888   2887   2906   2896     1  0.0000000  1.2552000  3
   2888   2887   2886   2890     1  0.0000000  0.6508444  3
   2889   2887   2888   2892     1  0.0000000  1.0460000  1
   2889   2887   2888   2892     1  0.0000000  0.0000000  3
   2889   2887   2888   2901     1  0.0000000  1.0460000  1
   2889   2887   2888   2901     1  0.0000000  0.0000000  3
   2889   2887   2888   2891     1  0.0000000  0.6508444  3
   2889   2887   2906   2896     1  0.0000000  1.2552000  3
   2889   2887   2886   2893     1  0.0000000  1.0460000  1
   2889   2887   2886   2893     1  0.0000000  0.0000000  3
   2889   2887   2886   2890     1  0.0000000  0.6508444  3
   2890   2886   2887   2906     1  0.0000000  0.6508444  3
   2890   2886   2893   2895     1  0.0000000  0.6973333  3
   2890   2886   2884   2904     1  0.0000000  1.0460000  1
   2890   2886   2884   2904     1  0.0000000  0.0000000  3
   2890   2886   2884   2903     1  0.0000000  0.6508444  3
   2891   2888   2892   2902     1  0.0000000  0.6973333  3
   2891   2888   2887   2906     1  0.0000000  0.6508444  3
   2893   2886   2884   2903     1  0.0000000  1.0460000  1
   2893   2886   2884   2903     1  0.0000000  0.0000000  3
   2894   2883   2884   2903     1  0.0000000  0.6508444  3
   2897   2894   2899   2900     1  0.0000000  0.6973333  3
   2897   2894   2883   2901     1  0.0000000  1.0460000  1
   2897   2894   2883   2901     1  0.0000000  0.0000000  3
   2898   2894   2899   2900     1  0.0000000  0.6973333  3
   2898   2894   2883   2901     1  0.0000000  1.0460000  1
   2898   2894   2883   2901     1  0.0000000  0.0000000  3
   2901   2888   2892   2902     1  0.0000000  0.6973333  3
   2901   2883   2884   2903     1  0.0000000  1.0460000  1
   2901   2883   2884   2903     1  0.0000000  0.0000000  3
   2903   2884   2904   2905     1  0.0000000  0.6973333  3
   2907   2908   2910   2914     1  0.0000000  0.6508444  3
   2907   2908   2928   2929     1  0.0000000  1.0460000  1
   2907   2908   2928   2929     1  0.0000000  0.6694400  3
   2907   2918   2923   2924     1  0.0000000  1.0460000  1
   2907   2918   2923   2924     1  0.0000000  0.6694400  3
   2907   2925   2912   2915     1  0.0000000  1.6038667  3
   2908   2910   2911   2913     1  0.0000000  0.6508444  3
   2908   2910   2917   2919     1  0.0000000  1.0460000  1
   2908   2910   2917   2919     1  0.0000000  0.6694400  3
   2908   2907   2918   2921     1  0.0000000  0.6508444  3
   2908   2907   2918   2922     1  0.0000000  0.6508444  3
   2909   2907   2908   2910     1  0.0000000  0.6508444  3
   2909   2907   2908   2928     1  0.0000000  1.0460000  1
   2909   2907   2908   2928     1  0.0000000  0.0000000  3
   2909   2907   2908   2927     1  0.0000000  0.6508444  3
   2909   2907   2918   2923     1  0.0000000  1.0460000  1
   2909   2907   2918   2923     1  0.0000000  0.0000000  3
   2909   2907   2918   2921     1  0.0000000  0.6508444  3
   2909   2907   2918   2922     1  0.0000000  0.6508444  3
   2909   2907   2925   2912     1  0.0000000  1.6038667  3
   2910   2911   2912   2915     1  0.0000000  0.6508444  3
   2910   2911   2930   2920     1  0.0000000  1.2552000  3
   2910   2908   2928   2929     1  0.0000000  1.0460000  1
   2910   2908   2928   2929     1  0.0000000  0.6694400  3
   2911   2912   2916   2926     1  0.0000000  1.0460000  1
   2911   2912   2916   2926     1  0.0000000  0.6694400  3
   2911   2910   2917   2919     1  0.0000000  1.0460000  1
   2911   2910   2917   2919     1  0.0000000  0.6694400  3
   2911   2910   2908   2927     1  0.0000000  0.6508444  3
   2912   2911   2930   2920     1  0.0000000  1.2552000  3
   2912   2911   2910   2914     1  0.0000000  0.6508444  3
   2913   2911   2912   2916     1  0.0000000  1.0460000  1
   2913   2911   2912   2916     1  0.0000000  0.0000000  3
   2913   2911   2912   2925     1  0.0000000  1.0460000  1
   2913   2911   2912   2925     1  0.0000000  0.0000000  3
   2913   2911   2912   2915     1  0.0000000  0.6508444  3
   2913   2911   2930   2920     1  0.0000000  1.2552000  3
   2913   2911   2910   2917     1  0.0000000  1.0460000  1
   2913   2911   2910   2917     1  0.0000000  0.0000000  3
   2913   2911   2910   2914     1  0.0000000  0.6508444  3
   2914   2910   2911   2930     1  0.0000000  0.6508444  3
   2914   2910   2917   2919     1  0.0000000  0.6973333  3
   2914   2910   2908   2928     1  0.0000000  1.0460000  1
   2914   2910   2908   2928     1  0.0000000  0.0000000  3
   2914   2910   2908   2927     1  0.0000000  0.6508444  3
   2915   2912   2916   2926     1  0.0000000  0.6973333  3
   2915   2912   2911   2930     1  0.0000000  0.6508444  3
   2917   2910   2908   2927     1  0.0000000  1.0460000  1
   2917   2910   2908   2927     1  0.0000000  0.0000000  3
   2918   2907   2908   2927     1  0.0000000  0.6508444  3
   2921   2918   2923   2924     1  0.0000000  0.6973333  3
   2921   2918   2907   2925     1  0.0000000  1.0460000  1
   2921   2918   2907   2925     1  0.0000000  0.0000000  3
   2922   2918   2923   2924     1  0.0000000  0.6973333  3
   2922   2918   2907   2925     1  0.0000000  1.0460000  1
   2922   2918   2907   2925     1  0.0000000  0.0000000  3
   2925   2912   2916   2926     1  0.0000000  0.6973333  3
   2925   2907   2908   2927     1  0.0000000  1.0460000  1
   2925   2907   2908   2927     1  0.0000000  0.0000000  3
   2927   2908   2928   2929     1  0.0000000  0.6973333  3
   2931   2933   2935   2937     1  0.0000000  0.6508444  3
   2931   2933   2935   2938     1  0.0000000  0.6508444  3
   2932   2931   2933   2935     1  0.0000000  0.0000000  2
   2932   2931   2933   2934     1  0.0000000  0.0000000  2
   2932   2931   2933   2936     1  0.0000000  0.0000000  2
   2934   2933   2935   2939     1  0.0000000  0.6508444  3
   2934   2933   2935   2937     1  0.0000000  0.6508444  3
   2934   2933   2935   2938     1  0.0000000  0.6508444  3
   2935   2939   2940   2949     1  0.0000000  1.2552000  3
   2935   2939   2940   2950     1  0.0000000  1.2552000  3
   2935   2939   2941   2942     1  0.0000000  1.2552000  3
   2935   2939   2941   2944     1  0.0000000  1.2552000  3
   2936   2933   2935   2939     1  0.0000000  0.6508444  3
   2936   2933   2935   2937     1  0.0000000  0.6508444  3
   2936   2933   2935   2938     1  0.0000000  0.6508444  3
   2937   2935   2939   2940     1  0.0000000  1.2552000  3
   2937   2935   2939   2941     1  0.0000000  1.2552000  3
   2938   2935   2939   2940     1  0.0000000  1.2552000  3
   2938   2935   2939   2941     1  0.0000000  1.2552000  3
   2939   2940   2951   2952     1  0.0000000  0.6508444  3
   2939   2940   2951   2953     1  0.0000000  0.6508444  3
   2939   2941   2943   2945     1  0.0000000  0.6508444  3
   2939   2941   2943   2946     1  0.0000000  0.6508444  3
   2940   2939   2941   2942     1  0.0000000  1.2552000  3
   2940   2939   2941   2944     1  0.0000000  1.2552000  3
   2941   2939   2940   2949     1  0.0000000  1.2552000  3
   2941   2939   2940   2950     1  0.0000000  1.2552000  3
   2942   2941   2943   2947     1  0.0000000  0.6508444  3
   2942   2941   2943   2945     1  0.0000000  0.6508444  3
   2942   2941   2943   2946     1  0.0000000  0.6508444  3
   2943   2947   2979   2969     1  180.0000771  6.0668000  2
   2943   2947   2979   2969     1  180.0000771  1.4644000  4
   2944   2941   2943   2947     1  0.0000000  0.6508444  3
   2944   2941   2943   2945     1  0.0000000  0.6508444  3
   2944   2941   2943   2946     1  0.0000000  0.6508444  3
   2945   2943   2947   2948     1  0.0000000  3.3472000  1
   2945   2943   2947   2948     1  0.0000000  0.0000000  2
   2945   2943   2947   2948     1  180.0000771  0.3347200  3
   2945   2943   2947   2979     1  180.0000771  0.0000000  2
   2946   2943   2947   2948     1  0.0000000  3.3472000  1
   2946   2943   2947   2948     1  0.0000000  0.0000000  2
   2946   2943   2947   2948     1  180.0000771  0.3347200  3
   2946   2943   2947   2979     1  180.0000771  0.0000000  2
   2947   2979   2960   2962     1  0.0000000  1.2552000  3
   2948   2947   2979   2969     1  180.0000771  6.0668000  2
   2948   2947   2979   2969     1  180.0000771  1.4644000  4
   2949   2940   2951   2954     1  0.0000000  0.6508444  3
   2949   2940   2951   2952     1  0.0000000  0.6508444  3
   2949   2940   2951   2953     1  0.0000000  0.6508444  3
   2950   2940   2951   2954     1  0.0000000  0.6508444  3
   2950   2940   2951   2952     1  0.0000000  0.6508444  3
   2950   2940   2951   2953     1  0.0000000  0.6508444  3
   2951   2954   3003   2993     1  180.0000771  6.0668000  2
   2951   2954   3003   2993     1  180.0000771  1.4644000  4
   2952   2951   2954   2955     1  0.0000000  3.3472000  1
   2952   2951   2954   2955     1  0.0000000  0.0000000  2
   2952   2951   2954   2955     1  180.0000771  0.3347200  3
   2952   2951   2954   3003     1  180.0000771  0.0000000  2
   2953   2951   2954   2955     1  0.0000000  3.3472000  1
   2953   2951   2954   2955     1  0.0000000  0.0000000  2
   2953   2951   2954   2955     1  180.0000771  0.3347200  3
   2953   2951   2954   3003     1  180.0000771  0.0000000  2
   2954   3003   2984   2986     1  0.0000000  1.2552000  3
   2955   2954   3003   2993     1  180.0000771  6.0668000  2
   2955   2954   3003   2993     1  180.0000771  1.4644000  4
   2956   2957   2959   2963     1  0.0000000  0.6508444  3
   2956   2957   2977   2978     1  0.0000000  1.0460000  1
   2956   2957   2977   2978     1  0.0000000  0.6694400  3
   2956   2967   2972   2973     1  0.0000000  1.0460000  1
   2956   2967   2972   2973     1  0.0000000  0.6694400  3
   2956   2974   2961   2964     1  0.0000000  1.6038667  3
   2957   2956   2967   2970     1  0.0000000  0.6508444  3
   2957   2956   2967   2971     1  0.0000000  0.6508444  3
   2957   2959   2960   2962     1  0.0000000  0.6508444  3
   2957   2959   2966   2968     1  0.0000000  1.0460000  1
   2957   2959   2966   2968     1  0.0000000  0.6694400  3
   2958   2956   2957   2959     1  0.0000000  0.6508444  3
   2958   2956   2957   2977     1  0.0000000  1.0460000  1
   2958   2956   2957   2977     1  0.0000000  0.0000000  3
   2958   2956   2957   2976     1  0.0000000  0.6508444  3
   2958   2956   2967   2972     1  0.0000000  1.0460000  1
   2958   2956   2967   2972     1  0.0000000  0.0000000  3
   2958   2956   2967   2970     1  0.0000000  0.6508444  3
   2958   2956   2967   2971     1  0.0000000  0.6508444  3
   2958   2956   2974   2961     1  0.0000000  1.6038667  3
   2959   2957   2977   2978     1  0.0000000  1.0460000  1
   2959   2957   2977   2978     1  0.0000000  0.6694400  3
   2959   2960   2961   2964     1  0.0000000  0.6508444  3
   2959   2960   2979   2969     1  0.0000000  1.2552000  3
   2960   2959   2957   2976     1  0.0000000  0.6508444  3
   2960   2959   2966   2968     1  0.0000000  1.0460000  1
   2960   2959   2966   2968     1  0.0000000  0.6694400  3
   2960   2961   2965   2975     1  0.0000000  1.0460000  1
   2960   2961   2965   2975     1  0.0000000  0.6694400  3
   2961   2960   2959   2963     1  0.0000000  0.6508444  3
   2961   2960   2979   2969     1  0.0000000  1.2552000  3
   2962   2960   2959   2966     1  0.0000000  1.0460000  1
   2962   2960   2959   2966     1  0.0000000  0.0000000  3
   2962   2960   2959   2963     1  0.0000000  0.6508444  3
   2962   2960   2961   2965     1  0.0000000  1.0460000  1
   2962   2960   2961   2965     1  0.0000000  0.0000000  3
   2962   2960   2961   2974     1  0.0000000  1.0460000  1
   2962   2960   2961   2974     1  0.0000000  0.0000000  3
   2962   2960   2961   2964     1  0.0000000  0.6508444  3
   2962   2960   2979   2969     1  0.0000000  1.2552000  3
   2963   2959   2957   2977     1  0.0000000  1.0460000  1
   2963   2959   2957   2977     1  0.0000000  0.0000000  3
   2963   2959   2957   2976     1  0.0000000  0.6508444  3
   2963   2959   2960   2979     1  0.0000000  0.6508444  3
   2963   2959   2966   2968     1  0.0000000  0.6973333  3
   2964   2961   2960   2979     1  0.0000000  0.6508444  3
   2964   2961   2965   2975     1  0.0000000  0.6973333  3
   2966   2959   2957   2976     1  0.0000000  1.0460000  1
   2966   2959   2957   2976     1  0.0000000  0.0000000  3
   2967   2956   2957   2976     1  0.0000000  0.6508444  3
   2970   2967   2956   2974     1  0.0000000  1.0460000  1
   2970   2967   2956   2974     1  0.0000000  0.0000000  3
   2970   2967   2972   2973     1  0.0000000  0.6973333  3
   2971   2967   2956   2974     1  0.0000000  1.0460000  1
   2971   2967   2956   2974     1  0.0000000  0.0000000  3
   2971   2967   2972   2973     1  0.0000000  0.6973333  3
   2974   2956   2957   2976     1  0.0000000  1.0460000  1
   2974   2956   2957   2976     1  0.0000000  0.0000000  3
   2974   2961   2965   2975     1  0.0000000  0.6973333  3
   2976   2957   2977   2978     1  0.0000000  0.6973333  3
   2980   2981   2983   2987     1  0.0000000  0.6508444  3
   2980   2981   3001   3002     1  0.0000000  1.0460000  1
   2980   2981   3001   3002     1  0.0000000  0.6694400  3
   2980   2991   2996   2997     1  0.0000000  1.0460000  1
   2980   2991   2996   2997     1  0.0000000  0.6694400  3
   2980   2998   2985   2988     1  0.0000000  1.6038667  3
   2981   2980   2991   2994     1  0.0000000  0.6508444  3
   2981   2980   2991   2995     1  0.0000000  0.6508444  3
   2981   2983   2984   2986     1  0.0000000  0.6508444  3
   2981   2983   2990   2992     1  0.0000000  1.0460000  1
   2981   2983   2990   2992     1  0.0000000  0.6694400  3
   2982   2980   2981   2983     1  0.0000000  0.6508444  3
   2982   2980   2981   3001     1  0.0000000  1.0460000  1
   2982   2980   2981   3001     1  0.0000000  0.0000000  3
   2982   2980   2981   3000     1  0.0000000  0.6508444  3
   2982   2980   2991   2996     1  0.0000000  1.0460000  1
   2982   2980   2991   2996     1  0.0000000  0.0000000  3
   2982   2980   2991   2994     1  0.0000000  0.6508444  3
   2982   2980   2991   2995     1  0.0000000  0.6508444  3
   2982   2980   2998   2985     1  0.0000000  1.6038667  3
   2983   2981   3001   3002     1  0.0000000  1.0460000  1
   2983   2981   3001   3002     1  0.0000000  0.6694400  3
   2983   2984   2985   2988     1  0.0000000  0.6508444  3
   2983   2984   3003   2993     1  0.0000000  1.2552000  3
   2984   2983   2981   3000     1  0.0000000  0.6508444  3
   2984   2983   2990   2992     1  0.0000000  1.0460000  1
   2984   2983   2990   2992     1  0.0000000  0.6694400  3
   2984   2985   2989   2999     1  0.0000000  1.0460000  1
   2984   2985   2989   2999     1  0.0000000  0.6694400  3
   2985   2984   2983   2987     1  0.0000000  0.6508444  3
   2985   2984   3003   2993     1  0.0000000  1.2552000  3
   2986   2984   2983   2990     1  0.0000000  1.0460000  1
   2986   2984   2983   2990     1  0.0000000  0.0000000  3
   2986   2984   2983   2987     1  0.0000000  0.6508444  3
   2986   2984   2985   2989     1  0.0000000  1.0460000  1
   2986   2984   2985   2989     1  0.0000000  0.0000000  3
   2986   2984   2985   2998     1  0.0000000  1.0460000  1
   2986   2984   2985   2998     1  0.0000000  0.0000000  3
   2986   2984   2985   2988     1  0.0000000  0.6508444  3
   2986   2984   3003   2993     1  0.0000000  1.2552000  3
   2987   2983   2981   3001     1  0.0000000  1.0460000  1
   2987   2983   2981   3001     1  0.0000000  0.0000000  3
   2987   2983   2981   3000     1  0.0000000  0.6508444  3
   2987   2983   2984   3003     1  0.0000000  0.6508444  3
   2987   2983   2990   2992     1  0.0000000  0.6973333  3
   2988   2985   2984   3003     1  0.0000000  0.6508444  3
   2988   2985   2989   2999     1  0.0000000  0.6973333  3
   2990   2983   2981   3000     1  0.0000000  1.0460000  1
   2990   2983   2981   3000     1  0.0000000  0.0000000  3
   2991   2980   2981   3000     1  0.0000000  0.6508444  3
   2994   2991   2980   2998     1  0.0000000  1.0460000  1
   2994   2991   2980   2998     1  0.0000000  0.0000000  3
   2994   2991   2996   2997     1  0.0000000  0.6973333  3
   2995   2991   2980   2998     1  0.0000000  1.0460000  1
   2995   2991   2980   2998     1  0.0000000  0.0000000  3
   2995   2991   2996   2997     1  0.0000000  0.6973333  3
   2998   2980   2981   3000     1  0.0000000  1.0460000  1
   2998   2980   2981   3000     1  0.0000000  0.0000000  3
   2998   2985   2989   2999     1  0.0000000  0.6973333  3
   3000   2981   3001   3002     1  0.0000000  0.6973333  3
   3004   3006   3008   3010     1  0.0000000  0.6508444  3
   3004   3006   3008   3011     1  0.0000000  0.6508444  3
   3005   3004   3006   3008     1  0.0000000  0.0000000  2
   3005   3004   3006   3007     1  0.0000000  0.0000000  2
   3005   3004   3006   3009     1  0.0000000  0.0000000  2
   3007   3006   3008   3012     1  0.0000000  0.6508444  3
   3007   3006   3008   3010     1  0.0000000  0.6508444  3
   3007   3006   3008   3011     1  0.0000000  0.6508444  3
   3008   3012   3013   3022     1  0.0000000  1.2552000  3
   3008   3012   3013   3023     1  0.0000000  1.2552000  3
   3008   3012   3014   3015     1  0.0000000  1.2552000  3
   3008   3012   3014   3017     1  0.0000000  1.2552000  3
   3009   3006   3008   3012     1  0.0000000  0.6508444  3
   3009   3006   3008   3010     1  0.0000000  0.6508444  3
   3009   3006   3008   3011     1  0.0000000  0.6508444  3
   3010   3008   3012   3013     1  0.0000000  1.2552000  3
   3010   3008   3012   3014     1  0.0000000  1.2552000  3
   3011   3008   3012   3013     1  0.0000000  1.2552000  3
   3011   3008   3012   3014     1  0.0000000  1.2552000  3
   3012   3013   3024   3025     1  0.0000000  0.6508444  3
   3012   3013   3024   3026     1  0.0000000  0.6508444  3
   3012   3014   3016   3018     1  0.0000000  0.6508444  3
   3012   3014   3016   3019     1  0.0000000  0.6508444  3
   3013   3012   3014   3015     1  0.0000000  1.2552000  3
   3013   3012   3014   3017     1  0.0000000  1.2552000  3
   3014   3012   3013   3022     1  0.0000000  1.2552000  3
   3014   3012   3013   3023     1  0.0000000  1.2552000  3
   3015   3014   3016   3020     1  0.0000000  0.6508444  3
   3015   3014   3016   3018     1  0.0000000  0.6508444  3
   3015   3014   3016   3019     1  0.0000000  0.6508444  3
   3016   3020   3052   3042     1  180.0000771  6.0668000  2
   3016   3020   3052   3042     1  180.0000771  1.4644000  4
   3017   3014   3016   3020     1  0.0000000  0.6508444  3
   3017   3014   3016   3018     1  0.0000000  0.6508444  3
   3017   3014   3016   3019     1  0.0000000  0.6508444  3
   3018   3016   3020   3021     1  0.0000000  3.3472000  1
   3018   3016   3020   3021     1  0.0000000  0.0000000  2
   3018   3016   3020   3021     1  180.0000771  0.3347200  3
   3018   3016   3020   3052     1  180.0000771  0.0000000  2
   3019   3016   3020   3021     1  0.0000000  3.3472000  1
   3019   3016   3020   3021     1  0.0000000  0.0000000  2
   3019   3016   3020   3021     1  180.0000771  0.3347200  3
   3019   3016   3020   3052     1  180.0000771  0.0000000  2
   3020   3052   3033   3035     1  0.0000000  1.2552000  3
   3021   3020   3052   3042     1  180.0000771  6.0668000  2
   3021   3020   3052   3042     1  180.0000771  1.4644000  4
   3022   3013   3024   3027     1  0.0000000  0.6508444  3
   3022   3013   3024   3025     1  0.0000000  0.6508444  3
   3022   3013   3024   3026     1  0.0000000  0.6508444  3
   3023   3013   3024   3027     1  0.0000000  0.6508444  3
   3023   3013   3024   3025     1  0.0000000  0.6508444  3
   3023   3013   3024   3026     1  0.0000000  0.6508444  3
   3024   3027   3076   3066     1  180.0000771  6.0668000  2
   3024   3027   3076   3066     1  180.0000771  1.4644000  4
   3025   3024   3027   3028     1  0.0000000  3.3472000  1
   3025   3024   3027   3028     1  0.0000000  0.0000000  2
   3025   3024   3027   3028     1  180.0000771  0.3347200  3
   3025   3024   3027   3076     1  180.0000771  0.0000000  2
   3026   3024   3027   3028     1  0.0000000  3.3472000  1
   3026   3024   3027   3028     1  0.0000000  0.0000000  2
   3026   3024   3027   3028     1  180.0000771  0.3347200  3
   3026   3024   3027   3076     1  180.0000771  0.0000000  2
   3027   3076   3057   3059     1  0.0000000  1.2552000  3
   3028   3027   3076   3066     1  180.0000771  6.0668000  2
   3028   3027   3076   3066     1  180.0000771  1.4644000  4
   3029   3030   3032   3036     1  0.0000000  0.6508444  3
   3029   3030   3050   3051     1  0.0000000  1.0460000  1
   3029   3030   3050   3051     1  0.0000000  0.6694400  3
   3029   3040   3045   3046     1  0.0000000  1.0460000  1
   3029   3040   3045   3046     1  0.0000000  0.6694400  3
   3029   3047   3034   3037     1  0.0000000  1.6038667  3
   3030   3032   3033   3035     1  0.0000000  0.6508444  3
   3030   3032   3039   3041     1  0.0000000  1.0460000  1
   3030   3032   3039   3041     1  0.0000000  0.6694400  3
   3030   3029   3040   3043     1  0.0000000  0.6508444  3
   3030   3029   3040   3044     1  0.0000000  0.6508444  3
   3031   3029   3030   3032     1  0.0000000  0.6508444  3
   3031   3029   3030   3050     1  0.0000000  1.0460000  1
   3031   3029   3030   3050     1  0.0000000  0.0000000  3
   3031   3029   3030   3049     1  0.0000000  0.6508444  3
   3031   3029   3040   3045     1  0.0000000  1.0460000  1
   3031   3029   3040   3045     1  0.0000000  0.0000000  3
   3031   3029   3040   3043     1  0.0000000  0.6508444  3
   3031   3029   3040   3044     1  0.0000000  0.6508444  3
   3031   3029   3047   3034     1  0.0000000  1.6038667  3
   3032   3033   3034   3037     1  0.0000000  0.6508444  3
   3032   3033   3052   3042     1  0.0000000  1.2552000  3
   3032   3030   3050   3051     1  0.0000000  1.0460000  1
   3032   3030   3050   3051     1  0.0000000  0.6694400  3
   3033   3034   3038   3048     1  0.0000000  1.0460000  1
   3033   3034   3038   3048     1  0.0000000  0.6694400  3
   3033   3032   3039   3041     1  0.0000000  1.0460000  1
   3033   3032   3039   3041     1  0.0000000  0.6694400  3
   3033   3032   3030   3049     1  0.0000000  0.6508444  3
   3034   3033   3052   3042     1  0.0000000  1.2552000  3
   3034   3033   3032   3036     1  0.0000000  0.6508444  3
   3035   3033   3034   3038     1  0.0000000  1.0460000  1
   3035   3033   3034   3038     1  0.0000000  0.0000000  3
   3035   3033   3034   3047     1  0.0000000  1.0460000  1
   3035   3033   3034   3047     1  0.0000000  0.0000000  3
   3035   3033   3034   3037     1  0.0000000  0.6508444  3
   3035   3033   3052   3042     1  0.0000000  1.2552000  3
   3035   3033   3032   3039     1  0.0000000  1.0460000  1
   3035   3033   3032   3039     1  0.0000000  0.0000000  3
   3035   3033   3032   3036     1  0.0000000  0.6508444  3
   3036   3032   3033   3052     1  0.0000000  0.6508444  3
   3036   3032   3039   3041     1  0.0000000  0.6973333  3
   3036   3032   3030   3050     1  0.0000000  1.0460000  1
   3036   3032   3030   3050     1  0.0000000  0.0000000  3
   3036   3032   3030   3049     1  0.0000000  0.6508444  3
   3037   3034   3038   3048     1  0.0000000  0.6973333  3
   3037   3034   3033   3052     1  0.0000000  0.6508444  3
   3039   3032   3030   3049     1  0.0000000  1.0460000  1
   3039   3032   3030   3049     1  0.0000000  0.0000000  3
   3040   3029   3030   3049     1  0.0000000  0.6508444  3
   3043   3040   3045   3046     1  0.0000000  0.6973333  3
   3043   3040   3029   3047     1  0.0000000  1.0460000  1
   3043   3040   3029   3047     1  0.0000000  0.0000000  3
   3044   3040   3045   3046     1  0.0000000  0.6973333  3
   3044   3040   3029   3047     1  0.0000000  1.0460000  1
   3044   3040   3029   3047     1  0.0000000  0.0000000  3
   3047   3034   3038   3048     1  0.0000000  0.6973333  3
   3047   3029   3030   3049     1  0.0000000  1.0460000  1
   3047   3029   3030   3049     1  0.0000000  0.0000000  3
   3049   3030   3050   3051     1  0.0000000  0.6973333  3
   3053   3054   3056   3060     1  0.0000000  0.6508444  3
   3053   3054   3074   3075     1  0.0000000  1.0460000  1
   3053   3054   3074   3075     1  0.0000000  0.6694400  3
   3053   3064   3069   3070     1  0.0000000  1.0460000  1
   3053   3064   3069   3070     1  0.0000000  0.6694400  3
   3053   3071   3058   3061     1  0.0000000  1.6038667  3
   3054   3056   3057   3059     1  0.0000000  0.6508444  3
   3054   3056   3063   3065     1  0.0000000  1.0460000  1
   3054   3056   3063   3065     1  0.0000000  0.6694400  3
   3054   3053   3064   3067     1  0.0000000  0.6508444  3
   3054   3053   3064   3068     1  0.0000000  0.6508444  3
   3055   3053   3054   3056     1  0.0000000  0.6508444  3
   3055   3053   3054   3074     1  0.0000000  1.0460000  1
   3055   3053   3054   3074     1  0.0000000  0.0000000  3
   3055   3053   3054   3073     1  0.0000000  0.6508444  3
   3055   3053   3064   3069     1  0.0000000  1.0460000  1
   3055   3053   3064   3069     1  0.0000000  0.0000000  3
   3055   3053   3064   3067     1  0.0000000  0.6508444  3
   3055   3053   3064   3068     1  0.0000000  0.6508444  3
   3055   3053   3071   3058     1  0.0000000  1.6038667  3
   3056   3057   3058   3061     1  0.0000000  0.6508444  3
   3056   3057   3076   3066     1  0.0000000  1.2552000  3
   3056   3054   3074   3075     1  0.0000000  1.0460000  1
   3056   3054   3074   3075     1  0.0000000  0.6694400  3
   3057   3058   3062   3072     1  0.0000000  1.0460000  1
   3057   3058   3062   3072     1  0.0000000  0.6694400  3
   3057   3056   3063   3065     1  0.0000000  1.0460000  1
   3057   3056   3063   3065     1  0.0000000  0.6694400  3
   3057   3056   3054   3073     1  0.0000000  0.6508444  3
   3058   3057   3076   3066     1  0.0000000  1.2552000  3
   3058   3057   3056   3060     1  0.0000000  0.6508444  3
   3059   3057   3058   3062     1  0.0000000  1.0460000  1
   3059   3057   3058   3062     1  0.0000000  0.0000000  3
   3059   3057   3058   3071     1  0.0000000  1.0460000  1
   3059   3057   3058   3071     1  0.0000000  0.0000000  3
   3059   3057   3058   3061     1  0.0000000  0.6508444  3
   3059   3057   3076   3066     1  0.0000000  1.2552000  3
   3059   3057   3056   3063     1  0.0000000  1.0460000  1
   3059   3057   3056   3063     1  0.0000000  0.0000000  3
   3059   3057   3056   3060     1  0.0000000  0.6508444  3
   3060   3056   3057   3076     1  0.0000000  0.6508444  3
   3060   3056   3063   3065     1  0.0000000  0.6973333  3
   3060   3056   3054   3074     1  0.0000000  1.0460000  1
   3060   3056   3054   3074     1  0.0000000  0.0000000  3
   3060   3056   3054   3073     1  0.0000000  0.6508444  3
   3061   3058   3062   3072     1  0.0000000  0.6973333  3
   3061   3058   3057   3076     1  0.0000000  0.6508444  3
   3063   3056   3054   3073     1  0.0000000  1.0460000  1
   3063   3056   3054   3073     1  0.0000000  0.0000000  3
   3064   3053   3054   3073     1  0.0000000  0.6508444  3
   3067   3064   3069   3070     1  0.0000000  0.6973333  3
   3067   3064   3053   3071     1  0.0000000  1.0460000  1
   3067   3064   3053   3071     1  0.0000000  0.0000000  3
   3068   3064   3069   3070     1  0.0000000  0.6973333  3
   3068   3064   3053   3071     1  0.0000000  1.0460000  1
   3068   3064   3053   3071     1  0.0000000  0.0000000  3
   3071   3058   3062   3072     1  0.0000000  0.6973333  3
   3071   3053   3054   3073     1  0.0000000  1.0460000  1
   3071   3053   3054   3073     1  0.0000000  0.0000000  3
   3073   3054   3074   3075     1  0.0000000  0.6973333  3
     33     44     64     65     4  180.0000771  4.6024000  2
     34     69     89     90     4  180.0000771  4.6024000  2
     35     94    114    115     4  180.0000771  4.6024000  2
     36    119    139    140     4  180.0000771  4.6024000  2
     60    144    164    165     4  180.0000771  4.6024000  2
     61    169    189    190     4  180.0000771  4.6024000  2
     85    194    214    215     4  180.0000771  4.6024000  2
     86    219    239    240     4  180.0000771  4.6024000  2
    110    244    264    265     4  180.0000771  4.6024000  2
    111    269    289    290     4  180.0000771  4.6024000  2
    135    294    314    315     4  180.0000771  4.6024000  2
    136    319    339    340     4  180.0000771  4.6024000  2
    160    344    364    365     4  180.0000771  4.6024000  2
    161    369    389    390     4  180.0000771  4.6024000  2
    185    394    414    415     4  180.0000771  4.6024000  2
    186    419    439    440     4  180.0000771  4.6024000  2
    210    444    464    465     4  180.0000771  4.6024000  2
    211    469    489    490     4  180.0000771  4.6024000  2
    235    494    514    515     4  180.0000771  4.6024000  2
    236    519    539    540     4  180.0000771  4.6024000  2
    260    544    564    565     4  180.0000771  4.6024000  2
    261    569    589    590     4  180.0000771  4.6024000  2
    285    594    614    615     4  180.0000771  4.6024000  2
    286    619    639    640     4  180.0000771  4.6024000  2
    310    644    664    665     4  180.0000771  4.6024000  2
    311    669    689    690     4  180.0000771  4.6024000  2
    335    694    714    715     4  180.0000771  4.6024000  2
    336    719    739    740     4  180.0000771  4.6024000  2
    360    743    741    742     4  180.0000771  4.6024000  2
    361    816    814    815     4  180.0000771  4.6024000  2
    385    889    887    888     4  180.0000771  4.6024000  2
    386    962    960    961     4  180.0000771  4.6024000  2
    410   1035   1033   1034     4  180.0000771  4.6024000  2
    411   1108   1106   1107     4  180.0000771  4.6024000  2
    435   1181   1179   1180     4  180.0000771  4.6024000  2
    436   1254   1252   1253     4  180.0000771  4.6024000  2
    460   1327   1325   1326     4  180.0000771  4.6024000  2
    461   1400   1398   1399     4  180.0000771  4.6024000  2
    485   1473   1471   1472     4  180.0000771  4.6024000  2
    486   1546   1544   1545     4  180.0000771  4.6024000  2
    510   1619   1617   1618     4  180.0000771  4.6024000  2
    511   1692   1690   1691     4  180.0000771  4.6024000  2
    535   1765   1763   1764     4  180.0000771  4.6024000  2
    536   1838   1836   1837     4  180.0000771  4.6024000  2
    560   1911   1909   1910     4  180.0000771  4.6024000  2
    561   1984   1982   1983     4  180.0000771  4.6024000  2
    585   2057   2055   2056     4  180.0000771  4.6024000  2
    586   2130   2128   2129     4  180.0000771  4.6024000  2
    610   2203   2201   2202     4  180.0000771  4.6024000  2
    611   2276   2274   2275     4  180.0000771  4.6024000  2
    635   2349   2347   2348     4  180.0000771  4.6024000  2
    636   2422   2420   2421     4  180.0000771  4.6024000  2
    660   2495   2493   2494     4  180.0000771  4.6024000  2
    661   2568   2566   2567     4  180.0000771  4.6024000  2
    685   2641   2639   2640     4  180.0000771  4.6024000  2
    686   2714   2712   2713     4  180.0000771  4.6024000  2
    710   2787   2785   2786     4  180.0000771  4.6024000  2
    711   2860   2858   2859     4  180.0000771  4.6024000  2
    735   2933   2931   2932     4  180.0000771  4.6024000  2
    736   3006   3004   3005     4  180.0000771  4.6024000  2

;[ system ]
;; Name
;Generic title
;
;[ molecules ]
;; Compound       #mols
;system1              1
