;
;   File g4.5ocore_petim.itp  was generated
;   By user: sairam (1000)
;   On host: sairam
;   At date: Sun. August  0 00:49:21 2023
;
;   This is a standalone topology file
;
;   Created by:
;   ParmEd:       amb2gro_top_gro.py, VERSION 3.4.1
;   Executable:   amb2gro_top_gro.py
;   Library dir:  /usr/local/gromacs/share/gromacs/top
;   Command line:
;     ./amb2gro_top_gro.py -p g4.5ocore_petim.prmtop -c g4.5ocore_petim.inpcrd -t g4.5ocore_petim.itp -g g4.5ocore_petim.gro -b g4.5ocore_petim.pdb
;

;[ defaults ]
;; nbfunc        comb-rule       gen-pairs       fudgeLJ fudgeQQ
;1               2               yes             0.5          0.83333333  
;
;[ atomtypes ]
;; name    at.num    mass    charge ptype  sigma      epsilon
;os             8  16.000000  0.00000000  A     0.30000123        0.71128
;c3             6  12.010000  0.00000000  A     0.33996695      0.4577296
;h1             1   1.008000  0.00000000  A      0.2471353      0.0656888
;hc             1   1.008000  0.00000000  A     0.26495328      0.0656888
;n3             7  14.010000  0.00000000  A     0.32499985        0.71128
;c              6  12.010000  0.00000000  A     0.33996695       0.359824
;o              8  16.000000  0.00000000  A     0.29599219        0.87864


[ moleculetype ]
; Name            nrexcl
g4.5ocore_petim      3

[ atoms ]
;   nr       type  resnr residue  atom   cgnr    charge       mass  typeB    chargeB      massB
; residue    1 aaa rtp aaa q -0.0
    1         os      1    aaa     O1      1 -0.43807400  16.000000   ; qtot -0.438074
    2         c3      1    aaa     C1      2 0.04509800  12.010000   ; qtot -0.392976
    3         h1      1    aaa     H1      3 0.04771700   1.008000   ; qtot -0.345259
    4         h1      1    aaa     H2      4 0.04771700   1.008000   ; qtot -0.297542
    5         c3      1    aaa     C2      5 0.04509800  12.010000   ; qtot -0.252444
    6         h1      1    aaa     H3      6 0.04771700   1.008000   ; qtot -0.204727
    7         h1      1    aaa     H4      7 0.04771700   1.008000   ; qtot -0.157010
    8         c3      1    aaa     C3      8 0.05658600  12.010000   ; qtot -0.100424
    9         hc      1    aaa     H5      9 0.04933800   1.008000   ; qtot -0.051086
   10         hc      1    aaa     H6     10 0.04933800   1.008000   ; qtot -0.001748
   11         c3      1    aaa     C4     11 0.05658600  12.010000   ; qtot 0.054838
   12         hc      1    aaa     H7     12 0.04933800   1.008000   ; qtot 0.104176
   13         hc      1    aaa     H8     13 0.04933800   1.008000   ; qtot 0.153514
   14         c3      1    aaa     C5     14 0.00989700  12.010000   ; qtot 0.163411
   15         h1      1    aaa     H9     15 0.04845500   1.008000   ; qtot 0.211866
   16         h1      1    aaa    H10     16 0.04845500   1.008000   ; qtot 0.260321
   17         c3      1    aaa     C6     17 0.00989700  12.010000   ; qtot 0.270218
   18         h1      1    aaa    H11     18 0.04845500   1.008000   ; qtot 0.318673
   19         h1      1    aaa    H12     19 0.04845500   1.008000   ; qtot 0.367128
   20         n3      1    aaa     N1     20 -0.59936800  14.010000   ; qtot -0.232240
   21         n3      1    aaa     N2     21 -0.59936800  14.010000   ; qtot -0.831608
   22         c3      1    aaa     C7     22 0.08030200  12.010000   ; qtot -0.751306
   23         h1      1    aaa    H13     23 0.05071600   1.008000   ; qtot -0.700590
   24         h1      1    aaa    H14     24 0.05071600   1.008000   ; qtot -0.649874
   25         c3      1    aaa     C8     25 0.08030200  12.010000   ; qtot -0.569572
   26         h1      1    aaa    H15     26 0.05071600   1.008000   ; qtot -0.518856
   27         h1      1    aaa    H16     27 0.05071600   1.008000   ; qtot -0.468140
   28         c3      1    aaa     C9     28 0.08030200  12.010000   ; qtot -0.387838
   29         h1      1    aaa    H17     29 0.05071600   1.008000   ; qtot -0.337122
   30         h1      1    aaa    H18     30 0.05071600   1.008000   ; qtot -0.286406
   31         c3      1    aaa    C10     31 0.08030200  12.010000   ; qtot -0.206104
   32         h1      1    aaa    H19     32 0.05071600   1.008000   ; qtot -0.155388
   33         h1      1    aaa    H20     33 0.05071600   1.008000   ; qtot -0.104672
   34         c3      1    aaa    C11     34 0.10287800  12.010000   ; qtot -0.001794
   35         hc      1    aaa    H21     35 0.06787400   1.008000   ; qtot 0.066080
   36         hc      1    aaa    H22     36 0.06787400   1.008000   ; qtot 0.133954
   37         c3      1    aaa    C12     37 0.10287800  12.010000   ; qtot 0.236832
   38         hc      1    aaa    H23     38 0.06787400   1.008000   ; qtot 0.304706
   39         hc      1    aaa    H24     39 0.06787400   1.008000   ; qtot 0.372580
   40         c3      1    aaa    C13     40 0.10287800  12.010000   ; qtot 0.475458
   41         hc      1    aaa    H25     41 0.06787400   1.008000   ; qtot 0.543332
   42         hc      1    aaa    H26     42 0.06787400   1.008000   ; qtot 0.611206
   43         c3      1    aaa    C14     43 0.10287800  12.010000   ; qtot 0.714084
   44         hc      1    aaa    H27     44 0.06787400   1.008000   ; qtot 0.781958
   45         hc      1    aaa    H28     45 0.06787400   1.008000   ; qtot 0.849832
   46         c3      1    aaa    C15     46 -0.72585200  12.010000   ; qtot 0.123980
   47         h1      1    aaa    H29     47 0.25669700   1.008000   ; qtot 0.380677
   48         h1      1    aaa    H30     48 0.25669700   1.008000   ; qtot 0.637374
   49         c3      1    aaa    C16     49 -0.72585200  12.010000   ; qtot -0.088478
   50         h1      1    aaa    H31     50 0.25669700   1.008000   ; qtot 0.168219
   51         h1      1    aaa    H32     51 0.25669700   1.008000   ; qtot 0.424916
   52         c3      1    aaa    C17     52 -0.72585200  12.010000   ; qtot -0.300936
   53         h1      1    aaa    H33     53 0.25669700   1.008000   ; qtot -0.044239
   54         h1      1    aaa    H34     54 0.25669700   1.008000   ; qtot 0.212458
   55         c3      1    aaa    C18     55 -0.72585200  12.010000   ; qtot -0.513394
   56         h1      1    aaa    H35     56 0.25669700   1.008000   ; qtot -0.256697
   57         h1      1    aaa    H36     57 0.25669700   1.008000   ; qtot -0.000000
; residue    2 bbb rtp bbb q -0.0
   58         n3      2    bbb     N1     58 -0.59685800  14.010000   ; qtot -0.596858
   59         c3      2    bbb     C1     59 0.10137000  12.010000   ; qtot -0.495488
   60         h1      2    bbb     H1     60 0.04411300   1.008000   ; qtot -0.451375
   61         h1      2    bbb     H2     61 0.04411300   1.008000   ; qtot -0.407262
   62         c3      2    bbb     C2     62 0.10137000  12.010000   ; qtot -0.305892
   63         h1      2    bbb     H3     63 0.04411300   1.008000   ; qtot -0.261779
   64         h1      2    bbb     H4     64 0.04411300   1.008000   ; qtot -0.217666
   65         c3      2    bbb     C3     65 -0.00195300  12.010000   ; qtot -0.219619
   66         h1      2    bbb     H5     66 0.05064400   1.008000   ; qtot -0.168975
   67         h1      2    bbb     H6     67 0.05064400   1.008000   ; qtot -0.118331
   68         c3      2    bbb     C4     68 -0.01612100  12.010000   ; qtot -0.134452
   69         hc      2    bbb     H7     69 0.04936100   1.008000   ; qtot -0.085091
   70         hc      2    bbb     H8     70 0.04936100   1.008000   ; qtot -0.035730
   71         c3      2    bbb     C5     71 0.11363000  12.010000   ; qtot 0.077900
   72         hc      2    bbb     H9     72 0.06265900   1.008000   ; qtot 0.140559
   73         hc      2    bbb    H10     73 0.06265900   1.008000   ; qtot 0.203218
   74         c3      2    bbb     C6     74 0.11363000  12.010000   ; qtot 0.316848
   75         hc      2    bbb    H11     75 0.06265900   1.008000   ; qtot 0.379507
   76         hc      2    bbb    H12     76 0.06265900   1.008000   ; qtot 0.442166
   77         c3      2    bbb     C7     77 0.05858200  12.010000   ; qtot 0.500748
   78         h1      2    bbb    H13     78 0.06123400   1.008000   ; qtot 0.561982
   79         h1      2    bbb    H14     79 0.06123400   1.008000   ; qtot 0.623216
   80         c3      2    bbb     C8     80 -0.72423400  12.010000   ; qtot -0.101018
   81         h1      2    bbb    H15     81 0.25637600   1.008000   ; qtot 0.155358
   82         h1      2    bbb    H16     82 0.25637600   1.008000   ; qtot 0.411734
   83         c3      2    bbb     C9     83 -0.72423400  12.010000   ; qtot -0.312500
   84         h1      2    bbb    H17     84 0.25637600   1.008000   ; qtot -0.056124
   85         h1      2    bbb    H18     85 0.25637600   1.008000   ; qtot 0.200252
   86         os      2    bbb     O1     86 -0.20025300  16.000000   ; qtot -0.000001
; residue    3 bbb rtp bbb q -0.0
   87         n3      3    bbb     N1     87 -0.59685800  14.010000   ; qtot -0.596859
   88         c3      3    bbb     C1     88 0.10137000  12.010000   ; qtot -0.495489
   89         h1      3    bbb     H1     89 0.04411300   1.008000   ; qtot -0.451376
   90         h1      3    bbb     H2     90 0.04411300   1.008000   ; qtot -0.407263
   91         c3      3    bbb     C2     91 0.10137000  12.010000   ; qtot -0.305893
   92         h1      3    bbb     H3     92 0.04411300   1.008000   ; qtot -0.261780
   93         h1      3    bbb     H4     93 0.04411300   1.008000   ; qtot -0.217667
   94         c3      3    bbb     C3     94 -0.00195300  12.010000   ; qtot -0.219620
   95         h1      3    bbb     H5     95 0.05064400   1.008000   ; qtot -0.168976
   96         h1      3    bbb     H6     96 0.05064400   1.008000   ; qtot -0.118332
   97         c3      3    bbb     C4     97 -0.01612100  12.010000   ; qtot -0.134453
   98         hc      3    bbb     H7     98 0.04936100   1.008000   ; qtot -0.085092
   99         hc      3    bbb     H8     99 0.04936100   1.008000   ; qtot -0.035731
  100         c3      3    bbb     C5    100 0.11363000  12.010000   ; qtot 0.077899
  101         hc      3    bbb     H9    101 0.06265900   1.008000   ; qtot 0.140558
  102         hc      3    bbb    H10    102 0.06265900   1.008000   ; qtot 0.203217
  103         c3      3    bbb     C6    103 0.11363000  12.010000   ; qtot 0.316847
  104         hc      3    bbb    H11    104 0.06265900   1.008000   ; qtot 0.379506
  105         hc      3    bbb    H12    105 0.06265900   1.008000   ; qtot 0.442165
  106         c3      3    bbb     C7    106 0.05858200  12.010000   ; qtot 0.500747
  107         h1      3    bbb    H13    107 0.06123400   1.008000   ; qtot 0.561981
  108         h1      3    bbb    H14    108 0.06123400   1.008000   ; qtot 0.623215
  109         c3      3    bbb     C8    109 -0.72423400  12.010000   ; qtot -0.101019
  110         h1      3    bbb    H15    110 0.25637600   1.008000   ; qtot 0.155357
  111         h1      3    bbb    H16    111 0.25637600   1.008000   ; qtot 0.411733
  112         c3      3    bbb     C9    112 -0.72423400  12.010000   ; qtot -0.312501
  113         h1      3    bbb    H17    113 0.25637600   1.008000   ; qtot -0.056125
  114         h1      3    bbb    H18    114 0.25637600   1.008000   ; qtot 0.200251
  115         os      3    bbb     O1    115 -0.20025300  16.000000   ; qtot -0.000002
; residue    4 bbb rtp bbb q -0.0
  116         n3      4    bbb     N1    116 -0.59685800  14.010000   ; qtot -0.596860
  117         c3      4    bbb     C1    117 0.10137000  12.010000   ; qtot -0.495490
  118         h1      4    bbb     H1    118 0.04411300   1.008000   ; qtot -0.451377
  119         h1      4    bbb     H2    119 0.04411300   1.008000   ; qtot -0.407264
  120         c3      4    bbb     C2    120 0.10137000  12.010000   ; qtot -0.305894
  121         h1      4    bbb     H3    121 0.04411300   1.008000   ; qtot -0.261781
  122         h1      4    bbb     H4    122 0.04411300   1.008000   ; qtot -0.217668
  123         c3      4    bbb     C3    123 -0.00195300  12.010000   ; qtot -0.219621
  124         h1      4    bbb     H5    124 0.05064400   1.008000   ; qtot -0.168977
  125         h1      4    bbb     H6    125 0.05064400   1.008000   ; qtot -0.118333
  126         c3      4    bbb     C4    126 -0.01612100  12.010000   ; qtot -0.134454
  127         hc      4    bbb     H7    127 0.04936100   1.008000   ; qtot -0.085093
  128         hc      4    bbb     H8    128 0.04936100   1.008000   ; qtot -0.035732
  129         c3      4    bbb     C5    129 0.11363000  12.010000   ; qtot 0.077898
  130         hc      4    bbb     H9    130 0.06265900   1.008000   ; qtot 0.140557
  131         hc      4    bbb    H10    131 0.06265900   1.008000   ; qtot 0.203216
  132         c3      4    bbb     C6    132 0.11363000  12.010000   ; qtot 0.316846
  133         hc      4    bbb    H11    133 0.06265900   1.008000   ; qtot 0.379505
  134         hc      4    bbb    H12    134 0.06265900   1.008000   ; qtot 0.442164
  135         c3      4    bbb     C7    135 0.05858200  12.010000   ; qtot 0.500746
  136         h1      4    bbb    H13    136 0.06123400   1.008000   ; qtot 0.561980
  137         h1      4    bbb    H14    137 0.06123400   1.008000   ; qtot 0.623214
  138         c3      4    bbb     C8    138 -0.72423400  12.010000   ; qtot -0.101020
  139         h1      4    bbb    H15    139 0.25637600   1.008000   ; qtot 0.155356
  140         h1      4    bbb    H16    140 0.25637600   1.008000   ; qtot 0.411732
  141         c3      4    bbb     C9    141 -0.72423400  12.010000   ; qtot -0.312502
  142         h1      4    bbb    H17    142 0.25637600   1.008000   ; qtot -0.056126
  143         h1      4    bbb    H18    143 0.25637600   1.008000   ; qtot 0.200250
  144         os      4    bbb     O1    144 -0.20025300  16.000000   ; qtot -0.000003
; residue    5 bbb rtp bbb q -0.0
  145         n3      5    bbb     N1    145 -0.59685800  14.010000   ; qtot -0.596861
  146         c3      5    bbb     C1    146 0.10137000  12.010000   ; qtot -0.495491
  147         h1      5    bbb     H1    147 0.04411300   1.008000   ; qtot -0.451378
  148         h1      5    bbb     H2    148 0.04411300   1.008000   ; qtot -0.407265
  149         c3      5    bbb     C2    149 0.10137000  12.010000   ; qtot -0.305895
  150         h1      5    bbb     H3    150 0.04411300   1.008000   ; qtot -0.261782
  151         h1      5    bbb     H4    151 0.04411300   1.008000   ; qtot -0.217669
  152         c3      5    bbb     C3    152 -0.00195300  12.010000   ; qtot -0.219622
  153         h1      5    bbb     H5    153 0.05064400   1.008000   ; qtot -0.168978
  154         h1      5    bbb     H6    154 0.05064400   1.008000   ; qtot -0.118334
  155         c3      5    bbb     C4    155 -0.01612100  12.010000   ; qtot -0.134455
  156         hc      5    bbb     H7    156 0.04936100   1.008000   ; qtot -0.085094
  157         hc      5    bbb     H8    157 0.04936100   1.008000   ; qtot -0.035733
  158         c3      5    bbb     C5    158 0.11363000  12.010000   ; qtot 0.077897
  159         hc      5    bbb     H9    159 0.06265900   1.008000   ; qtot 0.140556
  160         hc      5    bbb    H10    160 0.06265900   1.008000   ; qtot 0.203215
  161         c3      5    bbb     C6    161 0.11363000  12.010000   ; qtot 0.316845
  162         hc      5    bbb    H11    162 0.06265900   1.008000   ; qtot 0.379504
  163         hc      5    bbb    H12    163 0.06265900   1.008000   ; qtot 0.442163
  164         c3      5    bbb     C7    164 0.05858200  12.010000   ; qtot 0.500745
  165         h1      5    bbb    H13    165 0.06123400   1.008000   ; qtot 0.561979
  166         h1      5    bbb    H14    166 0.06123400   1.008000   ; qtot 0.623213
  167         c3      5    bbb     C8    167 -0.72423400  12.010000   ; qtot -0.101021
  168         h1      5    bbb    H15    168 0.25637600   1.008000   ; qtot 0.155355
  169         h1      5    bbb    H16    169 0.25637600   1.008000   ; qtot 0.411731
  170         c3      5    bbb     C9    170 -0.72423400  12.010000   ; qtot -0.312503
  171         h1      5    bbb    H17    171 0.25637600   1.008000   ; qtot -0.056127
  172         h1      5    bbb    H18    172 0.25637600   1.008000   ; qtot 0.200249
  173         os      5    bbb     O1    173 -0.20025300  16.000000   ; qtot -0.000004
; residue    6 bbb rtp bbb q -0.0
  174         n3      6    bbb     N1    174 -0.59685800  14.010000   ; qtot -0.596862
  175         c3      6    bbb     C1    175 0.10137000  12.010000   ; qtot -0.495492
  176         h1      6    bbb     H1    176 0.04411300   1.008000   ; qtot -0.451379
  177         h1      6    bbb     H2    177 0.04411300   1.008000   ; qtot -0.407266
  178         c3      6    bbb     C2    178 0.10137000  12.010000   ; qtot -0.305896
  179         h1      6    bbb     H3    179 0.04411300   1.008000   ; qtot -0.261783
  180         h1      6    bbb     H4    180 0.04411300   1.008000   ; qtot -0.217670
  181         c3      6    bbb     C3    181 -0.00195300  12.010000   ; qtot -0.219623
  182         h1      6    bbb     H5    182 0.05064400   1.008000   ; qtot -0.168979
  183         h1      6    bbb     H6    183 0.05064400   1.008000   ; qtot -0.118335
  184         c3      6    bbb     C4    184 -0.01612100  12.010000   ; qtot -0.134456
  185         hc      6    bbb     H7    185 0.04936100   1.008000   ; qtot -0.085095
  186         hc      6    bbb     H8    186 0.04936100   1.008000   ; qtot -0.035734
  187         c3      6    bbb     C5    187 0.11363000  12.010000   ; qtot 0.077896
  188         hc      6    bbb     H9    188 0.06265900   1.008000   ; qtot 0.140555
  189         hc      6    bbb    H10    189 0.06265900   1.008000   ; qtot 0.203214
  190         c3      6    bbb     C6    190 0.11363000  12.010000   ; qtot 0.316844
  191         hc      6    bbb    H11    191 0.06265900   1.008000   ; qtot 0.379503
  192         hc      6    bbb    H12    192 0.06265900   1.008000   ; qtot 0.442162
  193         c3      6    bbb     C7    193 0.05858200  12.010000   ; qtot 0.500744
  194         h1      6    bbb    H13    194 0.06123400   1.008000   ; qtot 0.561978
  195         h1      6    bbb    H14    195 0.06123400   1.008000   ; qtot 0.623212
  196         c3      6    bbb     C8    196 -0.72423400  12.010000   ; qtot -0.101022
  197         h1      6    bbb    H15    197 0.25637600   1.008000   ; qtot 0.155354
  198         h1      6    bbb    H16    198 0.25637600   1.008000   ; qtot 0.411730
  199         c3      6    bbb     C9    199 -0.72423400  12.010000   ; qtot -0.312504
  200         h1      6    bbb    H17    200 0.25637600   1.008000   ; qtot -0.056128
  201         h1      6    bbb    H18    201 0.25637600   1.008000   ; qtot 0.200248
  202         os      6    bbb     O1    202 -0.20025300  16.000000   ; qtot -0.000005
; residue    7 bbb rtp bbb q -0.0
  203         n3      7    bbb     N1    203 -0.59685800  14.010000   ; qtot -0.596863
  204         c3      7    bbb     C1    204 0.10137000  12.010000   ; qtot -0.495493
  205         h1      7    bbb     H1    205 0.04411300   1.008000   ; qtot -0.451380
  206         h1      7    bbb     H2    206 0.04411300   1.008000   ; qtot -0.407267
  207         c3      7    bbb     C2    207 0.10137000  12.010000   ; qtot -0.305897
  208         h1      7    bbb     H3    208 0.04411300   1.008000   ; qtot -0.261784
  209         h1      7    bbb     H4    209 0.04411300   1.008000   ; qtot -0.217671
  210         c3      7    bbb     C3    210 -0.00195300  12.010000   ; qtot -0.219624
  211         h1      7    bbb     H5    211 0.05064400   1.008000   ; qtot -0.168980
  212         h1      7    bbb     H6    212 0.05064400   1.008000   ; qtot -0.118336
  213         c3      7    bbb     C4    213 -0.01612100  12.010000   ; qtot -0.134457
  214         hc      7    bbb     H7    214 0.04936100   1.008000   ; qtot -0.085096
  215         hc      7    bbb     H8    215 0.04936100   1.008000   ; qtot -0.035735
  216         c3      7    bbb     C5    216 0.11363000  12.010000   ; qtot 0.077895
  217         hc      7    bbb     H9    217 0.06265900   1.008000   ; qtot 0.140554
  218         hc      7    bbb    H10    218 0.06265900   1.008000   ; qtot 0.203213
  219         c3      7    bbb     C6    219 0.11363000  12.010000   ; qtot 0.316843
  220         hc      7    bbb    H11    220 0.06265900   1.008000   ; qtot 0.379502
  221         hc      7    bbb    H12    221 0.06265900   1.008000   ; qtot 0.442161
  222         c3      7    bbb     C7    222 0.05858200  12.010000   ; qtot 0.500743
  223         h1      7    bbb    H13    223 0.06123400   1.008000   ; qtot 0.561977
  224         h1      7    bbb    H14    224 0.06123400   1.008000   ; qtot 0.623211
  225         c3      7    bbb     C8    225 -0.72423400  12.010000   ; qtot -0.101023
  226         h1      7    bbb    H15    226 0.25637600   1.008000   ; qtot 0.155353
  227         h1      7    bbb    H16    227 0.25637600   1.008000   ; qtot 0.411729
  228         c3      7    bbb     C9    228 -0.72423400  12.010000   ; qtot -0.312505
  229         h1      7    bbb    H17    229 0.25637600   1.008000   ; qtot -0.056129
  230         h1      7    bbb    H18    230 0.25637600   1.008000   ; qtot 0.200247
  231         os      7    bbb     O1    231 -0.20025300  16.000000   ; qtot -0.000006
; residue    8 bbb rtp bbb q -0.0
  232         n3      8    bbb     N1    232 -0.59685800  14.010000   ; qtot -0.596864
  233         c3      8    bbb     C1    233 0.10137000  12.010000   ; qtot -0.495494
  234         h1      8    bbb     H1    234 0.04411300   1.008000   ; qtot -0.451381
  235         h1      8    bbb     H2    235 0.04411300   1.008000   ; qtot -0.407268
  236         c3      8    bbb     C2    236 0.10137000  12.010000   ; qtot -0.305898
  237         h1      8    bbb     H3    237 0.04411300   1.008000   ; qtot -0.261785
  238         h1      8    bbb     H4    238 0.04411300   1.008000   ; qtot -0.217672
  239         c3      8    bbb     C3    239 -0.00195300  12.010000   ; qtot -0.219625
  240         h1      8    bbb     H5    240 0.05064400   1.008000   ; qtot -0.168981
  241         h1      8    bbb     H6    241 0.05064400   1.008000   ; qtot -0.118337
  242         c3      8    bbb     C4    242 -0.01612100  12.010000   ; qtot -0.134458
  243         hc      8    bbb     H7    243 0.04936100   1.008000   ; qtot -0.085097
  244         hc      8    bbb     H8    244 0.04936100   1.008000   ; qtot -0.035736
  245         c3      8    bbb     C5    245 0.11363000  12.010000   ; qtot 0.077894
  246         hc      8    bbb     H9    246 0.06265900   1.008000   ; qtot 0.140553
  247         hc      8    bbb    H10    247 0.06265900   1.008000   ; qtot 0.203212
  248         c3      8    bbb     C6    248 0.11363000  12.010000   ; qtot 0.316842
  249         hc      8    bbb    H11    249 0.06265900   1.008000   ; qtot 0.379501
  250         hc      8    bbb    H12    250 0.06265900   1.008000   ; qtot 0.442160
  251         c3      8    bbb     C7    251 0.05858200  12.010000   ; qtot 0.500742
  252         h1      8    bbb    H13    252 0.06123400   1.008000   ; qtot 0.561976
  253         h1      8    bbb    H14    253 0.06123400   1.008000   ; qtot 0.623210
  254         c3      8    bbb     C8    254 -0.72423400  12.010000   ; qtot -0.101024
  255         h1      8    bbb    H15    255 0.25637600   1.008000   ; qtot 0.155352
  256         h1      8    bbb    H16    256 0.25637600   1.008000   ; qtot 0.411728
  257         c3      8    bbb     C9    257 -0.72423400  12.010000   ; qtot -0.312506
  258         h1      8    bbb    H17    258 0.25637600   1.008000   ; qtot -0.056130
  259         h1      8    bbb    H18    259 0.25637600   1.008000   ; qtot 0.200246
  260         os      8    bbb     O1    260 -0.20025300  16.000000   ; qtot -0.000007
; residue    9 bbb rtp bbb q -0.0
  261         n3      9    bbb     N1    261 -0.59685800  14.010000   ; qtot -0.596865
  262         c3      9    bbb     C1    262 0.10137000  12.010000   ; qtot -0.495495
  263         h1      9    bbb     H1    263 0.04411300   1.008000   ; qtot -0.451382
  264         h1      9    bbb     H2    264 0.04411300   1.008000   ; qtot -0.407269
  265         c3      9    bbb     C2    265 0.10137000  12.010000   ; qtot -0.305899
  266         h1      9    bbb     H3    266 0.04411300   1.008000   ; qtot -0.261786
  267         h1      9    bbb     H4    267 0.04411300   1.008000   ; qtot -0.217673
  268         c3      9    bbb     C3    268 -0.00195300  12.010000   ; qtot -0.219626
  269         h1      9    bbb     H5    269 0.05064400   1.008000   ; qtot -0.168982
  270         h1      9    bbb     H6    270 0.05064400   1.008000   ; qtot -0.118338
  271         c3      9    bbb     C4    271 -0.01612100  12.010000   ; qtot -0.134459
  272         hc      9    bbb     H7    272 0.04936100   1.008000   ; qtot -0.085098
  273         hc      9    bbb     H8    273 0.04936100   1.008000   ; qtot -0.035737
  274         c3      9    bbb     C5    274 0.11363000  12.010000   ; qtot 0.077893
  275         hc      9    bbb     H9    275 0.06265900   1.008000   ; qtot 0.140552
  276         hc      9    bbb    H10    276 0.06265900   1.008000   ; qtot 0.203211
  277         c3      9    bbb     C6    277 0.11363000  12.010000   ; qtot 0.316841
  278         hc      9    bbb    H11    278 0.06265900   1.008000   ; qtot 0.379500
  279         hc      9    bbb    H12    279 0.06265900   1.008000   ; qtot 0.442159
  280         c3      9    bbb     C7    280 0.05858200  12.010000   ; qtot 0.500741
  281         h1      9    bbb    H13    281 0.06123400   1.008000   ; qtot 0.561975
  282         h1      9    bbb    H14    282 0.06123400   1.008000   ; qtot 0.623209
  283         c3      9    bbb     C8    283 -0.72423400  12.010000   ; qtot -0.101025
  284         h1      9    bbb    H15    284 0.25637600   1.008000   ; qtot 0.155351
  285         h1      9    bbb    H16    285 0.25637600   1.008000   ; qtot 0.411727
  286         c3      9    bbb     C9    286 -0.72423400  12.010000   ; qtot -0.312507
  287         h1      9    bbb    H17    287 0.25637600   1.008000   ; qtot -0.056131
  288         h1      9    bbb    H18    288 0.25637600   1.008000   ; qtot 0.200245
  289         os      9    bbb     O1    289 -0.20025300  16.000000   ; qtot -0.000008
; residue   10 bbb rtp bbb q -0.0
  290         n3     10    bbb     N1    290 -0.59685800  14.010000   ; qtot -0.596866
  291         c3     10    bbb     C1    291 0.10137000  12.010000   ; qtot -0.495496
  292         h1     10    bbb     H1    292 0.04411300   1.008000   ; qtot -0.451383
  293         h1     10    bbb     H2    293 0.04411300   1.008000   ; qtot -0.407270
  294         c3     10    bbb     C2    294 0.10137000  12.010000   ; qtot -0.305900
  295         h1     10    bbb     H3    295 0.04411300   1.008000   ; qtot -0.261787
  296         h1     10    bbb     H4    296 0.04411300   1.008000   ; qtot -0.217674
  297         c3     10    bbb     C3    297 -0.00195300  12.010000   ; qtot -0.219627
  298         h1     10    bbb     H5    298 0.05064400   1.008000   ; qtot -0.168983
  299         h1     10    bbb     H6    299 0.05064400   1.008000   ; qtot -0.118339
  300         c3     10    bbb     C4    300 -0.01612100  12.010000   ; qtot -0.134460
  301         hc     10    bbb     H7    301 0.04936100   1.008000   ; qtot -0.085099
  302         hc     10    bbb     H8    302 0.04936100   1.008000   ; qtot -0.035738
  303         c3     10    bbb     C5    303 0.11363000  12.010000   ; qtot 0.077892
  304         hc     10    bbb     H9    304 0.06265900   1.008000   ; qtot 0.140551
  305         hc     10    bbb    H10    305 0.06265900   1.008000   ; qtot 0.203210
  306         c3     10    bbb     C6    306 0.11363000  12.010000   ; qtot 0.316840
  307         hc     10    bbb    H11    307 0.06265900   1.008000   ; qtot 0.379499
  308         hc     10    bbb    H12    308 0.06265900   1.008000   ; qtot 0.442158
  309         c3     10    bbb     C7    309 0.05858200  12.010000   ; qtot 0.500740
  310         h1     10    bbb    H13    310 0.06123400   1.008000   ; qtot 0.561974
  311         h1     10    bbb    H14    311 0.06123400   1.008000   ; qtot 0.623208
  312         c3     10    bbb     C8    312 -0.72423400  12.010000   ; qtot -0.101026
  313         h1     10    bbb    H15    313 0.25637600   1.008000   ; qtot 0.155350
  314         h1     10    bbb    H16    314 0.25637600   1.008000   ; qtot 0.411726
  315         c3     10    bbb     C9    315 -0.72423400  12.010000   ; qtot -0.312508
  316         h1     10    bbb    H17    316 0.25637600   1.008000   ; qtot -0.056132
  317         h1     10    bbb    H18    317 0.25637600   1.008000   ; qtot 0.200244
  318         os     10    bbb     O1    318 -0.20025300  16.000000   ; qtot -0.000009
; residue   11 bbb rtp bbb q -0.0
  319         n3     11    bbb     N1    319 -0.59685800  14.010000   ; qtot -0.596867
  320         c3     11    bbb     C1    320 0.10137000  12.010000   ; qtot -0.495497
  321         h1     11    bbb     H1    321 0.04411300   1.008000   ; qtot -0.451384
  322         h1     11    bbb     H2    322 0.04411300   1.008000   ; qtot -0.407271
  323         c3     11    bbb     C2    323 0.10137000  12.010000   ; qtot -0.305901
  324         h1     11    bbb     H3    324 0.04411300   1.008000   ; qtot -0.261788
  325         h1     11    bbb     H4    325 0.04411300   1.008000   ; qtot -0.217675
  326         c3     11    bbb     C3    326 -0.00195300  12.010000   ; qtot -0.219628
  327         h1     11    bbb     H5    327 0.05064400   1.008000   ; qtot -0.168984
  328         h1     11    bbb     H6    328 0.05064400   1.008000   ; qtot -0.118340
  329         c3     11    bbb     C4    329 -0.01612100  12.010000   ; qtot -0.134461
  330         hc     11    bbb     H7    330 0.04936100   1.008000   ; qtot -0.085100
  331         hc     11    bbb     H8    331 0.04936100   1.008000   ; qtot -0.035739
  332         c3     11    bbb     C5    332 0.11363000  12.010000   ; qtot 0.077891
  333         hc     11    bbb     H9    333 0.06265900   1.008000   ; qtot 0.140550
  334         hc     11    bbb    H10    334 0.06265900   1.008000   ; qtot 0.203209
  335         c3     11    bbb     C6    335 0.11363000  12.010000   ; qtot 0.316839
  336         hc     11    bbb    H11    336 0.06265900   1.008000   ; qtot 0.379498
  337         hc     11    bbb    H12    337 0.06265900   1.008000   ; qtot 0.442157
  338         c3     11    bbb     C7    338 0.05858200  12.010000   ; qtot 0.500739
  339         h1     11    bbb    H13    339 0.06123400   1.008000   ; qtot 0.561973
  340         h1     11    bbb    H14    340 0.06123400   1.008000   ; qtot 0.623207
  341         c3     11    bbb     C8    341 -0.72423400  12.010000   ; qtot -0.101027
  342         h1     11    bbb    H15    342 0.25637600   1.008000   ; qtot 0.155349
  343         h1     11    bbb    H16    343 0.25637600   1.008000   ; qtot 0.411725
  344         c3     11    bbb     C9    344 -0.72423400  12.010000   ; qtot -0.312509
  345         h1     11    bbb    H17    345 0.25637600   1.008000   ; qtot -0.056133
  346         h1     11    bbb    H18    346 0.25637600   1.008000   ; qtot 0.200243
  347         os     11    bbb     O1    347 -0.20025300  16.000000   ; qtot -0.000010
; residue   12 bbb rtp bbb q -0.0
  348         n3     12    bbb     N1    348 -0.59685800  14.010000   ; qtot -0.596868
  349         c3     12    bbb     C1    349 0.10137000  12.010000   ; qtot -0.495498
  350         h1     12    bbb     H1    350 0.04411300   1.008000   ; qtot -0.451385
  351         h1     12    bbb     H2    351 0.04411300   1.008000   ; qtot -0.407272
  352         c3     12    bbb     C2    352 0.10137000  12.010000   ; qtot -0.305902
  353         h1     12    bbb     H3    353 0.04411300   1.008000   ; qtot -0.261789
  354         h1     12    bbb     H4    354 0.04411300   1.008000   ; qtot -0.217676
  355         c3     12    bbb     C3    355 -0.00195300  12.010000   ; qtot -0.219629
  356         h1     12    bbb     H5    356 0.05064400   1.008000   ; qtot -0.168985
  357         h1     12    bbb     H6    357 0.05064400   1.008000   ; qtot -0.118341
  358         c3     12    bbb     C4    358 -0.01612100  12.010000   ; qtot -0.134462
  359         hc     12    bbb     H7    359 0.04936100   1.008000   ; qtot -0.085101
  360         hc     12    bbb     H8    360 0.04936100   1.008000   ; qtot -0.035740
  361         c3     12    bbb     C5    361 0.11363000  12.010000   ; qtot 0.077890
  362         hc     12    bbb     H9    362 0.06265900   1.008000   ; qtot 0.140549
  363         hc     12    bbb    H10    363 0.06265900   1.008000   ; qtot 0.203208
  364         c3     12    bbb     C6    364 0.11363000  12.010000   ; qtot 0.316838
  365         hc     12    bbb    H11    365 0.06265900   1.008000   ; qtot 0.379497
  366         hc     12    bbb    H12    366 0.06265900   1.008000   ; qtot 0.442156
  367         c3     12    bbb     C7    367 0.05858200  12.010000   ; qtot 0.500738
  368         h1     12    bbb    H13    368 0.06123400   1.008000   ; qtot 0.561972
  369         h1     12    bbb    H14    369 0.06123400   1.008000   ; qtot 0.623206
  370         c3     12    bbb     C8    370 -0.72423400  12.010000   ; qtot -0.101028
  371         h1     12    bbb    H15    371 0.25637600   1.008000   ; qtot 0.155348
  372         h1     12    bbb    H16    372 0.25637600   1.008000   ; qtot 0.411724
  373         c3     12    bbb     C9    373 -0.72423400  12.010000   ; qtot -0.312510
  374         h1     12    bbb    H17    374 0.25637600   1.008000   ; qtot -0.056134
  375         h1     12    bbb    H18    375 0.25637600   1.008000   ; qtot 0.200242
  376         os     12    bbb     O1    376 -0.20025300  16.000000   ; qtot -0.000011
; residue   13 bbb rtp bbb q -0.0
  377         n3     13    bbb     N1    377 -0.59685800  14.010000   ; qtot -0.596869
  378         c3     13    bbb     C1    378 0.10137000  12.010000   ; qtot -0.495499
  379         h1     13    bbb     H1    379 0.04411300   1.008000   ; qtot -0.451386
  380         h1     13    bbb     H2    380 0.04411300   1.008000   ; qtot -0.407273
  381         c3     13    bbb     C2    381 0.10137000  12.010000   ; qtot -0.305903
  382         h1     13    bbb     H3    382 0.04411300   1.008000   ; qtot -0.261790
  383         h1     13    bbb     H4    383 0.04411300   1.008000   ; qtot -0.217677
  384         c3     13    bbb     C3    384 -0.00195300  12.010000   ; qtot -0.219630
  385         h1     13    bbb     H5    385 0.05064400   1.008000   ; qtot -0.168986
  386         h1     13    bbb     H6    386 0.05064400   1.008000   ; qtot -0.118342
  387         c3     13    bbb     C4    387 -0.01612100  12.010000   ; qtot -0.134463
  388         hc     13    bbb     H7    388 0.04936100   1.008000   ; qtot -0.085102
  389         hc     13    bbb     H8    389 0.04936100   1.008000   ; qtot -0.035741
  390         c3     13    bbb     C5    390 0.11363000  12.010000   ; qtot 0.077889
  391         hc     13    bbb     H9    391 0.06265900   1.008000   ; qtot 0.140548
  392         hc     13    bbb    H10    392 0.06265900   1.008000   ; qtot 0.203207
  393         c3     13    bbb     C6    393 0.11363000  12.010000   ; qtot 0.316837
  394         hc     13    bbb    H11    394 0.06265900   1.008000   ; qtot 0.379496
  395         hc     13    bbb    H12    395 0.06265900   1.008000   ; qtot 0.442155
  396         c3     13    bbb     C7    396 0.05858200  12.010000   ; qtot 0.500737
  397         h1     13    bbb    H13    397 0.06123400   1.008000   ; qtot 0.561971
  398         h1     13    bbb    H14    398 0.06123400   1.008000   ; qtot 0.623205
  399         c3     13    bbb     C8    399 -0.72423400  12.010000   ; qtot -0.101029
  400         h1     13    bbb    H15    400 0.25637600   1.008000   ; qtot 0.155347
  401         h1     13    bbb    H16    401 0.25637600   1.008000   ; qtot 0.411723
  402         c3     13    bbb     C9    402 -0.72423400  12.010000   ; qtot -0.312511
  403         h1     13    bbb    H17    403 0.25637600   1.008000   ; qtot -0.056135
  404         h1     13    bbb    H18    404 0.25637600   1.008000   ; qtot 0.200241
  405         os     13    bbb     O1    405 -0.20025300  16.000000   ; qtot -0.000012
; residue   14 bbb rtp bbb q -0.0
  406         n3     14    bbb     N1    406 -0.59685800  14.010000   ; qtot -0.596870
  407         c3     14    bbb     C1    407 0.10137000  12.010000   ; qtot -0.495500
  408         h1     14    bbb     H1    408 0.04411300   1.008000   ; qtot -0.451387
  409         h1     14    bbb     H2    409 0.04411300   1.008000   ; qtot -0.407274
  410         c3     14    bbb     C2    410 0.10137000  12.010000   ; qtot -0.305904
  411         h1     14    bbb     H3    411 0.04411300   1.008000   ; qtot -0.261791
  412         h1     14    bbb     H4    412 0.04411300   1.008000   ; qtot -0.217678
  413         c3     14    bbb     C3    413 -0.00195300  12.010000   ; qtot -0.219631
  414         h1     14    bbb     H5    414 0.05064400   1.008000   ; qtot -0.168987
  415         h1     14    bbb     H6    415 0.05064400   1.008000   ; qtot -0.118343
  416         c3     14    bbb     C4    416 -0.01612100  12.010000   ; qtot -0.134464
  417         hc     14    bbb     H7    417 0.04936100   1.008000   ; qtot -0.085103
  418         hc     14    bbb     H8    418 0.04936100   1.008000   ; qtot -0.035742
  419         c3     14    bbb     C5    419 0.11363000  12.010000   ; qtot 0.077888
  420         hc     14    bbb     H9    420 0.06265900   1.008000   ; qtot 0.140547
  421         hc     14    bbb    H10    421 0.06265900   1.008000   ; qtot 0.203206
  422         c3     14    bbb     C6    422 0.11363000  12.010000   ; qtot 0.316836
  423         hc     14    bbb    H11    423 0.06265900   1.008000   ; qtot 0.379495
  424         hc     14    bbb    H12    424 0.06265900   1.008000   ; qtot 0.442154
  425         c3     14    bbb     C7    425 0.05858200  12.010000   ; qtot 0.500736
  426         h1     14    bbb    H13    426 0.06123400   1.008000   ; qtot 0.561970
  427         h1     14    bbb    H14    427 0.06123400   1.008000   ; qtot 0.623204
  428         c3     14    bbb     C8    428 -0.72423400  12.010000   ; qtot -0.101030
  429         h1     14    bbb    H15    429 0.25637600   1.008000   ; qtot 0.155346
  430         h1     14    bbb    H16    430 0.25637600   1.008000   ; qtot 0.411722
  431         c3     14    bbb     C9    431 -0.72423400  12.010000   ; qtot -0.312512
  432         h1     14    bbb    H17    432 0.25637600   1.008000   ; qtot -0.056136
  433         h1     14    bbb    H18    433 0.25637600   1.008000   ; qtot 0.200240
  434         os     14    bbb     O1    434 -0.20025300  16.000000   ; qtot -0.000013
; residue   15 bbb rtp bbb q -0.0
  435         n3     15    bbb     N1    435 -0.59685800  14.010000   ; qtot -0.596871
  436         c3     15    bbb     C1    436 0.10137000  12.010000   ; qtot -0.495501
  437         h1     15    bbb     H1    437 0.04411300   1.008000   ; qtot -0.451388
  438         h1     15    bbb     H2    438 0.04411300   1.008000   ; qtot -0.407275
  439         c3     15    bbb     C2    439 0.10137000  12.010000   ; qtot -0.305905
  440         h1     15    bbb     H3    440 0.04411300   1.008000   ; qtot -0.261792
  441         h1     15    bbb     H4    441 0.04411300   1.008000   ; qtot -0.217679
  442         c3     15    bbb     C3    442 -0.00195300  12.010000   ; qtot -0.219632
  443         h1     15    bbb     H5    443 0.05064400   1.008000   ; qtot -0.168988
  444         h1     15    bbb     H6    444 0.05064400   1.008000   ; qtot -0.118344
  445         c3     15    bbb     C4    445 -0.01612100  12.010000   ; qtot -0.134465
  446         hc     15    bbb     H7    446 0.04936100   1.008000   ; qtot -0.085104
  447         hc     15    bbb     H8    447 0.04936100   1.008000   ; qtot -0.035743
  448         c3     15    bbb     C5    448 0.11363000  12.010000   ; qtot 0.077887
  449         hc     15    bbb     H9    449 0.06265900   1.008000   ; qtot 0.140546
  450         hc     15    bbb    H10    450 0.06265900   1.008000   ; qtot 0.203205
  451         c3     15    bbb     C6    451 0.11363000  12.010000   ; qtot 0.316835
  452         hc     15    bbb    H11    452 0.06265900   1.008000   ; qtot 0.379494
  453         hc     15    bbb    H12    453 0.06265900   1.008000   ; qtot 0.442153
  454         c3     15    bbb     C7    454 0.05858200  12.010000   ; qtot 0.500735
  455         h1     15    bbb    H13    455 0.06123400   1.008000   ; qtot 0.561969
  456         h1     15    bbb    H14    456 0.06123400   1.008000   ; qtot 0.623203
  457         c3     15    bbb     C8    457 -0.72423400  12.010000   ; qtot -0.101031
  458         h1     15    bbb    H15    458 0.25637600   1.008000   ; qtot 0.155345
  459         h1     15    bbb    H16    459 0.25637600   1.008000   ; qtot 0.411721
  460         c3     15    bbb     C9    460 -0.72423400  12.010000   ; qtot -0.312513
  461         h1     15    bbb    H17    461 0.25637600   1.008000   ; qtot -0.056137
  462         h1     15    bbb    H18    462 0.25637600   1.008000   ; qtot 0.200239
  463         os     15    bbb     O1    463 -0.20025300  16.000000   ; qtot -0.000014
; residue   16 bbb rtp bbb q -0.0
  464         n3     16    bbb     N1    464 -0.59685800  14.010000   ; qtot -0.596872
  465         c3     16    bbb     C1    465 0.10137000  12.010000   ; qtot -0.495502
  466         h1     16    bbb     H1    466 0.04411300   1.008000   ; qtot -0.451389
  467         h1     16    bbb     H2    467 0.04411300   1.008000   ; qtot -0.407276
  468         c3     16    bbb     C2    468 0.10137000  12.010000   ; qtot -0.305906
  469         h1     16    bbb     H3    469 0.04411300   1.008000   ; qtot -0.261793
  470         h1     16    bbb     H4    470 0.04411300   1.008000   ; qtot -0.217680
  471         c3     16    bbb     C3    471 -0.00195300  12.010000   ; qtot -0.219633
  472         h1     16    bbb     H5    472 0.05064400   1.008000   ; qtot -0.168989
  473         h1     16    bbb     H6    473 0.05064400   1.008000   ; qtot -0.118345
  474         c3     16    bbb     C4    474 -0.01612100  12.010000   ; qtot -0.134466
  475         hc     16    bbb     H7    475 0.04936100   1.008000   ; qtot -0.085105
  476         hc     16    bbb     H8    476 0.04936100   1.008000   ; qtot -0.035744
  477         c3     16    bbb     C5    477 0.11363000  12.010000   ; qtot 0.077886
  478         hc     16    bbb     H9    478 0.06265900   1.008000   ; qtot 0.140545
  479         hc     16    bbb    H10    479 0.06265900   1.008000   ; qtot 0.203204
  480         c3     16    bbb     C6    480 0.11363000  12.010000   ; qtot 0.316834
  481         hc     16    bbb    H11    481 0.06265900   1.008000   ; qtot 0.379493
  482         hc     16    bbb    H12    482 0.06265900   1.008000   ; qtot 0.442152
  483         c3     16    bbb     C7    483 0.05858200  12.010000   ; qtot 0.500734
  484         h1     16    bbb    H13    484 0.06123400   1.008000   ; qtot 0.561968
  485         h1     16    bbb    H14    485 0.06123400   1.008000   ; qtot 0.623202
  486         c3     16    bbb     C8    486 -0.72423400  12.010000   ; qtot -0.101032
  487         h1     16    bbb    H15    487 0.25637600   1.008000   ; qtot 0.155344
  488         h1     16    bbb    H16    488 0.25637600   1.008000   ; qtot 0.411720
  489         c3     16    bbb     C9    489 -0.72423400  12.010000   ; qtot -0.312514
  490         h1     16    bbb    H17    490 0.25637600   1.008000   ; qtot -0.056138
  491         h1     16    bbb    H18    491 0.25637600   1.008000   ; qtot 0.200238
  492         os     16    bbb     O1    492 -0.20025300  16.000000   ; qtot -0.000015
; residue   17 bbb rtp bbb q -0.0
  493         n3     17    bbb     N1    493 -0.59685800  14.010000   ; qtot -0.596873
  494         c3     17    bbb     C1    494 0.10137000  12.010000   ; qtot -0.495503
  495         h1     17    bbb     H1    495 0.04411300   1.008000   ; qtot -0.451390
  496         h1     17    bbb     H2    496 0.04411300   1.008000   ; qtot -0.407277
  497         c3     17    bbb     C2    497 0.10137000  12.010000   ; qtot -0.305907
  498         h1     17    bbb     H3    498 0.04411300   1.008000   ; qtot -0.261794
  499         h1     17    bbb     H4    499 0.04411300   1.008000   ; qtot -0.217681
  500         c3     17    bbb     C3    500 -0.00195300  12.010000   ; qtot -0.219634
  501         h1     17    bbb     H5    501 0.05064400   1.008000   ; qtot -0.168990
  502         h1     17    bbb     H6    502 0.05064400   1.008000   ; qtot -0.118346
  503         c3     17    bbb     C4    503 -0.01612100  12.010000   ; qtot -0.134467
  504         hc     17    bbb     H7    504 0.04936100   1.008000   ; qtot -0.085106
  505         hc     17    bbb     H8    505 0.04936100   1.008000   ; qtot -0.035745
  506         c3     17    bbb     C5    506 0.11363000  12.010000   ; qtot 0.077885
  507         hc     17    bbb     H9    507 0.06265900   1.008000   ; qtot 0.140544
  508         hc     17    bbb    H10    508 0.06265900   1.008000   ; qtot 0.203203
  509         c3     17    bbb     C6    509 0.11363000  12.010000   ; qtot 0.316833
  510         hc     17    bbb    H11    510 0.06265900   1.008000   ; qtot 0.379492
  511         hc     17    bbb    H12    511 0.06265900   1.008000   ; qtot 0.442151
  512         c3     17    bbb     C7    512 0.05858200  12.010000   ; qtot 0.500733
  513         h1     17    bbb    H13    513 0.06123400   1.008000   ; qtot 0.561967
  514         h1     17    bbb    H14    514 0.06123400   1.008000   ; qtot 0.623201
  515         c3     17    bbb     C8    515 -0.72423400  12.010000   ; qtot -0.101033
  516         h1     17    bbb    H15    516 0.25637600   1.008000   ; qtot 0.155343
  517         h1     17    bbb    H16    517 0.25637600   1.008000   ; qtot 0.411719
  518         c3     17    bbb     C9    518 -0.72423400  12.010000   ; qtot -0.312515
  519         h1     17    bbb    H17    519 0.25637600   1.008000   ; qtot -0.056139
  520         h1     17    bbb    H18    520 0.25637600   1.008000   ; qtot 0.200237
  521         os     17    bbb     O1    521 -0.20025300  16.000000   ; qtot -0.000016
; residue   18 bbb rtp bbb q -0.0
  522         n3     18    bbb     N1    522 -0.59685800  14.010000   ; qtot -0.596874
  523         c3     18    bbb     C1    523 0.10137000  12.010000   ; qtot -0.495504
  524         h1     18    bbb     H1    524 0.04411300   1.008000   ; qtot -0.451391
  525         h1     18    bbb     H2    525 0.04411300   1.008000   ; qtot -0.407278
  526         c3     18    bbb     C2    526 0.10137000  12.010000   ; qtot -0.305908
  527         h1     18    bbb     H3    527 0.04411300   1.008000   ; qtot -0.261795
  528         h1     18    bbb     H4    528 0.04411300   1.008000   ; qtot -0.217682
  529         c3     18    bbb     C3    529 -0.00195300  12.010000   ; qtot -0.219635
  530         h1     18    bbb     H5    530 0.05064400   1.008000   ; qtot -0.168991
  531         h1     18    bbb     H6    531 0.05064400   1.008000   ; qtot -0.118347
  532         c3     18    bbb     C4    532 -0.01612100  12.010000   ; qtot -0.134468
  533         hc     18    bbb     H7    533 0.04936100   1.008000   ; qtot -0.085107
  534         hc     18    bbb     H8    534 0.04936100   1.008000   ; qtot -0.035746
  535         c3     18    bbb     C5    535 0.11363000  12.010000   ; qtot 0.077884
  536         hc     18    bbb     H9    536 0.06265900   1.008000   ; qtot 0.140543
  537         hc     18    bbb    H10    537 0.06265900   1.008000   ; qtot 0.203202
  538         c3     18    bbb     C6    538 0.11363000  12.010000   ; qtot 0.316832
  539         hc     18    bbb    H11    539 0.06265900   1.008000   ; qtot 0.379491
  540         hc     18    bbb    H12    540 0.06265900   1.008000   ; qtot 0.442150
  541         c3     18    bbb     C7    541 0.05858200  12.010000   ; qtot 0.500732
  542         h1     18    bbb    H13    542 0.06123400   1.008000   ; qtot 0.561966
  543         h1     18    bbb    H14    543 0.06123400   1.008000   ; qtot 0.623200
  544         c3     18    bbb     C8    544 -0.72423400  12.010000   ; qtot -0.101034
  545         h1     18    bbb    H15    545 0.25637600   1.008000   ; qtot 0.155342
  546         h1     18    bbb    H16    546 0.25637600   1.008000   ; qtot 0.411718
  547         c3     18    bbb     C9    547 -0.72423400  12.010000   ; qtot -0.312516
  548         h1     18    bbb    H17    548 0.25637600   1.008000   ; qtot -0.056140
  549         h1     18    bbb    H18    549 0.25637600   1.008000   ; qtot 0.200236
  550         os     18    bbb     O1    550 -0.20025300  16.000000   ; qtot -0.000017
; residue   19 bbb rtp bbb q -0.0
  551         n3     19    bbb     N1    551 -0.59685800  14.010000   ; qtot -0.596875
  552         c3     19    bbb     C1    552 0.10137000  12.010000   ; qtot -0.495505
  553         h1     19    bbb     H1    553 0.04411300   1.008000   ; qtot -0.451392
  554         h1     19    bbb     H2    554 0.04411300   1.008000   ; qtot -0.407279
  555         c3     19    bbb     C2    555 0.10137000  12.010000   ; qtot -0.305909
  556         h1     19    bbb     H3    556 0.04411300   1.008000   ; qtot -0.261796
  557         h1     19    bbb     H4    557 0.04411300   1.008000   ; qtot -0.217683
  558         c3     19    bbb     C3    558 -0.00195300  12.010000   ; qtot -0.219636
  559         h1     19    bbb     H5    559 0.05064400   1.008000   ; qtot -0.168992
  560         h1     19    bbb     H6    560 0.05064400   1.008000   ; qtot -0.118348
  561         c3     19    bbb     C4    561 -0.01612100  12.010000   ; qtot -0.134469
  562         hc     19    bbb     H7    562 0.04936100   1.008000   ; qtot -0.085108
  563         hc     19    bbb     H8    563 0.04936100   1.008000   ; qtot -0.035747
  564         c3     19    bbb     C5    564 0.11363000  12.010000   ; qtot 0.077883
  565         hc     19    bbb     H9    565 0.06265900   1.008000   ; qtot 0.140542
  566         hc     19    bbb    H10    566 0.06265900   1.008000   ; qtot 0.203201
  567         c3     19    bbb     C6    567 0.11363000  12.010000   ; qtot 0.316831
  568         hc     19    bbb    H11    568 0.06265900   1.008000   ; qtot 0.379490
  569         hc     19    bbb    H12    569 0.06265900   1.008000   ; qtot 0.442149
  570         c3     19    bbb     C7    570 0.05858200  12.010000   ; qtot 0.500731
  571         h1     19    bbb    H13    571 0.06123400   1.008000   ; qtot 0.561965
  572         h1     19    bbb    H14    572 0.06123400   1.008000   ; qtot 0.623199
  573         c3     19    bbb     C8    573 -0.72423400  12.010000   ; qtot -0.101035
  574         h1     19    bbb    H15    574 0.25637600   1.008000   ; qtot 0.155341
  575         h1     19    bbb    H16    575 0.25637600   1.008000   ; qtot 0.411717
  576         c3     19    bbb     C9    576 -0.72423400  12.010000   ; qtot -0.312517
  577         h1     19    bbb    H17    577 0.25637600   1.008000   ; qtot -0.056141
  578         h1     19    bbb    H18    578 0.25637600   1.008000   ; qtot 0.200235
  579         os     19    bbb     O1    579 -0.20025300  16.000000   ; qtot -0.000018
; residue   20 bbb rtp bbb q -0.0
  580         n3     20    bbb     N1    580 -0.59685800  14.010000   ; qtot -0.596876
  581         c3     20    bbb     C1    581 0.10137000  12.010000   ; qtot -0.495506
  582         h1     20    bbb     H1    582 0.04411300   1.008000   ; qtot -0.451393
  583         h1     20    bbb     H2    583 0.04411300   1.008000   ; qtot -0.407280
  584         c3     20    bbb     C2    584 0.10137000  12.010000   ; qtot -0.305910
  585         h1     20    bbb     H3    585 0.04411300   1.008000   ; qtot -0.261797
  586         h1     20    bbb     H4    586 0.04411300   1.008000   ; qtot -0.217684
  587         c3     20    bbb     C3    587 -0.00195300  12.010000   ; qtot -0.219637
  588         h1     20    bbb     H5    588 0.05064400   1.008000   ; qtot -0.168993
  589         h1     20    bbb     H6    589 0.05064400   1.008000   ; qtot -0.118349
  590         c3     20    bbb     C4    590 -0.01612100  12.010000   ; qtot -0.134470
  591         hc     20    bbb     H7    591 0.04936100   1.008000   ; qtot -0.085109
  592         hc     20    bbb     H8    592 0.04936100   1.008000   ; qtot -0.035748
  593         c3     20    bbb     C5    593 0.11363000  12.010000   ; qtot 0.077882
  594         hc     20    bbb     H9    594 0.06265900   1.008000   ; qtot 0.140541
  595         hc     20    bbb    H10    595 0.06265900   1.008000   ; qtot 0.203200
  596         c3     20    bbb     C6    596 0.11363000  12.010000   ; qtot 0.316830
  597         hc     20    bbb    H11    597 0.06265900   1.008000   ; qtot 0.379489
  598         hc     20    bbb    H12    598 0.06265900   1.008000   ; qtot 0.442148
  599         c3     20    bbb     C7    599 0.05858200  12.010000   ; qtot 0.500730
  600         h1     20    bbb    H13    600 0.06123400   1.008000   ; qtot 0.561964
  601         h1     20    bbb    H14    601 0.06123400   1.008000   ; qtot 0.623198
  602         c3     20    bbb     C8    602 -0.72423400  12.010000   ; qtot -0.101036
  603         h1     20    bbb    H15    603 0.25637600   1.008000   ; qtot 0.155340
  604         h1     20    bbb    H16    604 0.25637600   1.008000   ; qtot 0.411716
  605         c3     20    bbb     C9    605 -0.72423400  12.010000   ; qtot -0.312518
  606         h1     20    bbb    H17    606 0.25637600   1.008000   ; qtot -0.056142
  607         h1     20    bbb    H18    607 0.25637600   1.008000   ; qtot 0.200234
  608         os     20    bbb     O1    608 -0.20025300  16.000000   ; qtot -0.000019
; residue   21 bbb rtp bbb q -0.0
  609         n3     21    bbb     N1    609 -0.59685800  14.010000   ; qtot -0.596877
  610         c3     21    bbb     C1    610 0.10137000  12.010000   ; qtot -0.495507
  611         h1     21    bbb     H1    611 0.04411300   1.008000   ; qtot -0.451394
  612         h1     21    bbb     H2    612 0.04411300   1.008000   ; qtot -0.407281
  613         c3     21    bbb     C2    613 0.10137000  12.010000   ; qtot -0.305911
  614         h1     21    bbb     H3    614 0.04411300   1.008000   ; qtot -0.261798
  615         h1     21    bbb     H4    615 0.04411300   1.008000   ; qtot -0.217685
  616         c3     21    bbb     C3    616 -0.00195300  12.010000   ; qtot -0.219638
  617         h1     21    bbb     H5    617 0.05064400   1.008000   ; qtot -0.168994
  618         h1     21    bbb     H6    618 0.05064400   1.008000   ; qtot -0.118350
  619         c3     21    bbb     C4    619 -0.01612100  12.010000   ; qtot -0.134471
  620         hc     21    bbb     H7    620 0.04936100   1.008000   ; qtot -0.085110
  621         hc     21    bbb     H8    621 0.04936100   1.008000   ; qtot -0.035749
  622         c3     21    bbb     C5    622 0.11363000  12.010000   ; qtot 0.077881
  623         hc     21    bbb     H9    623 0.06265900   1.008000   ; qtot 0.140540
  624         hc     21    bbb    H10    624 0.06265900   1.008000   ; qtot 0.203199
  625         c3     21    bbb     C6    625 0.11363000  12.010000   ; qtot 0.316829
  626         hc     21    bbb    H11    626 0.06265900   1.008000   ; qtot 0.379488
  627         hc     21    bbb    H12    627 0.06265900   1.008000   ; qtot 0.442147
  628         c3     21    bbb     C7    628 0.05858200  12.010000   ; qtot 0.500729
  629         h1     21    bbb    H13    629 0.06123400   1.008000   ; qtot 0.561963
  630         h1     21    bbb    H14    630 0.06123400   1.008000   ; qtot 0.623197
  631         c3     21    bbb     C8    631 -0.72423400  12.010000   ; qtot -0.101037
  632         h1     21    bbb    H15    632 0.25637600   1.008000   ; qtot 0.155339
  633         h1     21    bbb    H16    633 0.25637600   1.008000   ; qtot 0.411715
  634         c3     21    bbb     C9    634 -0.72423400  12.010000   ; qtot -0.312519
  635         h1     21    bbb    H17    635 0.25637600   1.008000   ; qtot -0.056143
  636         h1     21    bbb    H18    636 0.25637600   1.008000   ; qtot 0.200233
  637         os     21    bbb     O1    637 -0.20025300  16.000000   ; qtot -0.000020
; residue   22 bbb rtp bbb q -0.0
  638         n3     22    bbb     N1    638 -0.59685800  14.010000   ; qtot -0.596878
  639         c3     22    bbb     C1    639 0.10137000  12.010000   ; qtot -0.495508
  640         h1     22    bbb     H1    640 0.04411300   1.008000   ; qtot -0.451395
  641         h1     22    bbb     H2    641 0.04411300   1.008000   ; qtot -0.407282
  642         c3     22    bbb     C2    642 0.10137000  12.010000   ; qtot -0.305912
  643         h1     22    bbb     H3    643 0.04411300   1.008000   ; qtot -0.261799
  644         h1     22    bbb     H4    644 0.04411300   1.008000   ; qtot -0.217686
  645         c3     22    bbb     C3    645 -0.00195300  12.010000   ; qtot -0.219639
  646         h1     22    bbb     H5    646 0.05064400   1.008000   ; qtot -0.168995
  647         h1     22    bbb     H6    647 0.05064400   1.008000   ; qtot -0.118351
  648         c3     22    bbb     C4    648 -0.01612100  12.010000   ; qtot -0.134472
  649         hc     22    bbb     H7    649 0.04936100   1.008000   ; qtot -0.085111
  650         hc     22    bbb     H8    650 0.04936100   1.008000   ; qtot -0.035750
  651         c3     22    bbb     C5    651 0.11363000  12.010000   ; qtot 0.077880
  652         hc     22    bbb     H9    652 0.06265900   1.008000   ; qtot 0.140539
  653         hc     22    bbb    H10    653 0.06265900   1.008000   ; qtot 0.203198
  654         c3     22    bbb     C6    654 0.11363000  12.010000   ; qtot 0.316828
  655         hc     22    bbb    H11    655 0.06265900   1.008000   ; qtot 0.379487
  656         hc     22    bbb    H12    656 0.06265900   1.008000   ; qtot 0.442146
  657         c3     22    bbb     C7    657 0.05858200  12.010000   ; qtot 0.500728
  658         h1     22    bbb    H13    658 0.06123400   1.008000   ; qtot 0.561962
  659         h1     22    bbb    H14    659 0.06123400   1.008000   ; qtot 0.623196
  660         c3     22    bbb     C8    660 -0.72423400  12.010000   ; qtot -0.101038
  661         h1     22    bbb    H15    661 0.25637600   1.008000   ; qtot 0.155338
  662         h1     22    bbb    H16    662 0.25637600   1.008000   ; qtot 0.411714
  663         c3     22    bbb     C9    663 -0.72423400  12.010000   ; qtot -0.312520
  664         h1     22    bbb    H17    664 0.25637600   1.008000   ; qtot -0.056144
  665         h1     22    bbb    H18    665 0.25637600   1.008000   ; qtot 0.200232
  666         os     22    bbb     O1    666 -0.20025300  16.000000   ; qtot -0.000021
; residue   23 bbb rtp bbb q -0.0
  667         n3     23    bbb     N1    667 -0.59685800  14.010000   ; qtot -0.596879
  668         c3     23    bbb     C1    668 0.10137000  12.010000   ; qtot -0.495509
  669         h1     23    bbb     H1    669 0.04411300   1.008000   ; qtot -0.451396
  670         h1     23    bbb     H2    670 0.04411300   1.008000   ; qtot -0.407283
  671         c3     23    bbb     C2    671 0.10137000  12.010000   ; qtot -0.305913
  672         h1     23    bbb     H3    672 0.04411300   1.008000   ; qtot -0.261800
  673         h1     23    bbb     H4    673 0.04411300   1.008000   ; qtot -0.217687
  674         c3     23    bbb     C3    674 -0.00195300  12.010000   ; qtot -0.219640
  675         h1     23    bbb     H5    675 0.05064400   1.008000   ; qtot -0.168996
  676         h1     23    bbb     H6    676 0.05064400   1.008000   ; qtot -0.118352
  677         c3     23    bbb     C4    677 -0.01612100  12.010000   ; qtot -0.134473
  678         hc     23    bbb     H7    678 0.04936100   1.008000   ; qtot -0.085112
  679         hc     23    bbb     H8    679 0.04936100   1.008000   ; qtot -0.035751
  680         c3     23    bbb     C5    680 0.11363000  12.010000   ; qtot 0.077879
  681         hc     23    bbb     H9    681 0.06265900   1.008000   ; qtot 0.140538
  682         hc     23    bbb    H10    682 0.06265900   1.008000   ; qtot 0.203197
  683         c3     23    bbb     C6    683 0.11363000  12.010000   ; qtot 0.316827
  684         hc     23    bbb    H11    684 0.06265900   1.008000   ; qtot 0.379486
  685         hc     23    bbb    H12    685 0.06265900   1.008000   ; qtot 0.442145
  686         c3     23    bbb     C7    686 0.05858200  12.010000   ; qtot 0.500727
  687         h1     23    bbb    H13    687 0.06123400   1.008000   ; qtot 0.561961
  688         h1     23    bbb    H14    688 0.06123400   1.008000   ; qtot 0.623195
  689         c3     23    bbb     C8    689 -0.72423400  12.010000   ; qtot -0.101039
  690         h1     23    bbb    H15    690 0.25637600   1.008000   ; qtot 0.155337
  691         h1     23    bbb    H16    691 0.25637600   1.008000   ; qtot 0.411713
  692         c3     23    bbb     C9    692 -0.72423400  12.010000   ; qtot -0.312521
  693         h1     23    bbb    H17    693 0.25637600   1.008000   ; qtot -0.056145
  694         h1     23    bbb    H18    694 0.25637600   1.008000   ; qtot 0.200231
  695         os     23    bbb     O1    695 -0.20025300  16.000000   ; qtot -0.000022
; residue   24 bbb rtp bbb q -0.0
  696         n3     24    bbb     N1    696 -0.59685800  14.010000   ; qtot -0.596880
  697         c3     24    bbb     C1    697 0.10137000  12.010000   ; qtot -0.495510
  698         h1     24    bbb     H1    698 0.04411300   1.008000   ; qtot -0.451397
  699         h1     24    bbb     H2    699 0.04411300   1.008000   ; qtot -0.407284
  700         c3     24    bbb     C2    700 0.10137000  12.010000   ; qtot -0.305914
  701         h1     24    bbb     H3    701 0.04411300   1.008000   ; qtot -0.261801
  702         h1     24    bbb     H4    702 0.04411300   1.008000   ; qtot -0.217688
  703         c3     24    bbb     C3    703 -0.00195300  12.010000   ; qtot -0.219641
  704         h1     24    bbb     H5    704 0.05064400   1.008000   ; qtot -0.168997
  705         h1     24    bbb     H6    705 0.05064400   1.008000   ; qtot -0.118353
  706         c3     24    bbb     C4    706 -0.01612100  12.010000   ; qtot -0.134474
  707         hc     24    bbb     H7    707 0.04936100   1.008000   ; qtot -0.085113
  708         hc     24    bbb     H8    708 0.04936100   1.008000   ; qtot -0.035752
  709         c3     24    bbb     C5    709 0.11363000  12.010000   ; qtot 0.077878
  710         hc     24    bbb     H9    710 0.06265900   1.008000   ; qtot 0.140537
  711         hc     24    bbb    H10    711 0.06265900   1.008000   ; qtot 0.203196
  712         c3     24    bbb     C6    712 0.11363000  12.010000   ; qtot 0.316826
  713         hc     24    bbb    H11    713 0.06265900   1.008000   ; qtot 0.379485
  714         hc     24    bbb    H12    714 0.06265900   1.008000   ; qtot 0.442144
  715         c3     24    bbb     C7    715 0.05858200  12.010000   ; qtot 0.500726
  716         h1     24    bbb    H13    716 0.06123400   1.008000   ; qtot 0.561960
  717         h1     24    bbb    H14    717 0.06123400   1.008000   ; qtot 0.623194
  718         c3     24    bbb     C8    718 -0.72423400  12.010000   ; qtot -0.101040
  719         h1     24    bbb    H15    719 0.25637600   1.008000   ; qtot 0.155336
  720         h1     24    bbb    H16    720 0.25637600   1.008000   ; qtot 0.411712
  721         c3     24    bbb     C9    721 -0.72423400  12.010000   ; qtot -0.312522
  722         h1     24    bbb    H17    722 0.25637600   1.008000   ; qtot -0.056146
  723         h1     24    bbb    H18    723 0.25637600   1.008000   ; qtot 0.200230
  724         os     24    bbb     O1    724 -0.20025300  16.000000   ; qtot -0.000023
; residue   25 bbb rtp bbb q -0.0
  725         n3     25    bbb     N1    725 -0.59685800  14.010000   ; qtot -0.596881
  726         c3     25    bbb     C1    726 0.10137000  12.010000   ; qtot -0.495511
  727         h1     25    bbb     H1    727 0.04411300   1.008000   ; qtot -0.451398
  728         h1     25    bbb     H2    728 0.04411300   1.008000   ; qtot -0.407285
  729         c3     25    bbb     C2    729 0.10137000  12.010000   ; qtot -0.305915
  730         h1     25    bbb     H3    730 0.04411300   1.008000   ; qtot -0.261802
  731         h1     25    bbb     H4    731 0.04411300   1.008000   ; qtot -0.217689
  732         c3     25    bbb     C3    732 -0.00195300  12.010000   ; qtot -0.219642
  733         h1     25    bbb     H5    733 0.05064400   1.008000   ; qtot -0.168998
  734         h1     25    bbb     H6    734 0.05064400   1.008000   ; qtot -0.118354
  735         c3     25    bbb     C4    735 -0.01612100  12.010000   ; qtot -0.134475
  736         hc     25    bbb     H7    736 0.04936100   1.008000   ; qtot -0.085114
  737         hc     25    bbb     H8    737 0.04936100   1.008000   ; qtot -0.035753
  738         c3     25    bbb     C5    738 0.11363000  12.010000   ; qtot 0.077877
  739         hc     25    bbb     H9    739 0.06265900   1.008000   ; qtot 0.140536
  740         hc     25    bbb    H10    740 0.06265900   1.008000   ; qtot 0.203195
  741         c3     25    bbb     C6    741 0.11363000  12.010000   ; qtot 0.316825
  742         hc     25    bbb    H11    742 0.06265900   1.008000   ; qtot 0.379484
  743         hc     25    bbb    H12    743 0.06265900   1.008000   ; qtot 0.442143
  744         c3     25    bbb     C7    744 0.05858200  12.010000   ; qtot 0.500725
  745         h1     25    bbb    H13    745 0.06123400   1.008000   ; qtot 0.561959
  746         h1     25    bbb    H14    746 0.06123400   1.008000   ; qtot 0.623193
  747         c3     25    bbb     C8    747 -0.72423400  12.010000   ; qtot -0.101041
  748         h1     25    bbb    H15    748 0.25637600   1.008000   ; qtot 0.155335
  749         h1     25    bbb    H16    749 0.25637600   1.008000   ; qtot 0.411711
  750         c3     25    bbb     C9    750 -0.72423400  12.010000   ; qtot -0.312523
  751         h1     25    bbb    H17    751 0.25637600   1.008000   ; qtot -0.056147
  752         h1     25    bbb    H18    752 0.25637600   1.008000   ; qtot 0.200229
  753         os     25    bbb     O1    753 -0.20025300  16.000000   ; qtot -0.000024
; residue   26 bbb rtp bbb q -0.0
  754         n3     26    bbb     N1    754 -0.59685800  14.010000   ; qtot -0.596882
  755         c3     26    bbb     C1    755 0.10137000  12.010000   ; qtot -0.495512
  756         h1     26    bbb     H1    756 0.04411300   1.008000   ; qtot -0.451399
  757         h1     26    bbb     H2    757 0.04411300   1.008000   ; qtot -0.407286
  758         c3     26    bbb     C2    758 0.10137000  12.010000   ; qtot -0.305916
  759         h1     26    bbb     H3    759 0.04411300   1.008000   ; qtot -0.261803
  760         h1     26    bbb     H4    760 0.04411300   1.008000   ; qtot -0.217690
  761         c3     26    bbb     C3    761 -0.00195300  12.010000   ; qtot -0.219643
  762         h1     26    bbb     H5    762 0.05064400   1.008000   ; qtot -0.168999
  763         h1     26    bbb     H6    763 0.05064400   1.008000   ; qtot -0.118355
  764         c3     26    bbb     C4    764 -0.01612100  12.010000   ; qtot -0.134476
  765         hc     26    bbb     H7    765 0.04936100   1.008000   ; qtot -0.085115
  766         hc     26    bbb     H8    766 0.04936100   1.008000   ; qtot -0.035754
  767         c3     26    bbb     C5    767 0.11363000  12.010000   ; qtot 0.077876
  768         hc     26    bbb     H9    768 0.06265900   1.008000   ; qtot 0.140535
  769         hc     26    bbb    H10    769 0.06265900   1.008000   ; qtot 0.203194
  770         c3     26    bbb     C6    770 0.11363000  12.010000   ; qtot 0.316824
  771         hc     26    bbb    H11    771 0.06265900   1.008000   ; qtot 0.379483
  772         hc     26    bbb    H12    772 0.06265900   1.008000   ; qtot 0.442142
  773         c3     26    bbb     C7    773 0.05858200  12.010000   ; qtot 0.500724
  774         h1     26    bbb    H13    774 0.06123400   1.008000   ; qtot 0.561958
  775         h1     26    bbb    H14    775 0.06123400   1.008000   ; qtot 0.623192
  776         c3     26    bbb     C8    776 -0.72423400  12.010000   ; qtot -0.101042
  777         h1     26    bbb    H15    777 0.25637600   1.008000   ; qtot 0.155334
  778         h1     26    bbb    H16    778 0.25637600   1.008000   ; qtot 0.411710
  779         c3     26    bbb     C9    779 -0.72423400  12.010000   ; qtot -0.312524
  780         h1     26    bbb    H17    780 0.25637600   1.008000   ; qtot -0.056148
  781         h1     26    bbb    H18    781 0.25637600   1.008000   ; qtot 0.200228
  782         os     26    bbb     O1    782 -0.20025300  16.000000   ; qtot -0.000025
; residue   27 bbb rtp bbb q -0.0
  783         n3     27    bbb     N1    783 -0.59685800  14.010000   ; qtot -0.596883
  784         c3     27    bbb     C1    784 0.10137000  12.010000   ; qtot -0.495513
  785         h1     27    bbb     H1    785 0.04411300   1.008000   ; qtot -0.451400
  786         h1     27    bbb     H2    786 0.04411300   1.008000   ; qtot -0.407287
  787         c3     27    bbb     C2    787 0.10137000  12.010000   ; qtot -0.305917
  788         h1     27    bbb     H3    788 0.04411300   1.008000   ; qtot -0.261804
  789         h1     27    bbb     H4    789 0.04411300   1.008000   ; qtot -0.217691
  790         c3     27    bbb     C3    790 -0.00195300  12.010000   ; qtot -0.219644
  791         h1     27    bbb     H5    791 0.05064400   1.008000   ; qtot -0.169000
  792         h1     27    bbb     H6    792 0.05064400   1.008000   ; qtot -0.118356
  793         c3     27    bbb     C4    793 -0.01612100  12.010000   ; qtot -0.134477
  794         hc     27    bbb     H7    794 0.04936100   1.008000   ; qtot -0.085116
  795         hc     27    bbb     H8    795 0.04936100   1.008000   ; qtot -0.035755
  796         c3     27    bbb     C5    796 0.11363000  12.010000   ; qtot 0.077875
  797         hc     27    bbb     H9    797 0.06265900   1.008000   ; qtot 0.140534
  798         hc     27    bbb    H10    798 0.06265900   1.008000   ; qtot 0.203193
  799         c3     27    bbb     C6    799 0.11363000  12.010000   ; qtot 0.316823
  800         hc     27    bbb    H11    800 0.06265900   1.008000   ; qtot 0.379482
  801         hc     27    bbb    H12    801 0.06265900   1.008000   ; qtot 0.442141
  802         c3     27    bbb     C7    802 0.05858200  12.010000   ; qtot 0.500723
  803         h1     27    bbb    H13    803 0.06123400   1.008000   ; qtot 0.561957
  804         h1     27    bbb    H14    804 0.06123400   1.008000   ; qtot 0.623191
  805         c3     27    bbb     C8    805 -0.72423400  12.010000   ; qtot -0.101043
  806         h1     27    bbb    H15    806 0.25637600   1.008000   ; qtot 0.155333
  807         h1     27    bbb    H16    807 0.25637600   1.008000   ; qtot 0.411709
  808         c3     27    bbb     C9    808 -0.72423400  12.010000   ; qtot -0.312525
  809         h1     27    bbb    H17    809 0.25637600   1.008000   ; qtot -0.056149
  810         h1     27    bbb    H18    810 0.25637600   1.008000   ; qtot 0.200227
  811         os     27    bbb     O1    811 -0.20025300  16.000000   ; qtot -0.000026
; residue   28 bbb rtp bbb q -0.0
  812         n3     28    bbb     N1    812 -0.59685800  14.010000   ; qtot -0.596884
  813         c3     28    bbb     C1    813 0.10137000  12.010000   ; qtot -0.495514
  814         h1     28    bbb     H1    814 0.04411300   1.008000   ; qtot -0.451401
  815         h1     28    bbb     H2    815 0.04411300   1.008000   ; qtot -0.407288
  816         c3     28    bbb     C2    816 0.10137000  12.010000   ; qtot -0.305918
  817         h1     28    bbb     H3    817 0.04411300   1.008000   ; qtot -0.261805
  818         h1     28    bbb     H4    818 0.04411300   1.008000   ; qtot -0.217692
  819         c3     28    bbb     C3    819 -0.00195300  12.010000   ; qtot -0.219645
  820         h1     28    bbb     H5    820 0.05064400   1.008000   ; qtot -0.169001
  821         h1     28    bbb     H6    821 0.05064400   1.008000   ; qtot -0.118357
  822         c3     28    bbb     C4    822 -0.01612100  12.010000   ; qtot -0.134478
  823         hc     28    bbb     H7    823 0.04936100   1.008000   ; qtot -0.085117
  824         hc     28    bbb     H8    824 0.04936100   1.008000   ; qtot -0.035756
  825         c3     28    bbb     C5    825 0.11363000  12.010000   ; qtot 0.077874
  826         hc     28    bbb     H9    826 0.06265900   1.008000   ; qtot 0.140533
  827         hc     28    bbb    H10    827 0.06265900   1.008000   ; qtot 0.203192
  828         c3     28    bbb     C6    828 0.11363000  12.010000   ; qtot 0.316822
  829         hc     28    bbb    H11    829 0.06265900   1.008000   ; qtot 0.379481
  830         hc     28    bbb    H12    830 0.06265900   1.008000   ; qtot 0.442140
  831         c3     28    bbb     C7    831 0.05858200  12.010000   ; qtot 0.500722
  832         h1     28    bbb    H13    832 0.06123400   1.008000   ; qtot 0.561956
  833         h1     28    bbb    H14    833 0.06123400   1.008000   ; qtot 0.623190
  834         c3     28    bbb     C8    834 -0.72423400  12.010000   ; qtot -0.101044
  835         h1     28    bbb    H15    835 0.25637600   1.008000   ; qtot 0.155332
  836         h1     28    bbb    H16    836 0.25637600   1.008000   ; qtot 0.411708
  837         c3     28    bbb     C9    837 -0.72423400  12.010000   ; qtot -0.312526
  838         h1     28    bbb    H17    838 0.25637600   1.008000   ; qtot -0.056150
  839         h1     28    bbb    H18    839 0.25637600   1.008000   ; qtot 0.200226
  840         os     28    bbb     O1    840 -0.20025300  16.000000   ; qtot -0.000027
; residue   29 bbb rtp bbb q -0.0
  841         n3     29    bbb     N1    841 -0.59685800  14.010000   ; qtot -0.596885
  842         c3     29    bbb     C1    842 0.10137000  12.010000   ; qtot -0.495515
  843         h1     29    bbb     H1    843 0.04411300   1.008000   ; qtot -0.451402
  844         h1     29    bbb     H2    844 0.04411300   1.008000   ; qtot -0.407289
  845         c3     29    bbb     C2    845 0.10137000  12.010000   ; qtot -0.305919
  846         h1     29    bbb     H3    846 0.04411300   1.008000   ; qtot -0.261806
  847         h1     29    bbb     H4    847 0.04411300   1.008000   ; qtot -0.217693
  848         c3     29    bbb     C3    848 -0.00195300  12.010000   ; qtot -0.219646
  849         h1     29    bbb     H5    849 0.05064400   1.008000   ; qtot -0.169002
  850         h1     29    bbb     H6    850 0.05064400   1.008000   ; qtot -0.118358
  851         c3     29    bbb     C4    851 -0.01612100  12.010000   ; qtot -0.134479
  852         hc     29    bbb     H7    852 0.04936100   1.008000   ; qtot -0.085118
  853         hc     29    bbb     H8    853 0.04936100   1.008000   ; qtot -0.035757
  854         c3     29    bbb     C5    854 0.11363000  12.010000   ; qtot 0.077873
  855         hc     29    bbb     H9    855 0.06265900   1.008000   ; qtot 0.140532
  856         hc     29    bbb    H10    856 0.06265900   1.008000   ; qtot 0.203191
  857         c3     29    bbb     C6    857 0.11363000  12.010000   ; qtot 0.316821
  858         hc     29    bbb    H11    858 0.06265900   1.008000   ; qtot 0.379480
  859         hc     29    bbb    H12    859 0.06265900   1.008000   ; qtot 0.442139
  860         c3     29    bbb     C7    860 0.05858200  12.010000   ; qtot 0.500721
  861         h1     29    bbb    H13    861 0.06123400   1.008000   ; qtot 0.561955
  862         h1     29    bbb    H14    862 0.06123400   1.008000   ; qtot 0.623189
  863         c3     29    bbb     C8    863 -0.72423400  12.010000   ; qtot -0.101045
  864         h1     29    bbb    H15    864 0.25637600   1.008000   ; qtot 0.155331
  865         h1     29    bbb    H16    865 0.25637600   1.008000   ; qtot 0.411707
  866         c3     29    bbb     C9    866 -0.72423400  12.010000   ; qtot -0.312527
  867         h1     29    bbb    H17    867 0.25637600   1.008000   ; qtot -0.056151
  868         h1     29    bbb    H18    868 0.25637600   1.008000   ; qtot 0.200225
  869         os     29    bbb     O1    869 -0.20025300  16.000000   ; qtot -0.000028
; residue   30 ccc rtp ccc q -2.0
  870         c3     30    ccc     C3    870 -0.04070000  12.010000   ; qtot -0.040728
  871         h1     30    ccc     H5    871 0.04610000   1.008000   ; qtot 0.005372
  872         h1     30    ccc     H6    872 0.04610000   1.008000   ; qtot 0.051472
  873         c3     30    ccc     C2    873 -0.02540000  12.010000   ; qtot 0.026072
  874         hc     30    ccc     H3    874 0.00850000   1.008000   ; qtot 0.034572
  875         hc     30    ccc     H4    875 0.00850000   1.008000   ; qtot 0.043072
  876         c3     30    ccc     C1    876 0.60210000  12.010000   ; qtot 0.645172
  877         h1     30    ccc     H1    877 -0.09250000   1.008000   ; qtot 0.552672
  878         h1     30    ccc     H2    878 -0.09250000   1.008000   ; qtot 0.460172
  879         n3     30    ccc     N1    879 -0.59700000  14.010000   ; qtot -0.136828
  880         c3     30    ccc     C4    880 0.32800000  12.010000   ; qtot 0.191172
  881         h1     30    ccc     H7    881 -0.07120000   1.008000   ; qtot 0.119972
  882         h1     30    ccc     H8    882 -0.07120000   1.008000   ; qtot 0.048772
  883         c3     30    ccc     C5    883 -0.39330000  12.010000   ; qtot -0.344528
  884         hc     30    ccc     H9    884 0.08130000   1.008000   ; qtot -0.263228
  885         hc     30    ccc    H10    885 0.08130000   1.008000   ; qtot -0.181928
  886          c     30    ccc     C6    886 1.08970000  12.010000   ; qtot 0.907772
  887          o     30    ccc     O2    887 -0.96050000  16.000000   ; qtot -0.052728
  888          o     30    ccc     O3    888 -0.96050000  16.000000   ; qtot -1.013228
  889         c3     30    ccc     C7    889 0.32800000  12.010000   ; qtot -0.685228
  890         h1     30    ccc    H11    890 -0.07120000   1.008000   ; qtot -0.756428
  891         h1     30    ccc    H12    891 -0.07120000   1.008000   ; qtot -0.827628
  892         c3     30    ccc     C8    892 -0.39330000  12.010000   ; qtot -1.220928
  893         hc     30    ccc    H13    893 0.08130000   1.008000   ; qtot -1.139628
  894         hc     30    ccc    H14    894 0.08130000   1.008000   ; qtot -1.058328
  895          c     30    ccc     C9    895 1.08970000  12.010000   ; qtot 0.031372
  896          o     30    ccc     O4    896 -0.96050000  16.000000   ; qtot -0.929128
  897          o     30    ccc     O5    897 -0.96050000  16.000000   ; qtot -1.889628
  898         os     30    ccc     O1    898 -0.11060000  16.000000   ; qtot -2.000228
; residue   31 ccc rtp ccc q -2.0
  899         c3     31    ccc     C3    899 -0.04070000  12.010000   ; qtot -2.040928
  900         h1     31    ccc     H5    900 0.04610000   1.008000   ; qtot -1.994828
  901         h1     31    ccc     H6    901 0.04610000   1.008000   ; qtot -1.948728
  902         c3     31    ccc     C2    902 -0.02540000  12.010000   ; qtot -1.974128
  903         hc     31    ccc     H3    903 0.00850000   1.008000   ; qtot -1.965628
  904         hc     31    ccc     H4    904 0.00850000   1.008000   ; qtot -1.957128
  905         c3     31    ccc     C1    905 0.60210000  12.010000   ; qtot -1.355028
  906         h1     31    ccc     H1    906 -0.09250000   1.008000   ; qtot -1.447528
  907         h1     31    ccc     H2    907 -0.09250000   1.008000   ; qtot -1.540028
  908         n3     31    ccc     N1    908 -0.59700000  14.010000   ; qtot -2.137028
  909         c3     31    ccc     C4    909 0.32800000  12.010000   ; qtot -1.809028
  910         h1     31    ccc     H7    910 -0.07120000   1.008000   ; qtot -1.880228
  911         h1     31    ccc     H8    911 -0.07120000   1.008000   ; qtot -1.951428
  912         c3     31    ccc     C5    912 -0.39330000  12.010000   ; qtot -2.344728
  913         hc     31    ccc     H9    913 0.08130000   1.008000   ; qtot -2.263428
  914         hc     31    ccc    H10    914 0.08130000   1.008000   ; qtot -2.182128
  915          c     31    ccc     C6    915 1.08970000  12.010000   ; qtot -1.092428
  916          o     31    ccc     O2    916 -0.96050000  16.000000   ; qtot -2.052928
  917          o     31    ccc     O3    917 -0.96050000  16.000000   ; qtot -3.013428
  918         c3     31    ccc     C7    918 0.32800000  12.010000   ; qtot -2.685428
  919         h1     31    ccc    H11    919 -0.07120000   1.008000   ; qtot -2.756628
  920         h1     31    ccc    H12    920 -0.07120000   1.008000   ; qtot -2.827828
  921         c3     31    ccc     C8    921 -0.39330000  12.010000   ; qtot -3.221128
  922         hc     31    ccc    H13    922 0.08130000   1.008000   ; qtot -3.139828
  923         hc     31    ccc    H14    923 0.08130000   1.008000   ; qtot -3.058528
  924          c     31    ccc     C9    924 1.08970000  12.010000   ; qtot -1.968828
  925          o     31    ccc     O4    925 -0.96050000  16.000000   ; qtot -2.929328
  926          o     31    ccc     O5    926 -0.96050000  16.000000   ; qtot -3.889828
  927         os     31    ccc     O1    927 -0.11060000  16.000000   ; qtot -4.000428
; residue   32 ccc rtp ccc q -2.0
  928         c3     32    ccc     C3    928 -0.04070000  12.010000   ; qtot -4.041128
  929         h1     32    ccc     H5    929 0.04610000   1.008000   ; qtot -3.995028
  930         h1     32    ccc     H6    930 0.04610000   1.008000   ; qtot -3.948928
  931         c3     32    ccc     C2    931 -0.02540000  12.010000   ; qtot -3.974328
  932         hc     32    ccc     H3    932 0.00850000   1.008000   ; qtot -3.965828
  933         hc     32    ccc     H4    933 0.00850000   1.008000   ; qtot -3.957328
  934         c3     32    ccc     C1    934 0.60210000  12.010000   ; qtot -3.355228
  935         h1     32    ccc     H1    935 -0.09250000   1.008000   ; qtot -3.447728
  936         h1     32    ccc     H2    936 -0.09250000   1.008000   ; qtot -3.540228
  937         n3     32    ccc     N1    937 -0.59700000  14.010000   ; qtot -4.137228
  938         c3     32    ccc     C4    938 0.32800000  12.010000   ; qtot -3.809228
  939         h1     32    ccc     H7    939 -0.07120000   1.008000   ; qtot -3.880428
  940         h1     32    ccc     H8    940 -0.07120000   1.008000   ; qtot -3.951628
  941         c3     32    ccc     C5    941 -0.39330000  12.010000   ; qtot -4.344928
  942         hc     32    ccc     H9    942 0.08130000   1.008000   ; qtot -4.263628
  943         hc     32    ccc    H10    943 0.08130000   1.008000   ; qtot -4.182328
  944          c     32    ccc     C6    944 1.08970000  12.010000   ; qtot -3.092628
  945          o     32    ccc     O2    945 -0.96050000  16.000000   ; qtot -4.053128
  946          o     32    ccc     O3    946 -0.96050000  16.000000   ; qtot -5.013628
  947         c3     32    ccc     C7    947 0.32800000  12.010000   ; qtot -4.685628
  948         h1     32    ccc    H11    948 -0.07120000   1.008000   ; qtot -4.756828
  949         h1     32    ccc    H12    949 -0.07120000   1.008000   ; qtot -4.828028
  950         c3     32    ccc     C8    950 -0.39330000  12.010000   ; qtot -5.221328
  951         hc     32    ccc    H13    951 0.08130000   1.008000   ; qtot -5.140028
  952         hc     32    ccc    H14    952 0.08130000   1.008000   ; qtot -5.058728
  953          c     32    ccc     C9    953 1.08970000  12.010000   ; qtot -3.969028
  954          o     32    ccc     O4    954 -0.96050000  16.000000   ; qtot -4.929528
  955          o     32    ccc     O5    955 -0.96050000  16.000000   ; qtot -5.890028
  956         os     32    ccc     O1    956 -0.11060000  16.000000   ; qtot -6.000628
; residue   33 ccc rtp ccc q -2.0
  957         c3     33    ccc     C3    957 -0.04070000  12.010000   ; qtot -6.041328
  958         h1     33    ccc     H5    958 0.04610000   1.008000   ; qtot -5.995228
  959         h1     33    ccc     H6    959 0.04610000   1.008000   ; qtot -5.949128
  960         c3     33    ccc     C2    960 -0.02540000  12.010000   ; qtot -5.974528
  961         hc     33    ccc     H3    961 0.00850000   1.008000   ; qtot -5.966028
  962         hc     33    ccc     H4    962 0.00850000   1.008000   ; qtot -5.957528
  963         c3     33    ccc     C1    963 0.60210000  12.010000   ; qtot -5.355428
  964         h1     33    ccc     H1    964 -0.09250000   1.008000   ; qtot -5.447928
  965         h1     33    ccc     H2    965 -0.09250000   1.008000   ; qtot -5.540428
  966         n3     33    ccc     N1    966 -0.59700000  14.010000   ; qtot -6.137428
  967         c3     33    ccc     C4    967 0.32800000  12.010000   ; qtot -5.809428
  968         h1     33    ccc     H7    968 -0.07120000   1.008000   ; qtot -5.880628
  969         h1     33    ccc     H8    969 -0.07120000   1.008000   ; qtot -5.951828
  970         c3     33    ccc     C5    970 -0.39330000  12.010000   ; qtot -6.345128
  971         hc     33    ccc     H9    971 0.08130000   1.008000   ; qtot -6.263828
  972         hc     33    ccc    H10    972 0.08130000   1.008000   ; qtot -6.182528
  973          c     33    ccc     C6    973 1.08970000  12.010000   ; qtot -5.092828
  974          o     33    ccc     O2    974 -0.96050000  16.000000   ; qtot -6.053328
  975          o     33    ccc     O3    975 -0.96050000  16.000000   ; qtot -7.013828
  976         c3     33    ccc     C7    976 0.32800000  12.010000   ; qtot -6.685828
  977         h1     33    ccc    H11    977 -0.07120000   1.008000   ; qtot -6.757028
  978         h1     33    ccc    H12    978 -0.07120000   1.008000   ; qtot -6.828228
  979         c3     33    ccc     C8    979 -0.39330000  12.010000   ; qtot -7.221528
  980         hc     33    ccc    H13    980 0.08130000   1.008000   ; qtot -7.140228
  981         hc     33    ccc    H14    981 0.08130000   1.008000   ; qtot -7.058928
  982          c     33    ccc     C9    982 1.08970000  12.010000   ; qtot -5.969228
  983          o     33    ccc     O4    983 -0.96050000  16.000000   ; qtot -6.929728
  984          o     33    ccc     O5    984 -0.96050000  16.000000   ; qtot -7.890228
  985         os     33    ccc     O1    985 -0.11060000  16.000000   ; qtot -8.000828
; residue   34 ccc rtp ccc q -2.0
  986         c3     34    ccc     C3    986 -0.04070000  12.010000   ; qtot -8.041528
  987         h1     34    ccc     H5    987 0.04610000   1.008000   ; qtot -7.995428
  988         h1     34    ccc     H6    988 0.04610000   1.008000   ; qtot -7.949328
  989         c3     34    ccc     C2    989 -0.02540000  12.010000   ; qtot -7.974728
  990         hc     34    ccc     H3    990 0.00850000   1.008000   ; qtot -7.966228
  991         hc     34    ccc     H4    991 0.00850000   1.008000   ; qtot -7.957728
  992         c3     34    ccc     C1    992 0.60210000  12.010000   ; qtot -7.355628
  993         h1     34    ccc     H1    993 -0.09250000   1.008000   ; qtot -7.448128
  994         h1     34    ccc     H2    994 -0.09250000   1.008000   ; qtot -7.540628
  995         n3     34    ccc     N1    995 -0.59700000  14.010000   ; qtot -8.137628
  996         c3     34    ccc     C4    996 0.32800000  12.010000   ; qtot -7.809628
  997         h1     34    ccc     H7    997 -0.07120000   1.008000   ; qtot -7.880828
  998         h1     34    ccc     H8    998 -0.07120000   1.008000   ; qtot -7.952028
  999         c3     34    ccc     C5    999 -0.39330000  12.010000   ; qtot -8.345328
 1000         hc     34    ccc     H9   1000 0.08130000   1.008000   ; qtot -8.264028
 1001         hc     34    ccc    H10   1001 0.08130000   1.008000   ; qtot -8.182728
 1002          c     34    ccc     C6   1002 1.08970000  12.010000   ; qtot -7.093028
 1003          o     34    ccc     O2   1003 -0.96050000  16.000000   ; qtot -8.053528
 1004          o     34    ccc     O3   1004 -0.96050000  16.000000   ; qtot -9.014028
 1005         c3     34    ccc     C7   1005 0.32800000  12.010000   ; qtot -8.686028
 1006         h1     34    ccc    H11   1006 -0.07120000   1.008000   ; qtot -8.757228
 1007         h1     34    ccc    H12   1007 -0.07120000   1.008000   ; qtot -8.828428
 1008         c3     34    ccc     C8   1008 -0.39330000  12.010000   ; qtot -9.221728
 1009         hc     34    ccc    H13   1009 0.08130000   1.008000   ; qtot -9.140428
 1010         hc     34    ccc    H14   1010 0.08130000   1.008000   ; qtot -9.059128
 1011          c     34    ccc     C9   1011 1.08970000  12.010000   ; qtot -7.969428
 1012          o     34    ccc     O4   1012 -0.96050000  16.000000   ; qtot -8.929928
 1013          o     34    ccc     O5   1013 -0.96050000  16.000000   ; qtot -9.890428
 1014         os     34    ccc     O1   1014 -0.11060000  16.000000   ; qtot -10.001028
; residue   35 ccc rtp ccc q -2.0
 1015         c3     35    ccc     C3   1015 -0.04070000  12.010000   ; qtot -10.041728
 1016         h1     35    ccc     H5   1016 0.04610000   1.008000   ; qtot -9.995628
 1017         h1     35    ccc     H6   1017 0.04610000   1.008000   ; qtot -9.949528
 1018         c3     35    ccc     C2   1018 -0.02540000  12.010000   ; qtot -9.974928
 1019         hc     35    ccc     H3   1019 0.00850000   1.008000   ; qtot -9.966428
 1020         hc     35    ccc     H4   1020 0.00850000   1.008000   ; qtot -9.957928
 1021         c3     35    ccc     C1   1021 0.60210000  12.010000   ; qtot -9.355828
 1022         h1     35    ccc     H1   1022 -0.09250000   1.008000   ; qtot -9.448328
 1023         h1     35    ccc     H2   1023 -0.09250000   1.008000   ; qtot -9.540828
 1024         n3     35    ccc     N1   1024 -0.59700000  14.010000   ; qtot -10.137828
 1025         c3     35    ccc     C4   1025 0.32800000  12.010000   ; qtot -9.809828
 1026         h1     35    ccc     H7   1026 -0.07120000   1.008000   ; qtot -9.881028
 1027         h1     35    ccc     H8   1027 -0.07120000   1.008000   ; qtot -9.952228
 1028         c3     35    ccc     C5   1028 -0.39330000  12.010000   ; qtot -10.345528
 1029         hc     35    ccc     H9   1029 0.08130000   1.008000   ; qtot -10.264228
 1030         hc     35    ccc    H10   1030 0.08130000   1.008000   ; qtot -10.182928
 1031          c     35    ccc     C6   1031 1.08970000  12.010000   ; qtot -9.093228
 1032          o     35    ccc     O2   1032 -0.96050000  16.000000   ; qtot -10.053728
 1033          o     35    ccc     O3   1033 -0.96050000  16.000000   ; qtot -11.014228
 1034         c3     35    ccc     C7   1034 0.32800000  12.010000   ; qtot -10.686228
 1035         h1     35    ccc    H11   1035 -0.07120000   1.008000   ; qtot -10.757428
 1036         h1     35    ccc    H12   1036 -0.07120000   1.008000   ; qtot -10.828628
 1037         c3     35    ccc     C8   1037 -0.39330000  12.010000   ; qtot -11.221928
 1038         hc     35    ccc    H13   1038 0.08130000   1.008000   ; qtot -11.140628
 1039         hc     35    ccc    H14   1039 0.08130000   1.008000   ; qtot -11.059328
 1040          c     35    ccc     C9   1040 1.08970000  12.010000   ; qtot -9.969628
 1041          o     35    ccc     O4   1041 -0.96050000  16.000000   ; qtot -10.930128
 1042          o     35    ccc     O5   1042 -0.96050000  16.000000   ; qtot -11.890628
 1043         os     35    ccc     O1   1043 -0.11060000  16.000000   ; qtot -12.001228
; residue   36 ccc rtp ccc q -2.0
 1044         c3     36    ccc     C3   1044 -0.04070000  12.010000   ; qtot -12.041928
 1045         h1     36    ccc     H5   1045 0.04610000   1.008000   ; qtot -11.995828
 1046         h1     36    ccc     H6   1046 0.04610000   1.008000   ; qtot -11.949728
 1047         c3     36    ccc     C2   1047 -0.02540000  12.010000   ; qtot -11.975128
 1048         hc     36    ccc     H3   1048 0.00850000   1.008000   ; qtot -11.966628
 1049         hc     36    ccc     H4   1049 0.00850000   1.008000   ; qtot -11.958128
 1050         c3     36    ccc     C1   1050 0.60210000  12.010000   ; qtot -11.356028
 1051         h1     36    ccc     H1   1051 -0.09250000   1.008000   ; qtot -11.448528
 1052         h1     36    ccc     H2   1052 -0.09250000   1.008000   ; qtot -11.541028
 1053         n3     36    ccc     N1   1053 -0.59700000  14.010000   ; qtot -12.138028
 1054         c3     36    ccc     C4   1054 0.32800000  12.010000   ; qtot -11.810028
 1055         h1     36    ccc     H7   1055 -0.07120000   1.008000   ; qtot -11.881228
 1056         h1     36    ccc     H8   1056 -0.07120000   1.008000   ; qtot -11.952428
 1057         c3     36    ccc     C5   1057 -0.39330000  12.010000   ; qtot -12.345728
 1058         hc     36    ccc     H9   1058 0.08130000   1.008000   ; qtot -12.264428
 1059         hc     36    ccc    H10   1059 0.08130000   1.008000   ; qtot -12.183128
 1060          c     36    ccc     C6   1060 1.08970000  12.010000   ; qtot -11.093428
 1061          o     36    ccc     O2   1061 -0.96050000  16.000000   ; qtot -12.053928
 1062          o     36    ccc     O3   1062 -0.96050000  16.000000   ; qtot -13.014428
 1063         c3     36    ccc     C7   1063 0.32800000  12.010000   ; qtot -12.686428
 1064         h1     36    ccc    H11   1064 -0.07120000   1.008000   ; qtot -12.757628
 1065         h1     36    ccc    H12   1065 -0.07120000   1.008000   ; qtot -12.828828
 1066         c3     36    ccc     C8   1066 -0.39330000  12.010000   ; qtot -13.222128
 1067         hc     36    ccc    H13   1067 0.08130000   1.008000   ; qtot -13.140828
 1068         hc     36    ccc    H14   1068 0.08130000   1.008000   ; qtot -13.059528
 1069          c     36    ccc     C9   1069 1.08970000  12.010000   ; qtot -11.969828
 1070          o     36    ccc     O4   1070 -0.96050000  16.000000   ; qtot -12.930328
 1071          o     36    ccc     O5   1071 -0.96050000  16.000000   ; qtot -13.890828
 1072         os     36    ccc     O1   1072 -0.11060000  16.000000   ; qtot -14.001428
; residue   37 ccc rtp ccc q -2.0
 1073         c3     37    ccc     C3   1073 -0.04070000  12.010000   ; qtot -14.042128
 1074         h1     37    ccc     H5   1074 0.04610000   1.008000   ; qtot -13.996028
 1075         h1     37    ccc     H6   1075 0.04610000   1.008000   ; qtot -13.949928
 1076         c3     37    ccc     C2   1076 -0.02540000  12.010000   ; qtot -13.975328
 1077         hc     37    ccc     H3   1077 0.00850000   1.008000   ; qtot -13.966828
 1078         hc     37    ccc     H4   1078 0.00850000   1.008000   ; qtot -13.958328
 1079         c3     37    ccc     C1   1079 0.60210000  12.010000   ; qtot -13.356228
 1080         h1     37    ccc     H1   1080 -0.09250000   1.008000   ; qtot -13.448728
 1081         h1     37    ccc     H2   1081 -0.09250000   1.008000   ; qtot -13.541228
 1082         n3     37    ccc     N1   1082 -0.59700000  14.010000   ; qtot -14.138228
 1083         c3     37    ccc     C4   1083 0.32800000  12.010000   ; qtot -13.810228
 1084         h1     37    ccc     H7   1084 -0.07120000   1.008000   ; qtot -13.881428
 1085         h1     37    ccc     H8   1085 -0.07120000   1.008000   ; qtot -13.952628
 1086         c3     37    ccc     C5   1086 -0.39330000  12.010000   ; qtot -14.345928
 1087         hc     37    ccc     H9   1087 0.08130000   1.008000   ; qtot -14.264628
 1088         hc     37    ccc    H10   1088 0.08130000   1.008000   ; qtot -14.183328
 1089          c     37    ccc     C6   1089 1.08970000  12.010000   ; qtot -13.093628
 1090          o     37    ccc     O2   1090 -0.96050000  16.000000   ; qtot -14.054128
 1091          o     37    ccc     O3   1091 -0.96050000  16.000000   ; qtot -15.014628
 1092         c3     37    ccc     C7   1092 0.32800000  12.010000   ; qtot -14.686628
 1093         h1     37    ccc    H11   1093 -0.07120000   1.008000   ; qtot -14.757828
 1094         h1     37    ccc    H12   1094 -0.07120000   1.008000   ; qtot -14.829028
 1095         c3     37    ccc     C8   1095 -0.39330000  12.010000   ; qtot -15.222328
 1096         hc     37    ccc    H13   1096 0.08130000   1.008000   ; qtot -15.141028
 1097         hc     37    ccc    H14   1097 0.08130000   1.008000   ; qtot -15.059728
 1098          c     37    ccc     C9   1098 1.08970000  12.010000   ; qtot -13.970028
 1099          o     37    ccc     O4   1099 -0.96050000  16.000000   ; qtot -14.930528
 1100          o     37    ccc     O5   1100 -0.96050000  16.000000   ; qtot -15.891028
 1101         os     37    ccc     O1   1101 -0.11060000  16.000000   ; qtot -16.001628
; residue   38 ccc rtp ccc q -2.0
 1102         c3     38    ccc     C3   1102 -0.04070000  12.010000   ; qtot -16.042328
 1103         h1     38    ccc     H5   1103 0.04610000   1.008000   ; qtot -15.996228
 1104         h1     38    ccc     H6   1104 0.04610000   1.008000   ; qtot -15.950128
 1105         c3     38    ccc     C2   1105 -0.02540000  12.010000   ; qtot -15.975528
 1106         hc     38    ccc     H3   1106 0.00850000   1.008000   ; qtot -15.967028
 1107         hc     38    ccc     H4   1107 0.00850000   1.008000   ; qtot -15.958528
 1108         c3     38    ccc     C1   1108 0.60210000  12.010000   ; qtot -15.356428
 1109         h1     38    ccc     H1   1109 -0.09250000   1.008000   ; qtot -15.448928
 1110         h1     38    ccc     H2   1110 -0.09250000   1.008000   ; qtot -15.541428
 1111         n3     38    ccc     N1   1111 -0.59700000  14.010000   ; qtot -16.138428
 1112         c3     38    ccc     C4   1112 0.32800000  12.010000   ; qtot -15.810428
 1113         h1     38    ccc     H7   1113 -0.07120000   1.008000   ; qtot -15.881628
 1114         h1     38    ccc     H8   1114 -0.07120000   1.008000   ; qtot -15.952828
 1115         c3     38    ccc     C5   1115 -0.39330000  12.010000   ; qtot -16.346128
 1116         hc     38    ccc     H9   1116 0.08130000   1.008000   ; qtot -16.264828
 1117         hc     38    ccc    H10   1117 0.08130000   1.008000   ; qtot -16.183528
 1118          c     38    ccc     C6   1118 1.08970000  12.010000   ; qtot -15.093828
 1119          o     38    ccc     O2   1119 -0.96050000  16.000000   ; qtot -16.054328
 1120          o     38    ccc     O3   1120 -0.96050000  16.000000   ; qtot -17.014828
 1121         c3     38    ccc     C7   1121 0.32800000  12.010000   ; qtot -16.686828
 1122         h1     38    ccc    H11   1122 -0.07120000   1.008000   ; qtot -16.758028
 1123         h1     38    ccc    H12   1123 -0.07120000   1.008000   ; qtot -16.829228
 1124         c3     38    ccc     C8   1124 -0.39330000  12.010000   ; qtot -17.222528
 1125         hc     38    ccc    H13   1125 0.08130000   1.008000   ; qtot -17.141228
 1126         hc     38    ccc    H14   1126 0.08130000   1.008000   ; qtot -17.059928
 1127          c     38    ccc     C9   1127 1.08970000  12.010000   ; qtot -15.970228
 1128          o     38    ccc     O4   1128 -0.96050000  16.000000   ; qtot -16.930728
 1129          o     38    ccc     O5   1129 -0.96050000  16.000000   ; qtot -17.891228
 1130         os     38    ccc     O1   1130 -0.11060000  16.000000   ; qtot -18.001828
; residue   39 ccc rtp ccc q -2.0
 1131         c3     39    ccc     C3   1131 -0.04070000  12.010000   ; qtot -18.042528
 1132         h1     39    ccc     H5   1132 0.04610000   1.008000   ; qtot -17.996428
 1133         h1     39    ccc     H6   1133 0.04610000   1.008000   ; qtot -17.950328
 1134         c3     39    ccc     C2   1134 -0.02540000  12.010000   ; qtot -17.975728
 1135         hc     39    ccc     H3   1135 0.00850000   1.008000   ; qtot -17.967228
 1136         hc     39    ccc     H4   1136 0.00850000   1.008000   ; qtot -17.958728
 1137         c3     39    ccc     C1   1137 0.60210000  12.010000   ; qtot -17.356628
 1138         h1     39    ccc     H1   1138 -0.09250000   1.008000   ; qtot -17.449128
 1139         h1     39    ccc     H2   1139 -0.09250000   1.008000   ; qtot -17.541628
 1140         n3     39    ccc     N1   1140 -0.59700000  14.010000   ; qtot -18.138628
 1141         c3     39    ccc     C4   1141 0.32800000  12.010000   ; qtot -17.810628
 1142         h1     39    ccc     H7   1142 -0.07120000   1.008000   ; qtot -17.881828
 1143         h1     39    ccc     H8   1143 -0.07120000   1.008000   ; qtot -17.953028
 1144         c3     39    ccc     C5   1144 -0.39330000  12.010000   ; qtot -18.346328
 1145         hc     39    ccc     H9   1145 0.08130000   1.008000   ; qtot -18.265028
 1146         hc     39    ccc    H10   1146 0.08130000   1.008000   ; qtot -18.183728
 1147          c     39    ccc     C6   1147 1.08970000  12.010000   ; qtot -17.094028
 1148          o     39    ccc     O2   1148 -0.96050000  16.000000   ; qtot -18.054528
 1149          o     39    ccc     O3   1149 -0.96050000  16.000000   ; qtot -19.015028
 1150         c3     39    ccc     C7   1150 0.32800000  12.010000   ; qtot -18.687028
 1151         h1     39    ccc    H11   1151 -0.07120000   1.008000   ; qtot -18.758228
 1152         h1     39    ccc    H12   1152 -0.07120000   1.008000   ; qtot -18.829428
 1153         c3     39    ccc     C8   1153 -0.39330000  12.010000   ; qtot -19.222728
 1154         hc     39    ccc    H13   1154 0.08130000   1.008000   ; qtot -19.141428
 1155         hc     39    ccc    H14   1155 0.08130000   1.008000   ; qtot -19.060128
 1156          c     39    ccc     C9   1156 1.08970000  12.010000   ; qtot -17.970428
 1157          o     39    ccc     O4   1157 -0.96050000  16.000000   ; qtot -18.930928
 1158          o     39    ccc     O5   1158 -0.96050000  16.000000   ; qtot -19.891428
 1159         os     39    ccc     O1   1159 -0.11060000  16.000000   ; qtot -20.002028
; residue   40 ccc rtp ccc q -2.0
 1160         c3     40    ccc     C3   1160 -0.04070000  12.010000   ; qtot -20.042728
 1161         h1     40    ccc     H5   1161 0.04610000   1.008000   ; qtot -19.996628
 1162         h1     40    ccc     H6   1162 0.04610000   1.008000   ; qtot -19.950528
 1163         c3     40    ccc     C2   1163 -0.02540000  12.010000   ; qtot -19.975928
 1164         hc     40    ccc     H3   1164 0.00850000   1.008000   ; qtot -19.967428
 1165         hc     40    ccc     H4   1165 0.00850000   1.008000   ; qtot -19.958928
 1166         c3     40    ccc     C1   1166 0.60210000  12.010000   ; qtot -19.356828
 1167         h1     40    ccc     H1   1167 -0.09250000   1.008000   ; qtot -19.449328
 1168         h1     40    ccc     H2   1168 -0.09250000   1.008000   ; qtot -19.541828
 1169         n3     40    ccc     N1   1169 -0.59700000  14.010000   ; qtot -20.138828
 1170         c3     40    ccc     C4   1170 0.32800000  12.010000   ; qtot -19.810828
 1171         h1     40    ccc     H7   1171 -0.07120000   1.008000   ; qtot -19.882028
 1172         h1     40    ccc     H8   1172 -0.07120000   1.008000   ; qtot -19.953228
 1173         c3     40    ccc     C5   1173 -0.39330000  12.010000   ; qtot -20.346528
 1174         hc     40    ccc     H9   1174 0.08130000   1.008000   ; qtot -20.265228
 1175         hc     40    ccc    H10   1175 0.08130000   1.008000   ; qtot -20.183928
 1176          c     40    ccc     C6   1176 1.08970000  12.010000   ; qtot -19.094228
 1177          o     40    ccc     O2   1177 -0.96050000  16.000000   ; qtot -20.054728
 1178          o     40    ccc     O3   1178 -0.96050000  16.000000   ; qtot -21.015228
 1179         c3     40    ccc     C7   1179 0.32800000  12.010000   ; qtot -20.687228
 1180         h1     40    ccc    H11   1180 -0.07120000   1.008000   ; qtot -20.758428
 1181         h1     40    ccc    H12   1181 -0.07120000   1.008000   ; qtot -20.829628
 1182         c3     40    ccc     C8   1182 -0.39330000  12.010000   ; qtot -21.222928
 1183         hc     40    ccc    H13   1183 0.08130000   1.008000   ; qtot -21.141628
 1184         hc     40    ccc    H14   1184 0.08130000   1.008000   ; qtot -21.060328
 1185          c     40    ccc     C9   1185 1.08970000  12.010000   ; qtot -19.970628
 1186          o     40    ccc     O4   1186 -0.96050000  16.000000   ; qtot -20.931128
 1187          o     40    ccc     O5   1187 -0.96050000  16.000000   ; qtot -21.891628
 1188         os     40    ccc     O1   1188 -0.11060000  16.000000   ; qtot -22.002228
; residue   41 ccc rtp ccc q -2.0
 1189         c3     41    ccc     C3   1189 -0.04070000  12.010000   ; qtot -22.042928
 1190         h1     41    ccc     H5   1190 0.04610000   1.008000   ; qtot -21.996828
 1191         h1     41    ccc     H6   1191 0.04610000   1.008000   ; qtot -21.950728
 1192         c3     41    ccc     C2   1192 -0.02540000  12.010000   ; qtot -21.976128
 1193         hc     41    ccc     H3   1193 0.00850000   1.008000   ; qtot -21.967628
 1194         hc     41    ccc     H4   1194 0.00850000   1.008000   ; qtot -21.959128
 1195         c3     41    ccc     C1   1195 0.60210000  12.010000   ; qtot -21.357028
 1196         h1     41    ccc     H1   1196 -0.09250000   1.008000   ; qtot -21.449528
 1197         h1     41    ccc     H2   1197 -0.09250000   1.008000   ; qtot -21.542028
 1198         n3     41    ccc     N1   1198 -0.59700000  14.010000   ; qtot -22.139028
 1199         c3     41    ccc     C4   1199 0.32800000  12.010000   ; qtot -21.811028
 1200         h1     41    ccc     H7   1200 -0.07120000   1.008000   ; qtot -21.882228
 1201         h1     41    ccc     H8   1201 -0.07120000   1.008000   ; qtot -21.953428
 1202         c3     41    ccc     C5   1202 -0.39330000  12.010000   ; qtot -22.346728
 1203         hc     41    ccc     H9   1203 0.08130000   1.008000   ; qtot -22.265428
 1204         hc     41    ccc    H10   1204 0.08130000   1.008000   ; qtot -22.184128
 1205          c     41    ccc     C6   1205 1.08970000  12.010000   ; qtot -21.094428
 1206          o     41    ccc     O2   1206 -0.96050000  16.000000   ; qtot -22.054928
 1207          o     41    ccc     O3   1207 -0.96050000  16.000000   ; qtot -23.015428
 1208         c3     41    ccc     C7   1208 0.32800000  12.010000   ; qtot -22.687428
 1209         h1     41    ccc    H11   1209 -0.07120000   1.008000   ; qtot -22.758628
 1210         h1     41    ccc    H12   1210 -0.07120000   1.008000   ; qtot -22.829828
 1211         c3     41    ccc     C8   1211 -0.39330000  12.010000   ; qtot -23.223128
 1212         hc     41    ccc    H13   1212 0.08130000   1.008000   ; qtot -23.141828
 1213         hc     41    ccc    H14   1213 0.08130000   1.008000   ; qtot -23.060528
 1214          c     41    ccc     C9   1214 1.08970000  12.010000   ; qtot -21.970828
 1215          o     41    ccc     O4   1215 -0.96050000  16.000000   ; qtot -22.931328
 1216          o     41    ccc     O5   1216 -0.96050000  16.000000   ; qtot -23.891828
 1217         os     41    ccc     O1   1217 -0.11060000  16.000000   ; qtot -24.002428
; residue   42 ccc rtp ccc q -2.0
 1218         c3     42    ccc     C3   1218 -0.04070000  12.010000   ; qtot -24.043128
 1219         h1     42    ccc     H5   1219 0.04610000   1.008000   ; qtot -23.997028
 1220         h1     42    ccc     H6   1220 0.04610000   1.008000   ; qtot -23.950928
 1221         c3     42    ccc     C2   1221 -0.02540000  12.010000   ; qtot -23.976328
 1222         hc     42    ccc     H3   1222 0.00850000   1.008000   ; qtot -23.967828
 1223         hc     42    ccc     H4   1223 0.00850000   1.008000   ; qtot -23.959328
 1224         c3     42    ccc     C1   1224 0.60210000  12.010000   ; qtot -23.357228
 1225         h1     42    ccc     H1   1225 -0.09250000   1.008000   ; qtot -23.449728
 1226         h1     42    ccc     H2   1226 -0.09250000   1.008000   ; qtot -23.542228
 1227         n3     42    ccc     N1   1227 -0.59700000  14.010000   ; qtot -24.139228
 1228         c3     42    ccc     C4   1228 0.32800000  12.010000   ; qtot -23.811228
 1229         h1     42    ccc     H7   1229 -0.07120000   1.008000   ; qtot -23.882428
 1230         h1     42    ccc     H8   1230 -0.07120000   1.008000   ; qtot -23.953628
 1231         c3     42    ccc     C5   1231 -0.39330000  12.010000   ; qtot -24.346928
 1232         hc     42    ccc     H9   1232 0.08130000   1.008000   ; qtot -24.265628
 1233         hc     42    ccc    H10   1233 0.08130000   1.008000   ; qtot -24.184328
 1234          c     42    ccc     C6   1234 1.08970000  12.010000   ; qtot -23.094628
 1235          o     42    ccc     O2   1235 -0.96050000  16.000000   ; qtot -24.055128
 1236          o     42    ccc     O3   1236 -0.96050000  16.000000   ; qtot -25.015628
 1237         c3     42    ccc     C7   1237 0.32800000  12.010000   ; qtot -24.687628
 1238         h1     42    ccc    H11   1238 -0.07120000   1.008000   ; qtot -24.758828
 1239         h1     42    ccc    H12   1239 -0.07120000   1.008000   ; qtot -24.830028
 1240         c3     42    ccc     C8   1240 -0.39330000  12.010000   ; qtot -25.223328
 1241         hc     42    ccc    H13   1241 0.08130000   1.008000   ; qtot -25.142028
 1242         hc     42    ccc    H14   1242 0.08130000   1.008000   ; qtot -25.060728
 1243          c     42    ccc     C9   1243 1.08970000  12.010000   ; qtot -23.971028
 1244          o     42    ccc     O4   1244 -0.96050000  16.000000   ; qtot -24.931528
 1245          o     42    ccc     O5   1245 -0.96050000  16.000000   ; qtot -25.892028
 1246         os     42    ccc     O1   1246 -0.11060000  16.000000   ; qtot -26.002628
; residue   43 ccc rtp ccc q -2.0
 1247         c3     43    ccc     C3   1247 -0.04070000  12.010000   ; qtot -26.043328
 1248         h1     43    ccc     H5   1248 0.04610000   1.008000   ; qtot -25.997228
 1249         h1     43    ccc     H6   1249 0.04610000   1.008000   ; qtot -25.951128
 1250         c3     43    ccc     C2   1250 -0.02540000  12.010000   ; qtot -25.976528
 1251         hc     43    ccc     H3   1251 0.00850000   1.008000   ; qtot -25.968028
 1252         hc     43    ccc     H4   1252 0.00850000   1.008000   ; qtot -25.959528
 1253         c3     43    ccc     C1   1253 0.60210000  12.010000   ; qtot -25.357428
 1254         h1     43    ccc     H1   1254 -0.09250000   1.008000   ; qtot -25.449928
 1255         h1     43    ccc     H2   1255 -0.09250000   1.008000   ; qtot -25.542428
 1256         n3     43    ccc     N1   1256 -0.59700000  14.010000   ; qtot -26.139428
 1257         c3     43    ccc     C4   1257 0.32800000  12.010000   ; qtot -25.811428
 1258         h1     43    ccc     H7   1258 -0.07120000   1.008000   ; qtot -25.882628
 1259         h1     43    ccc     H8   1259 -0.07120000   1.008000   ; qtot -25.953828
 1260         c3     43    ccc     C5   1260 -0.39330000  12.010000   ; qtot -26.347128
 1261         hc     43    ccc     H9   1261 0.08130000   1.008000   ; qtot -26.265828
 1262         hc     43    ccc    H10   1262 0.08130000   1.008000   ; qtot -26.184528
 1263          c     43    ccc     C6   1263 1.08970000  12.010000   ; qtot -25.094828
 1264          o     43    ccc     O2   1264 -0.96050000  16.000000   ; qtot -26.055328
 1265          o     43    ccc     O3   1265 -0.96050000  16.000000   ; qtot -27.015828
 1266         c3     43    ccc     C7   1266 0.32800000  12.010000   ; qtot -26.687828
 1267         h1     43    ccc    H11   1267 -0.07120000   1.008000   ; qtot -26.759028
 1268         h1     43    ccc    H12   1268 -0.07120000   1.008000   ; qtot -26.830228
 1269         c3     43    ccc     C8   1269 -0.39330000  12.010000   ; qtot -27.223528
 1270         hc     43    ccc    H13   1270 0.08130000   1.008000   ; qtot -27.142228
 1271         hc     43    ccc    H14   1271 0.08130000   1.008000   ; qtot -27.060928
 1272          c     43    ccc     C9   1272 1.08970000  12.010000   ; qtot -25.971228
 1273          o     43    ccc     O4   1273 -0.96050000  16.000000   ; qtot -26.931728
 1274          o     43    ccc     O5   1274 -0.96050000  16.000000   ; qtot -27.892228
 1275         os     43    ccc     O1   1275 -0.11060000  16.000000   ; qtot -28.002828
; residue   44 ccc rtp ccc q -2.0
 1276         c3     44    ccc     C3   1276 -0.04070000  12.010000   ; qtot -28.043528
 1277         h1     44    ccc     H5   1277 0.04610000   1.008000   ; qtot -27.997428
 1278         h1     44    ccc     H6   1278 0.04610000   1.008000   ; qtot -27.951328
 1279         c3     44    ccc     C2   1279 -0.02540000  12.010000   ; qtot -27.976728
 1280         hc     44    ccc     H3   1280 0.00850000   1.008000   ; qtot -27.968228
 1281         hc     44    ccc     H4   1281 0.00850000   1.008000   ; qtot -27.959728
 1282         c3     44    ccc     C1   1282 0.60210000  12.010000   ; qtot -27.357628
 1283         h1     44    ccc     H1   1283 -0.09250000   1.008000   ; qtot -27.450128
 1284         h1     44    ccc     H2   1284 -0.09250000   1.008000   ; qtot -27.542628
 1285         n3     44    ccc     N1   1285 -0.59700000  14.010000   ; qtot -28.139628
 1286         c3     44    ccc     C4   1286 0.32800000  12.010000   ; qtot -27.811628
 1287         h1     44    ccc     H7   1287 -0.07120000   1.008000   ; qtot -27.882828
 1288         h1     44    ccc     H8   1288 -0.07120000   1.008000   ; qtot -27.954028
 1289         c3     44    ccc     C5   1289 -0.39330000  12.010000   ; qtot -28.347328
 1290         hc     44    ccc     H9   1290 0.08130000   1.008000   ; qtot -28.266028
 1291         hc     44    ccc    H10   1291 0.08130000   1.008000   ; qtot -28.184728
 1292          c     44    ccc     C6   1292 1.08970000  12.010000   ; qtot -27.095028
 1293          o     44    ccc     O2   1293 -0.96050000  16.000000   ; qtot -28.055528
 1294          o     44    ccc     O3   1294 -0.96050000  16.000000   ; qtot -29.016028
 1295         c3     44    ccc     C7   1295 0.32800000  12.010000   ; qtot -28.688028
 1296         h1     44    ccc    H11   1296 -0.07120000   1.008000   ; qtot -28.759228
 1297         h1     44    ccc    H12   1297 -0.07120000   1.008000   ; qtot -28.830428
 1298         c3     44    ccc     C8   1298 -0.39330000  12.010000   ; qtot -29.223728
 1299         hc     44    ccc    H13   1299 0.08130000   1.008000   ; qtot -29.142428
 1300         hc     44    ccc    H14   1300 0.08130000   1.008000   ; qtot -29.061128
 1301          c     44    ccc     C9   1301 1.08970000  12.010000   ; qtot -27.971428
 1302          o     44    ccc     O4   1302 -0.96050000  16.000000   ; qtot -28.931928
 1303          o     44    ccc     O5   1303 -0.96050000  16.000000   ; qtot -29.892428
 1304         os     44    ccc     O1   1304 -0.11060000  16.000000   ; qtot -30.003028
; residue   45 ccc rtp ccc q -2.0
 1305         c3     45    ccc     C3   1305 -0.04070000  12.010000   ; qtot -30.043728
 1306         h1     45    ccc     H5   1306 0.04610000   1.008000   ; qtot -29.997628
 1307         h1     45    ccc     H6   1307 0.04610000   1.008000   ; qtot -29.951528
 1308         c3     45    ccc     C2   1308 -0.02540000  12.010000   ; qtot -29.976928
 1309         hc     45    ccc     H3   1309 0.00850000   1.008000   ; qtot -29.968428
 1310         hc     45    ccc     H4   1310 0.00850000   1.008000   ; qtot -29.959928
 1311         c3     45    ccc     C1   1311 0.60210000  12.010000   ; qtot -29.357828
 1312         h1     45    ccc     H1   1312 -0.09250000   1.008000   ; qtot -29.450328
 1313         h1     45    ccc     H2   1313 -0.09250000   1.008000   ; qtot -29.542828
 1314         n3     45    ccc     N1   1314 -0.59700000  14.010000   ; qtot -30.139828
 1315         c3     45    ccc     C4   1315 0.32800000  12.010000   ; qtot -29.811828
 1316         h1     45    ccc     H7   1316 -0.07120000   1.008000   ; qtot -29.883028
 1317         h1     45    ccc     H8   1317 -0.07120000   1.008000   ; qtot -29.954228
 1318         c3     45    ccc     C5   1318 -0.39330000  12.010000   ; qtot -30.347528
 1319         hc     45    ccc     H9   1319 0.08130000   1.008000   ; qtot -30.266228
 1320         hc     45    ccc    H10   1320 0.08130000   1.008000   ; qtot -30.184928
 1321          c     45    ccc     C6   1321 1.08970000  12.010000   ; qtot -29.095228
 1322          o     45    ccc     O2   1322 -0.96050000  16.000000   ; qtot -30.055728
 1323          o     45    ccc     O3   1323 -0.96050000  16.000000   ; qtot -31.016228
 1324         c3     45    ccc     C7   1324 0.32800000  12.010000   ; qtot -30.688228
 1325         h1     45    ccc    H11   1325 -0.07120000   1.008000   ; qtot -30.759428
 1326         h1     45    ccc    H12   1326 -0.07120000   1.008000   ; qtot -30.830628
 1327         c3     45    ccc     C8   1327 -0.39330000  12.010000   ; qtot -31.223928
 1328         hc     45    ccc    H13   1328 0.08130000   1.008000   ; qtot -31.142628
 1329         hc     45    ccc    H14   1329 0.08130000   1.008000   ; qtot -31.061328
 1330          c     45    ccc     C9   1330 1.08970000  12.010000   ; qtot -29.971628
 1331          o     45    ccc     O4   1331 -0.96050000  16.000000   ; qtot -30.932128
 1332          o     45    ccc     O5   1332 -0.96050000  16.000000   ; qtot -31.892628
 1333         os     45    ccc     O1   1333 -0.11060000  16.000000   ; qtot -32.003228
; residue   46 ccc rtp ccc q -2.0
 1334         c3     46    ccc     C3   1334 -0.04070000  12.010000   ; qtot -32.043928
 1335         h1     46    ccc     H5   1335 0.04610000   1.008000   ; qtot -31.997828
 1336         h1     46    ccc     H6   1336 0.04610000   1.008000   ; qtot -31.951728
 1337         c3     46    ccc     C2   1337 -0.02540000  12.010000   ; qtot -31.977128
 1338         hc     46    ccc     H3   1338 0.00850000   1.008000   ; qtot -31.968628
 1339         hc     46    ccc     H4   1339 0.00850000   1.008000   ; qtot -31.960128
 1340         c3     46    ccc     C1   1340 0.60210000  12.010000   ; qtot -31.358028
 1341         h1     46    ccc     H1   1341 -0.09250000   1.008000   ; qtot -31.450528
 1342         h1     46    ccc     H2   1342 -0.09250000   1.008000   ; qtot -31.543028
 1343         n3     46    ccc     N1   1343 -0.59700000  14.010000   ; qtot -32.140028
 1344         c3     46    ccc     C4   1344 0.32800000  12.010000   ; qtot -31.812028
 1345         h1     46    ccc     H7   1345 -0.07120000   1.008000   ; qtot -31.883228
 1346         h1     46    ccc     H8   1346 -0.07120000   1.008000   ; qtot -31.954428
 1347         c3     46    ccc     C5   1347 -0.39330000  12.010000   ; qtot -32.347728
 1348         hc     46    ccc     H9   1348 0.08130000   1.008000   ; qtot -32.266428
 1349         hc     46    ccc    H10   1349 0.08130000   1.008000   ; qtot -32.185128
 1350          c     46    ccc     C6   1350 1.08970000  12.010000   ; qtot -31.095428
 1351          o     46    ccc     O2   1351 -0.96050000  16.000000   ; qtot -32.055928
 1352          o     46    ccc     O3   1352 -0.96050000  16.000000   ; qtot -33.016428
 1353         c3     46    ccc     C7   1353 0.32800000  12.010000   ; qtot -32.688428
 1354         h1     46    ccc    H11   1354 -0.07120000   1.008000   ; qtot -32.759628
 1355         h1     46    ccc    H12   1355 -0.07120000   1.008000   ; qtot -32.830828
 1356         c3     46    ccc     C8   1356 -0.39330000  12.010000   ; qtot -33.224128
 1357         hc     46    ccc    H13   1357 0.08130000   1.008000   ; qtot -33.142828
 1358         hc     46    ccc    H14   1358 0.08130000   1.008000   ; qtot -33.061528
 1359          c     46    ccc     C9   1359 1.08970000  12.010000   ; qtot -31.971828
 1360          o     46    ccc     O4   1360 -0.96050000  16.000000   ; qtot -32.932328
 1361          o     46    ccc     O5   1361 -0.96050000  16.000000   ; qtot -33.892828
 1362         os     46    ccc     O1   1362 -0.11060000  16.000000   ; qtot -34.003428
; residue   47 ccc rtp ccc q -2.0
 1363         c3     47    ccc     C3   1363 -0.04070000  12.010000   ; qtot -34.044128
 1364         h1     47    ccc     H5   1364 0.04610000   1.008000   ; qtot -33.998028
 1365         h1     47    ccc     H6   1365 0.04610000   1.008000   ; qtot -33.951928
 1366         c3     47    ccc     C2   1366 -0.02540000  12.010000   ; qtot -33.977328
 1367         hc     47    ccc     H3   1367 0.00850000   1.008000   ; qtot -33.968828
 1368         hc     47    ccc     H4   1368 0.00850000   1.008000   ; qtot -33.960328
 1369         c3     47    ccc     C1   1369 0.60210000  12.010000   ; qtot -33.358228
 1370         h1     47    ccc     H1   1370 -0.09250000   1.008000   ; qtot -33.450728
 1371         h1     47    ccc     H2   1371 -0.09250000   1.008000   ; qtot -33.543228
 1372         n3     47    ccc     N1   1372 -0.59700000  14.010000   ; qtot -34.140228
 1373         c3     47    ccc     C4   1373 0.32800000  12.010000   ; qtot -33.812228
 1374         h1     47    ccc     H7   1374 -0.07120000   1.008000   ; qtot -33.883428
 1375         h1     47    ccc     H8   1375 -0.07120000   1.008000   ; qtot -33.954628
 1376         c3     47    ccc     C5   1376 -0.39330000  12.010000   ; qtot -34.347928
 1377         hc     47    ccc     H9   1377 0.08130000   1.008000   ; qtot -34.266628
 1378         hc     47    ccc    H10   1378 0.08130000   1.008000   ; qtot -34.185328
 1379          c     47    ccc     C6   1379 1.08970000  12.010000   ; qtot -33.095628
 1380          o     47    ccc     O2   1380 -0.96050000  16.000000   ; qtot -34.056128
 1381          o     47    ccc     O3   1381 -0.96050000  16.000000   ; qtot -35.016628
 1382         c3     47    ccc     C7   1382 0.32800000  12.010000   ; qtot -34.688628
 1383         h1     47    ccc    H11   1383 -0.07120000   1.008000   ; qtot -34.759828
 1384         h1     47    ccc    H12   1384 -0.07120000   1.008000   ; qtot -34.831028
 1385         c3     47    ccc     C8   1385 -0.39330000  12.010000   ; qtot -35.224328
 1386         hc     47    ccc    H13   1386 0.08130000   1.008000   ; qtot -35.143028
 1387         hc     47    ccc    H14   1387 0.08130000   1.008000   ; qtot -35.061728
 1388          c     47    ccc     C9   1388 1.08970000  12.010000   ; qtot -33.972028
 1389          o     47    ccc     O4   1389 -0.96050000  16.000000   ; qtot -34.932528
 1390          o     47    ccc     O5   1390 -0.96050000  16.000000   ; qtot -35.893028
 1391         os     47    ccc     O1   1391 -0.11060000  16.000000   ; qtot -36.003628
; residue   48 ccc rtp ccc q -2.0
 1392         c3     48    ccc     C3   1392 -0.04070000  12.010000   ; qtot -36.044328
 1393         h1     48    ccc     H5   1393 0.04610000   1.008000   ; qtot -35.998228
 1394         h1     48    ccc     H6   1394 0.04610000   1.008000   ; qtot -35.952128
 1395         c3     48    ccc     C2   1395 -0.02540000  12.010000   ; qtot -35.977528
 1396         hc     48    ccc     H3   1396 0.00850000   1.008000   ; qtot -35.969028
 1397         hc     48    ccc     H4   1397 0.00850000   1.008000   ; qtot -35.960528
 1398         c3     48    ccc     C1   1398 0.60210000  12.010000   ; qtot -35.358428
 1399         h1     48    ccc     H1   1399 -0.09250000   1.008000   ; qtot -35.450928
 1400         h1     48    ccc     H2   1400 -0.09250000   1.008000   ; qtot -35.543428
 1401         n3     48    ccc     N1   1401 -0.59700000  14.010000   ; qtot -36.140428
 1402         c3     48    ccc     C4   1402 0.32800000  12.010000   ; qtot -35.812428
 1403         h1     48    ccc     H7   1403 -0.07120000   1.008000   ; qtot -35.883628
 1404         h1     48    ccc     H8   1404 -0.07120000   1.008000   ; qtot -35.954828
 1405         c3     48    ccc     C5   1405 -0.39330000  12.010000   ; qtot -36.348128
 1406         hc     48    ccc     H9   1406 0.08130000   1.008000   ; qtot -36.266828
 1407         hc     48    ccc    H10   1407 0.08130000   1.008000   ; qtot -36.185528
 1408          c     48    ccc     C6   1408 1.08970000  12.010000   ; qtot -35.095828
 1409          o     48    ccc     O2   1409 -0.96050000  16.000000   ; qtot -36.056328
 1410          o     48    ccc     O3   1410 -0.96050000  16.000000   ; qtot -37.016828
 1411         c3     48    ccc     C7   1411 0.32800000  12.010000   ; qtot -36.688828
 1412         h1     48    ccc    H11   1412 -0.07120000   1.008000   ; qtot -36.760028
 1413         h1     48    ccc    H12   1413 -0.07120000   1.008000   ; qtot -36.831228
 1414         c3     48    ccc     C8   1414 -0.39330000  12.010000   ; qtot -37.224528
 1415         hc     48    ccc    H13   1415 0.08130000   1.008000   ; qtot -37.143228
 1416         hc     48    ccc    H14   1416 0.08130000   1.008000   ; qtot -37.061928
 1417          c     48    ccc     C9   1417 1.08970000  12.010000   ; qtot -35.972228
 1418          o     48    ccc     O4   1418 -0.96050000  16.000000   ; qtot -36.932728
 1419          o     48    ccc     O5   1419 -0.96050000  16.000000   ; qtot -37.893228
 1420         os     48    ccc     O1   1420 -0.11060000  16.000000   ; qtot -38.003828
; residue   49 ccc rtp ccc q -2.0
 1421         c3     49    ccc     C3   1421 -0.04070000  12.010000   ; qtot -38.044528
 1422         h1     49    ccc     H5   1422 0.04610000   1.008000   ; qtot -37.998428
 1423         h1     49    ccc     H6   1423 0.04610000   1.008000   ; qtot -37.952328
 1424         c3     49    ccc     C2   1424 -0.02540000  12.010000   ; qtot -37.977728
 1425         hc     49    ccc     H3   1425 0.00850000   1.008000   ; qtot -37.969228
 1426         hc     49    ccc     H4   1426 0.00850000   1.008000   ; qtot -37.960728
 1427         c3     49    ccc     C1   1427 0.60210000  12.010000   ; qtot -37.358628
 1428         h1     49    ccc     H1   1428 -0.09250000   1.008000   ; qtot -37.451128
 1429         h1     49    ccc     H2   1429 -0.09250000   1.008000   ; qtot -37.543628
 1430         n3     49    ccc     N1   1430 -0.59700000  14.010000   ; qtot -38.140628
 1431         c3     49    ccc     C4   1431 0.32800000  12.010000   ; qtot -37.812628
 1432         h1     49    ccc     H7   1432 -0.07120000   1.008000   ; qtot -37.883828
 1433         h1     49    ccc     H8   1433 -0.07120000   1.008000   ; qtot -37.955028
 1434         c3     49    ccc     C5   1434 -0.39330000  12.010000   ; qtot -38.348328
 1435         hc     49    ccc     H9   1435 0.08130000   1.008000   ; qtot -38.267028
 1436         hc     49    ccc    H10   1436 0.08130000   1.008000   ; qtot -38.185728
 1437          c     49    ccc     C6   1437 1.08970000  12.010000   ; qtot -37.096028
 1438          o     49    ccc     O2   1438 -0.96050000  16.000000   ; qtot -38.056528
 1439          o     49    ccc     O3   1439 -0.96050000  16.000000   ; qtot -39.017028
 1440         c3     49    ccc     C7   1440 0.32800000  12.010000   ; qtot -38.689028
 1441         h1     49    ccc    H11   1441 -0.07120000   1.008000   ; qtot -38.760228
 1442         h1     49    ccc    H12   1442 -0.07120000   1.008000   ; qtot -38.831428
 1443         c3     49    ccc     C8   1443 -0.39330000  12.010000   ; qtot -39.224728
 1444         hc     49    ccc    H13   1444 0.08130000   1.008000   ; qtot -39.143428
 1445         hc     49    ccc    H14   1445 0.08130000   1.008000   ; qtot -39.062128
 1446          c     49    ccc     C9   1446 1.08970000  12.010000   ; qtot -37.972428
 1447          o     49    ccc     O4   1447 -0.96050000  16.000000   ; qtot -38.932928
 1448          o     49    ccc     O5   1448 -0.96050000  16.000000   ; qtot -39.893428
 1449         os     49    ccc     O1   1449 -0.11060000  16.000000   ; qtot -40.004028
; residue   50 ccc rtp ccc q -2.0
 1450         c3     50    ccc     C3   1450 -0.04070000  12.010000   ; qtot -40.044728
 1451         h1     50    ccc     H5   1451 0.04610000   1.008000   ; qtot -39.998628
 1452         h1     50    ccc     H6   1452 0.04610000   1.008000   ; qtot -39.952528
 1453         c3     50    ccc     C2   1453 -0.02540000  12.010000   ; qtot -39.977928
 1454         hc     50    ccc     H3   1454 0.00850000   1.008000   ; qtot -39.969428
 1455         hc     50    ccc     H4   1455 0.00850000   1.008000   ; qtot -39.960928
 1456         c3     50    ccc     C1   1456 0.60210000  12.010000   ; qtot -39.358828
 1457         h1     50    ccc     H1   1457 -0.09250000   1.008000   ; qtot -39.451328
 1458         h1     50    ccc     H2   1458 -0.09250000   1.008000   ; qtot -39.543828
 1459         n3     50    ccc     N1   1459 -0.59700000  14.010000   ; qtot -40.140828
 1460         c3     50    ccc     C4   1460 0.32800000  12.010000   ; qtot -39.812828
 1461         h1     50    ccc     H7   1461 -0.07120000   1.008000   ; qtot -39.884028
 1462         h1     50    ccc     H8   1462 -0.07120000   1.008000   ; qtot -39.955228
 1463         c3     50    ccc     C5   1463 -0.39330000  12.010000   ; qtot -40.348528
 1464         hc     50    ccc     H9   1464 0.08130000   1.008000   ; qtot -40.267228
 1465         hc     50    ccc    H10   1465 0.08130000   1.008000   ; qtot -40.185928
 1466          c     50    ccc     C6   1466 1.08970000  12.010000   ; qtot -39.096228
 1467          o     50    ccc     O2   1467 -0.96050000  16.000000   ; qtot -40.056728
 1468          o     50    ccc     O3   1468 -0.96050000  16.000000   ; qtot -41.017228
 1469         c3     50    ccc     C7   1469 0.32800000  12.010000   ; qtot -40.689228
 1470         h1     50    ccc    H11   1470 -0.07120000   1.008000   ; qtot -40.760428
 1471         h1     50    ccc    H12   1471 -0.07120000   1.008000   ; qtot -40.831628
 1472         c3     50    ccc     C8   1472 -0.39330000  12.010000   ; qtot -41.224928
 1473         hc     50    ccc    H13   1473 0.08130000   1.008000   ; qtot -41.143628
 1474         hc     50    ccc    H14   1474 0.08130000   1.008000   ; qtot -41.062328
 1475          c     50    ccc     C9   1475 1.08970000  12.010000   ; qtot -39.972628
 1476          o     50    ccc     O4   1476 -0.96050000  16.000000   ; qtot -40.933128
 1477          o     50    ccc     O5   1477 -0.96050000  16.000000   ; qtot -41.893628
 1478         os     50    ccc     O1   1478 -0.11060000  16.000000   ; qtot -42.004228
; residue   51 ccc rtp ccc q -2.0
 1479         c3     51    ccc     C3   1479 -0.04070000  12.010000   ; qtot -42.044928
 1480         h1     51    ccc     H5   1480 0.04610000   1.008000   ; qtot -41.998828
 1481         h1     51    ccc     H6   1481 0.04610000   1.008000   ; qtot -41.952728
 1482         c3     51    ccc     C2   1482 -0.02540000  12.010000   ; qtot -41.978128
 1483         hc     51    ccc     H3   1483 0.00850000   1.008000   ; qtot -41.969628
 1484         hc     51    ccc     H4   1484 0.00850000   1.008000   ; qtot -41.961128
 1485         c3     51    ccc     C1   1485 0.60210000  12.010000   ; qtot -41.359028
 1486         h1     51    ccc     H1   1486 -0.09250000   1.008000   ; qtot -41.451528
 1487         h1     51    ccc     H2   1487 -0.09250000   1.008000   ; qtot -41.544028
 1488         n3     51    ccc     N1   1488 -0.59700000  14.010000   ; qtot -42.141028
 1489         c3     51    ccc     C4   1489 0.32800000  12.010000   ; qtot -41.813028
 1490         h1     51    ccc     H7   1490 -0.07120000   1.008000   ; qtot -41.884228
 1491         h1     51    ccc     H8   1491 -0.07120000   1.008000   ; qtot -41.955428
 1492         c3     51    ccc     C5   1492 -0.39330000  12.010000   ; qtot -42.348728
 1493         hc     51    ccc     H9   1493 0.08130000   1.008000   ; qtot -42.267428
 1494         hc     51    ccc    H10   1494 0.08130000   1.008000   ; qtot -42.186128
 1495          c     51    ccc     C6   1495 1.08970000  12.010000   ; qtot -41.096428
 1496          o     51    ccc     O2   1496 -0.96050000  16.000000   ; qtot -42.056928
 1497          o     51    ccc     O3   1497 -0.96050000  16.000000   ; qtot -43.017428
 1498         c3     51    ccc     C7   1498 0.32800000  12.010000   ; qtot -42.689428
 1499         h1     51    ccc    H11   1499 -0.07120000   1.008000   ; qtot -42.760628
 1500         h1     51    ccc    H12   1500 -0.07120000   1.008000   ; qtot -42.831828
 1501         c3     51    ccc     C8   1501 -0.39330000  12.010000   ; qtot -43.225128
 1502         hc     51    ccc    H13   1502 0.08130000   1.008000   ; qtot -43.143828
 1503         hc     51    ccc    H14   1503 0.08130000   1.008000   ; qtot -43.062528
 1504          c     51    ccc     C9   1504 1.08970000  12.010000   ; qtot -41.972828
 1505          o     51    ccc     O4   1505 -0.96050000  16.000000   ; qtot -42.933328
 1506          o     51    ccc     O5   1506 -0.96050000  16.000000   ; qtot -43.893828
 1507         os     51    ccc     O1   1507 -0.11060000  16.000000   ; qtot -44.004428
; residue   52 ccc rtp ccc q -2.0
 1508         c3     52    ccc     C3   1508 -0.04070000  12.010000   ; qtot -44.045128
 1509         h1     52    ccc     H5   1509 0.04610000   1.008000   ; qtot -43.999028
 1510         h1     52    ccc     H6   1510 0.04610000   1.008000   ; qtot -43.952928
 1511         c3     52    ccc     C2   1511 -0.02540000  12.010000   ; qtot -43.978328
 1512         hc     52    ccc     H3   1512 0.00850000   1.008000   ; qtot -43.969828
 1513         hc     52    ccc     H4   1513 0.00850000   1.008000   ; qtot -43.961328
 1514         c3     52    ccc     C1   1514 0.60210000  12.010000   ; qtot -43.359228
 1515         h1     52    ccc     H1   1515 -0.09250000   1.008000   ; qtot -43.451728
 1516         h1     52    ccc     H2   1516 -0.09250000   1.008000   ; qtot -43.544228
 1517         n3     52    ccc     N1   1517 -0.59700000  14.010000   ; qtot -44.141228
 1518         c3     52    ccc     C4   1518 0.32800000  12.010000   ; qtot -43.813228
 1519         h1     52    ccc     H7   1519 -0.07120000   1.008000   ; qtot -43.884428
 1520         h1     52    ccc     H8   1520 -0.07120000   1.008000   ; qtot -43.955628
 1521         c3     52    ccc     C5   1521 -0.39330000  12.010000   ; qtot -44.348928
 1522         hc     52    ccc     H9   1522 0.08130000   1.008000   ; qtot -44.267628
 1523         hc     52    ccc    H10   1523 0.08130000   1.008000   ; qtot -44.186328
 1524          c     52    ccc     C6   1524 1.08970000  12.010000   ; qtot -43.096628
 1525          o     52    ccc     O2   1525 -0.96050000  16.000000   ; qtot -44.057128
 1526          o     52    ccc     O3   1526 -0.96050000  16.000000   ; qtot -45.017628
 1527         c3     52    ccc     C7   1527 0.32800000  12.010000   ; qtot -44.689628
 1528         h1     52    ccc    H11   1528 -0.07120000   1.008000   ; qtot -44.760828
 1529         h1     52    ccc    H12   1529 -0.07120000   1.008000   ; qtot -44.832028
 1530         c3     52    ccc     C8   1530 -0.39330000  12.010000   ; qtot -45.225328
 1531         hc     52    ccc    H13   1531 0.08130000   1.008000   ; qtot -45.144028
 1532         hc     52    ccc    H14   1532 0.08130000   1.008000   ; qtot -45.062728
 1533          c     52    ccc     C9   1533 1.08970000  12.010000   ; qtot -43.973028
 1534          o     52    ccc     O4   1534 -0.96050000  16.000000   ; qtot -44.933528
 1535          o     52    ccc     O5   1535 -0.96050000  16.000000   ; qtot -45.894028
 1536         os     52    ccc     O1   1536 -0.11060000  16.000000   ; qtot -46.004628
; residue   53 ccc rtp ccc q -2.0
 1537         c3     53    ccc     C3   1537 -0.04070000  12.010000   ; qtot -46.045328
 1538         h1     53    ccc     H5   1538 0.04610000   1.008000   ; qtot -45.999228
 1539         h1     53    ccc     H6   1539 0.04610000   1.008000   ; qtot -45.953128
 1540         c3     53    ccc     C2   1540 -0.02540000  12.010000   ; qtot -45.978528
 1541         hc     53    ccc     H3   1541 0.00850000   1.008000   ; qtot -45.970028
 1542         hc     53    ccc     H4   1542 0.00850000   1.008000   ; qtot -45.961528
 1543         c3     53    ccc     C1   1543 0.60210000  12.010000   ; qtot -45.359428
 1544         h1     53    ccc     H1   1544 -0.09250000   1.008000   ; qtot -45.451928
 1545         h1     53    ccc     H2   1545 -0.09250000   1.008000   ; qtot -45.544428
 1546         n3     53    ccc     N1   1546 -0.59700000  14.010000   ; qtot -46.141428
 1547         c3     53    ccc     C4   1547 0.32800000  12.010000   ; qtot -45.813428
 1548         h1     53    ccc     H7   1548 -0.07120000   1.008000   ; qtot -45.884628
 1549         h1     53    ccc     H8   1549 -0.07120000   1.008000   ; qtot -45.955828
 1550         c3     53    ccc     C5   1550 -0.39330000  12.010000   ; qtot -46.349128
 1551         hc     53    ccc     H9   1551 0.08130000   1.008000   ; qtot -46.267828
 1552         hc     53    ccc    H10   1552 0.08130000   1.008000   ; qtot -46.186528
 1553          c     53    ccc     C6   1553 1.08970000  12.010000   ; qtot -45.096828
 1554          o     53    ccc     O2   1554 -0.96050000  16.000000   ; qtot -46.057328
 1555          o     53    ccc     O3   1555 -0.96050000  16.000000   ; qtot -47.017828
 1556         c3     53    ccc     C7   1556 0.32800000  12.010000   ; qtot -46.689828
 1557         h1     53    ccc    H11   1557 -0.07120000   1.008000   ; qtot -46.761028
 1558         h1     53    ccc    H12   1558 -0.07120000   1.008000   ; qtot -46.832228
 1559         c3     53    ccc     C8   1559 -0.39330000  12.010000   ; qtot -47.225528
 1560         hc     53    ccc    H13   1560 0.08130000   1.008000   ; qtot -47.144228
 1561         hc     53    ccc    H14   1561 0.08130000   1.008000   ; qtot -47.062928
 1562          c     53    ccc     C9   1562 1.08970000  12.010000   ; qtot -45.973228
 1563          o     53    ccc     O4   1563 -0.96050000  16.000000   ; qtot -46.933728
 1564          o     53    ccc     O5   1564 -0.96050000  16.000000   ; qtot -47.894228
 1565         os     53    ccc     O1   1565 -0.11060000  16.000000   ; qtot -48.004828
; residue   54 ccc rtp ccc q -2.0
 1566         c3     54    ccc     C3   1566 -0.04070000  12.010000   ; qtot -48.045528
 1567         h1     54    ccc     H5   1567 0.04610000   1.008000   ; qtot -47.999428
 1568         h1     54    ccc     H6   1568 0.04610000   1.008000   ; qtot -47.953328
 1569         c3     54    ccc     C2   1569 -0.02540000  12.010000   ; qtot -47.978728
 1570         hc     54    ccc     H3   1570 0.00850000   1.008000   ; qtot -47.970228
 1571         hc     54    ccc     H4   1571 0.00850000   1.008000   ; qtot -47.961728
 1572         c3     54    ccc     C1   1572 0.60210000  12.010000   ; qtot -47.359628
 1573         h1     54    ccc     H1   1573 -0.09250000   1.008000   ; qtot -47.452128
 1574         h1     54    ccc     H2   1574 -0.09250000   1.008000   ; qtot -47.544628
 1575         n3     54    ccc     N1   1575 -0.59700000  14.010000   ; qtot -48.141628
 1576         c3     54    ccc     C4   1576 0.32800000  12.010000   ; qtot -47.813628
 1577         h1     54    ccc     H7   1577 -0.07120000   1.008000   ; qtot -47.884828
 1578         h1     54    ccc     H8   1578 -0.07120000   1.008000   ; qtot -47.956028
 1579         c3     54    ccc     C5   1579 -0.39330000  12.010000   ; qtot -48.349328
 1580         hc     54    ccc     H9   1580 0.08130000   1.008000   ; qtot -48.268028
 1581         hc     54    ccc    H10   1581 0.08130000   1.008000   ; qtot -48.186728
 1582          c     54    ccc     C6   1582 1.08970000  12.010000   ; qtot -47.097028
 1583          o     54    ccc     O2   1583 -0.96050000  16.000000   ; qtot -48.057528
 1584          o     54    ccc     O3   1584 -0.96050000  16.000000   ; qtot -49.018028
 1585         c3     54    ccc     C7   1585 0.32800000  12.010000   ; qtot -48.690028
 1586         h1     54    ccc    H11   1586 -0.07120000   1.008000   ; qtot -48.761228
 1587         h1     54    ccc    H12   1587 -0.07120000   1.008000   ; qtot -48.832428
 1588         c3     54    ccc     C8   1588 -0.39330000  12.010000   ; qtot -49.225728
 1589         hc     54    ccc    H13   1589 0.08130000   1.008000   ; qtot -49.144428
 1590         hc     54    ccc    H14   1590 0.08130000   1.008000   ; qtot -49.063128
 1591          c     54    ccc     C9   1591 1.08970000  12.010000   ; qtot -47.973428
 1592          o     54    ccc     O4   1592 -0.96050000  16.000000   ; qtot -48.933928
 1593          o     54    ccc     O5   1593 -0.96050000  16.000000   ; qtot -49.894428
 1594         os     54    ccc     O1   1594 -0.11060000  16.000000   ; qtot -50.005028
; residue   55 ccc rtp ccc q -2.0
 1595         c3     55    ccc     C3   1595 -0.04070000  12.010000   ; qtot -50.045728
 1596         h1     55    ccc     H5   1596 0.04610000   1.008000   ; qtot -49.999628
 1597         h1     55    ccc     H6   1597 0.04610000   1.008000   ; qtot -49.953528
 1598         c3     55    ccc     C2   1598 -0.02540000  12.010000   ; qtot -49.978928
 1599         hc     55    ccc     H3   1599 0.00850000   1.008000   ; qtot -49.970428
 1600         hc     55    ccc     H4   1600 0.00850000   1.008000   ; qtot -49.961928
 1601         c3     55    ccc     C1   1601 0.60210000  12.010000   ; qtot -49.359828
 1602         h1     55    ccc     H1   1602 -0.09250000   1.008000   ; qtot -49.452328
 1603         h1     55    ccc     H2   1603 -0.09250000   1.008000   ; qtot -49.544828
 1604         n3     55    ccc     N1   1604 -0.59700000  14.010000   ; qtot -50.141828
 1605         c3     55    ccc     C4   1605 0.32800000  12.010000   ; qtot -49.813828
 1606         h1     55    ccc     H7   1606 -0.07120000   1.008000   ; qtot -49.885028
 1607         h1     55    ccc     H8   1607 -0.07120000   1.008000   ; qtot -49.956228
 1608         c3     55    ccc     C5   1608 -0.39330000  12.010000   ; qtot -50.349528
 1609         hc     55    ccc     H9   1609 0.08130000   1.008000   ; qtot -50.268228
 1610         hc     55    ccc    H10   1610 0.08130000   1.008000   ; qtot -50.186928
 1611          c     55    ccc     C6   1611 1.08970000  12.010000   ; qtot -49.097228
 1612          o     55    ccc     O2   1612 -0.96050000  16.000000   ; qtot -50.057728
 1613          o     55    ccc     O3   1613 -0.96050000  16.000000   ; qtot -51.018228
 1614         c3     55    ccc     C7   1614 0.32800000  12.010000   ; qtot -50.690228
 1615         h1     55    ccc    H11   1615 -0.07120000   1.008000   ; qtot -50.761428
 1616         h1     55    ccc    H12   1616 -0.07120000   1.008000   ; qtot -50.832628
 1617         c3     55    ccc     C8   1617 -0.39330000  12.010000   ; qtot -51.225928
 1618         hc     55    ccc    H13   1618 0.08130000   1.008000   ; qtot -51.144628
 1619         hc     55    ccc    H14   1619 0.08130000   1.008000   ; qtot -51.063328
 1620          c     55    ccc     C9   1620 1.08970000  12.010000   ; qtot -49.973628
 1621          o     55    ccc     O4   1621 -0.96050000  16.000000   ; qtot -50.934128
 1622          o     55    ccc     O5   1622 -0.96050000  16.000000   ; qtot -51.894628
 1623         os     55    ccc     O1   1623 -0.11060000  16.000000   ; qtot -52.005228
; residue   56 ccc rtp ccc q -2.0
 1624         c3     56    ccc     C3   1624 -0.04070000  12.010000   ; qtot -52.045928
 1625         h1     56    ccc     H5   1625 0.04610000   1.008000   ; qtot -51.999828
 1626         h1     56    ccc     H6   1626 0.04610000   1.008000   ; qtot -51.953728
 1627         c3     56    ccc     C2   1627 -0.02540000  12.010000   ; qtot -51.979128
 1628         hc     56    ccc     H3   1628 0.00850000   1.008000   ; qtot -51.970628
 1629         hc     56    ccc     H4   1629 0.00850000   1.008000   ; qtot -51.962128
 1630         c3     56    ccc     C1   1630 0.60210000  12.010000   ; qtot -51.360028
 1631         h1     56    ccc     H1   1631 -0.09250000   1.008000   ; qtot -51.452528
 1632         h1     56    ccc     H2   1632 -0.09250000   1.008000   ; qtot -51.545028
 1633         n3     56    ccc     N1   1633 -0.59700000  14.010000   ; qtot -52.142028
 1634         c3     56    ccc     C4   1634 0.32800000  12.010000   ; qtot -51.814028
 1635         h1     56    ccc     H7   1635 -0.07120000   1.008000   ; qtot -51.885228
 1636         h1     56    ccc     H8   1636 -0.07120000   1.008000   ; qtot -51.956428
 1637         c3     56    ccc     C5   1637 -0.39330000  12.010000   ; qtot -52.349728
 1638         hc     56    ccc     H9   1638 0.08130000   1.008000   ; qtot -52.268428
 1639         hc     56    ccc    H10   1639 0.08130000   1.008000   ; qtot -52.187128
 1640          c     56    ccc     C6   1640 1.08970000  12.010000   ; qtot -51.097428
 1641          o     56    ccc     O2   1641 -0.96050000  16.000000   ; qtot -52.057928
 1642          o     56    ccc     O3   1642 -0.96050000  16.000000   ; qtot -53.018428
 1643         c3     56    ccc     C7   1643 0.32800000  12.010000   ; qtot -52.690428
 1644         h1     56    ccc    H11   1644 -0.07120000   1.008000   ; qtot -52.761628
 1645         h1     56    ccc    H12   1645 -0.07120000   1.008000   ; qtot -52.832828
 1646         c3     56    ccc     C8   1646 -0.39330000  12.010000   ; qtot -53.226128
 1647         hc     56    ccc    H13   1647 0.08130000   1.008000   ; qtot -53.144828
 1648         hc     56    ccc    H14   1648 0.08130000   1.008000   ; qtot -53.063528
 1649          c     56    ccc     C9   1649 1.08970000  12.010000   ; qtot -51.973828
 1650          o     56    ccc     O4   1650 -0.96050000  16.000000   ; qtot -52.934328
 1651          o     56    ccc     O5   1651 -0.96050000  16.000000   ; qtot -53.894828
 1652         os     56    ccc     O1   1652 -0.11060000  16.000000   ; qtot -54.005428
; residue   57 ccc rtp ccc q -2.0
 1653         c3     57    ccc     C3   1653 -0.04070000  12.010000   ; qtot -54.046128
 1654         h1     57    ccc     H5   1654 0.04610000   1.008000   ; qtot -54.000028
 1655         h1     57    ccc     H6   1655 0.04610000   1.008000   ; qtot -53.953928
 1656         c3     57    ccc     C2   1656 -0.02540000  12.010000   ; qtot -53.979328
 1657         hc     57    ccc     H3   1657 0.00850000   1.008000   ; qtot -53.970828
 1658         hc     57    ccc     H4   1658 0.00850000   1.008000   ; qtot -53.962328
 1659         c3     57    ccc     C1   1659 0.60210000  12.010000   ; qtot -53.360228
 1660         h1     57    ccc     H1   1660 -0.09250000   1.008000   ; qtot -53.452728
 1661         h1     57    ccc     H2   1661 -0.09250000   1.008000   ; qtot -53.545228
 1662         n3     57    ccc     N1   1662 -0.59700000  14.010000   ; qtot -54.142228
 1663         c3     57    ccc     C4   1663 0.32800000  12.010000   ; qtot -53.814228
 1664         h1     57    ccc     H7   1664 -0.07120000   1.008000   ; qtot -53.885428
 1665         h1     57    ccc     H8   1665 -0.07120000   1.008000   ; qtot -53.956628
 1666         c3     57    ccc     C5   1666 -0.39330000  12.010000   ; qtot -54.349928
 1667         hc     57    ccc     H9   1667 0.08130000   1.008000   ; qtot -54.268628
 1668         hc     57    ccc    H10   1668 0.08130000   1.008000   ; qtot -54.187328
 1669          c     57    ccc     C6   1669 1.08970000  12.010000   ; qtot -53.097628
 1670          o     57    ccc     O2   1670 -0.96050000  16.000000   ; qtot -54.058128
 1671          o     57    ccc     O3   1671 -0.96050000  16.000000   ; qtot -55.018628
 1672         c3     57    ccc     C7   1672 0.32800000  12.010000   ; qtot -54.690628
 1673         h1     57    ccc    H11   1673 -0.07120000   1.008000   ; qtot -54.761828
 1674         h1     57    ccc    H12   1674 -0.07120000   1.008000   ; qtot -54.833028
 1675         c3     57    ccc     C8   1675 -0.39330000  12.010000   ; qtot -55.226328
 1676         hc     57    ccc    H13   1676 0.08130000   1.008000   ; qtot -55.145028
 1677         hc     57    ccc    H14   1677 0.08130000   1.008000   ; qtot -55.063728
 1678          c     57    ccc     C9   1678 1.08970000  12.010000   ; qtot -53.974028
 1679          o     57    ccc     O4   1679 -0.96050000  16.000000   ; qtot -54.934528
 1680          o     57    ccc     O5   1680 -0.96050000  16.000000   ; qtot -55.895028
 1681         os     57    ccc     O1   1681 -0.11060000  16.000000   ; qtot -56.005628
; residue   58 ccc rtp ccc q -2.0
 1682         c3     58    ccc     C3   1682 -0.04070000  12.010000   ; qtot -56.046328
 1683         h1     58    ccc     H5   1683 0.04610000   1.008000   ; qtot -56.000228
 1684         h1     58    ccc     H6   1684 0.04610000   1.008000   ; qtot -55.954128
 1685         c3     58    ccc     C2   1685 -0.02540000  12.010000   ; qtot -55.979528
 1686         hc     58    ccc     H3   1686 0.00850000   1.008000   ; qtot -55.971028
 1687         hc     58    ccc     H4   1687 0.00850000   1.008000   ; qtot -55.962528
 1688         c3     58    ccc     C1   1688 0.60210000  12.010000   ; qtot -55.360428
 1689         h1     58    ccc     H1   1689 -0.09250000   1.008000   ; qtot -55.452928
 1690         h1     58    ccc     H2   1690 -0.09250000   1.008000   ; qtot -55.545428
 1691         n3     58    ccc     N1   1691 -0.59700000  14.010000   ; qtot -56.142428
 1692         c3     58    ccc     C4   1692 0.32800000  12.010000   ; qtot -55.814428
 1693         h1     58    ccc     H7   1693 -0.07120000   1.008000   ; qtot -55.885628
 1694         h1     58    ccc     H8   1694 -0.07120000   1.008000   ; qtot -55.956828
 1695         c3     58    ccc     C5   1695 -0.39330000  12.010000   ; qtot -56.350128
 1696         hc     58    ccc     H9   1696 0.08130000   1.008000   ; qtot -56.268828
 1697         hc     58    ccc    H10   1697 0.08130000   1.008000   ; qtot -56.187528
 1698          c     58    ccc     C6   1698 1.08970000  12.010000   ; qtot -55.097828
 1699          o     58    ccc     O2   1699 -0.96050000  16.000000   ; qtot -56.058328
 1700          o     58    ccc     O3   1700 -0.96050000  16.000000   ; qtot -57.018828
 1701         c3     58    ccc     C7   1701 0.32800000  12.010000   ; qtot -56.690828
 1702         h1     58    ccc    H11   1702 -0.07120000   1.008000   ; qtot -56.762028
 1703         h1     58    ccc    H12   1703 -0.07120000   1.008000   ; qtot -56.833228
 1704         c3     58    ccc     C8   1704 -0.39330000  12.010000   ; qtot -57.226528
 1705         hc     58    ccc    H13   1705 0.08130000   1.008000   ; qtot -57.145228
 1706         hc     58    ccc    H14   1706 0.08130000   1.008000   ; qtot -57.063928
 1707          c     58    ccc     C9   1707 1.08970000  12.010000   ; qtot -55.974228
 1708          o     58    ccc     O4   1708 -0.96050000  16.000000   ; qtot -56.934728
 1709          o     58    ccc     O5   1709 -0.96050000  16.000000   ; qtot -57.895228
 1710         os     58    ccc     O1   1710 -0.11060000  16.000000   ; qtot -58.005828
; residue   59 ccc rtp ccc q -2.0
 1711         c3     59    ccc     C3   1711 -0.04070000  12.010000   ; qtot -58.046528
 1712         h1     59    ccc     H5   1712 0.04610000   1.008000   ; qtot -58.000428
 1713         h1     59    ccc     H6   1713 0.04610000   1.008000   ; qtot -57.954328
 1714         c3     59    ccc     C2   1714 -0.02540000  12.010000   ; qtot -57.979728
 1715         hc     59    ccc     H3   1715 0.00850000   1.008000   ; qtot -57.971228
 1716         hc     59    ccc     H4   1716 0.00850000   1.008000   ; qtot -57.962728
 1717         c3     59    ccc     C1   1717 0.60210000  12.010000   ; qtot -57.360628
 1718         h1     59    ccc     H1   1718 -0.09250000   1.008000   ; qtot -57.453128
 1719         h1     59    ccc     H2   1719 -0.09250000   1.008000   ; qtot -57.545628
 1720         n3     59    ccc     N1   1720 -0.59700000  14.010000   ; qtot -58.142628
 1721         c3     59    ccc     C4   1721 0.32800000  12.010000   ; qtot -57.814628
 1722         h1     59    ccc     H7   1722 -0.07120000   1.008000   ; qtot -57.885828
 1723         h1     59    ccc     H8   1723 -0.07120000   1.008000   ; qtot -57.957028
 1724         c3     59    ccc     C5   1724 -0.39330000  12.010000   ; qtot -58.350328
 1725         hc     59    ccc     H9   1725 0.08130000   1.008000   ; qtot -58.269028
 1726         hc     59    ccc    H10   1726 0.08130000   1.008000   ; qtot -58.187728
 1727          c     59    ccc     C6   1727 1.08970000  12.010000   ; qtot -57.098028
 1728          o     59    ccc     O2   1728 -0.96050000  16.000000   ; qtot -58.058528
 1729          o     59    ccc     O3   1729 -0.96050000  16.000000   ; qtot -59.019028
 1730         c3     59    ccc     C7   1730 0.32800000  12.010000   ; qtot -58.691028
 1731         h1     59    ccc    H11   1731 -0.07120000   1.008000   ; qtot -58.762228
 1732         h1     59    ccc    H12   1732 -0.07120000   1.008000   ; qtot -58.833428
 1733         c3     59    ccc     C8   1733 -0.39330000  12.010000   ; qtot -59.226728
 1734         hc     59    ccc    H13   1734 0.08130000   1.008000   ; qtot -59.145428
 1735         hc     59    ccc    H14   1735 0.08130000   1.008000   ; qtot -59.064128
 1736          c     59    ccc     C9   1736 1.08970000  12.010000   ; qtot -57.974428
 1737          o     59    ccc     O4   1737 -0.96050000  16.000000   ; qtot -58.934928
 1738          o     59    ccc     O5   1738 -0.96050000  16.000000   ; qtot -59.895428
 1739         os     59    ccc     O1   1739 -0.11060000  16.000000   ; qtot -60.006028
; residue   60 ccc rtp ccc q -2.0
 1740         c3     60    ccc     C3   1740 -0.04070000  12.010000   ; qtot -60.046728
 1741         h1     60    ccc     H5   1741 0.04610000   1.008000   ; qtot -60.000628
 1742         h1     60    ccc     H6   1742 0.04610000   1.008000   ; qtot -59.954528
 1743         c3     60    ccc     C2   1743 -0.02540000  12.010000   ; qtot -59.979928
 1744         hc     60    ccc     H3   1744 0.00850000   1.008000   ; qtot -59.971428
 1745         hc     60    ccc     H4   1745 0.00850000   1.008000   ; qtot -59.962928
 1746         c3     60    ccc     C1   1746 0.60210000  12.010000   ; qtot -59.360828
 1747         h1     60    ccc     H1   1747 -0.09250000   1.008000   ; qtot -59.453328
 1748         h1     60    ccc     H2   1748 -0.09250000   1.008000   ; qtot -59.545828
 1749         n3     60    ccc     N1   1749 -0.59700000  14.010000   ; qtot -60.142828
 1750         c3     60    ccc     C4   1750 0.32800000  12.010000   ; qtot -59.814828
 1751         h1     60    ccc     H7   1751 -0.07120000   1.008000   ; qtot -59.886028
 1752         h1     60    ccc     H8   1752 -0.07120000   1.008000   ; qtot -59.957228
 1753         c3     60    ccc     C5   1753 -0.39330000  12.010000   ; qtot -60.350528
 1754         hc     60    ccc     H9   1754 0.08130000   1.008000   ; qtot -60.269228
 1755         hc     60    ccc    H10   1755 0.08130000   1.008000   ; qtot -60.187928
 1756          c     60    ccc     C6   1756 1.08970000  12.010000   ; qtot -59.098228
 1757          o     60    ccc     O2   1757 -0.96050000  16.000000   ; qtot -60.058728
 1758          o     60    ccc     O3   1758 -0.96050000  16.000000   ; qtot -61.019228
 1759         c3     60    ccc     C7   1759 0.32800000  12.010000   ; qtot -60.691228
 1760         h1     60    ccc    H11   1760 -0.07120000   1.008000   ; qtot -60.762428
 1761         h1     60    ccc    H12   1761 -0.07120000   1.008000   ; qtot -60.833628
 1762         c3     60    ccc     C8   1762 -0.39330000  12.010000   ; qtot -61.226928
 1763         hc     60    ccc    H13   1763 0.08130000   1.008000   ; qtot -61.145628
 1764         hc     60    ccc    H14   1764 0.08130000   1.008000   ; qtot -61.064328
 1765          c     60    ccc     C9   1765 1.08970000  12.010000   ; qtot -59.974628
 1766          o     60    ccc     O4   1766 -0.96050000  16.000000   ; qtot -60.935128
 1767          o     60    ccc     O5   1767 -0.96050000  16.000000   ; qtot -61.895628
 1768         os     60    ccc     O1   1768 -0.11060000  16.000000   ; qtot -62.006228
; residue   61 ccc rtp ccc q -2.0
 1769         c3     61    ccc     C3   1769 -0.04070000  12.010000   ; qtot -62.046928
 1770         h1     61    ccc     H5   1770 0.04610000   1.008000   ; qtot -62.000828
 1771         h1     61    ccc     H6   1771 0.04610000   1.008000   ; qtot -61.954728
 1772         c3     61    ccc     C2   1772 -0.02540000  12.010000   ; qtot -61.980128
 1773         hc     61    ccc     H3   1773 0.00850000   1.008000   ; qtot -61.971628
 1774         hc     61    ccc     H4   1774 0.00850000   1.008000   ; qtot -61.963128
 1775         c3     61    ccc     C1   1775 0.60210000  12.010000   ; qtot -61.361028
 1776         h1     61    ccc     H1   1776 -0.09250000   1.008000   ; qtot -61.453528
 1777         h1     61    ccc     H2   1777 -0.09250000   1.008000   ; qtot -61.546028
 1778         n3     61    ccc     N1   1778 -0.59700000  14.010000   ; qtot -62.143028
 1779         c3     61    ccc     C4   1779 0.32800000  12.010000   ; qtot -61.815028
 1780         h1     61    ccc     H7   1780 -0.07120000   1.008000   ; qtot -61.886228
 1781         h1     61    ccc     H8   1781 -0.07120000   1.008000   ; qtot -61.957428
 1782         c3     61    ccc     C5   1782 -0.39330000  12.010000   ; qtot -62.350728
 1783         hc     61    ccc     H9   1783 0.08130000   1.008000   ; qtot -62.269428
 1784         hc     61    ccc    H10   1784 0.08130000   1.008000   ; qtot -62.188128
 1785          c     61    ccc     C6   1785 1.08970000  12.010000   ; qtot -61.098428
 1786          o     61    ccc     O2   1786 -0.96050000  16.000000   ; qtot -62.058928
 1787          o     61    ccc     O3   1787 -0.96050000  16.000000   ; qtot -63.019428
 1788         c3     61    ccc     C7   1788 0.32800000  12.010000   ; qtot -62.691428
 1789         h1     61    ccc    H11   1789 -0.07120000   1.008000   ; qtot -62.762628
 1790         h1     61    ccc    H12   1790 -0.07120000   1.008000   ; qtot -62.833828
 1791         c3     61    ccc     C8   1791 -0.39330000  12.010000   ; qtot -63.227128
 1792         hc     61    ccc    H13   1792 0.08130000   1.008000   ; qtot -63.145828
 1793         hc     61    ccc    H14   1793 0.08130000   1.008000   ; qtot -63.064528
 1794          c     61    ccc     C9   1794 1.08970000  12.010000   ; qtot -61.974828
 1795          o     61    ccc     O4   1795 -0.96050000  16.000000   ; qtot -62.935328
 1796          o     61    ccc     O5   1796 -0.96050000  16.000000   ; qtot -63.895828
 1797         os     61    ccc     O1   1797 -0.11060000  16.000000   ; qtot -64.006428

[ bonds ]
;    ai     aj funct         c0         c1         c2         c3
      1      2     1   0.14316 258236.480000
      1      5     1   0.14316 258236.480000
      2      8     1   0.15375 251793.120000
      5     11     1   0.15375 251793.120000
      8     14     1   0.15375 251793.120000
     11     17     1   0.15375 251793.120000
     14     20     1   0.14647 272713.120000
     17     21     1   0.14647 272713.120000
     20     28     1   0.14647 272713.120000
     20     31     1   0.14647 272713.120000
     21     22     1   0.14647 272713.120000
     21     25     1   0.14647 272713.120000
     22     34     1   0.15375 251793.120000
     25     37     1   0.15375 251793.120000
     28     40     1   0.15375 251793.120000
     31     43     1   0.15375 251793.120000
     34     55     1   0.15375 251793.120000
     37     52     1   0.15375 251793.120000
     40     49     1   0.15375 251793.120000
     43     46     1   0.15375 251793.120000
     46     86     1   0.14316 258236.480000
     49    115     1   0.14316 258236.480000
     52    144     1   0.14316 258236.480000
     55    173     1   0.14316 258236.480000
     58     59     1   0.14647 272713.120000
     58     62     1   0.14647 272713.120000
     58     65     1   0.14647 272713.120000
     59     71     1   0.15375 251793.120000
     62     74     1   0.15375 251793.120000
     65     68     1   0.15375 251793.120000
     68     77     1   0.15375 251793.120000
     71     83     1   0.15375 251793.120000
     74     80     1   0.15375 251793.120000
     77     86     1   0.14316 258236.480000
     80    202     1   0.14316 258236.480000
     83    231     1   0.14316 258236.480000
     87     88     1   0.14647 272713.120000
     87     91     1   0.14647 272713.120000
     87     94     1   0.14647 272713.120000
     88    100     1   0.15375 251793.120000
     91    103     1   0.15375 251793.120000
     94     97     1   0.15375 251793.120000
     97    106     1   0.15375 251793.120000
    100    112     1   0.15375 251793.120000
    103    109     1   0.15375 251793.120000
    106    115     1   0.14316 258236.480000
    109    260     1   0.14316 258236.480000
    112    289     1   0.14316 258236.480000
    116    117     1   0.14647 272713.120000
    116    120     1   0.14647 272713.120000
    116    123     1   0.14647 272713.120000
    117    129     1   0.15375 251793.120000
    120    132     1   0.15375 251793.120000
    123    126     1   0.15375 251793.120000
    126    135     1   0.15375 251793.120000
    129    141     1   0.15375 251793.120000
    132    138     1   0.15375 251793.120000
    135    144     1   0.14316 258236.480000
    138    318     1   0.14316 258236.480000
    141    347     1   0.14316 258236.480000
    145    146     1   0.14647 272713.120000
    145    149     1   0.14647 272713.120000
    145    152     1   0.14647 272713.120000
    146    158     1   0.15375 251793.120000
    149    161     1   0.15375 251793.120000
    152    155     1   0.15375 251793.120000
    155    164     1   0.15375 251793.120000
    158    170     1   0.15375 251793.120000
    161    167     1   0.15375 251793.120000
    164    173     1   0.14316 258236.480000
    167    376     1   0.14316 258236.480000
    170    405     1   0.14316 258236.480000
    174    175     1   0.14647 272713.120000
    174    178     1   0.14647 272713.120000
    174    181     1   0.14647 272713.120000
    175    187     1   0.15375 251793.120000
    178    190     1   0.15375 251793.120000
    181    184     1   0.15375 251793.120000
    184    193     1   0.15375 251793.120000
    187    199     1   0.15375 251793.120000
    190    196     1   0.15375 251793.120000
    193    202     1   0.14316 258236.480000
    196    434     1   0.14316 258236.480000
    199    463     1   0.14316 258236.480000
    203    204     1   0.14647 272713.120000
    203    207     1   0.14647 272713.120000
    203    210     1   0.14647 272713.120000
    204    216     1   0.15375 251793.120000
    207    219     1   0.15375 251793.120000
    210    213     1   0.15375 251793.120000
    213    222     1   0.15375 251793.120000
    216    228     1   0.15375 251793.120000
    219    225     1   0.15375 251793.120000
    222    231     1   0.14316 258236.480000
    225    492     1   0.14316 258236.480000
    228    521     1   0.14316 258236.480000
    232    233     1   0.14647 272713.120000
    232    236     1   0.14647 272713.120000
    232    239     1   0.14647 272713.120000
    233    245     1   0.15375 251793.120000
    236    248     1   0.15375 251793.120000
    239    242     1   0.15375 251793.120000
    242    251     1   0.15375 251793.120000
    245    257     1   0.15375 251793.120000
    248    254     1   0.15375 251793.120000
    251    260     1   0.14316 258236.480000
    254    550     1   0.14316 258236.480000
    257    579     1   0.14316 258236.480000
    261    262     1   0.14647 272713.120000
    261    265     1   0.14647 272713.120000
    261    268     1   0.14647 272713.120000
    262    274     1   0.15375 251793.120000
    265    277     1   0.15375 251793.120000
    268    271     1   0.15375 251793.120000
    271    280     1   0.15375 251793.120000
    274    286     1   0.15375 251793.120000
    277    283     1   0.15375 251793.120000
    280    289     1   0.14316 258236.480000
    283    608     1   0.14316 258236.480000
    286    637     1   0.14316 258236.480000
    290    291     1   0.14647 272713.120000
    290    294     1   0.14647 272713.120000
    290    297     1   0.14647 272713.120000
    291    303     1   0.15375 251793.120000
    294    306     1   0.15375 251793.120000
    297    300     1   0.15375 251793.120000
    300    309     1   0.15375 251793.120000
    303    315     1   0.15375 251793.120000
    306    312     1   0.15375 251793.120000
    309    318     1   0.14316 258236.480000
    312    666     1   0.14316 258236.480000
    315    695     1   0.14316 258236.480000
    319    320     1   0.14647 272713.120000
    319    323     1   0.14647 272713.120000
    319    326     1   0.14647 272713.120000
    320    332     1   0.15375 251793.120000
    323    335     1   0.15375 251793.120000
    326    329     1   0.15375 251793.120000
    329    338     1   0.15375 251793.120000
    332    344     1   0.15375 251793.120000
    335    341     1   0.15375 251793.120000
    338    347     1   0.14316 258236.480000
    341    724     1   0.14316 258236.480000
    344    753     1   0.14316 258236.480000
    348    349     1   0.14647 272713.120000
    348    352     1   0.14647 272713.120000
    348    355     1   0.14647 272713.120000
    349    361     1   0.15375 251793.120000
    352    364     1   0.15375 251793.120000
    355    358     1   0.15375 251793.120000
    358    367     1   0.15375 251793.120000
    361    373     1   0.15375 251793.120000
    364    370     1   0.15375 251793.120000
    367    376     1   0.14316 258236.480000
    370    782     1   0.14316 258236.480000
    373    811     1   0.14316 258236.480000
    377    378     1   0.14647 272713.120000
    377    381     1   0.14647 272713.120000
    377    384     1   0.14647 272713.120000
    378    390     1   0.15375 251793.120000
    381    393     1   0.15375 251793.120000
    384    387     1   0.15375 251793.120000
    387    396     1   0.15375 251793.120000
    390    402     1   0.15375 251793.120000
    393    399     1   0.15375 251793.120000
    396    405     1   0.14316 258236.480000
    399    840     1   0.14316 258236.480000
    402    869     1   0.14316 258236.480000
    406    407     1   0.14647 272713.120000
    406    410     1   0.14647 272713.120000
    406    413     1   0.14647 272713.120000
    407    419     1   0.15375 251793.120000
    410    422     1   0.15375 251793.120000
    413    416     1   0.15375 251793.120000
    416    425     1   0.15375 251793.120000
    419    431     1   0.15375 251793.120000
    422    428     1   0.15375 251793.120000
    425    434     1   0.14316 258236.480000
    428    898     1   0.14316 258236.480000
    431    927     1   0.14316 258236.480000
    435    436     1   0.14647 272713.120000
    435    439     1   0.14647 272713.120000
    435    442     1   0.14647 272713.120000
    436    448     1   0.15375 251793.120000
    439    451     1   0.15375 251793.120000
    442    445     1   0.15375 251793.120000
    445    454     1   0.15375 251793.120000
    448    460     1   0.15375 251793.120000
    451    457     1   0.15375 251793.120000
    454    463     1   0.14316 258236.480000
    457    956     1   0.14316 258236.480000
    460    985     1   0.14316 258236.480000
    464    465     1   0.14647 272713.120000
    464    468     1   0.14647 272713.120000
    464    471     1   0.14647 272713.120000
    465    477     1   0.15375 251793.120000
    468    480     1   0.15375 251793.120000
    471    474     1   0.15375 251793.120000
    474    483     1   0.15375 251793.120000
    477    489     1   0.15375 251793.120000
    480    486     1   0.15375 251793.120000
    483    492     1   0.14316 258236.480000
    486   1014     1   0.14316 258236.480000
    489   1043     1   0.14316 258236.480000
    493    494     1   0.14647 272713.120000
    493    497     1   0.14647 272713.120000
    493    500     1   0.14647 272713.120000
    494    506     1   0.15375 251793.120000
    497    509     1   0.15375 251793.120000
    500    503     1   0.15375 251793.120000
    503    512     1   0.15375 251793.120000
    506    518     1   0.15375 251793.120000
    509    515     1   0.15375 251793.120000
    512    521     1   0.14316 258236.480000
    515   1072     1   0.14316 258236.480000
    518   1101     1   0.14316 258236.480000
    522    523     1   0.14647 272713.120000
    522    526     1   0.14647 272713.120000
    522    529     1   0.14647 272713.120000
    523    535     1   0.15375 251793.120000
    526    538     1   0.15375 251793.120000
    529    532     1   0.15375 251793.120000
    532    541     1   0.15375 251793.120000
    535    547     1   0.15375 251793.120000
    538    544     1   0.15375 251793.120000
    541    550     1   0.14316 258236.480000
    544   1130     1   0.14316 258236.480000
    547   1159     1   0.14316 258236.480000
    551    552     1   0.14647 272713.120000
    551    555     1   0.14647 272713.120000
    551    558     1   0.14647 272713.120000
    552    564     1   0.15375 251793.120000
    555    567     1   0.15375 251793.120000
    558    561     1   0.15375 251793.120000
    561    570     1   0.15375 251793.120000
    564    576     1   0.15375 251793.120000
    567    573     1   0.15375 251793.120000
    570    579     1   0.14316 258236.480000
    573   1188     1   0.14316 258236.480000
    576   1217     1   0.14316 258236.480000
    580    581     1   0.14647 272713.120000
    580    584     1   0.14647 272713.120000
    580    587     1   0.14647 272713.120000
    581    593     1   0.15375 251793.120000
    584    596     1   0.15375 251793.120000
    587    590     1   0.15375 251793.120000
    590    599     1   0.15375 251793.120000
    593    605     1   0.15375 251793.120000
    596    602     1   0.15375 251793.120000
    599    608     1   0.14316 258236.480000
    602   1246     1   0.14316 258236.480000
    605   1275     1   0.14316 258236.480000
    609    610     1   0.14647 272713.120000
    609    613     1   0.14647 272713.120000
    609    616     1   0.14647 272713.120000
    610    622     1   0.15375 251793.120000
    613    625     1   0.15375 251793.120000
    616    619     1   0.15375 251793.120000
    619    628     1   0.15375 251793.120000
    622    634     1   0.15375 251793.120000
    625    631     1   0.15375 251793.120000
    628    637     1   0.14316 258236.480000
    631   1304     1   0.14316 258236.480000
    634   1333     1   0.14316 258236.480000
    638    639     1   0.14647 272713.120000
    638    642     1   0.14647 272713.120000
    638    645     1   0.14647 272713.120000
    639    651     1   0.15375 251793.120000
    642    654     1   0.15375 251793.120000
    645    648     1   0.15375 251793.120000
    648    657     1   0.15375 251793.120000
    651    663     1   0.15375 251793.120000
    654    660     1   0.15375 251793.120000
    657    666     1   0.14316 258236.480000
    660   1362     1   0.14316 258236.480000
    663   1391     1   0.14316 258236.480000
    667    668     1   0.14647 272713.120000
    667    671     1   0.14647 272713.120000
    667    674     1   0.14647 272713.120000
    668    680     1   0.15375 251793.120000
    671    683     1   0.15375 251793.120000
    674    677     1   0.15375 251793.120000
    677    686     1   0.15375 251793.120000
    680    692     1   0.15375 251793.120000
    683    689     1   0.15375 251793.120000
    686    695     1   0.14316 258236.480000
    689   1420     1   0.14316 258236.480000
    692   1449     1   0.14316 258236.480000
    696    697     1   0.14647 272713.120000
    696    700     1   0.14647 272713.120000
    696    703     1   0.14647 272713.120000
    697    709     1   0.15375 251793.120000
    700    712     1   0.15375 251793.120000
    703    706     1   0.15375 251793.120000
    706    715     1   0.15375 251793.120000
    709    721     1   0.15375 251793.120000
    712    718     1   0.15375 251793.120000
    715    724     1   0.14316 258236.480000
    718   1478     1   0.14316 258236.480000
    721   1507     1   0.14316 258236.480000
    725    726     1   0.14647 272713.120000
    725    729     1   0.14647 272713.120000
    725    732     1   0.14647 272713.120000
    726    738     1   0.15375 251793.120000
    729    741     1   0.15375 251793.120000
    732    735     1   0.15375 251793.120000
    735    744     1   0.15375 251793.120000
    738    750     1   0.15375 251793.120000
    741    747     1   0.15375 251793.120000
    744    753     1   0.14316 258236.480000
    747   1536     1   0.14316 258236.480000
    750   1565     1   0.14316 258236.480000
    754    755     1   0.14647 272713.120000
    754    758     1   0.14647 272713.120000
    754    761     1   0.14647 272713.120000
    755    767     1   0.15375 251793.120000
    758    770     1   0.15375 251793.120000
    761    764     1   0.15375 251793.120000
    764    773     1   0.15375 251793.120000
    767    779     1   0.15375 251793.120000
    770    776     1   0.15375 251793.120000
    773    782     1   0.14316 258236.480000
    776   1594     1   0.14316 258236.480000
    779   1623     1   0.14316 258236.480000
    783    784     1   0.14647 272713.120000
    783    787     1   0.14647 272713.120000
    783    790     1   0.14647 272713.120000
    784    796     1   0.15375 251793.120000
    787    799     1   0.15375 251793.120000
    790    793     1   0.15375 251793.120000
    793    802     1   0.15375 251793.120000
    796    808     1   0.15375 251793.120000
    799    805     1   0.15375 251793.120000
    802    811     1   0.14316 258236.480000
    805   1652     1   0.14316 258236.480000
    808   1681     1   0.14316 258236.480000
    812    813     1   0.14647 272713.120000
    812    816     1   0.14647 272713.120000
    812    819     1   0.14647 272713.120000
    813    825     1   0.15375 251793.120000
    816    828     1   0.15375 251793.120000
    819    822     1   0.15375 251793.120000
    822    831     1   0.15375 251793.120000
    825    837     1   0.15375 251793.120000
    828    834     1   0.15375 251793.120000
    831    840     1   0.14316 258236.480000
    834   1710     1   0.14316 258236.480000
    837   1739     1   0.14316 258236.480000
    841    842     1   0.14647 272713.120000
    841    845     1   0.14647 272713.120000
    841    848     1   0.14647 272713.120000
    842    854     1   0.15375 251793.120000
    845    857     1   0.15375 251793.120000
    848    851     1   0.15375 251793.120000
    851    860     1   0.15375 251793.120000
    854    866     1   0.15375 251793.120000
    857    863     1   0.15375 251793.120000
    860    869     1   0.14316 258236.480000
    863   1768     1   0.14316 258236.480000
    866   1797     1   0.14316 258236.480000
    870    873     1   0.15375 251793.120000
    870    898     1   0.14316 258236.480000
    873    876     1   0.15375 251793.120000
    876    879     1   0.14647 272713.120000
    879    880     1   0.14647 272713.120000
    879    889     1   0.14647 272713.120000
    880    883     1   0.15375 251793.120000
    883    886     1   0.15241 261918.400000
    886    887     1   0.12183 533627.360000
    886    888     1   0.12183 533627.360000
    889    892     1   0.15375 251793.120000
    892    895     1   0.15241 261918.400000
    895    896     1   0.12183 533627.360000
    895    897     1   0.12183 533627.360000
    899    902     1   0.15375 251793.120000
    899    927     1   0.14316 258236.480000
    902    905     1   0.15375 251793.120000
    905    908     1   0.14647 272713.120000
    908    909     1   0.14647 272713.120000
    908    918     1   0.14647 272713.120000
    909    912     1   0.15375 251793.120000
    912    915     1   0.15241 261918.400000
    915    916     1   0.12183 533627.360000
    915    917     1   0.12183 533627.360000
    918    921     1   0.15375 251793.120000
    921    924     1   0.15241 261918.400000
    924    925     1   0.12183 533627.360000
    924    926     1   0.12183 533627.360000
    928    931     1   0.15375 251793.120000
    928    956     1   0.14316 258236.480000
    931    934     1   0.15375 251793.120000
    934    937     1   0.14647 272713.120000
    937    938     1   0.14647 272713.120000
    937    947     1   0.14647 272713.120000
    938    941     1   0.15375 251793.120000
    941    944     1   0.15241 261918.400000
    944    945     1   0.12183 533627.360000
    944    946     1   0.12183 533627.360000
    947    950     1   0.15375 251793.120000
    950    953     1   0.15241 261918.400000
    953    954     1   0.12183 533627.360000
    953    955     1   0.12183 533627.360000
    957    960     1   0.15375 251793.120000
    957    985     1   0.14316 258236.480000
    960    963     1   0.15375 251793.120000
    963    966     1   0.14647 272713.120000
    966    967     1   0.14647 272713.120000
    966    976     1   0.14647 272713.120000
    967    970     1   0.15375 251793.120000
    970    973     1   0.15241 261918.400000
    973    974     1   0.12183 533627.360000
    973    975     1   0.12183 533627.360000
    976    979     1   0.15375 251793.120000
    979    982     1   0.15241 261918.400000
    982    983     1   0.12183 533627.360000
    982    984     1   0.12183 533627.360000
    986    989     1   0.15375 251793.120000
    986   1014     1   0.14316 258236.480000
    989    992     1   0.15375 251793.120000
    992    995     1   0.14647 272713.120000
    995    996     1   0.14647 272713.120000
    995   1005     1   0.14647 272713.120000
    996    999     1   0.15375 251793.120000
    999   1002     1   0.15241 261918.400000
   1002   1003     1   0.12183 533627.360000
   1002   1004     1   0.12183 533627.360000
   1005   1008     1   0.15375 251793.120000
   1008   1011     1   0.15241 261918.400000
   1011   1012     1   0.12183 533627.360000
   1011   1013     1   0.12183 533627.360000
   1015   1018     1   0.15375 251793.120000
   1015   1043     1   0.14316 258236.480000
   1018   1021     1   0.15375 251793.120000
   1021   1024     1   0.14647 272713.120000
   1024   1025     1   0.14647 272713.120000
   1024   1034     1   0.14647 272713.120000
   1025   1028     1   0.15375 251793.120000
   1028   1031     1   0.15241 261918.400000
   1031   1032     1   0.12183 533627.360000
   1031   1033     1   0.12183 533627.360000
   1034   1037     1   0.15375 251793.120000
   1037   1040     1   0.15241 261918.400000
   1040   1041     1   0.12183 533627.360000
   1040   1042     1   0.12183 533627.360000
   1044   1047     1   0.15375 251793.120000
   1044   1072     1   0.14316 258236.480000
   1047   1050     1   0.15375 251793.120000
   1050   1053     1   0.14647 272713.120000
   1053   1054     1   0.14647 272713.120000
   1053   1063     1   0.14647 272713.120000
   1054   1057     1   0.15375 251793.120000
   1057   1060     1   0.15241 261918.400000
   1060   1061     1   0.12183 533627.360000
   1060   1062     1   0.12183 533627.360000
   1063   1066     1   0.15375 251793.120000
   1066   1069     1   0.15241 261918.400000
   1069   1070     1   0.12183 533627.360000
   1069   1071     1   0.12183 533627.360000
   1073   1076     1   0.15375 251793.120000
   1073   1101     1   0.14316 258236.480000
   1076   1079     1   0.15375 251793.120000
   1079   1082     1   0.14647 272713.120000
   1082   1083     1   0.14647 272713.120000
   1082   1092     1   0.14647 272713.120000
   1083   1086     1   0.15375 251793.120000
   1086   1089     1   0.15241 261918.400000
   1089   1090     1   0.12183 533627.360000
   1089   1091     1   0.12183 533627.360000
   1092   1095     1   0.15375 251793.120000
   1095   1098     1   0.15241 261918.400000
   1098   1099     1   0.12183 533627.360000
   1098   1100     1   0.12183 533627.360000
   1102   1105     1   0.15375 251793.120000
   1102   1130     1   0.14316 258236.480000
   1105   1108     1   0.15375 251793.120000
   1108   1111     1   0.14647 272713.120000
   1111   1112     1   0.14647 272713.120000
   1111   1121     1   0.14647 272713.120000
   1112   1115     1   0.15375 251793.120000
   1115   1118     1   0.15241 261918.400000
   1118   1119     1   0.12183 533627.360000
   1118   1120     1   0.12183 533627.360000
   1121   1124     1   0.15375 251793.120000
   1124   1127     1   0.15241 261918.400000
   1127   1128     1   0.12183 533627.360000
   1127   1129     1   0.12183 533627.360000
   1131   1134     1   0.15375 251793.120000
   1131   1159     1   0.14316 258236.480000
   1134   1137     1   0.15375 251793.120000
   1137   1140     1   0.14647 272713.120000
   1140   1141     1   0.14647 272713.120000
   1140   1150     1   0.14647 272713.120000
   1141   1144     1   0.15375 251793.120000
   1144   1147     1   0.15241 261918.400000
   1147   1148     1   0.12183 533627.360000
   1147   1149     1   0.12183 533627.360000
   1150   1153     1   0.15375 251793.120000
   1153   1156     1   0.15241 261918.400000
   1156   1157     1   0.12183 533627.360000
   1156   1158     1   0.12183 533627.360000
   1160   1163     1   0.15375 251793.120000
   1160   1188     1   0.14316 258236.480000
   1163   1166     1   0.15375 251793.120000
   1166   1169     1   0.14647 272713.120000
   1169   1170     1   0.14647 272713.120000
   1169   1179     1   0.14647 272713.120000
   1170   1173     1   0.15375 251793.120000
   1173   1176     1   0.15241 261918.400000
   1176   1177     1   0.12183 533627.360000
   1176   1178     1   0.12183 533627.360000
   1179   1182     1   0.15375 251793.120000
   1182   1185     1   0.15241 261918.400000
   1185   1186     1   0.12183 533627.360000
   1185   1187     1   0.12183 533627.360000
   1189   1192     1   0.15375 251793.120000
   1189   1217     1   0.14316 258236.480000
   1192   1195     1   0.15375 251793.120000
   1195   1198     1   0.14647 272713.120000
   1198   1199     1   0.14647 272713.120000
   1198   1208     1   0.14647 272713.120000
   1199   1202     1   0.15375 251793.120000
   1202   1205     1   0.15241 261918.400000
   1205   1206     1   0.12183 533627.360000
   1205   1207     1   0.12183 533627.360000
   1208   1211     1   0.15375 251793.120000
   1211   1214     1   0.15241 261918.400000
   1214   1215     1   0.12183 533627.360000
   1214   1216     1   0.12183 533627.360000
   1218   1221     1   0.15375 251793.120000
   1218   1246     1   0.14316 258236.480000
   1221   1224     1   0.15375 251793.120000
   1224   1227     1   0.14647 272713.120000
   1227   1228     1   0.14647 272713.120000
   1227   1237     1   0.14647 272713.120000
   1228   1231     1   0.15375 251793.120000
   1231   1234     1   0.15241 261918.400000
   1234   1235     1   0.12183 533627.360000
   1234   1236     1   0.12183 533627.360000
   1237   1240     1   0.15375 251793.120000
   1240   1243     1   0.15241 261918.400000
   1243   1244     1   0.12183 533627.360000
   1243   1245     1   0.12183 533627.360000
   1247   1250     1   0.15375 251793.120000
   1247   1275     1   0.14316 258236.480000
   1250   1253     1   0.15375 251793.120000
   1253   1256     1   0.14647 272713.120000
   1256   1257     1   0.14647 272713.120000
   1256   1266     1   0.14647 272713.120000
   1257   1260     1   0.15375 251793.120000
   1260   1263     1   0.15241 261918.400000
   1263   1264     1   0.12183 533627.360000
   1263   1265     1   0.12183 533627.360000
   1266   1269     1   0.15375 251793.120000
   1269   1272     1   0.15241 261918.400000
   1272   1273     1   0.12183 533627.360000
   1272   1274     1   0.12183 533627.360000
   1276   1279     1   0.15375 251793.120000
   1276   1304     1   0.14316 258236.480000
   1279   1282     1   0.15375 251793.120000
   1282   1285     1   0.14647 272713.120000
   1285   1286     1   0.14647 272713.120000
   1285   1295     1   0.14647 272713.120000
   1286   1289     1   0.15375 251793.120000
   1289   1292     1   0.15241 261918.400000
   1292   1293     1   0.12183 533627.360000
   1292   1294     1   0.12183 533627.360000
   1295   1298     1   0.15375 251793.120000
   1298   1301     1   0.15241 261918.400000
   1301   1302     1   0.12183 533627.360000
   1301   1303     1   0.12183 533627.360000
   1305   1308     1   0.15375 251793.120000
   1305   1333     1   0.14316 258236.480000
   1308   1311     1   0.15375 251793.120000
   1311   1314     1   0.14647 272713.120000
   1314   1315     1   0.14647 272713.120000
   1314   1324     1   0.14647 272713.120000
   1315   1318     1   0.15375 251793.120000
   1318   1321     1   0.15241 261918.400000
   1321   1322     1   0.12183 533627.360000
   1321   1323     1   0.12183 533627.360000
   1324   1327     1   0.15375 251793.120000
   1327   1330     1   0.15241 261918.400000
   1330   1331     1   0.12183 533627.360000
   1330   1332     1   0.12183 533627.360000
   1334   1337     1   0.15375 251793.120000
   1334   1362     1   0.14316 258236.480000
   1337   1340     1   0.15375 251793.120000
   1340   1343     1   0.14647 272713.120000
   1343   1344     1   0.14647 272713.120000
   1343   1353     1   0.14647 272713.120000
   1344   1347     1   0.15375 251793.120000
   1347   1350     1   0.15241 261918.400000
   1350   1351     1   0.12183 533627.360000
   1350   1352     1   0.12183 533627.360000
   1353   1356     1   0.15375 251793.120000
   1356   1359     1   0.15241 261918.400000
   1359   1360     1   0.12183 533627.360000
   1359   1361     1   0.12183 533627.360000
   1363   1366     1   0.15375 251793.120000
   1363   1391     1   0.14316 258236.480000
   1366   1369     1   0.15375 251793.120000
   1369   1372     1   0.14647 272713.120000
   1372   1373     1   0.14647 272713.120000
   1372   1382     1   0.14647 272713.120000
   1373   1376     1   0.15375 251793.120000
   1376   1379     1   0.15241 261918.400000
   1379   1380     1   0.12183 533627.360000
   1379   1381     1   0.12183 533627.360000
   1382   1385     1   0.15375 251793.120000
   1385   1388     1   0.15241 261918.400000
   1388   1389     1   0.12183 533627.360000
   1388   1390     1   0.12183 533627.360000
   1392   1395     1   0.15375 251793.120000
   1392   1420     1   0.14316 258236.480000
   1395   1398     1   0.15375 251793.120000
   1398   1401     1   0.14647 272713.120000
   1401   1402     1   0.14647 272713.120000
   1401   1411     1   0.14647 272713.120000
   1402   1405     1   0.15375 251793.120000
   1405   1408     1   0.15241 261918.400000
   1408   1409     1   0.12183 533627.360000
   1408   1410     1   0.12183 533627.360000
   1411   1414     1   0.15375 251793.120000
   1414   1417     1   0.15241 261918.400000
   1417   1418     1   0.12183 533627.360000
   1417   1419     1   0.12183 533627.360000
   1421   1424     1   0.15375 251793.120000
   1421   1449     1   0.14316 258236.480000
   1424   1427     1   0.15375 251793.120000
   1427   1430     1   0.14647 272713.120000
   1430   1431     1   0.14647 272713.120000
   1430   1440     1   0.14647 272713.120000
   1431   1434     1   0.15375 251793.120000
   1434   1437     1   0.15241 261918.400000
   1437   1438     1   0.12183 533627.360000
   1437   1439     1   0.12183 533627.360000
   1440   1443     1   0.15375 251793.120000
   1443   1446     1   0.15241 261918.400000
   1446   1447     1   0.12183 533627.360000
   1446   1448     1   0.12183 533627.360000
   1450   1453     1   0.15375 251793.120000
   1450   1478     1   0.14316 258236.480000
   1453   1456     1   0.15375 251793.120000
   1456   1459     1   0.14647 272713.120000
   1459   1460     1   0.14647 272713.120000
   1459   1469     1   0.14647 272713.120000
   1460   1463     1   0.15375 251793.120000
   1463   1466     1   0.15241 261918.400000
   1466   1467     1   0.12183 533627.360000
   1466   1468     1   0.12183 533627.360000
   1469   1472     1   0.15375 251793.120000
   1472   1475     1   0.15241 261918.400000
   1475   1476     1   0.12183 533627.360000
   1475   1477     1   0.12183 533627.360000
   1479   1482     1   0.15375 251793.120000
   1479   1507     1   0.14316 258236.480000
   1482   1485     1   0.15375 251793.120000
   1485   1488     1   0.14647 272713.120000
   1488   1489     1   0.14647 272713.120000
   1488   1498     1   0.14647 272713.120000
   1489   1492     1   0.15375 251793.120000
   1492   1495     1   0.15241 261918.400000
   1495   1496     1   0.12183 533627.360000
   1495   1497     1   0.12183 533627.360000
   1498   1501     1   0.15375 251793.120000
   1501   1504     1   0.15241 261918.400000
   1504   1505     1   0.12183 533627.360000
   1504   1506     1   0.12183 533627.360000
   1508   1511     1   0.15375 251793.120000
   1508   1536     1   0.14316 258236.480000
   1511   1514     1   0.15375 251793.120000
   1514   1517     1   0.14647 272713.120000
   1517   1518     1   0.14647 272713.120000
   1517   1527     1   0.14647 272713.120000
   1518   1521     1   0.15375 251793.120000
   1521   1524     1   0.15241 261918.400000
   1524   1525     1   0.12183 533627.360000
   1524   1526     1   0.12183 533627.360000
   1527   1530     1   0.15375 251793.120000
   1530   1533     1   0.15241 261918.400000
   1533   1534     1   0.12183 533627.360000
   1533   1535     1   0.12183 533627.360000
   1537   1540     1   0.15375 251793.120000
   1537   1565     1   0.14316 258236.480000
   1540   1543     1   0.15375 251793.120000
   1543   1546     1   0.14647 272713.120000
   1546   1547     1   0.14647 272713.120000
   1546   1556     1   0.14647 272713.120000
   1547   1550     1   0.15375 251793.120000
   1550   1553     1   0.15241 261918.400000
   1553   1554     1   0.12183 533627.360000
   1553   1555     1   0.12183 533627.360000
   1556   1559     1   0.15375 251793.120000
   1559   1562     1   0.15241 261918.400000
   1562   1563     1   0.12183 533627.360000
   1562   1564     1   0.12183 533627.360000
   1566   1569     1   0.15375 251793.120000
   1566   1594     1   0.14316 258236.480000
   1569   1572     1   0.15375 251793.120000
   1572   1575     1   0.14647 272713.120000
   1575   1576     1   0.14647 272713.120000
   1575   1585     1   0.14647 272713.120000
   1576   1579     1   0.15375 251793.120000
   1579   1582     1   0.15241 261918.400000
   1582   1583     1   0.12183 533627.360000
   1582   1584     1   0.12183 533627.360000
   1585   1588     1   0.15375 251793.120000
   1588   1591     1   0.15241 261918.400000
   1591   1592     1   0.12183 533627.360000
   1591   1593     1   0.12183 533627.360000
   1595   1598     1   0.15375 251793.120000
   1595   1623     1   0.14316 258236.480000
   1598   1601     1   0.15375 251793.120000
   1601   1604     1   0.14647 272713.120000
   1604   1605     1   0.14647 272713.120000
   1604   1614     1   0.14647 272713.120000
   1605   1608     1   0.15375 251793.120000
   1608   1611     1   0.15241 261918.400000
   1611   1612     1   0.12183 533627.360000
   1611   1613     1   0.12183 533627.360000
   1614   1617     1   0.15375 251793.120000
   1617   1620     1   0.15241 261918.400000
   1620   1621     1   0.12183 533627.360000
   1620   1622     1   0.12183 533627.360000
   1624   1627     1   0.15375 251793.120000
   1624   1652     1   0.14316 258236.480000
   1627   1630     1   0.15375 251793.120000
   1630   1633     1   0.14647 272713.120000
   1633   1634     1   0.14647 272713.120000
   1633   1643     1   0.14647 272713.120000
   1634   1637     1   0.15375 251793.120000
   1637   1640     1   0.15241 261918.400000
   1640   1641     1   0.12183 533627.360000
   1640   1642     1   0.12183 533627.360000
   1643   1646     1   0.15375 251793.120000
   1646   1649     1   0.15241 261918.400000
   1649   1650     1   0.12183 533627.360000
   1649   1651     1   0.12183 533627.360000
   1653   1656     1   0.15375 251793.120000
   1653   1681     1   0.14316 258236.480000
   1656   1659     1   0.15375 251793.120000
   1659   1662     1   0.14647 272713.120000
   1662   1663     1   0.14647 272713.120000
   1662   1672     1   0.14647 272713.120000
   1663   1666     1   0.15375 251793.120000
   1666   1669     1   0.15241 261918.400000
   1669   1670     1   0.12183 533627.360000
   1669   1671     1   0.12183 533627.360000
   1672   1675     1   0.15375 251793.120000
   1675   1678     1   0.15241 261918.400000
   1678   1679     1   0.12183 533627.360000
   1678   1680     1   0.12183 533627.360000
   1682   1685     1   0.15375 251793.120000
   1682   1710     1   0.14316 258236.480000
   1685   1688     1   0.15375 251793.120000
   1688   1691     1   0.14647 272713.120000
   1691   1692     1   0.14647 272713.120000
   1691   1701     1   0.14647 272713.120000
   1692   1695     1   0.15375 251793.120000
   1695   1698     1   0.15241 261918.400000
   1698   1699     1   0.12183 533627.360000
   1698   1700     1   0.12183 533627.360000
   1701   1704     1   0.15375 251793.120000
   1704   1707     1   0.15241 261918.400000
   1707   1708     1   0.12183 533627.360000
   1707   1709     1   0.12183 533627.360000
   1711   1714     1   0.15375 251793.120000
   1711   1739     1   0.14316 258236.480000
   1714   1717     1   0.15375 251793.120000
   1717   1720     1   0.14647 272713.120000
   1720   1721     1   0.14647 272713.120000
   1720   1730     1   0.14647 272713.120000
   1721   1724     1   0.15375 251793.120000
   1724   1727     1   0.15241 261918.400000
   1727   1728     1   0.12183 533627.360000
   1727   1729     1   0.12183 533627.360000
   1730   1733     1   0.15375 251793.120000
   1733   1736     1   0.15241 261918.400000
   1736   1737     1   0.12183 533627.360000
   1736   1738     1   0.12183 533627.360000
   1740   1743     1   0.15375 251793.120000
   1740   1768     1   0.14316 258236.480000
   1743   1746     1   0.15375 251793.120000
   1746   1749     1   0.14647 272713.120000
   1749   1750     1   0.14647 272713.120000
   1749   1759     1   0.14647 272713.120000
   1750   1753     1   0.15375 251793.120000
   1753   1756     1   0.15241 261918.400000
   1756   1757     1   0.12183 533627.360000
   1756   1758     1   0.12183 533627.360000
   1759   1762     1   0.15375 251793.120000
   1762   1765     1   0.15241 261918.400000
   1765   1766     1   0.12183 533627.360000
   1765   1767     1   0.12183 533627.360000
   1769   1772     1   0.15375 251793.120000
   1769   1797     1   0.14316 258236.480000
   1772   1775     1   0.15375 251793.120000
   1775   1778     1   0.14647 272713.120000
   1778   1779     1   0.14647 272713.120000
   1778   1788     1   0.14647 272713.120000
   1779   1782     1   0.15375 251793.120000
   1782   1785     1   0.15241 261918.400000
   1785   1786     1   0.12183 533627.360000
   1785   1787     1   0.12183 533627.360000
   1788   1791     1   0.15375 251793.120000
   1791   1794     1   0.15241 261918.400000
   1794   1795     1   0.12183 533627.360000
   1794   1796     1   0.12183 533627.360000
      2      3     1   0.10969 276646.080000
      2      4     1   0.10969 276646.080000
      5      6     1   0.10969 276646.080000
      5      7     1   0.10969 276646.080000
      8      9     1   0.10969 276646.080000
      8     10     1   0.10969 276646.080000
     11     12     1   0.10969 276646.080000
     11     13     1   0.10969 276646.080000
     14     15     1   0.10969 276646.080000
     14     16     1   0.10969 276646.080000
     17     18     1   0.10969 276646.080000
     17     19     1   0.10969 276646.080000
     22     23     1   0.10969 276646.080000
     22     24     1   0.10969 276646.080000
     25     26     1   0.10969 276646.080000
     25     27     1   0.10969 276646.080000
     28     29     1   0.10969 276646.080000
     28     30     1   0.10969 276646.080000
     31     32     1   0.10969 276646.080000
     31     33     1   0.10969 276646.080000
     34     35     1   0.10969 276646.080000
     34     36     1   0.10969 276646.080000
     37     38     1   0.10969 276646.080000
     37     39     1   0.10969 276646.080000
     40     41     1   0.10969 276646.080000
     40     42     1   0.10969 276646.080000
     43     44     1   0.10969 276646.080000
     43     45     1   0.10969 276646.080000
     46     47     1   0.10969 276646.080000
     46     48     1   0.10969 276646.080000
     49     50     1   0.10969 276646.080000
     49     51     1   0.10969 276646.080000
     52     53     1   0.10969 276646.080000
     52     54     1   0.10969 276646.080000
     55     56     1   0.10969 276646.080000
     55     57     1   0.10969 276646.080000
     59     60     1   0.10969 276646.080000
     59     61     1   0.10969 276646.080000
     62     63     1   0.10969 276646.080000
     62     64     1   0.10969 276646.080000
     65     66     1   0.10969 276646.080000
     65     67     1   0.10969 276646.080000
     68     69     1   0.10969 276646.080000
     68     70     1   0.10969 276646.080000
     71     72     1   0.10969 276646.080000
     71     73     1   0.10969 276646.080000
     74     75     1   0.10969 276646.080000
     74     76     1   0.10969 276646.080000
     77     78     1   0.10969 276646.080000
     77     79     1   0.10969 276646.080000
     80     81     1   0.10969 276646.080000
     80     82     1   0.10969 276646.080000
     83     84     1   0.10969 276646.080000
     83     85     1   0.10969 276646.080000
     88     89     1   0.10969 276646.080000
     88     90     1   0.10969 276646.080000
     91     92     1   0.10969 276646.080000
     91     93     1   0.10969 276646.080000
     94     95     1   0.10969 276646.080000
     94     96     1   0.10969 276646.080000
     97     98     1   0.10969 276646.080000
     97     99     1   0.10969 276646.080000
    100    101     1   0.10969 276646.080000
    100    102     1   0.10969 276646.080000
    103    104     1   0.10969 276646.080000
    103    105     1   0.10969 276646.080000
    106    107     1   0.10969 276646.080000
    106    108     1   0.10969 276646.080000
    109    110     1   0.10969 276646.080000
    109    111     1   0.10969 276646.080000
    112    113     1   0.10969 276646.080000
    112    114     1   0.10969 276646.080000
    117    118     1   0.10969 276646.080000
    117    119     1   0.10969 276646.080000
    120    121     1   0.10969 276646.080000
    120    122     1   0.10969 276646.080000
    123    124     1   0.10969 276646.080000
    123    125     1   0.10969 276646.080000
    126    127     1   0.10969 276646.080000
    126    128     1   0.10969 276646.080000
    129    130     1   0.10969 276646.080000
    129    131     1   0.10969 276646.080000
    132    133     1   0.10969 276646.080000
    132    134     1   0.10969 276646.080000
    135    136     1   0.10969 276646.080000
    135    137     1   0.10969 276646.080000
    138    139     1   0.10969 276646.080000
    138    140     1   0.10969 276646.080000
    141    142     1   0.10969 276646.080000
    141    143     1   0.10969 276646.080000
    146    147     1   0.10969 276646.080000
    146    148     1   0.10969 276646.080000
    149    150     1   0.10969 276646.080000
    149    151     1   0.10969 276646.080000
    152    153     1   0.10969 276646.080000
    152    154     1   0.10969 276646.080000
    155    156     1   0.10969 276646.080000
    155    157     1   0.10969 276646.080000
    158    159     1   0.10969 276646.080000
    158    160     1   0.10969 276646.080000
    161    162     1   0.10969 276646.080000
    161    163     1   0.10969 276646.080000
    164    165     1   0.10969 276646.080000
    164    166     1   0.10969 276646.080000
    167    168     1   0.10969 276646.080000
    167    169     1   0.10969 276646.080000
    170    171     1   0.10969 276646.080000
    170    172     1   0.10969 276646.080000
    175    176     1   0.10969 276646.080000
    175    177     1   0.10969 276646.080000
    178    179     1   0.10969 276646.080000
    178    180     1   0.10969 276646.080000
    181    182     1   0.10969 276646.080000
    181    183     1   0.10969 276646.080000
    184    185     1   0.10969 276646.080000
    184    186     1   0.10969 276646.080000
    187    188     1   0.10969 276646.080000
    187    189     1   0.10969 276646.080000
    190    191     1   0.10969 276646.080000
    190    192     1   0.10969 276646.080000
    193    194     1   0.10969 276646.080000
    193    195     1   0.10969 276646.080000
    196    197     1   0.10969 276646.080000
    196    198     1   0.10969 276646.080000
    199    200     1   0.10969 276646.080000
    199    201     1   0.10969 276646.080000
    204    205     1   0.10969 276646.080000
    204    206     1   0.10969 276646.080000
    207    208     1   0.10969 276646.080000
    207    209     1   0.10969 276646.080000
    210    211     1   0.10969 276646.080000
    210    212     1   0.10969 276646.080000
    213    214     1   0.10969 276646.080000
    213    215     1   0.10969 276646.080000
    216    217     1   0.10969 276646.080000
    216    218     1   0.10969 276646.080000
    219    220     1   0.10969 276646.080000
    219    221     1   0.10969 276646.080000
    222    223     1   0.10969 276646.080000
    222    224     1   0.10969 276646.080000
    225    226     1   0.10969 276646.080000
    225    227     1   0.10969 276646.080000
    228    229     1   0.10969 276646.080000
    228    230     1   0.10969 276646.080000
    233    234     1   0.10969 276646.080000
    233    235     1   0.10969 276646.080000
    236    237     1   0.10969 276646.080000
    236    238     1   0.10969 276646.080000
    239    240     1   0.10969 276646.080000
    239    241     1   0.10969 276646.080000
    242    243     1   0.10969 276646.080000
    242    244     1   0.10969 276646.080000
    245    246     1   0.10969 276646.080000
    245    247     1   0.10969 276646.080000
    248    249     1   0.10969 276646.080000
    248    250     1   0.10969 276646.080000
    251    252     1   0.10969 276646.080000
    251    253     1   0.10969 276646.080000
    254    255     1   0.10969 276646.080000
    254    256     1   0.10969 276646.080000
    257    258     1   0.10969 276646.080000
    257    259     1   0.10969 276646.080000
    262    263     1   0.10969 276646.080000
    262    264     1   0.10969 276646.080000
    265    266     1   0.10969 276646.080000
    265    267     1   0.10969 276646.080000
    268    269     1   0.10969 276646.080000
    268    270     1   0.10969 276646.080000
    271    272     1   0.10969 276646.080000
    271    273     1   0.10969 276646.080000
    274    275     1   0.10969 276646.080000
    274    276     1   0.10969 276646.080000
    277    278     1   0.10969 276646.080000
    277    279     1   0.10969 276646.080000
    280    281     1   0.10969 276646.080000
    280    282     1   0.10969 276646.080000
    283    284     1   0.10969 276646.080000
    283    285     1   0.10969 276646.080000
    286    287     1   0.10969 276646.080000
    286    288     1   0.10969 276646.080000
    291    292     1   0.10969 276646.080000
    291    293     1   0.10969 276646.080000
    294    295     1   0.10969 276646.080000
    294    296     1   0.10969 276646.080000
    297    298     1   0.10969 276646.080000
    297    299     1   0.10969 276646.080000
    300    301     1   0.10969 276646.080000
    300    302     1   0.10969 276646.080000
    303    304     1   0.10969 276646.080000
    303    305     1   0.10969 276646.080000
    306    307     1   0.10969 276646.080000
    306    308     1   0.10969 276646.080000
    309    310     1   0.10969 276646.080000
    309    311     1   0.10969 276646.080000
    312    313     1   0.10969 276646.080000
    312    314     1   0.10969 276646.080000
    315    316     1   0.10969 276646.080000
    315    317     1   0.10969 276646.080000
    320    321     1   0.10969 276646.080000
    320    322     1   0.10969 276646.080000
    323    324     1   0.10969 276646.080000
    323    325     1   0.10969 276646.080000
    326    327     1   0.10969 276646.080000
    326    328     1   0.10969 276646.080000
    329    330     1   0.10969 276646.080000
    329    331     1   0.10969 276646.080000
    332    333     1   0.10969 276646.080000
    332    334     1   0.10969 276646.080000
    335    336     1   0.10969 276646.080000
    335    337     1   0.10969 276646.080000
    338    339     1   0.10969 276646.080000
    338    340     1   0.10969 276646.080000
    341    342     1   0.10969 276646.080000
    341    343     1   0.10969 276646.080000
    344    345     1   0.10969 276646.080000
    344    346     1   0.10969 276646.080000
    349    350     1   0.10969 276646.080000
    349    351     1   0.10969 276646.080000
    352    353     1   0.10969 276646.080000
    352    354     1   0.10969 276646.080000
    355    356     1   0.10969 276646.080000
    355    357     1   0.10969 276646.080000
    358    359     1   0.10969 276646.080000
    358    360     1   0.10969 276646.080000
    361    362     1   0.10969 276646.080000
    361    363     1   0.10969 276646.080000
    364    365     1   0.10969 276646.080000
    364    366     1   0.10969 276646.080000
    367    368     1   0.10969 276646.080000
    367    369     1   0.10969 276646.080000
    370    371     1   0.10969 276646.080000
    370    372     1   0.10969 276646.080000
    373    374     1   0.10969 276646.080000
    373    375     1   0.10969 276646.080000
    378    379     1   0.10969 276646.080000
    378    380     1   0.10969 276646.080000
    381    382     1   0.10969 276646.080000
    381    383     1   0.10969 276646.080000
    384    385     1   0.10969 276646.080000
    384    386     1   0.10969 276646.080000
    387    388     1   0.10969 276646.080000
    387    389     1   0.10969 276646.080000
    390    391     1   0.10969 276646.080000
    390    392     1   0.10969 276646.080000
    393    394     1   0.10969 276646.080000
    393    395     1   0.10969 276646.080000
    396    397     1   0.10969 276646.080000
    396    398     1   0.10969 276646.080000
    399    400     1   0.10969 276646.080000
    399    401     1   0.10969 276646.080000
    402    403     1   0.10969 276646.080000
    402    404     1   0.10969 276646.080000
    407    408     1   0.10969 276646.080000
    407    409     1   0.10969 276646.080000
    410    411     1   0.10969 276646.080000
    410    412     1   0.10969 276646.080000
    413    414     1   0.10969 276646.080000
    413    415     1   0.10969 276646.080000
    416    417     1   0.10969 276646.080000
    416    418     1   0.10969 276646.080000
    419    420     1   0.10969 276646.080000
    419    421     1   0.10969 276646.080000
    422    423     1   0.10969 276646.080000
    422    424     1   0.10969 276646.080000
    425    426     1   0.10969 276646.080000
    425    427     1   0.10969 276646.080000
    428    429     1   0.10969 276646.080000
    428    430     1   0.10969 276646.080000
    431    432     1   0.10969 276646.080000
    431    433     1   0.10969 276646.080000
    436    437     1   0.10969 276646.080000
    436    438     1   0.10969 276646.080000
    439    440     1   0.10969 276646.080000
    439    441     1   0.10969 276646.080000
    442    443     1   0.10969 276646.080000
    442    444     1   0.10969 276646.080000
    445    446     1   0.10969 276646.080000
    445    447     1   0.10969 276646.080000
    448    449     1   0.10969 276646.080000
    448    450     1   0.10969 276646.080000
    451    452     1   0.10969 276646.080000
    451    453     1   0.10969 276646.080000
    454    455     1   0.10969 276646.080000
    454    456     1   0.10969 276646.080000
    457    458     1   0.10969 276646.080000
    457    459     1   0.10969 276646.080000
    460    461     1   0.10969 276646.080000
    460    462     1   0.10969 276646.080000
    465    466     1   0.10969 276646.080000
    465    467     1   0.10969 276646.080000
    468    469     1   0.10969 276646.080000
    468    470     1   0.10969 276646.080000
    471    472     1   0.10969 276646.080000
    471    473     1   0.10969 276646.080000
    474    475     1   0.10969 276646.080000
    474    476     1   0.10969 276646.080000
    477    478     1   0.10969 276646.080000
    477    479     1   0.10969 276646.080000
    480    481     1   0.10969 276646.080000
    480    482     1   0.10969 276646.080000
    483    484     1   0.10969 276646.080000
    483    485     1   0.10969 276646.080000
    486    487     1   0.10969 276646.080000
    486    488     1   0.10969 276646.080000
    489    490     1   0.10969 276646.080000
    489    491     1   0.10969 276646.080000
    494    495     1   0.10969 276646.080000
    494    496     1   0.10969 276646.080000
    497    498     1   0.10969 276646.080000
    497    499     1   0.10969 276646.080000
    500    501     1   0.10969 276646.080000
    500    502     1   0.10969 276646.080000
    503    504     1   0.10969 276646.080000
    503    505     1   0.10969 276646.080000
    506    507     1   0.10969 276646.080000
    506    508     1   0.10969 276646.080000
    509    510     1   0.10969 276646.080000
    509    511     1   0.10969 276646.080000
    512    513     1   0.10969 276646.080000
    512    514     1   0.10969 276646.080000
    515    516     1   0.10969 276646.080000
    515    517     1   0.10969 276646.080000
    518    519     1   0.10969 276646.080000
    518    520     1   0.10969 276646.080000
    523    524     1   0.10969 276646.080000
    523    525     1   0.10969 276646.080000
    526    527     1   0.10969 276646.080000
    526    528     1   0.10969 276646.080000
    529    530     1   0.10969 276646.080000
    529    531     1   0.10969 276646.080000
    532    533     1   0.10969 276646.080000
    532    534     1   0.10969 276646.080000
    535    536     1   0.10969 276646.080000
    535    537     1   0.10969 276646.080000
    538    539     1   0.10969 276646.080000
    538    540     1   0.10969 276646.080000
    541    542     1   0.10969 276646.080000
    541    543     1   0.10969 276646.080000
    544    545     1   0.10969 276646.080000
    544    546     1   0.10969 276646.080000
    547    548     1   0.10969 276646.080000
    547    549     1   0.10969 276646.080000
    552    553     1   0.10969 276646.080000
    552    554     1   0.10969 276646.080000
    555    556     1   0.10969 276646.080000
    555    557     1   0.10969 276646.080000
    558    559     1   0.10969 276646.080000
    558    560     1   0.10969 276646.080000
    561    562     1   0.10969 276646.080000
    561    563     1   0.10969 276646.080000
    564    565     1   0.10969 276646.080000
    564    566     1   0.10969 276646.080000
    567    568     1   0.10969 276646.080000
    567    569     1   0.10969 276646.080000
    570    571     1   0.10969 276646.080000
    570    572     1   0.10969 276646.080000
    573    574     1   0.10969 276646.080000
    573    575     1   0.10969 276646.080000
    576    577     1   0.10969 276646.080000
    576    578     1   0.10969 276646.080000
    581    582     1   0.10969 276646.080000
    581    583     1   0.10969 276646.080000
    584    585     1   0.10969 276646.080000
    584    586     1   0.10969 276646.080000
    587    588     1   0.10969 276646.080000
    587    589     1   0.10969 276646.080000
    590    591     1   0.10969 276646.080000
    590    592     1   0.10969 276646.080000
    593    594     1   0.10969 276646.080000
    593    595     1   0.10969 276646.080000
    596    597     1   0.10969 276646.080000
    596    598     1   0.10969 276646.080000
    599    600     1   0.10969 276646.080000
    599    601     1   0.10969 276646.080000
    602    603     1   0.10969 276646.080000
    602    604     1   0.10969 276646.080000
    605    606     1   0.10969 276646.080000
    605    607     1   0.10969 276646.080000
    610    611     1   0.10969 276646.080000
    610    612     1   0.10969 276646.080000
    613    614     1   0.10969 276646.080000
    613    615     1   0.10969 276646.080000
    616    617     1   0.10969 276646.080000
    616    618     1   0.10969 276646.080000
    619    620     1   0.10969 276646.080000
    619    621     1   0.10969 276646.080000
    622    623     1   0.10969 276646.080000
    622    624     1   0.10969 276646.080000
    625    626     1   0.10969 276646.080000
    625    627     1   0.10969 276646.080000
    628    629     1   0.10969 276646.080000
    628    630     1   0.10969 276646.080000
    631    632     1   0.10969 276646.080000
    631    633     1   0.10969 276646.080000
    634    635     1   0.10969 276646.080000
    634    636     1   0.10969 276646.080000
    639    640     1   0.10969 276646.080000
    639    641     1   0.10969 276646.080000
    642    643     1   0.10969 276646.080000
    642    644     1   0.10969 276646.080000
    645    646     1   0.10969 276646.080000
    645    647     1   0.10969 276646.080000
    648    649     1   0.10969 276646.080000
    648    650     1   0.10969 276646.080000
    651    652     1   0.10969 276646.080000
    651    653     1   0.10969 276646.080000
    654    655     1   0.10969 276646.080000
    654    656     1   0.10969 276646.080000
    657    658     1   0.10969 276646.080000
    657    659     1   0.10969 276646.080000
    660    661     1   0.10969 276646.080000
    660    662     1   0.10969 276646.080000
    663    664     1   0.10969 276646.080000
    663    665     1   0.10969 276646.080000
    668    669     1   0.10969 276646.080000
    668    670     1   0.10969 276646.080000
    671    672     1   0.10969 276646.080000
    671    673     1   0.10969 276646.080000
    674    675     1   0.10969 276646.080000
    674    676     1   0.10969 276646.080000
    677    678     1   0.10969 276646.080000
    677    679     1   0.10969 276646.080000
    680    681     1   0.10969 276646.080000
    680    682     1   0.10969 276646.080000
    683    684     1   0.10969 276646.080000
    683    685     1   0.10969 276646.080000
    686    687     1   0.10969 276646.080000
    686    688     1   0.10969 276646.080000
    689    690     1   0.10969 276646.080000
    689    691     1   0.10969 276646.080000
    692    693     1   0.10969 276646.080000
    692    694     1   0.10969 276646.080000
    697    698     1   0.10969 276646.080000
    697    699     1   0.10969 276646.080000
    700    701     1   0.10969 276646.080000
    700    702     1   0.10969 276646.080000
    703    704     1   0.10969 276646.080000
    703    705     1   0.10969 276646.080000
    706    707     1   0.10969 276646.080000
    706    708     1   0.10969 276646.080000
    709    710     1   0.10969 276646.080000
    709    711     1   0.10969 276646.080000
    712    713     1   0.10969 276646.080000
    712    714     1   0.10969 276646.080000
    715    716     1   0.10969 276646.080000
    715    717     1   0.10969 276646.080000
    718    719     1   0.10969 276646.080000
    718    720     1   0.10969 276646.080000
    721    722     1   0.10969 276646.080000
    721    723     1   0.10969 276646.080000
    726    727     1   0.10969 276646.080000
    726    728     1   0.10969 276646.080000
    729    730     1   0.10969 276646.080000
    729    731     1   0.10969 276646.080000
    732    733     1   0.10969 276646.080000
    732    734     1   0.10969 276646.080000
    735    736     1   0.10969 276646.080000
    735    737     1   0.10969 276646.080000
    738    739     1   0.10969 276646.080000
    738    740     1   0.10969 276646.080000
    741    742     1   0.10969 276646.080000
    741    743     1   0.10969 276646.080000
    744    745     1   0.10969 276646.080000
    744    746     1   0.10969 276646.080000
    747    748     1   0.10969 276646.080000
    747    749     1   0.10969 276646.080000
    750    751     1   0.10969 276646.080000
    750    752     1   0.10969 276646.080000
    755    756     1   0.10969 276646.080000
    755    757     1   0.10969 276646.080000
    758    759     1   0.10969 276646.080000
    758    760     1   0.10969 276646.080000
    761    762     1   0.10969 276646.080000
    761    763     1   0.10969 276646.080000
    764    765     1   0.10969 276646.080000
    764    766     1   0.10969 276646.080000
    767    768     1   0.10969 276646.080000
    767    769     1   0.10969 276646.080000
    770    771     1   0.10969 276646.080000
    770    772     1   0.10969 276646.080000
    773    774     1   0.10969 276646.080000
    773    775     1   0.10969 276646.080000
    776    777     1   0.10969 276646.080000
    776    778     1   0.10969 276646.080000
    779    780     1   0.10969 276646.080000
    779    781     1   0.10969 276646.080000
    784    785     1   0.10969 276646.080000
    784    786     1   0.10969 276646.080000
    787    788     1   0.10969 276646.080000
    787    789     1   0.10969 276646.080000
    790    791     1   0.10969 276646.080000
    790    792     1   0.10969 276646.080000
    793    794     1   0.10969 276646.080000
    793    795     1   0.10969 276646.080000
    796    797     1   0.10969 276646.080000
    796    798     1   0.10969 276646.080000
    799    800     1   0.10969 276646.080000
    799    801     1   0.10969 276646.080000
    802    803     1   0.10969 276646.080000
    802    804     1   0.10969 276646.080000
    805    806     1   0.10969 276646.080000
    805    807     1   0.10969 276646.080000
    808    809     1   0.10969 276646.080000
    808    810     1   0.10969 276646.080000
    813    814     1   0.10969 276646.080000
    813    815     1   0.10969 276646.080000
    816    817     1   0.10969 276646.080000
    816    818     1   0.10969 276646.080000
    819    820     1   0.10969 276646.080000
    819    821     1   0.10969 276646.080000
    822    823     1   0.10969 276646.080000
    822    824     1   0.10969 276646.080000
    825    826     1   0.10969 276646.080000
    825    827     1   0.10969 276646.080000
    828    829     1   0.10969 276646.080000
    828    830     1   0.10969 276646.080000
    831    832     1   0.10969 276646.080000
    831    833     1   0.10969 276646.080000
    834    835     1   0.10969 276646.080000
    834    836     1   0.10969 276646.080000
    837    838     1   0.10969 276646.080000
    837    839     1   0.10969 276646.080000
    842    843     1   0.10969 276646.080000
    842    844     1   0.10969 276646.080000
    845    846     1   0.10969 276646.080000
    845    847     1   0.10969 276646.080000
    848    849     1   0.10969 276646.080000
    848    850     1   0.10969 276646.080000
    851    852     1   0.10969 276646.080000
    851    853     1   0.10969 276646.080000
    854    855     1   0.10969 276646.080000
    854    856     1   0.10969 276646.080000
    857    858     1   0.10969 276646.080000
    857    859     1   0.10969 276646.080000
    860    861     1   0.10969 276646.080000
    860    862     1   0.10969 276646.080000
    863    864     1   0.10969 276646.080000
    863    865     1   0.10969 276646.080000
    866    867     1   0.10969 276646.080000
    866    868     1   0.10969 276646.080000
    870    871     1   0.10969 276646.080000
    870    872     1   0.10969 276646.080000
    873    874     1   0.10969 276646.080000
    873    875     1   0.10969 276646.080000
    876    877     1   0.10969 276646.080000
    876    878     1   0.10969 276646.080000
    880    881     1   0.10969 276646.080000
    880    882     1   0.10969 276646.080000
    883    884     1   0.10969 276646.080000
    883    885     1   0.10969 276646.080000
    889    890     1   0.10969 276646.080000
    889    891     1   0.10969 276646.080000
    892    893     1   0.10969 276646.080000
    892    894     1   0.10969 276646.080000
    899    900     1   0.10969 276646.080000
    899    901     1   0.10969 276646.080000
    902    903     1   0.10969 276646.080000
    902    904     1   0.10969 276646.080000
    905    906     1   0.10969 276646.080000
    905    907     1   0.10969 276646.080000
    909    910     1   0.10969 276646.080000
    909    911     1   0.10969 276646.080000
    912    913     1   0.10969 276646.080000
    912    914     1   0.10969 276646.080000
    918    919     1   0.10969 276646.080000
    918    920     1   0.10969 276646.080000
    921    922     1   0.10969 276646.080000
    921    923     1   0.10969 276646.080000
    928    929     1   0.10969 276646.080000
    928    930     1   0.10969 276646.080000
    931    932     1   0.10969 276646.080000
    931    933     1   0.10969 276646.080000
    934    935     1   0.10969 276646.080000
    934    936     1   0.10969 276646.080000
    938    939     1   0.10969 276646.080000
    938    940     1   0.10969 276646.080000
    941    942     1   0.10969 276646.080000
    941    943     1   0.10969 276646.080000
    947    948     1   0.10969 276646.080000
    947    949     1   0.10969 276646.080000
    950    951     1   0.10969 276646.080000
    950    952     1   0.10969 276646.080000
    957    958     1   0.10969 276646.080000
    957    959     1   0.10969 276646.080000
    960    961     1   0.10969 276646.080000
    960    962     1   0.10969 276646.080000
    963    964     1   0.10969 276646.080000
    963    965     1   0.10969 276646.080000
    967    968     1   0.10969 276646.080000
    967    969     1   0.10969 276646.080000
    970    971     1   0.10969 276646.080000
    970    972     1   0.10969 276646.080000
    976    977     1   0.10969 276646.080000
    976    978     1   0.10969 276646.080000
    979    980     1   0.10969 276646.080000
    979    981     1   0.10969 276646.080000
    986    987     1   0.10969 276646.080000
    986    988     1   0.10969 276646.080000
    989    990     1   0.10969 276646.080000
    989    991     1   0.10969 276646.080000
    992    993     1   0.10969 276646.080000
    992    994     1   0.10969 276646.080000
    996    997     1   0.10969 276646.080000
    996    998     1   0.10969 276646.080000
    999   1000     1   0.10969 276646.080000
    999   1001     1   0.10969 276646.080000
   1005   1006     1   0.10969 276646.080000
   1005   1007     1   0.10969 276646.080000
   1008   1009     1   0.10969 276646.080000
   1008   1010     1   0.10969 276646.080000
   1015   1016     1   0.10969 276646.080000
   1015   1017     1   0.10969 276646.080000
   1018   1019     1   0.10969 276646.080000
   1018   1020     1   0.10969 276646.080000
   1021   1022     1   0.10969 276646.080000
   1021   1023     1   0.10969 276646.080000
   1025   1026     1   0.10969 276646.080000
   1025   1027     1   0.10969 276646.080000
   1028   1029     1   0.10969 276646.080000
   1028   1030     1   0.10969 276646.080000
   1034   1035     1   0.10969 276646.080000
   1034   1036     1   0.10969 276646.080000
   1037   1038     1   0.10969 276646.080000
   1037   1039     1   0.10969 276646.080000
   1044   1045     1   0.10969 276646.080000
   1044   1046     1   0.10969 276646.080000
   1047   1048     1   0.10969 276646.080000
   1047   1049     1   0.10969 276646.080000
   1050   1051     1   0.10969 276646.080000
   1050   1052     1   0.10969 276646.080000
   1054   1055     1   0.10969 276646.080000
   1054   1056     1   0.10969 276646.080000
   1057   1058     1   0.10969 276646.080000
   1057   1059     1   0.10969 276646.080000
   1063   1064     1   0.10969 276646.080000
   1063   1065     1   0.10969 276646.080000
   1066   1067     1   0.10969 276646.080000
   1066   1068     1   0.10969 276646.080000
   1073   1074     1   0.10969 276646.080000
   1073   1075     1   0.10969 276646.080000
   1076   1077     1   0.10969 276646.080000
   1076   1078     1   0.10969 276646.080000
   1079   1080     1   0.10969 276646.080000
   1079   1081     1   0.10969 276646.080000
   1083   1084     1   0.10969 276646.080000
   1083   1085     1   0.10969 276646.080000
   1086   1087     1   0.10969 276646.080000
   1086   1088     1   0.10969 276646.080000
   1092   1093     1   0.10969 276646.080000
   1092   1094     1   0.10969 276646.080000
   1095   1096     1   0.10969 276646.080000
   1095   1097     1   0.10969 276646.080000
   1102   1103     1   0.10969 276646.080000
   1102   1104     1   0.10969 276646.080000
   1105   1106     1   0.10969 276646.080000
   1105   1107     1   0.10969 276646.080000
   1108   1109     1   0.10969 276646.080000
   1108   1110     1   0.10969 276646.080000
   1112   1113     1   0.10969 276646.080000
   1112   1114     1   0.10969 276646.080000
   1115   1116     1   0.10969 276646.080000
   1115   1117     1   0.10969 276646.080000
   1121   1122     1   0.10969 276646.080000
   1121   1123     1   0.10969 276646.080000
   1124   1125     1   0.10969 276646.080000
   1124   1126     1   0.10969 276646.080000
   1131   1132     1   0.10969 276646.080000
   1131   1133     1   0.10969 276646.080000
   1134   1135     1   0.10969 276646.080000
   1134   1136     1   0.10969 276646.080000
   1137   1138     1   0.10969 276646.080000
   1137   1139     1   0.10969 276646.080000
   1141   1142     1   0.10969 276646.080000
   1141   1143     1   0.10969 276646.080000
   1144   1145     1   0.10969 276646.080000
   1144   1146     1   0.10969 276646.080000
   1150   1151     1   0.10969 276646.080000
   1150   1152     1   0.10969 276646.080000
   1153   1154     1   0.10969 276646.080000
   1153   1155     1   0.10969 276646.080000
   1160   1161     1   0.10969 276646.080000
   1160   1162     1   0.10969 276646.080000
   1163   1164     1   0.10969 276646.080000
   1163   1165     1   0.10969 276646.080000
   1166   1167     1   0.10969 276646.080000
   1166   1168     1   0.10969 276646.080000
   1170   1171     1   0.10969 276646.080000
   1170   1172     1   0.10969 276646.080000
   1173   1174     1   0.10969 276646.080000
   1173   1175     1   0.10969 276646.080000
   1179   1180     1   0.10969 276646.080000
   1179   1181     1   0.10969 276646.080000
   1182   1183     1   0.10969 276646.080000
   1182   1184     1   0.10969 276646.080000
   1189   1190     1   0.10969 276646.080000
   1189   1191     1   0.10969 276646.080000
   1192   1193     1   0.10969 276646.080000
   1192   1194     1   0.10969 276646.080000
   1195   1196     1   0.10969 276646.080000
   1195   1197     1   0.10969 276646.080000
   1199   1200     1   0.10969 276646.080000
   1199   1201     1   0.10969 276646.080000
   1202   1203     1   0.10969 276646.080000
   1202   1204     1   0.10969 276646.080000
   1208   1209     1   0.10969 276646.080000
   1208   1210     1   0.10969 276646.080000
   1211   1212     1   0.10969 276646.080000
   1211   1213     1   0.10969 276646.080000
   1218   1219     1   0.10969 276646.080000
   1218   1220     1   0.10969 276646.080000
   1221   1222     1   0.10969 276646.080000
   1221   1223     1   0.10969 276646.080000
   1224   1225     1   0.10969 276646.080000
   1224   1226     1   0.10969 276646.080000
   1228   1229     1   0.10969 276646.080000
   1228   1230     1   0.10969 276646.080000
   1231   1232     1   0.10969 276646.080000
   1231   1233     1   0.10969 276646.080000
   1237   1238     1   0.10969 276646.080000
   1237   1239     1   0.10969 276646.080000
   1240   1241     1   0.10969 276646.080000
   1240   1242     1   0.10969 276646.080000
   1247   1248     1   0.10969 276646.080000
   1247   1249     1   0.10969 276646.080000
   1250   1251     1   0.10969 276646.080000
   1250   1252     1   0.10969 276646.080000
   1253   1254     1   0.10969 276646.080000
   1253   1255     1   0.10969 276646.080000
   1257   1258     1   0.10969 276646.080000
   1257   1259     1   0.10969 276646.080000
   1260   1261     1   0.10969 276646.080000
   1260   1262     1   0.10969 276646.080000
   1266   1267     1   0.10969 276646.080000
   1266   1268     1   0.10969 276646.080000
   1269   1270     1   0.10969 276646.080000
   1269   1271     1   0.10969 276646.080000
   1276   1277     1   0.10969 276646.080000
   1276   1278     1   0.10969 276646.080000
   1279   1280     1   0.10969 276646.080000
   1279   1281     1   0.10969 276646.080000
   1282   1283     1   0.10969 276646.080000
   1282   1284     1   0.10969 276646.080000
   1286   1287     1   0.10969 276646.080000
   1286   1288     1   0.10969 276646.080000
   1289   1290     1   0.10969 276646.080000
   1289   1291     1   0.10969 276646.080000
   1295   1296     1   0.10969 276646.080000
   1295   1297     1   0.10969 276646.080000
   1298   1299     1   0.10969 276646.080000
   1298   1300     1   0.10969 276646.080000
   1305   1306     1   0.10969 276646.080000
   1305   1307     1   0.10969 276646.080000
   1308   1309     1   0.10969 276646.080000
   1308   1310     1   0.10969 276646.080000
   1311   1312     1   0.10969 276646.080000
   1311   1313     1   0.10969 276646.080000
   1315   1316     1   0.10969 276646.080000
   1315   1317     1   0.10969 276646.080000
   1318   1319     1   0.10969 276646.080000
   1318   1320     1   0.10969 276646.080000
   1324   1325     1   0.10969 276646.080000
   1324   1326     1   0.10969 276646.080000
   1327   1328     1   0.10969 276646.080000
   1327   1329     1   0.10969 276646.080000
   1334   1335     1   0.10969 276646.080000
   1334   1336     1   0.10969 276646.080000
   1337   1338     1   0.10969 276646.080000
   1337   1339     1   0.10969 276646.080000
   1340   1341     1   0.10969 276646.080000
   1340   1342     1   0.10969 276646.080000
   1344   1345     1   0.10969 276646.080000
   1344   1346     1   0.10969 276646.080000
   1347   1348     1   0.10969 276646.080000
   1347   1349     1   0.10969 276646.080000
   1353   1354     1   0.10969 276646.080000
   1353   1355     1   0.10969 276646.080000
   1356   1357     1   0.10969 276646.080000
   1356   1358     1   0.10969 276646.080000
   1363   1364     1   0.10969 276646.080000
   1363   1365     1   0.10969 276646.080000
   1366   1367     1   0.10969 276646.080000
   1366   1368     1   0.10969 276646.080000
   1369   1370     1   0.10969 276646.080000
   1369   1371     1   0.10969 276646.080000
   1373   1374     1   0.10969 276646.080000
   1373   1375     1   0.10969 276646.080000
   1376   1377     1   0.10969 276646.080000
   1376   1378     1   0.10969 276646.080000
   1382   1383     1   0.10969 276646.080000
   1382   1384     1   0.10969 276646.080000
   1385   1386     1   0.10969 276646.080000
   1385   1387     1   0.10969 276646.080000
   1392   1393     1   0.10969 276646.080000
   1392   1394     1   0.10969 276646.080000
   1395   1396     1   0.10969 276646.080000
   1395   1397     1   0.10969 276646.080000
   1398   1399     1   0.10969 276646.080000
   1398   1400     1   0.10969 276646.080000
   1402   1403     1   0.10969 276646.080000
   1402   1404     1   0.10969 276646.080000
   1405   1406     1   0.10969 276646.080000
   1405   1407     1   0.10969 276646.080000
   1411   1412     1   0.10969 276646.080000
   1411   1413     1   0.10969 276646.080000
   1414   1415     1   0.10969 276646.080000
   1414   1416     1   0.10969 276646.080000
   1421   1422     1   0.10969 276646.080000
   1421   1423     1   0.10969 276646.080000
   1424   1425     1   0.10969 276646.080000
   1424   1426     1   0.10969 276646.080000
   1427   1428     1   0.10969 276646.080000
   1427   1429     1   0.10969 276646.080000
   1431   1432     1   0.10969 276646.080000
   1431   1433     1   0.10969 276646.080000
   1434   1435     1   0.10969 276646.080000
   1434   1436     1   0.10969 276646.080000
   1440   1441     1   0.10969 276646.080000
   1440   1442     1   0.10969 276646.080000
   1443   1444     1   0.10969 276646.080000
   1443   1445     1   0.10969 276646.080000
   1450   1451     1   0.10969 276646.080000
   1450   1452     1   0.10969 276646.080000
   1453   1454     1   0.10969 276646.080000
   1453   1455     1   0.10969 276646.080000
   1456   1457     1   0.10969 276646.080000
   1456   1458     1   0.10969 276646.080000
   1460   1461     1   0.10969 276646.080000
   1460   1462     1   0.10969 276646.080000
   1463   1464     1   0.10969 276646.080000
   1463   1465     1   0.10969 276646.080000
   1469   1470     1   0.10969 276646.080000
   1469   1471     1   0.10969 276646.080000
   1472   1473     1   0.10969 276646.080000
   1472   1474     1   0.10969 276646.080000
   1479   1480     1   0.10969 276646.080000
   1479   1481     1   0.10969 276646.080000
   1482   1483     1   0.10969 276646.080000
   1482   1484     1   0.10969 276646.080000
   1485   1486     1   0.10969 276646.080000
   1485   1487     1   0.10969 276646.080000
   1489   1490     1   0.10969 276646.080000
   1489   1491     1   0.10969 276646.080000
   1492   1493     1   0.10969 276646.080000
   1492   1494     1   0.10969 276646.080000
   1498   1499     1   0.10969 276646.080000
   1498   1500     1   0.10969 276646.080000
   1501   1502     1   0.10969 276646.080000
   1501   1503     1   0.10969 276646.080000
   1508   1509     1   0.10969 276646.080000
   1508   1510     1   0.10969 276646.080000
   1511   1512     1   0.10969 276646.080000
   1511   1513     1   0.10969 276646.080000
   1514   1515     1   0.10969 276646.080000
   1514   1516     1   0.10969 276646.080000
   1518   1519     1   0.10969 276646.080000
   1518   1520     1   0.10969 276646.080000
   1521   1522     1   0.10969 276646.080000
   1521   1523     1   0.10969 276646.080000
   1527   1528     1   0.10969 276646.080000
   1527   1529     1   0.10969 276646.080000
   1530   1531     1   0.10969 276646.080000
   1530   1532     1   0.10969 276646.080000
   1537   1538     1   0.10969 276646.080000
   1537   1539     1   0.10969 276646.080000
   1540   1541     1   0.10969 276646.080000
   1540   1542     1   0.10969 276646.080000
   1543   1544     1   0.10969 276646.080000
   1543   1545     1   0.10969 276646.080000
   1547   1548     1   0.10969 276646.080000
   1547   1549     1   0.10969 276646.080000
   1550   1551     1   0.10969 276646.080000
   1550   1552     1   0.10969 276646.080000
   1556   1557     1   0.10969 276646.080000
   1556   1558     1   0.10969 276646.080000
   1559   1560     1   0.10969 276646.080000
   1559   1561     1   0.10969 276646.080000
   1566   1567     1   0.10969 276646.080000
   1566   1568     1   0.10969 276646.080000
   1569   1570     1   0.10969 276646.080000
   1569   1571     1   0.10969 276646.080000
   1572   1573     1   0.10969 276646.080000
   1572   1574     1   0.10969 276646.080000
   1576   1577     1   0.10969 276646.080000
   1576   1578     1   0.10969 276646.080000
   1579   1580     1   0.10969 276646.080000
   1579   1581     1   0.10969 276646.080000
   1585   1586     1   0.10969 276646.080000
   1585   1587     1   0.10969 276646.080000
   1588   1589     1   0.10969 276646.080000
   1588   1590     1   0.10969 276646.080000
   1595   1596     1   0.10969 276646.080000
   1595   1597     1   0.10969 276646.080000
   1598   1599     1   0.10969 276646.080000
   1598   1600     1   0.10969 276646.080000
   1601   1602     1   0.10969 276646.080000
   1601   1603     1   0.10969 276646.080000
   1605   1606     1   0.10969 276646.080000
   1605   1607     1   0.10969 276646.080000
   1608   1609     1   0.10969 276646.080000
   1608   1610     1   0.10969 276646.080000
   1614   1615     1   0.10969 276646.080000
   1614   1616     1   0.10969 276646.080000
   1617   1618     1   0.10969 276646.080000
   1617   1619     1   0.10969 276646.080000
   1624   1625     1   0.10969 276646.080000
   1624   1626     1   0.10969 276646.080000
   1627   1628     1   0.10969 276646.080000
   1627   1629     1   0.10969 276646.080000
   1630   1631     1   0.10969 276646.080000
   1630   1632     1   0.10969 276646.080000
   1634   1635     1   0.10969 276646.080000
   1634   1636     1   0.10969 276646.080000
   1637   1638     1   0.10969 276646.080000
   1637   1639     1   0.10969 276646.080000
   1643   1644     1   0.10969 276646.080000
   1643   1645     1   0.10969 276646.080000
   1646   1647     1   0.10969 276646.080000
   1646   1648     1   0.10969 276646.080000
   1653   1654     1   0.10969 276646.080000
   1653   1655     1   0.10969 276646.080000
   1656   1657     1   0.10969 276646.080000
   1656   1658     1   0.10969 276646.080000
   1659   1660     1   0.10969 276646.080000
   1659   1661     1   0.10969 276646.080000
   1663   1664     1   0.10969 276646.080000
   1663   1665     1   0.10969 276646.080000
   1666   1667     1   0.10969 276646.080000
   1666   1668     1   0.10969 276646.080000
   1672   1673     1   0.10969 276646.080000
   1672   1674     1   0.10969 276646.080000
   1675   1676     1   0.10969 276646.080000
   1675   1677     1   0.10969 276646.080000
   1682   1683     1   0.10969 276646.080000
   1682   1684     1   0.10969 276646.080000
   1685   1686     1   0.10969 276646.080000
   1685   1687     1   0.10969 276646.080000
   1688   1689     1   0.10969 276646.080000
   1688   1690     1   0.10969 276646.080000
   1692   1693     1   0.10969 276646.080000
   1692   1694     1   0.10969 276646.080000
   1695   1696     1   0.10969 276646.080000
   1695   1697     1   0.10969 276646.080000
   1701   1702     1   0.10969 276646.080000
   1701   1703     1   0.10969 276646.080000
   1704   1705     1   0.10969 276646.080000
   1704   1706     1   0.10969 276646.080000
   1711   1712     1   0.10969 276646.080000
   1711   1713     1   0.10969 276646.080000
   1714   1715     1   0.10969 276646.080000
   1714   1716     1   0.10969 276646.080000
   1717   1718     1   0.10969 276646.080000
   1717   1719     1   0.10969 276646.080000
   1721   1722     1   0.10969 276646.080000
   1721   1723     1   0.10969 276646.080000
   1724   1725     1   0.10969 276646.080000
   1724   1726     1   0.10969 276646.080000
   1730   1731     1   0.10969 276646.080000
   1730   1732     1   0.10969 276646.080000
   1733   1734     1   0.10969 276646.080000
   1733   1735     1   0.10969 276646.080000
   1740   1741     1   0.10969 276646.080000
   1740   1742     1   0.10969 276646.080000
   1743   1744     1   0.10969 276646.080000
   1743   1745     1   0.10969 276646.080000
   1746   1747     1   0.10969 276646.080000
   1746   1748     1   0.10969 276646.080000
   1750   1751     1   0.10969 276646.080000
   1750   1752     1   0.10969 276646.080000
   1753   1754     1   0.10969 276646.080000
   1753   1755     1   0.10969 276646.080000
   1759   1760     1   0.10969 276646.080000
   1759   1761     1   0.10969 276646.080000
   1762   1763     1   0.10969 276646.080000
   1762   1764     1   0.10969 276646.080000
   1769   1770     1   0.10969 276646.080000
   1769   1771     1   0.10969 276646.080000
   1772   1773     1   0.10969 276646.080000
   1772   1774     1   0.10969 276646.080000
   1775   1776     1   0.10969 276646.080000
   1775   1777     1   0.10969 276646.080000
   1779   1780     1   0.10969 276646.080000
   1779   1781     1   0.10969 276646.080000
   1782   1783     1   0.10969 276646.080000
   1782   1784     1   0.10969 276646.080000
   1788   1789     1   0.10969 276646.080000
   1788   1790     1   0.10969 276646.080000
   1791   1792     1   0.10969 276646.080000
   1791   1793     1   0.10969 276646.080000

[ pairs ]
;    ai     aj funct         c0         c1         c2         c3
      1     14     1
      1     17     1
      2     11     1
      2     20     1
      5      8     1
      5     21     1
      8     28     1
      8     31     1
     11     22     1
     11     25     1
     14     40     1
     14     43     1
     17     34     1
     17     37     1
     20     49     1
     20     46     1
     21     55     1
     21     52     1
     22     37     1
     22    173     1
     25     34     1
     25    144     1
     28     43     1
     28    115     1
     31     40     1
     31     86     1
     34    164     1
     37    135     1
     40    106     1
     43     77     1
     46     68     1
     49     97     1
     52    126     1
     55    155     1
     58     83     1
     58     80     1
     58     77     1
     59     74     1
     59     68     1
     59    231     1
     62     71     1
     62     68     1
     62    202     1
     65     71     1
     65     74     1
     65     86     1
     71    222     1
     74    193     1
     80    184     1
     83    213     1
     87    112     1
     87    109     1
     87    106     1
     88    103     1
     88     97     1
     88    289     1
     91    100     1
     91     97     1
     91    260     1
     94    100     1
     94    103     1
     94    115     1
    100    280     1
    103    251     1
    109    242     1
    112    271     1
    116    141     1
    116    138     1
    116    135     1
    117    132     1
    117    126     1
    117    347     1
    120    129     1
    120    126     1
    120    318     1
    123    129     1
    123    132     1
    123    144     1
    129    338     1
    132    309     1
    138    300     1
    141    329     1
    145    170     1
    145    167     1
    145    164     1
    146    161     1
    146    155     1
    146    405     1
    149    158     1
    149    155     1
    149    376     1
    152    158     1
    152    161     1
    152    173     1
    158    396     1
    161    367     1
    167    358     1
    170    387     1
    174    199     1
    174    196     1
    174    193     1
    175    190     1
    175    184     1
    175    463     1
    178    187     1
    178    184     1
    178    434     1
    181    187     1
    181    190     1
    181    202     1
    187    454     1
    190    425     1
    196    416     1
    199    445     1
    203    228     1
    203    225     1
    203    222     1
    204    219     1
    204    213     1
    204    521     1
    207    216     1
    207    213     1
    207    492     1
    210    216     1
    210    219     1
    210    231     1
    216    512     1
    219    483     1
    225    474     1
    228    503     1
    232    257     1
    232    254     1
    232    251     1
    233    248     1
    233    242     1
    233    579     1
    236    245     1
    236    242     1
    236    550     1
    239    245     1
    239    248     1
    239    260     1
    245    570     1
    248    541     1
    254    532     1
    257    561     1
    261    286     1
    261    283     1
    261    280     1
    262    277     1
    262    271     1
    262    637     1
    265    274     1
    265    271     1
    265    608     1
    268    274     1
    268    277     1
    268    289     1
    274    628     1
    277    599     1
    283    590     1
    286    619     1
    290    315     1
    290    312     1
    290    309     1
    291    306     1
    291    300     1
    291    695     1
    294    303     1
    294    300     1
    294    666     1
    297    303     1
    297    306     1
    297    318     1
    303    686     1
    306    657     1
    312    648     1
    315    677     1
    319    344     1
    319    341     1
    319    338     1
    320    335     1
    320    329     1
    320    753     1
    323    332     1
    323    329     1
    323    724     1
    326    332     1
    326    335     1
    326    347     1
    332    744     1
    335    715     1
    341    706     1
    344    735     1
    348    373     1
    348    370     1
    348    367     1
    349    364     1
    349    358     1
    349    811     1
    352    361     1
    352    358     1
    352    782     1
    355    361     1
    355    364     1
    355    376     1
    361    802     1
    364    773     1
    370    764     1
    373    793     1
    377    402     1
    377    399     1
    377    396     1
    378    393     1
    378    387     1
    378    869     1
    381    390     1
    381    387     1
    381    840     1
    384    390     1
    384    393     1
    384    405     1
    390    860     1
    393    831     1
    399    822     1
    402    851     1
    406    431     1
    406    428     1
    406    425     1
    407    422     1
    407    416     1
    407    927     1
    410    419     1
    410    416     1
    410    898     1
    413    419     1
    413    422     1
    413    434     1
    419    899     1
    422    870     1
    428    873     1
    431    902     1
    435    460     1
    435    457     1
    435    454     1
    436    451     1
    436    445     1
    436    985     1
    439    448     1
    439    445     1
    439    956     1
    442    448     1
    442    451     1
    442    463     1
    448    957     1
    451    928     1
    457    931     1
    460    960     1
    464    489     1
    464    486     1
    464    483     1
    465    480     1
    465    474     1
    465   1043     1
    468    477     1
    468    474     1
    468   1014     1
    471    477     1
    471    480     1
    471    492     1
    477   1015     1
    480    986     1
    486    989     1
    489   1018     1
    493    518     1
    493    515     1
    493    512     1
    494    509     1
    494    503     1
    494   1101     1
    497    506     1
    497    503     1
    497   1072     1
    500    506     1
    500    509     1
    500    521     1
    506   1073     1
    509   1044     1
    515   1047     1
    518   1076     1
    522    547     1
    522    544     1
    522    541     1
    523    538     1
    523    532     1
    523   1159     1
    526    535     1
    526    532     1
    526   1130     1
    529    535     1
    529    538     1
    529    550     1
    535   1131     1
    538   1102     1
    544   1105     1
    547   1134     1
    551    576     1
    551    573     1
    551    570     1
    552    567     1
    552    561     1
    552   1217     1
    555    564     1
    555    561     1
    555   1188     1
    558    564     1
    558    567     1
    558    579     1
    564   1189     1
    567   1160     1
    573   1163     1
    576   1192     1
    580    605     1
    580    602     1
    580    599     1
    581    596     1
    581    590     1
    581   1275     1
    584    593     1
    584    590     1
    584   1246     1
    587    593     1
    587    596     1
    587    608     1
    593   1247     1
    596   1218     1
    602   1221     1
    605   1250     1
    609    634     1
    609    631     1
    609    628     1
    610    625     1
    610    619     1
    610   1333     1
    613    622     1
    613    619     1
    613   1304     1
    616    622     1
    616    625     1
    616    637     1
    622   1305     1
    625   1276     1
    631   1279     1
    634   1308     1
    638    663     1
    638    660     1
    638    657     1
    639    654     1
    639    648     1
    639   1391     1
    642    651     1
    642    648     1
    642   1362     1
    645    651     1
    645    654     1
    645    666     1
    651   1363     1
    654   1334     1
    660   1337     1
    663   1366     1
    667    692     1
    667    689     1
    667    686     1
    668    683     1
    668    677     1
    668   1449     1
    671    680     1
    671    677     1
    671   1420     1
    674    680     1
    674    683     1
    674    695     1
    680   1421     1
    683   1392     1
    689   1395     1
    692   1424     1
    696    721     1
    696    718     1
    696    715     1
    697    712     1
    697    706     1
    697   1507     1
    700    709     1
    700    706     1
    700   1478     1
    703    709     1
    703    712     1
    703    724     1
    709   1479     1
    712   1450     1
    718   1453     1
    721   1482     1
    725    750     1
    725    747     1
    725    744     1
    726    741     1
    726    735     1
    726   1565     1
    729    738     1
    729    735     1
    729   1536     1
    732    738     1
    732    741     1
    732    753     1
    738   1537     1
    741   1508     1
    747   1511     1
    750   1540     1
    754    779     1
    754    776     1
    754    773     1
    755    770     1
    755    764     1
    755   1623     1
    758    767     1
    758    764     1
    758   1594     1
    761    767     1
    761    770     1
    761    782     1
    767   1595     1
    770   1566     1
    776   1569     1
    779   1598     1
    783    808     1
    783    805     1
    783    802     1
    784    799     1
    784    793     1
    784   1681     1
    787    796     1
    787    793     1
    787   1652     1
    790    796     1
    790    799     1
    790    811     1
    796   1653     1
    799   1624     1
    805   1627     1
    808   1656     1
    812    837     1
    812    834     1
    812    831     1
    813    828     1
    813    822     1
    813   1739     1
    816    825     1
    816    822     1
    816   1710     1
    819    825     1
    819    828     1
    819    840     1
    825   1711     1
    828   1682     1
    834   1685     1
    837   1714     1
    841    866     1
    841    863     1
    841    860     1
    842    857     1
    842    851     1
    842   1797     1
    845    854     1
    845    851     1
    845   1768     1
    848    854     1
    848    857     1
    848    869     1
    854   1769     1
    857   1740     1
    863   1743     1
    866   1772     1
    870    879     1
    873    880     1
    873    889     1
    876    898     1
    876    883     1
    876    892     1
    879    886     1
    879    895     1
    880    892     1
    880    887     1
    880    888     1
    883    889     1
    889    896     1
    889    897     1
    899    908     1
    902    909     1
    902    918     1
    905    912     1
    905    921     1
    905    927     1
    908    915     1
    908    924     1
    909    916     1
    909    917     1
    909    921     1
    912    918     1
    918    925     1
    918    926     1
    928    937     1
    931    938     1
    931    947     1
    934    956     1
    934    941     1
    934    950     1
    937    944     1
    937    953     1
    938    950     1
    938    945     1
    938    946     1
    941    947     1
    947    954     1
    947    955     1
    957    966     1
    960    967     1
    960    976     1
    963    970     1
    963    979     1
    963    985     1
    966    973     1
    966    982     1
    967    974     1
    967    975     1
    967    979     1
    970    976     1
    976    983     1
    976    984     1
    986    995     1
    989    996     1
    989   1005     1
    992   1014     1
    992    999     1
    992   1008     1
    995   1002     1
    995   1011     1
    996   1008     1
    996   1003     1
    996   1004     1
    999   1005     1
   1005   1012     1
   1005   1013     1
   1015   1024     1
   1018   1025     1
   1018   1034     1
   1021   1028     1
   1021   1037     1
   1021   1043     1
   1024   1031     1
   1024   1040     1
   1025   1032     1
   1025   1033     1
   1025   1037     1
   1028   1034     1
   1034   1041     1
   1034   1042     1
   1044   1053     1
   1047   1054     1
   1047   1063     1
   1050   1072     1
   1050   1057     1
   1050   1066     1
   1053   1060     1
   1053   1069     1
   1054   1066     1
   1054   1061     1
   1054   1062     1
   1057   1063     1
   1063   1070     1
   1063   1071     1
   1073   1082     1
   1076   1083     1
   1076   1092     1
   1079   1086     1
   1079   1095     1
   1079   1101     1
   1082   1089     1
   1082   1098     1
   1083   1090     1
   1083   1091     1
   1083   1095     1
   1086   1092     1
   1092   1099     1
   1092   1100     1
   1102   1111     1
   1105   1112     1
   1105   1121     1
   1108   1130     1
   1108   1115     1
   1108   1124     1
   1111   1118     1
   1111   1127     1
   1112   1124     1
   1112   1119     1
   1112   1120     1
   1115   1121     1
   1121   1128     1
   1121   1129     1
   1131   1140     1
   1134   1141     1
   1134   1150     1
   1137   1144     1
   1137   1153     1
   1137   1159     1
   1140   1147     1
   1140   1156     1
   1141   1148     1
   1141   1149     1
   1141   1153     1
   1144   1150     1
   1150   1157     1
   1150   1158     1
   1160   1169     1
   1163   1170     1
   1163   1179     1
   1166   1188     1
   1166   1173     1
   1166   1182     1
   1169   1176     1
   1169   1185     1
   1170   1182     1
   1170   1177     1
   1170   1178     1
   1173   1179     1
   1179   1186     1
   1179   1187     1
   1189   1198     1
   1192   1199     1
   1192   1208     1
   1195   1202     1
   1195   1211     1
   1195   1217     1
   1198   1205     1
   1198   1214     1
   1199   1206     1
   1199   1207     1
   1199   1211     1
   1202   1208     1
   1208   1215     1
   1208   1216     1
   1218   1227     1
   1221   1228     1
   1221   1237     1
   1224   1246     1
   1224   1231     1
   1224   1240     1
   1227   1234     1
   1227   1243     1
   1228   1240     1
   1228   1235     1
   1228   1236     1
   1231   1237     1
   1237   1244     1
   1237   1245     1
   1247   1256     1
   1250   1257     1
   1250   1266     1
   1253   1260     1
   1253   1269     1
   1253   1275     1
   1256   1263     1
   1256   1272     1
   1257   1264     1
   1257   1265     1
   1257   1269     1
   1260   1266     1
   1266   1273     1
   1266   1274     1
   1276   1285     1
   1279   1286     1
   1279   1295     1
   1282   1304     1
   1282   1289     1
   1282   1298     1
   1285   1292     1
   1285   1301     1
   1286   1298     1
   1286   1293     1
   1286   1294     1
   1289   1295     1
   1295   1302     1
   1295   1303     1
   1305   1314     1
   1308   1315     1
   1308   1324     1
   1311   1318     1
   1311   1327     1
   1311   1333     1
   1314   1321     1
   1314   1330     1
   1315   1322     1
   1315   1323     1
   1315   1327     1
   1318   1324     1
   1324   1331     1
   1324   1332     1
   1334   1343     1
   1337   1344     1
   1337   1353     1
   1340   1362     1
   1340   1347     1
   1340   1356     1
   1343   1350     1
   1343   1359     1
   1344   1356     1
   1344   1351     1
   1344   1352     1
   1347   1353     1
   1353   1360     1
   1353   1361     1
   1363   1372     1
   1366   1373     1
   1366   1382     1
   1369   1376     1
   1369   1385     1
   1369   1391     1
   1372   1379     1
   1372   1388     1
   1373   1380     1
   1373   1381     1
   1373   1385     1
   1376   1382     1
   1382   1389     1
   1382   1390     1
   1392   1401     1
   1395   1402     1
   1395   1411     1
   1398   1420     1
   1398   1405     1
   1398   1414     1
   1401   1408     1
   1401   1417     1
   1402   1414     1
   1402   1409     1
   1402   1410     1
   1405   1411     1
   1411   1418     1
   1411   1419     1
   1421   1430     1
   1424   1431     1
   1424   1440     1
   1427   1434     1
   1427   1443     1
   1427   1449     1
   1430   1437     1
   1430   1446     1
   1431   1438     1
   1431   1439     1
   1431   1443     1
   1434   1440     1
   1440   1447     1
   1440   1448     1
   1450   1459     1
   1453   1460     1
   1453   1469     1
   1456   1478     1
   1456   1463     1
   1456   1472     1
   1459   1466     1
   1459   1475     1
   1460   1472     1
   1460   1467     1
   1460   1468     1
   1463   1469     1
   1469   1476     1
   1469   1477     1
   1479   1488     1
   1482   1489     1
   1482   1498     1
   1485   1492     1
   1485   1501     1
   1485   1507     1
   1488   1495     1
   1488   1504     1
   1489   1496     1
   1489   1497     1
   1489   1501     1
   1492   1498     1
   1498   1505     1
   1498   1506     1
   1508   1517     1
   1511   1518     1
   1511   1527     1
   1514   1536     1
   1514   1521     1
   1514   1530     1
   1517   1524     1
   1517   1533     1
   1518   1530     1
   1518   1525     1
   1518   1526     1
   1521   1527     1
   1527   1534     1
   1527   1535     1
   1537   1546     1
   1540   1547     1
   1540   1556     1
   1543   1550     1
   1543   1559     1
   1543   1565     1
   1546   1553     1
   1546   1562     1
   1547   1554     1
   1547   1555     1
   1547   1559     1
   1550   1556     1
   1556   1563     1
   1556   1564     1
   1566   1575     1
   1569   1576     1
   1569   1585     1
   1572   1594     1
   1572   1579     1
   1572   1588     1
   1575   1582     1
   1575   1591     1
   1576   1588     1
   1576   1583     1
   1576   1584     1
   1579   1585     1
   1585   1592     1
   1585   1593     1
   1595   1604     1
   1598   1605     1
   1598   1614     1
   1601   1608     1
   1601   1617     1
   1601   1623     1
   1604   1611     1
   1604   1620     1
   1605   1612     1
   1605   1613     1
   1605   1617     1
   1608   1614     1
   1614   1621     1
   1614   1622     1
   1624   1633     1
   1627   1634     1
   1627   1643     1
   1630   1652     1
   1630   1637     1
   1630   1646     1
   1633   1640     1
   1633   1649     1
   1634   1646     1
   1634   1641     1
   1634   1642     1
   1637   1643     1
   1643   1650     1
   1643   1651     1
   1653   1662     1
   1656   1663     1
   1656   1672     1
   1659   1666     1
   1659   1675     1
   1659   1681     1
   1662   1669     1
   1662   1678     1
   1663   1670     1
   1663   1671     1
   1663   1675     1
   1666   1672     1
   1672   1679     1
   1672   1680     1
   1682   1691     1
   1685   1692     1
   1685   1701     1
   1688   1710     1
   1688   1695     1
   1688   1704     1
   1691   1698     1
   1691   1707     1
   1692   1704     1
   1692   1699     1
   1692   1700     1
   1695   1701     1
   1701   1708     1
   1701   1709     1
   1711   1720     1
   1714   1721     1
   1714   1730     1
   1717   1724     1
   1717   1733     1
   1717   1739     1
   1720   1727     1
   1720   1736     1
   1721   1728     1
   1721   1729     1
   1721   1733     1
   1724   1730     1
   1730   1737     1
   1730   1738     1
   1740   1749     1
   1743   1750     1
   1743   1759     1
   1746   1768     1
   1746   1753     1
   1746   1762     1
   1749   1756     1
   1749   1765     1
   1750   1762     1
   1750   1757     1
   1750   1758     1
   1753   1759     1
   1759   1766     1
   1759   1767     1
   1769   1778     1
   1772   1779     1
   1772   1788     1
   1775   1782     1
   1775   1791     1
   1775   1797     1
   1778   1785     1
   1778   1794     1
   1779   1786     1
   1779   1787     1
   1779   1791     1
   1782   1788     1
   1788   1795     1
   1788   1796     1
      1      9     1
      1     10     1
      1     12     1
      1     13     1
      2      6     1
      2      7     1
      2     15     1
      2     16     1
      5      3     1
      3     14     1
      3      9     1
      3     10     1
      5      4     1
      4     14     1
      4      9     1
      4     10     1
      5     18     1
      5     19     1
      6     17     1
      6     12     1
      6     13     1
      7     17     1
      7     12     1
      7     13     1
      9     20     1
      9     15     1
      9     16     1
     10     20     1
     10     15     1
     10     16     1
     12     21     1
     12     18     1
     12     19     1
     13     21     1
     13     18     1
     13     19     1
     14     29     1
     14     30     1
     14     32     1
     14     33     1
     15     28     1
     15     31     1
     16     28     1
     16     31     1
     17     23     1
     17     24     1
     17     26     1
     17     27     1
     18     22     1
     18     25     1
     19     22     1
     19     25     1
     20     41     1
     20     42     1
     20     44     1
     20     45     1
     21     35     1
     21     36     1
     21     38     1
     21     39     1
     22     26     1
     22     27     1
     22     56     1
     22     57     1
     23     25     1
     23     55     1
     23     35     1
     23     36     1
     24     25     1
     24     55     1
     24     35     1
     24     36     1
     25     53     1
     25     54     1
     26     52     1
     26     38     1
     26     39     1
     27     52     1
     27     38     1
     27     39     1
     28     32     1
     28     33     1
     28     50     1
     28     51     1
     29     31     1
     29     49     1
     29     41     1
     29     42     1
     30     31     1
     30     49     1
     30     41     1
     30     42     1
     31     47     1
     31     48     1
     32     46     1
     32     44     1
     32     45     1
     33     46     1
     33     44     1
     33     45     1
     35    173     1
     35     56     1
     35     57     1
     36    173     1
     36     56     1
     36     57     1
     38    144     1
     38     53     1
     38     54     1
     39    144     1
     39     53     1
     39     54     1
     41    115     1
     41     50     1
     41     51     1
     42    115     1
     42     50     1
     42     51     1
     44     86     1
     44     47     1
     44     48     1
     45     86     1
     45     47     1
     45     48     1
     46     78     1
     46     79     1
     47     77     1
     48     77     1
     49    107     1
     49    108     1
     50    106     1
     51    106     1
     52    136     1
     52    137     1
     53    135     1
     54    135     1
     55    165     1
     55    166     1
     56    164     1
     57    164     1
     58     72     1
     58     73     1
     58     75     1
     58     76     1
     58     69     1
     58     70     1
     59     63     1
     59     64     1
     59     66     1
     59     67     1
     59     84     1
     59     85     1
     60     62     1
     60     65     1
     60     83     1
     60     72     1
     60     73     1
     61     62     1
     61     65     1
     61     83     1
     61     72     1
     61     73     1
     62     66     1
     62     67     1
     62     81     1
     62     82     1
     63     65     1
     63     80     1
     63     75     1
     63     76     1
     64     65     1
     64     80     1
     64     75     1
     64     76     1
     65     78     1
     65     79     1
     66     77     1
     66     69     1
     66     70     1
     67     77     1
     67     69     1
     67     70     1
     69     86     1
     69     78     1
     69     79     1
     70     86     1
     70     78     1
     70     79     1
     72    231     1
     72     84     1
     72     85     1
     73    231     1
     73     84     1
     73     85     1
     75    202     1
     75     81     1
     75     82     1
     76    202     1
     76     81     1
     76     82     1
     80    194     1
     80    195     1
     81    193     1
     82    193     1
     83    223     1
     83    224     1
     84    222     1
     85    222     1
     87    101     1
     87    102     1
     87    104     1
     87    105     1
     87     98     1
     87     99     1
     88     92     1
     88     93     1
     88     95     1
     88     96     1
     88    113     1
     88    114     1
     89     91     1
     89     94     1
     89    112     1
     89    101     1
     89    102     1
     90     91     1
     90     94     1
     90    112     1
     90    101     1
     90    102     1
     91     95     1
     91     96     1
     91    110     1
     91    111     1
     92     94     1
     92    109     1
     92    104     1
     92    105     1
     93     94     1
     93    109     1
     93    104     1
     93    105     1
     94    107     1
     94    108     1
     95    106     1
     95     98     1
     95     99     1
     96    106     1
     96     98     1
     96     99     1
     98    115     1
     98    107     1
     98    108     1
     99    115     1
     99    107     1
     99    108     1
    101    289     1
    101    113     1
    101    114     1
    102    289     1
    102    113     1
    102    114     1
    104    260     1
    104    110     1
    104    111     1
    105    260     1
    105    110     1
    105    111     1
    109    252     1
    109    253     1
    110    251     1
    111    251     1
    112    281     1
    112    282     1
    113    280     1
    114    280     1
    116    130     1
    116    131     1
    116    133     1
    116    134     1
    116    127     1
    116    128     1
    117    121     1
    117    122     1
    117    124     1
    117    125     1
    117    142     1
    117    143     1
    118    120     1
    118    123     1
    118    141     1
    118    130     1
    118    131     1
    119    120     1
    119    123     1
    119    141     1
    119    130     1
    119    131     1
    120    124     1
    120    125     1
    120    139     1
    120    140     1
    121    123     1
    121    138     1
    121    133     1
    121    134     1
    122    123     1
    122    138     1
    122    133     1
    122    134     1
    123    136     1
    123    137     1
    124    135     1
    124    127     1
    124    128     1
    125    135     1
    125    127     1
    125    128     1
    127    144     1
    127    136     1
    127    137     1
    128    144     1
    128    136     1
    128    137     1
    130    347     1
    130    142     1
    130    143     1
    131    347     1
    131    142     1
    131    143     1
    133    318     1
    133    139     1
    133    140     1
    134    318     1
    134    139     1
    134    140     1
    138    310     1
    138    311     1
    139    309     1
    140    309     1
    141    339     1
    141    340     1
    142    338     1
    143    338     1
    145    159     1
    145    160     1
    145    162     1
    145    163     1
    145    156     1
    145    157     1
    146    150     1
    146    151     1
    146    153     1
    146    154     1
    146    171     1
    146    172     1
    147    149     1
    147    152     1
    147    170     1
    147    159     1
    147    160     1
    148    149     1
    148    152     1
    148    170     1
    148    159     1
    148    160     1
    149    153     1
    149    154     1
    149    168     1
    149    169     1
    150    152     1
    150    167     1
    150    162     1
    150    163     1
    151    152     1
    151    167     1
    151    162     1
    151    163     1
    152    165     1
    152    166     1
    153    164     1
    153    156     1
    153    157     1
    154    164     1
    154    156     1
    154    157     1
    156    173     1
    156    165     1
    156    166     1
    157    173     1
    157    165     1
    157    166     1
    159    405     1
    159    171     1
    159    172     1
    160    405     1
    160    171     1
    160    172     1
    162    376     1
    162    168     1
    162    169     1
    163    376     1
    163    168     1
    163    169     1
    167    368     1
    167    369     1
    168    367     1
    169    367     1
    170    397     1
    170    398     1
    171    396     1
    172    396     1
    174    188     1
    174    189     1
    174    191     1
    174    192     1
    174    185     1
    174    186     1
    175    179     1
    175    180     1
    175    182     1
    175    183     1
    175    200     1
    175    201     1
    176    178     1
    176    181     1
    176    199     1
    176    188     1
    176    189     1
    177    178     1
    177    181     1
    177    199     1
    177    188     1
    177    189     1
    178    182     1
    178    183     1
    178    197     1
    178    198     1
    179    181     1
    179    196     1
    179    191     1
    179    192     1
    180    181     1
    180    196     1
    180    191     1
    180    192     1
    181    194     1
    181    195     1
    182    193     1
    182    185     1
    182    186     1
    183    193     1
    183    185     1
    183    186     1
    185    202     1
    185    194     1
    185    195     1
    186    202     1
    186    194     1
    186    195     1
    188    463     1
    188    200     1
    188    201     1
    189    463     1
    189    200     1
    189    201     1
    191    434     1
    191    197     1
    191    198     1
    192    434     1
    192    197     1
    192    198     1
    196    426     1
    196    427     1
    197    425     1
    198    425     1
    199    455     1
    199    456     1
    200    454     1
    201    454     1
    203    217     1
    203    218     1
    203    220     1
    203    221     1
    203    214     1
    203    215     1
    204    208     1
    204    209     1
    204    211     1
    204    212     1
    204    229     1
    204    230     1
    205    207     1
    205    210     1
    205    228     1
    205    217     1
    205    218     1
    206    207     1
    206    210     1
    206    228     1
    206    217     1
    206    218     1
    207    211     1
    207    212     1
    207    226     1
    207    227     1
    208    210     1
    208    225     1
    208    220     1
    208    221     1
    209    210     1
    209    225     1
    209    220     1
    209    221     1
    210    223     1
    210    224     1
    211    222     1
    211    214     1
    211    215     1
    212    222     1
    212    214     1
    212    215     1
    214    231     1
    214    223     1
    214    224     1
    215    231     1
    215    223     1
    215    224     1
    217    521     1
    217    229     1
    217    230     1
    218    521     1
    218    229     1
    218    230     1
    220    492     1
    220    226     1
    220    227     1
    221    492     1
    221    226     1
    221    227     1
    225    484     1
    225    485     1
    226    483     1
    227    483     1
    228    513     1
    228    514     1
    229    512     1
    230    512     1
    232    246     1
    232    247     1
    232    249     1
    232    250     1
    232    243     1
    232    244     1
    233    237     1
    233    238     1
    233    240     1
    233    241     1
    233    258     1
    233    259     1
    234    236     1
    234    239     1
    234    257     1
    234    246     1
    234    247     1
    235    236     1
    235    239     1
    235    257     1
    235    246     1
    235    247     1
    236    240     1
    236    241     1
    236    255     1
    236    256     1
    237    239     1
    237    254     1
    237    249     1
    237    250     1
    238    239     1
    238    254     1
    238    249     1
    238    250     1
    239    252     1
    239    253     1
    240    251     1
    240    243     1
    240    244     1
    241    251     1
    241    243     1
    241    244     1
    243    260     1
    243    252     1
    243    253     1
    244    260     1
    244    252     1
    244    253     1
    246    579     1
    246    258     1
    246    259     1
    247    579     1
    247    258     1
    247    259     1
    249    550     1
    249    255     1
    249    256     1
    250    550     1
    250    255     1
    250    256     1
    254    542     1
    254    543     1
    255    541     1
    256    541     1
    257    571     1
    257    572     1
    258    570     1
    259    570     1
    261    275     1
    261    276     1
    261    278     1
    261    279     1
    261    272     1
    261    273     1
    262    266     1
    262    267     1
    262    269     1
    262    270     1
    262    287     1
    262    288     1
    263    265     1
    263    268     1
    263    286     1
    263    275     1
    263    276     1
    264    265     1
    264    268     1
    264    286     1
    264    275     1
    264    276     1
    265    269     1
    265    270     1
    265    284     1
    265    285     1
    266    268     1
    266    283     1
    266    278     1
    266    279     1
    267    268     1
    267    283     1
    267    278     1
    267    279     1
    268    281     1
    268    282     1
    269    280     1
    269    272     1
    269    273     1
    270    280     1
    270    272     1
    270    273     1
    272    289     1
    272    281     1
    272    282     1
    273    289     1
    273    281     1
    273    282     1
    275    637     1
    275    287     1
    275    288     1
    276    637     1
    276    287     1
    276    288     1
    278    608     1
    278    284     1
    278    285     1
    279    608     1
    279    284     1
    279    285     1
    283    600     1
    283    601     1
    284    599     1
    285    599     1
    286    629     1
    286    630     1
    287    628     1
    288    628     1
    290    304     1
    290    305     1
    290    307     1
    290    308     1
    290    301     1
    290    302     1
    291    295     1
    291    296     1
    291    298     1
    291    299     1
    291    316     1
    291    317     1
    292    294     1
    292    297     1
    292    315     1
    292    304     1
    292    305     1
    293    294     1
    293    297     1
    293    315     1
    293    304     1
    293    305     1
    294    298     1
    294    299     1
    294    313     1
    294    314     1
    295    297     1
    295    312     1
    295    307     1
    295    308     1
    296    297     1
    296    312     1
    296    307     1
    296    308     1
    297    310     1
    297    311     1
    298    309     1
    298    301     1
    298    302     1
    299    309     1
    299    301     1
    299    302     1
    301    318     1
    301    310     1
    301    311     1
    302    318     1
    302    310     1
    302    311     1
    304    695     1
    304    316     1
    304    317     1
    305    695     1
    305    316     1
    305    317     1
    307    666     1
    307    313     1
    307    314     1
    308    666     1
    308    313     1
    308    314     1
    312    658     1
    312    659     1
    313    657     1
    314    657     1
    315    687     1
    315    688     1
    316    686     1
    317    686     1
    319    333     1
    319    334     1
    319    336     1
    319    337     1
    319    330     1
    319    331     1
    320    324     1
    320    325     1
    320    327     1
    320    328     1
    320    345     1
    320    346     1
    321    323     1
    321    326     1
    321    344     1
    321    333     1
    321    334     1
    322    323     1
    322    326     1
    322    344     1
    322    333     1
    322    334     1
    323    327     1
    323    328     1
    323    342     1
    323    343     1
    324    326     1
    324    341     1
    324    336     1
    324    337     1
    325    326     1
    325    341     1
    325    336     1
    325    337     1
    326    339     1
    326    340     1
    327    338     1
    327    330     1
    327    331     1
    328    338     1
    328    330     1
    328    331     1
    330    347     1
    330    339     1
    330    340     1
    331    347     1
    331    339     1
    331    340     1
    333    753     1
    333    345     1
    333    346     1
    334    753     1
    334    345     1
    334    346     1
    336    724     1
    336    342     1
    336    343     1
    337    724     1
    337    342     1
    337    343     1
    341    716     1
    341    717     1
    342    715     1
    343    715     1
    344    745     1
    344    746     1
    345    744     1
    346    744     1
    348    362     1
    348    363     1
    348    365     1
    348    366     1
    348    359     1
    348    360     1
    349    353     1
    349    354     1
    349    356     1
    349    357     1
    349    374     1
    349    375     1
    350    352     1
    350    355     1
    350    373     1
    350    362     1
    350    363     1
    351    352     1
    351    355     1
    351    373     1
    351    362     1
    351    363     1
    352    356     1
    352    357     1
    352    371     1
    352    372     1
    353    355     1
    353    370     1
    353    365     1
    353    366     1
    354    355     1
    354    370     1
    354    365     1
    354    366     1
    355    368     1
    355    369     1
    356    367     1
    356    359     1
    356    360     1
    357    367     1
    357    359     1
    357    360     1
    359    376     1
    359    368     1
    359    369     1
    360    376     1
    360    368     1
    360    369     1
    362    811     1
    362    374     1
    362    375     1
    363    811     1
    363    374     1
    363    375     1
    365    782     1
    365    371     1
    365    372     1
    366    782     1
    366    371     1
    366    372     1
    370    774     1
    370    775     1
    371    773     1
    372    773     1
    373    803     1
    373    804     1
    374    802     1
    375    802     1
    377    391     1
    377    392     1
    377    394     1
    377    395     1
    377    388     1
    377    389     1
    378    382     1
    378    383     1
    378    385     1
    378    386     1
    378    403     1
    378    404     1
    379    381     1
    379    384     1
    379    402     1
    379    391     1
    379    392     1
    380    381     1
    380    384     1
    380    402     1
    380    391     1
    380    392     1
    381    385     1
    381    386     1
    381    400     1
    381    401     1
    382    384     1
    382    399     1
    382    394     1
    382    395     1
    383    384     1
    383    399     1
    383    394     1
    383    395     1
    384    397     1
    384    398     1
    385    396     1
    385    388     1
    385    389     1
    386    396     1
    386    388     1
    386    389     1
    388    405     1
    388    397     1
    388    398     1
    389    405     1
    389    397     1
    389    398     1
    391    869     1
    391    403     1
    391    404     1
    392    869     1
    392    403     1
    392    404     1
    394    840     1
    394    400     1
    394    401     1
    395    840     1
    395    400     1
    395    401     1
    399    832     1
    399    833     1
    400    831     1
    401    831     1
    402    861     1
    402    862     1
    403    860     1
    404    860     1
    406    420     1
    406    421     1
    406    423     1
    406    424     1
    406    417     1
    406    418     1
    407    411     1
    407    412     1
    407    414     1
    407    415     1
    407    432     1
    407    433     1
    408    410     1
    408    413     1
    408    431     1
    408    420     1
    408    421     1
    409    410     1
    409    413     1
    409    431     1
    409    420     1
    409    421     1
    410    414     1
    410    415     1
    410    429     1
    410    430     1
    411    413     1
    411    428     1
    411    423     1
    411    424     1
    412    413     1
    412    428     1
    412    423     1
    412    424     1
    413    426     1
    413    427     1
    414    425     1
    414    417     1
    414    418     1
    415    425     1
    415    417     1
    415    418     1
    417    434     1
    417    426     1
    417    427     1
    418    434     1
    418    426     1
    418    427     1
    420    927     1
    420    432     1
    420    433     1
    421    927     1
    421    432     1
    421    433     1
    423    898     1
    423    429     1
    423    430     1
    424    898     1
    424    429     1
    424    430     1
    428    871     1
    428    872     1
    429    870     1
    430    870     1
    431    900     1
    431    901     1
    432    899     1
    433    899     1
    435    449     1
    435    450     1
    435    452     1
    435    453     1
    435    446     1
    435    447     1
    436    440     1
    436    441     1
    436    443     1
    436    444     1
    436    461     1
    436    462     1
    437    439     1
    437    442     1
    437    460     1
    437    449     1
    437    450     1
    438    439     1
    438    442     1
    438    460     1
    438    449     1
    438    450     1
    439    443     1
    439    444     1
    439    458     1
    439    459     1
    440    442     1
    440    457     1
    440    452     1
    440    453     1
    441    442     1
    441    457     1
    441    452     1
    441    453     1
    442    455     1
    442    456     1
    443    454     1
    443    446     1
    443    447     1
    444    454     1
    444    446     1
    444    447     1
    446    463     1
    446    455     1
    446    456     1
    447    463     1
    447    455     1
    447    456     1
    449    985     1
    449    461     1
    449    462     1
    450    985     1
    450    461     1
    450    462     1
    452    956     1
    452    458     1
    452    459     1
    453    956     1
    453    458     1
    453    459     1
    457    929     1
    457    930     1
    458    928     1
    459    928     1
    460    958     1
    460    959     1
    461    957     1
    462    957     1
    464    478     1
    464    479     1
    464    481     1
    464    482     1
    464    475     1
    464    476     1
    465    469     1
    465    470     1
    465    472     1
    465    473     1
    465    490     1
    465    491     1
    466    468     1
    466    471     1
    466    489     1
    466    478     1
    466    479     1
    467    468     1
    467    471     1
    467    489     1
    467    478     1
    467    479     1
    468    472     1
    468    473     1
    468    487     1
    468    488     1
    469    471     1
    469    486     1
    469    481     1
    469    482     1
    470    471     1
    470    486     1
    470    481     1
    470    482     1
    471    484     1
    471    485     1
    472    483     1
    472    475     1
    472    476     1
    473    483     1
    473    475     1
    473    476     1
    475    492     1
    475    484     1
    475    485     1
    476    492     1
    476    484     1
    476    485     1
    478   1043     1
    478    490     1
    478    491     1
    479   1043     1
    479    490     1
    479    491     1
    481   1014     1
    481    487     1
    481    488     1
    482   1014     1
    482    487     1
    482    488     1
    486    987     1
    486    988     1
    487    986     1
    488    986     1
    489   1016     1
    489   1017     1
    490   1015     1
    491   1015     1
    493    507     1
    493    508     1
    493    510     1
    493    511     1
    493    504     1
    493    505     1
    494    498     1
    494    499     1
    494    501     1
    494    502     1
    494    519     1
    494    520     1
    495    497     1
    495    500     1
    495    518     1
    495    507     1
    495    508     1
    496    497     1
    496    500     1
    496    518     1
    496    507     1
    496    508     1
    497    501     1
    497    502     1
    497    516     1
    497    517     1
    498    500     1
    498    515     1
    498    510     1
    498    511     1
    499    500     1
    499    515     1
    499    510     1
    499    511     1
    500    513     1
    500    514     1
    501    512     1
    501    504     1
    501    505     1
    502    512     1
    502    504     1
    502    505     1
    504    521     1
    504    513     1
    504    514     1
    505    521     1
    505    513     1
    505    514     1
    507   1101     1
    507    519     1
    507    520     1
    508   1101     1
    508    519     1
    508    520     1
    510   1072     1
    510    516     1
    510    517     1
    511   1072     1
    511    516     1
    511    517     1
    515   1045     1
    515   1046     1
    516   1044     1
    517   1044     1
    518   1074     1
    518   1075     1
    519   1073     1
    520   1073     1
    522    536     1
    522    537     1
    522    539     1
    522    540     1
    522    533     1
    522    534     1
    523    527     1
    523    528     1
    523    530     1
    523    531     1
    523    548     1
    523    549     1
    524    526     1
    524    529     1
    524    547     1
    524    536     1
    524    537     1
    525    526     1
    525    529     1
    525    547     1
    525    536     1
    525    537     1
    526    530     1
    526    531     1
    526    545     1
    526    546     1
    527    529     1
    527    544     1
    527    539     1
    527    540     1
    528    529     1
    528    544     1
    528    539     1
    528    540     1
    529    542     1
    529    543     1
    530    541     1
    530    533     1
    530    534     1
    531    541     1
    531    533     1
    531    534     1
    533    550     1
    533    542     1
    533    543     1
    534    550     1
    534    542     1
    534    543     1
    536   1159     1
    536    548     1
    536    549     1
    537   1159     1
    537    548     1
    537    549     1
    539   1130     1
    539    545     1
    539    546     1
    540   1130     1
    540    545     1
    540    546     1
    544   1103     1
    544   1104     1
    545   1102     1
    546   1102     1
    547   1132     1
    547   1133     1
    548   1131     1
    549   1131     1
    551    565     1
    551    566     1
    551    568     1
    551    569     1
    551    562     1
    551    563     1
    552    556     1
    552    557     1
    552    559     1
    552    560     1
    552    577     1
    552    578     1
    553    555     1
    553    558     1
    553    576     1
    553    565     1
    553    566     1
    554    555     1
    554    558     1
    554    576     1
    554    565     1
    554    566     1
    555    559     1
    555    560     1
    555    574     1
    555    575     1
    556    558     1
    556    573     1
    556    568     1
    556    569     1
    557    558     1
    557    573     1
    557    568     1
    557    569     1
    558    571     1
    558    572     1
    559    570     1
    559    562     1
    559    563     1
    560    570     1
    560    562     1
    560    563     1
    562    579     1
    562    571     1
    562    572     1
    563    579     1
    563    571     1
    563    572     1
    565   1217     1
    565    577     1
    565    578     1
    566   1217     1
    566    577     1
    566    578     1
    568   1188     1
    568    574     1
    568    575     1
    569   1188     1
    569    574     1
    569    575     1
    573   1161     1
    573   1162     1
    574   1160     1
    575   1160     1
    576   1190     1
    576   1191     1
    577   1189     1
    578   1189     1
    580    594     1
    580    595     1
    580    597     1
    580    598     1
    580    591     1
    580    592     1
    581    585     1
    581    586     1
    581    588     1
    581    589     1
    581    606     1
    581    607     1
    582    584     1
    582    587     1
    582    605     1
    582    594     1
    582    595     1
    583    584     1
    583    587     1
    583    605     1
    583    594     1
    583    595     1
    584    588     1
    584    589     1
    584    603     1
    584    604     1
    585    587     1
    585    602     1
    585    597     1
    585    598     1
    586    587     1
    586    602     1
    586    597     1
    586    598     1
    587    600     1
    587    601     1
    588    599     1
    588    591     1
    588    592     1
    589    599     1
    589    591     1
    589    592     1
    591    608     1
    591    600     1
    591    601     1
    592    608     1
    592    600     1
    592    601     1
    594   1275     1
    594    606     1
    594    607     1
    595   1275     1
    595    606     1
    595    607     1
    597   1246     1
    597    603     1
    597    604     1
    598   1246     1
    598    603     1
    598    604     1
    602   1219     1
    602   1220     1
    603   1218     1
    604   1218     1
    605   1248     1
    605   1249     1
    606   1247     1
    607   1247     1
    609    623     1
    609    624     1
    609    626     1
    609    627     1
    609    620     1
    609    621     1
    610    614     1
    610    615     1
    610    617     1
    610    618     1
    610    635     1
    610    636     1
    611    613     1
    611    616     1
    611    634     1
    611    623     1
    611    624     1
    612    613     1
    612    616     1
    612    634     1
    612    623     1
    612    624     1
    613    617     1
    613    618     1
    613    632     1
    613    633     1
    614    616     1
    614    631     1
    614    626     1
    614    627     1
    615    616     1
    615    631     1
    615    626     1
    615    627     1
    616    629     1
    616    630     1
    617    628     1
    617    620     1
    617    621     1
    618    628     1
    618    620     1
    618    621     1
    620    637     1
    620    629     1
    620    630     1
    621    637     1
    621    629     1
    621    630     1
    623   1333     1
    623    635     1
    623    636     1
    624   1333     1
    624    635     1
    624    636     1
    626   1304     1
    626    632     1
    626    633     1
    627   1304     1
    627    632     1
    627    633     1
    631   1277     1
    631   1278     1
    632   1276     1
    633   1276     1
    634   1306     1
    634   1307     1
    635   1305     1
    636   1305     1
    638    652     1
    638    653     1
    638    655     1
    638    656     1
    638    649     1
    638    650     1
    639    643     1
    639    644     1
    639    646     1
    639    647     1
    639    664     1
    639    665     1
    640    642     1
    640    645     1
    640    663     1
    640    652     1
    640    653     1
    641    642     1
    641    645     1
    641    663     1
    641    652     1
    641    653     1
    642    646     1
    642    647     1
    642    661     1
    642    662     1
    643    645     1
    643    660     1
    643    655     1
    643    656     1
    644    645     1
    644    660     1
    644    655     1
    644    656     1
    645    658     1
    645    659     1
    646    657     1
    646    649     1
    646    650     1
    647    657     1
    647    649     1
    647    650     1
    649    666     1
    649    658     1
    649    659     1
    650    666     1
    650    658     1
    650    659     1
    652   1391     1
    652    664     1
    652    665     1
    653   1391     1
    653    664     1
    653    665     1
    655   1362     1
    655    661     1
    655    662     1
    656   1362     1
    656    661     1
    656    662     1
    660   1335     1
    660   1336     1
    661   1334     1
    662   1334     1
    663   1364     1
    663   1365     1
    664   1363     1
    665   1363     1
    667    681     1
    667    682     1
    667    684     1
    667    685     1
    667    678     1
    667    679     1
    668    672     1
    668    673     1
    668    675     1
    668    676     1
    668    693     1
    668    694     1
    669    671     1
    669    674     1
    669    692     1
    669    681     1
    669    682     1
    670    671     1
    670    674     1
    670    692     1
    670    681     1
    670    682     1
    671    675     1
    671    676     1
    671    690     1
    671    691     1
    672    674     1
    672    689     1
    672    684     1
    672    685     1
    673    674     1
    673    689     1
    673    684     1
    673    685     1
    674    687     1
    674    688     1
    675    686     1
    675    678     1
    675    679     1
    676    686     1
    676    678     1
    676    679     1
    678    695     1
    678    687     1
    678    688     1
    679    695     1
    679    687     1
    679    688     1
    681   1449     1
    681    693     1
    681    694     1
    682   1449     1
    682    693     1
    682    694     1
    684   1420     1
    684    690     1
    684    691     1
    685   1420     1
    685    690     1
    685    691     1
    689   1393     1
    689   1394     1
    690   1392     1
    691   1392     1
    692   1422     1
    692   1423     1
    693   1421     1
    694   1421     1
    696    710     1
    696    711     1
    696    713     1
    696    714     1
    696    707     1
    696    708     1
    697    701     1
    697    702     1
    697    704     1
    697    705     1
    697    722     1
    697    723     1
    698    700     1
    698    703     1
    698    721     1
    698    710     1
    698    711     1
    699    700     1
    699    703     1
    699    721     1
    699    710     1
    699    711     1
    700    704     1
    700    705     1
    700    719     1
    700    720     1
    701    703     1
    701    718     1
    701    713     1
    701    714     1
    702    703     1
    702    718     1
    702    713     1
    702    714     1
    703    716     1
    703    717     1
    704    715     1
    704    707     1
    704    708     1
    705    715     1
    705    707     1
    705    708     1
    707    724     1
    707    716     1
    707    717     1
    708    724     1
    708    716     1
    708    717     1
    710   1507     1
    710    722     1
    710    723     1
    711   1507     1
    711    722     1
    711    723     1
    713   1478     1
    713    719     1
    713    720     1
    714   1478     1
    714    719     1
    714    720     1
    718   1451     1
    718   1452     1
    719   1450     1
    720   1450     1
    721   1480     1
    721   1481     1
    722   1479     1
    723   1479     1
    725    739     1
    725    740     1
    725    742     1
    725    743     1
    725    736     1
    725    737     1
    726    730     1
    726    731     1
    726    733     1
    726    734     1
    726    751     1
    726    752     1
    727    729     1
    727    732     1
    727    750     1
    727    739     1
    727    740     1
    728    729     1
    728    732     1
    728    750     1
    728    739     1
    728    740     1
    729    733     1
    729    734     1
    729    748     1
    729    749     1
    730    732     1
    730    747     1
    730    742     1
    730    743     1
    731    732     1
    731    747     1
    731    742     1
    731    743     1
    732    745     1
    732    746     1
    733    744     1
    733    736     1
    733    737     1
    734    744     1
    734    736     1
    734    737     1
    736    753     1
    736    745     1
    736    746     1
    737    753     1
    737    745     1
    737    746     1
    739   1565     1
    739    751     1
    739    752     1
    740   1565     1
    740    751     1
    740    752     1
    742   1536     1
    742    748     1
    742    749     1
    743   1536     1
    743    748     1
    743    749     1
    747   1509     1
    747   1510     1
    748   1508     1
    749   1508     1
    750   1538     1
    750   1539     1
    751   1537     1
    752   1537     1
    754    768     1
    754    769     1
    754    771     1
    754    772     1
    754    765     1
    754    766     1
    755    759     1
    755    760     1
    755    762     1
    755    763     1
    755    780     1
    755    781     1
    756    758     1
    756    761     1
    756    779     1
    756    768     1
    756    769     1
    757    758     1
    757    761     1
    757    779     1
    757    768     1
    757    769     1
    758    762     1
    758    763     1
    758    777     1
    758    778     1
    759    761     1
    759    776     1
    759    771     1
    759    772     1
    760    761     1
    760    776     1
    760    771     1
    760    772     1
    761    774     1
    761    775     1
    762    773     1
    762    765     1
    762    766     1
    763    773     1
    763    765     1
    763    766     1
    765    782     1
    765    774     1
    765    775     1
    766    782     1
    766    774     1
    766    775     1
    768   1623     1
    768    780     1
    768    781     1
    769   1623     1
    769    780     1
    769    781     1
    771   1594     1
    771    777     1
    771    778     1
    772   1594     1
    772    777     1
    772    778     1
    776   1567     1
    776   1568     1
    777   1566     1
    778   1566     1
    779   1596     1
    779   1597     1
    780   1595     1
    781   1595     1
    783    797     1
    783    798     1
    783    800     1
    783    801     1
    783    794     1
    783    795     1
    784    788     1
    784    789     1
    784    791     1
    784    792     1
    784    809     1
    784    810     1
    785    787     1
    785    790     1
    785    808     1
    785    797     1
    785    798     1
    786    787     1
    786    790     1
    786    808     1
    786    797     1
    786    798     1
    787    791     1
    787    792     1
    787    806     1
    787    807     1
    788    790     1
    788    805     1
    788    800     1
    788    801     1
    789    790     1
    789    805     1
    789    800     1
    789    801     1
    790    803     1
    790    804     1
    791    802     1
    791    794     1
    791    795     1
    792    802     1
    792    794     1
    792    795     1
    794    811     1
    794    803     1
    794    804     1
    795    811     1
    795    803     1
    795    804     1
    797   1681     1
    797    809     1
    797    810     1
    798   1681     1
    798    809     1
    798    810     1
    800   1652     1
    800    806     1
    800    807     1
    801   1652     1
    801    806     1
    801    807     1
    805   1625     1
    805   1626     1
    806   1624     1
    807   1624     1
    808   1654     1
    808   1655     1
    809   1653     1
    810   1653     1
    812    826     1
    812    827     1
    812    829     1
    812    830     1
    812    823     1
    812    824     1
    813    817     1
    813    818     1
    813    820     1
    813    821     1
    813    838     1
    813    839     1
    814    816     1
    814    819     1
    814    837     1
    814    826     1
    814    827     1
    815    816     1
    815    819     1
    815    837     1
    815    826     1
    815    827     1
    816    820     1
    816    821     1
    816    835     1
    816    836     1
    817    819     1
    817    834     1
    817    829     1
    817    830     1
    818    819     1
    818    834     1
    818    829     1
    818    830     1
    819    832     1
    819    833     1
    820    831     1
    820    823     1
    820    824     1
    821    831     1
    821    823     1
    821    824     1
    823    840     1
    823    832     1
    823    833     1
    824    840     1
    824    832     1
    824    833     1
    826   1739     1
    826    838     1
    826    839     1
    827   1739     1
    827    838     1
    827    839     1
    829   1710     1
    829    835     1
    829    836     1
    830   1710     1
    830    835     1
    830    836     1
    834   1683     1
    834   1684     1
    835   1682     1
    836   1682     1
    837   1712     1
    837   1713     1
    838   1711     1
    839   1711     1
    841    855     1
    841    856     1
    841    858     1
    841    859     1
    841    852     1
    841    853     1
    842    846     1
    842    847     1
    842    849     1
    842    850     1
    842    867     1
    842    868     1
    843    845     1
    843    848     1
    843    866     1
    843    855     1
    843    856     1
    844    845     1
    844    848     1
    844    866     1
    844    855     1
    844    856     1
    845    849     1
    845    850     1
    845    864     1
    845    865     1
    846    848     1
    846    863     1
    846    858     1
    846    859     1
    847    848     1
    847    863     1
    847    858     1
    847    859     1
    848    861     1
    848    862     1
    849    860     1
    849    852     1
    849    853     1
    850    860     1
    850    852     1
    850    853     1
    852    869     1
    852    861     1
    852    862     1
    853    869     1
    853    861     1
    853    862     1
    855   1797     1
    855    867     1
    855    868     1
    856   1797     1
    856    867     1
    856    868     1
    858   1768     1
    858    864     1
    858    865     1
    859   1768     1
    859    864     1
    859    865     1
    863   1741     1
    863   1742     1
    864   1740     1
    865   1740     1
    866   1770     1
    866   1771     1
    867   1769     1
    868   1769     1
    870    877     1
    870    878     1
    871    876     1
    871    874     1
    871    875     1
    872    876     1
    872    874     1
    872    875     1
    874    898     1
    874    879     1
    874    877     1
    874    878     1
    875    898     1
    875    879     1
    875    877     1
    875    878     1
    876    881     1
    876    882     1
    876    890     1
    876    891     1
    877    880     1
    877    889     1
    878    880     1
    878    889     1
    879    884     1
    879    885     1
    879    893     1
    879    894     1
    880    890     1
    880    891     1
    881    889     1
    881    886     1
    881    884     1
    881    885     1
    882    889     1
    882    886     1
    882    884     1
    882    885     1
    884    887     1
    884    888     1
    885    887     1
    885    888     1
    890    895     1
    890    893     1
    890    894     1
    891    895     1
    891    893     1
    891    894     1
    893    896     1
    893    897     1
    894    896     1
    894    897     1
    899    906     1
    899    907     1
    900    905     1
    900    903     1
    900    904     1
    901    905     1
    901    903     1
    901    904     1
    903    908     1
    903    906     1
    903    907     1
    903    927     1
    904    908     1
    904    906     1
    904    907     1
    904    927     1
    905    910     1
    905    911     1
    905    919     1
    905    920     1
    906    909     1
    906    918     1
    907    909     1
    907    918     1
    908    913     1
    908    914     1
    908    922     1
    908    923     1
    909    919     1
    909    920     1
    910    915     1
    910    913     1
    910    914     1
    910    918     1
    911    915     1
    911    913     1
    911    914     1
    911    918     1
    913    916     1
    913    917     1
    914    916     1
    914    917     1
    919    924     1
    919    922     1
    919    923     1
    920    924     1
    920    922     1
    920    923     1
    922    925     1
    922    926     1
    923    925     1
    923    926     1
    928    935     1
    928    936     1
    929    934     1
    929    932     1
    929    933     1
    930    934     1
    930    932     1
    930    933     1
    932    956     1
    932    937     1
    932    935     1
    932    936     1
    933    956     1
    933    937     1
    933    935     1
    933    936     1
    934    939     1
    934    940     1
    934    948     1
    934    949     1
    935    938     1
    935    947     1
    936    938     1
    936    947     1
    937    942     1
    937    943     1
    937    951     1
    937    952     1
    938    948     1
    938    949     1
    939    947     1
    939    944     1
    939    942     1
    939    943     1
    940    947     1
    940    944     1
    940    942     1
    940    943     1
    942    945     1
    942    946     1
    943    945     1
    943    946     1
    948    953     1
    948    951     1
    948    952     1
    949    953     1
    949    951     1
    949    952     1
    951    954     1
    951    955     1
    952    954     1
    952    955     1
    957    964     1
    957    965     1
    958    963     1
    958    961     1
    958    962     1
    959    963     1
    959    961     1
    959    962     1
    961    966     1
    961    964     1
    961    965     1
    961    985     1
    962    966     1
    962    964     1
    962    965     1
    962    985     1
    963    968     1
    963    969     1
    963    977     1
    963    978     1
    964    967     1
    964    976     1
    965    967     1
    965    976     1
    966    971     1
    966    972     1
    966    980     1
    966    981     1
    967    977     1
    967    978     1
    968    973     1
    968    971     1
    968    972     1
    968    976     1
    969    973     1
    969    971     1
    969    972     1
    969    976     1
    971    974     1
    971    975     1
    972    974     1
    972    975     1
    977    982     1
    977    980     1
    977    981     1
    978    982     1
    978    980     1
    978    981     1
    980    983     1
    980    984     1
    981    983     1
    981    984     1
    986    993     1
    986    994     1
    987    992     1
    987    990     1
    987    991     1
    988    992     1
    988    990     1
    988    991     1
    990   1014     1
    990    995     1
    990    993     1
    990    994     1
    991   1014     1
    991    995     1
    991    993     1
    991    994     1
    992    997     1
    992    998     1
    992   1006     1
    992   1007     1
    993    996     1
    993   1005     1
    994    996     1
    994   1005     1
    995   1000     1
    995   1001     1
    995   1009     1
    995   1010     1
    996   1006     1
    996   1007     1
    997   1005     1
    997   1002     1
    997   1000     1
    997   1001     1
    998   1005     1
    998   1002     1
    998   1000     1
    998   1001     1
   1000   1003     1
   1000   1004     1
   1001   1003     1
   1001   1004     1
   1006   1011     1
   1006   1009     1
   1006   1010     1
   1007   1011     1
   1007   1009     1
   1007   1010     1
   1009   1012     1
   1009   1013     1
   1010   1012     1
   1010   1013     1
   1015   1022     1
   1015   1023     1
   1016   1021     1
   1016   1019     1
   1016   1020     1
   1017   1021     1
   1017   1019     1
   1017   1020     1
   1019   1024     1
   1019   1022     1
   1019   1023     1
   1019   1043     1
   1020   1024     1
   1020   1022     1
   1020   1023     1
   1020   1043     1
   1021   1026     1
   1021   1027     1
   1021   1035     1
   1021   1036     1
   1022   1025     1
   1022   1034     1
   1023   1025     1
   1023   1034     1
   1024   1029     1
   1024   1030     1
   1024   1038     1
   1024   1039     1
   1025   1035     1
   1025   1036     1
   1026   1031     1
   1026   1029     1
   1026   1030     1
   1026   1034     1
   1027   1031     1
   1027   1029     1
   1027   1030     1
   1027   1034     1
   1029   1032     1
   1029   1033     1
   1030   1032     1
   1030   1033     1
   1035   1040     1
   1035   1038     1
   1035   1039     1
   1036   1040     1
   1036   1038     1
   1036   1039     1
   1038   1041     1
   1038   1042     1
   1039   1041     1
   1039   1042     1
   1044   1051     1
   1044   1052     1
   1045   1050     1
   1045   1048     1
   1045   1049     1
   1046   1050     1
   1046   1048     1
   1046   1049     1
   1048   1072     1
   1048   1053     1
   1048   1051     1
   1048   1052     1
   1049   1072     1
   1049   1053     1
   1049   1051     1
   1049   1052     1
   1050   1055     1
   1050   1056     1
   1050   1064     1
   1050   1065     1
   1051   1054     1
   1051   1063     1
   1052   1054     1
   1052   1063     1
   1053   1058     1
   1053   1059     1
   1053   1067     1
   1053   1068     1
   1054   1064     1
   1054   1065     1
   1055   1063     1
   1055   1060     1
   1055   1058     1
   1055   1059     1
   1056   1063     1
   1056   1060     1
   1056   1058     1
   1056   1059     1
   1058   1061     1
   1058   1062     1
   1059   1061     1
   1059   1062     1
   1064   1069     1
   1064   1067     1
   1064   1068     1
   1065   1069     1
   1065   1067     1
   1065   1068     1
   1067   1070     1
   1067   1071     1
   1068   1070     1
   1068   1071     1
   1073   1080     1
   1073   1081     1
   1074   1079     1
   1074   1077     1
   1074   1078     1
   1075   1079     1
   1075   1077     1
   1075   1078     1
   1077   1082     1
   1077   1080     1
   1077   1081     1
   1077   1101     1
   1078   1082     1
   1078   1080     1
   1078   1081     1
   1078   1101     1
   1079   1084     1
   1079   1085     1
   1079   1093     1
   1079   1094     1
   1080   1083     1
   1080   1092     1
   1081   1083     1
   1081   1092     1
   1082   1087     1
   1082   1088     1
   1082   1096     1
   1082   1097     1
   1083   1093     1
   1083   1094     1
   1084   1089     1
   1084   1087     1
   1084   1088     1
   1084   1092     1
   1085   1089     1
   1085   1087     1
   1085   1088     1
   1085   1092     1
   1087   1090     1
   1087   1091     1
   1088   1090     1
   1088   1091     1
   1093   1098     1
   1093   1096     1
   1093   1097     1
   1094   1098     1
   1094   1096     1
   1094   1097     1
   1096   1099     1
   1096   1100     1
   1097   1099     1
   1097   1100     1
   1102   1109     1
   1102   1110     1
   1103   1108     1
   1103   1106     1
   1103   1107     1
   1104   1108     1
   1104   1106     1
   1104   1107     1
   1106   1130     1
   1106   1111     1
   1106   1109     1
   1106   1110     1
   1107   1130     1
   1107   1111     1
   1107   1109     1
   1107   1110     1
   1108   1113     1
   1108   1114     1
   1108   1122     1
   1108   1123     1
   1109   1112     1
   1109   1121     1
   1110   1112     1
   1110   1121     1
   1111   1116     1
   1111   1117     1
   1111   1125     1
   1111   1126     1
   1112   1122     1
   1112   1123     1
   1113   1121     1
   1113   1118     1
   1113   1116     1
   1113   1117     1
   1114   1121     1
   1114   1118     1
   1114   1116     1
   1114   1117     1
   1116   1119     1
   1116   1120     1
   1117   1119     1
   1117   1120     1
   1122   1127     1
   1122   1125     1
   1122   1126     1
   1123   1127     1
   1123   1125     1
   1123   1126     1
   1125   1128     1
   1125   1129     1
   1126   1128     1
   1126   1129     1
   1131   1138     1
   1131   1139     1
   1132   1137     1
   1132   1135     1
   1132   1136     1
   1133   1137     1
   1133   1135     1
   1133   1136     1
   1135   1140     1
   1135   1138     1
   1135   1139     1
   1135   1159     1
   1136   1140     1
   1136   1138     1
   1136   1139     1
   1136   1159     1
   1137   1142     1
   1137   1143     1
   1137   1151     1
   1137   1152     1
   1138   1141     1
   1138   1150     1
   1139   1141     1
   1139   1150     1
   1140   1145     1
   1140   1146     1
   1140   1154     1
   1140   1155     1
   1141   1151     1
   1141   1152     1
   1142   1147     1
   1142   1145     1
   1142   1146     1
   1142   1150     1
   1143   1147     1
   1143   1145     1
   1143   1146     1
   1143   1150     1
   1145   1148     1
   1145   1149     1
   1146   1148     1
   1146   1149     1
   1151   1156     1
   1151   1154     1
   1151   1155     1
   1152   1156     1
   1152   1154     1
   1152   1155     1
   1154   1157     1
   1154   1158     1
   1155   1157     1
   1155   1158     1
   1160   1167     1
   1160   1168     1
   1161   1166     1
   1161   1164     1
   1161   1165     1
   1162   1166     1
   1162   1164     1
   1162   1165     1
   1164   1188     1
   1164   1169     1
   1164   1167     1
   1164   1168     1
   1165   1188     1
   1165   1169     1
   1165   1167     1
   1165   1168     1
   1166   1171     1
   1166   1172     1
   1166   1180     1
   1166   1181     1
   1167   1170     1
   1167   1179     1
   1168   1170     1
   1168   1179     1
   1169   1174     1
   1169   1175     1
   1169   1183     1
   1169   1184     1
   1170   1180     1
   1170   1181     1
   1171   1179     1
   1171   1176     1
   1171   1174     1
   1171   1175     1
   1172   1179     1
   1172   1176     1
   1172   1174     1
   1172   1175     1
   1174   1177     1
   1174   1178     1
   1175   1177     1
   1175   1178     1
   1180   1185     1
   1180   1183     1
   1180   1184     1
   1181   1185     1
   1181   1183     1
   1181   1184     1
   1183   1186     1
   1183   1187     1
   1184   1186     1
   1184   1187     1
   1189   1196     1
   1189   1197     1
   1190   1195     1
   1190   1193     1
   1190   1194     1
   1191   1195     1
   1191   1193     1
   1191   1194     1
   1193   1198     1
   1193   1196     1
   1193   1197     1
   1193   1217     1
   1194   1198     1
   1194   1196     1
   1194   1197     1
   1194   1217     1
   1195   1200     1
   1195   1201     1
   1195   1209     1
   1195   1210     1
   1196   1199     1
   1196   1208     1
   1197   1199     1
   1197   1208     1
   1198   1203     1
   1198   1204     1
   1198   1212     1
   1198   1213     1
   1199   1209     1
   1199   1210     1
   1200   1205     1
   1200   1203     1
   1200   1204     1
   1200   1208     1
   1201   1205     1
   1201   1203     1
   1201   1204     1
   1201   1208     1
   1203   1206     1
   1203   1207     1
   1204   1206     1
   1204   1207     1
   1209   1214     1
   1209   1212     1
   1209   1213     1
   1210   1214     1
   1210   1212     1
   1210   1213     1
   1212   1215     1
   1212   1216     1
   1213   1215     1
   1213   1216     1
   1218   1225     1
   1218   1226     1
   1219   1224     1
   1219   1222     1
   1219   1223     1
   1220   1224     1
   1220   1222     1
   1220   1223     1
   1222   1246     1
   1222   1227     1
   1222   1225     1
   1222   1226     1
   1223   1246     1
   1223   1227     1
   1223   1225     1
   1223   1226     1
   1224   1229     1
   1224   1230     1
   1224   1238     1
   1224   1239     1
   1225   1228     1
   1225   1237     1
   1226   1228     1
   1226   1237     1
   1227   1232     1
   1227   1233     1
   1227   1241     1
   1227   1242     1
   1228   1238     1
   1228   1239     1
   1229   1237     1
   1229   1234     1
   1229   1232     1
   1229   1233     1
   1230   1237     1
   1230   1234     1
   1230   1232     1
   1230   1233     1
   1232   1235     1
   1232   1236     1
   1233   1235     1
   1233   1236     1
   1238   1243     1
   1238   1241     1
   1238   1242     1
   1239   1243     1
   1239   1241     1
   1239   1242     1
   1241   1244     1
   1241   1245     1
   1242   1244     1
   1242   1245     1
   1247   1254     1
   1247   1255     1
   1248   1253     1
   1248   1251     1
   1248   1252     1
   1249   1253     1
   1249   1251     1
   1249   1252     1
   1251   1256     1
   1251   1254     1
   1251   1255     1
   1251   1275     1
   1252   1256     1
   1252   1254     1
   1252   1255     1
   1252   1275     1
   1253   1258     1
   1253   1259     1
   1253   1267     1
   1253   1268     1
   1254   1257     1
   1254   1266     1
   1255   1257     1
   1255   1266     1
   1256   1261     1
   1256   1262     1
   1256   1270     1
   1256   1271     1
   1257   1267     1
   1257   1268     1
   1258   1263     1
   1258   1261     1
   1258   1262     1
   1258   1266     1
   1259   1263     1
   1259   1261     1
   1259   1262     1
   1259   1266     1
   1261   1264     1
   1261   1265     1
   1262   1264     1
   1262   1265     1
   1267   1272     1
   1267   1270     1
   1267   1271     1
   1268   1272     1
   1268   1270     1
   1268   1271     1
   1270   1273     1
   1270   1274     1
   1271   1273     1
   1271   1274     1
   1276   1283     1
   1276   1284     1
   1277   1282     1
   1277   1280     1
   1277   1281     1
   1278   1282     1
   1278   1280     1
   1278   1281     1
   1280   1304     1
   1280   1285     1
   1280   1283     1
   1280   1284     1
   1281   1304     1
   1281   1285     1
   1281   1283     1
   1281   1284     1
   1282   1287     1
   1282   1288     1
   1282   1296     1
   1282   1297     1
   1283   1286     1
   1283   1295     1
   1284   1286     1
   1284   1295     1
   1285   1290     1
   1285   1291     1
   1285   1299     1
   1285   1300     1
   1286   1296     1
   1286   1297     1
   1287   1295     1
   1287   1292     1
   1287   1290     1
   1287   1291     1
   1288   1295     1
   1288   1292     1
   1288   1290     1
   1288   1291     1
   1290   1293     1
   1290   1294     1
   1291   1293     1
   1291   1294     1
   1296   1301     1
   1296   1299     1
   1296   1300     1
   1297   1301     1
   1297   1299     1
   1297   1300     1
   1299   1302     1
   1299   1303     1
   1300   1302     1
   1300   1303     1
   1305   1312     1
   1305   1313     1
   1306   1311     1
   1306   1309     1
   1306   1310     1
   1307   1311     1
   1307   1309     1
   1307   1310     1
   1309   1314     1
   1309   1312     1
   1309   1313     1
   1309   1333     1
   1310   1314     1
   1310   1312     1
   1310   1313     1
   1310   1333     1
   1311   1316     1
   1311   1317     1
   1311   1325     1
   1311   1326     1
   1312   1315     1
   1312   1324     1
   1313   1315     1
   1313   1324     1
   1314   1319     1
   1314   1320     1
   1314   1328     1
   1314   1329     1
   1315   1325     1
   1315   1326     1
   1316   1321     1
   1316   1319     1
   1316   1320     1
   1316   1324     1
   1317   1321     1
   1317   1319     1
   1317   1320     1
   1317   1324     1
   1319   1322     1
   1319   1323     1
   1320   1322     1
   1320   1323     1
   1325   1330     1
   1325   1328     1
   1325   1329     1
   1326   1330     1
   1326   1328     1
   1326   1329     1
   1328   1331     1
   1328   1332     1
   1329   1331     1
   1329   1332     1
   1334   1341     1
   1334   1342     1
   1335   1340     1
   1335   1338     1
   1335   1339     1
   1336   1340     1
   1336   1338     1
   1336   1339     1
   1338   1362     1
   1338   1343     1
   1338   1341     1
   1338   1342     1
   1339   1362     1
   1339   1343     1
   1339   1341     1
   1339   1342     1
   1340   1345     1
   1340   1346     1
   1340   1354     1
   1340   1355     1
   1341   1344     1
   1341   1353     1
   1342   1344     1
   1342   1353     1
   1343   1348     1
   1343   1349     1
   1343   1357     1
   1343   1358     1
   1344   1354     1
   1344   1355     1
   1345   1353     1
   1345   1350     1
   1345   1348     1
   1345   1349     1
   1346   1353     1
   1346   1350     1
   1346   1348     1
   1346   1349     1
   1348   1351     1
   1348   1352     1
   1349   1351     1
   1349   1352     1
   1354   1359     1
   1354   1357     1
   1354   1358     1
   1355   1359     1
   1355   1357     1
   1355   1358     1
   1357   1360     1
   1357   1361     1
   1358   1360     1
   1358   1361     1
   1363   1370     1
   1363   1371     1
   1364   1369     1
   1364   1367     1
   1364   1368     1
   1365   1369     1
   1365   1367     1
   1365   1368     1
   1367   1372     1
   1367   1370     1
   1367   1371     1
   1367   1391     1
   1368   1372     1
   1368   1370     1
   1368   1371     1
   1368   1391     1
   1369   1374     1
   1369   1375     1
   1369   1383     1
   1369   1384     1
   1370   1373     1
   1370   1382     1
   1371   1373     1
   1371   1382     1
   1372   1377     1
   1372   1378     1
   1372   1386     1
   1372   1387     1
   1373   1383     1
   1373   1384     1
   1374   1379     1
   1374   1377     1
   1374   1378     1
   1374   1382     1
   1375   1379     1
   1375   1377     1
   1375   1378     1
   1375   1382     1
   1377   1380     1
   1377   1381     1
   1378   1380     1
   1378   1381     1
   1383   1388     1
   1383   1386     1
   1383   1387     1
   1384   1388     1
   1384   1386     1
   1384   1387     1
   1386   1389     1
   1386   1390     1
   1387   1389     1
   1387   1390     1
   1392   1399     1
   1392   1400     1
   1393   1398     1
   1393   1396     1
   1393   1397     1
   1394   1398     1
   1394   1396     1
   1394   1397     1
   1396   1420     1
   1396   1401     1
   1396   1399     1
   1396   1400     1
   1397   1420     1
   1397   1401     1
   1397   1399     1
   1397   1400     1
   1398   1403     1
   1398   1404     1
   1398   1412     1
   1398   1413     1
   1399   1402     1
   1399   1411     1
   1400   1402     1
   1400   1411     1
   1401   1406     1
   1401   1407     1
   1401   1415     1
   1401   1416     1
   1402   1412     1
   1402   1413     1
   1403   1411     1
   1403   1408     1
   1403   1406     1
   1403   1407     1
   1404   1411     1
   1404   1408     1
   1404   1406     1
   1404   1407     1
   1406   1409     1
   1406   1410     1
   1407   1409     1
   1407   1410     1
   1412   1417     1
   1412   1415     1
   1412   1416     1
   1413   1417     1
   1413   1415     1
   1413   1416     1
   1415   1418     1
   1415   1419     1
   1416   1418     1
   1416   1419     1
   1421   1428     1
   1421   1429     1
   1422   1427     1
   1422   1425     1
   1422   1426     1
   1423   1427     1
   1423   1425     1
   1423   1426     1
   1425   1430     1
   1425   1428     1
   1425   1429     1
   1425   1449     1
   1426   1430     1
   1426   1428     1
   1426   1429     1
   1426   1449     1
   1427   1432     1
   1427   1433     1
   1427   1441     1
   1427   1442     1
   1428   1431     1
   1428   1440     1
   1429   1431     1
   1429   1440     1
   1430   1435     1
   1430   1436     1
   1430   1444     1
   1430   1445     1
   1431   1441     1
   1431   1442     1
   1432   1437     1
   1432   1435     1
   1432   1436     1
   1432   1440     1
   1433   1437     1
   1433   1435     1
   1433   1436     1
   1433   1440     1
   1435   1438     1
   1435   1439     1
   1436   1438     1
   1436   1439     1
   1441   1446     1
   1441   1444     1
   1441   1445     1
   1442   1446     1
   1442   1444     1
   1442   1445     1
   1444   1447     1
   1444   1448     1
   1445   1447     1
   1445   1448     1
   1450   1457     1
   1450   1458     1
   1451   1456     1
   1451   1454     1
   1451   1455     1
   1452   1456     1
   1452   1454     1
   1452   1455     1
   1454   1478     1
   1454   1459     1
   1454   1457     1
   1454   1458     1
   1455   1478     1
   1455   1459     1
   1455   1457     1
   1455   1458     1
   1456   1461     1
   1456   1462     1
   1456   1470     1
   1456   1471     1
   1457   1460     1
   1457   1469     1
   1458   1460     1
   1458   1469     1
   1459   1464     1
   1459   1465     1
   1459   1473     1
   1459   1474     1
   1460   1470     1
   1460   1471     1
   1461   1469     1
   1461   1466     1
   1461   1464     1
   1461   1465     1
   1462   1469     1
   1462   1466     1
   1462   1464     1
   1462   1465     1
   1464   1467     1
   1464   1468     1
   1465   1467     1
   1465   1468     1
   1470   1475     1
   1470   1473     1
   1470   1474     1
   1471   1475     1
   1471   1473     1
   1471   1474     1
   1473   1476     1
   1473   1477     1
   1474   1476     1
   1474   1477     1
   1479   1486     1
   1479   1487     1
   1480   1485     1
   1480   1483     1
   1480   1484     1
   1481   1485     1
   1481   1483     1
   1481   1484     1
   1483   1488     1
   1483   1486     1
   1483   1487     1
   1483   1507     1
   1484   1488     1
   1484   1486     1
   1484   1487     1
   1484   1507     1
   1485   1490     1
   1485   1491     1
   1485   1499     1
   1485   1500     1
   1486   1489     1
   1486   1498     1
   1487   1489     1
   1487   1498     1
   1488   1493     1
   1488   1494     1
   1488   1502     1
   1488   1503     1
   1489   1499     1
   1489   1500     1
   1490   1495     1
   1490   1493     1
   1490   1494     1
   1490   1498     1
   1491   1495     1
   1491   1493     1
   1491   1494     1
   1491   1498     1
   1493   1496     1
   1493   1497     1
   1494   1496     1
   1494   1497     1
   1499   1504     1
   1499   1502     1
   1499   1503     1
   1500   1504     1
   1500   1502     1
   1500   1503     1
   1502   1505     1
   1502   1506     1
   1503   1505     1
   1503   1506     1
   1508   1515     1
   1508   1516     1
   1509   1514     1
   1509   1512     1
   1509   1513     1
   1510   1514     1
   1510   1512     1
   1510   1513     1
   1512   1536     1
   1512   1517     1
   1512   1515     1
   1512   1516     1
   1513   1536     1
   1513   1517     1
   1513   1515     1
   1513   1516     1
   1514   1519     1
   1514   1520     1
   1514   1528     1
   1514   1529     1
   1515   1518     1
   1515   1527     1
   1516   1518     1
   1516   1527     1
   1517   1522     1
   1517   1523     1
   1517   1531     1
   1517   1532     1
   1518   1528     1
   1518   1529     1
   1519   1527     1
   1519   1524     1
   1519   1522     1
   1519   1523     1
   1520   1527     1
   1520   1524     1
   1520   1522     1
   1520   1523     1
   1522   1525     1
   1522   1526     1
   1523   1525     1
   1523   1526     1
   1528   1533     1
   1528   1531     1
   1528   1532     1
   1529   1533     1
   1529   1531     1
   1529   1532     1
   1531   1534     1
   1531   1535     1
   1532   1534     1
   1532   1535     1
   1537   1544     1
   1537   1545     1
   1538   1543     1
   1538   1541     1
   1538   1542     1
   1539   1543     1
   1539   1541     1
   1539   1542     1
   1541   1546     1
   1541   1544     1
   1541   1545     1
   1541   1565     1
   1542   1546     1
   1542   1544     1
   1542   1545     1
   1542   1565     1
   1543   1548     1
   1543   1549     1
   1543   1557     1
   1543   1558     1
   1544   1547     1
   1544   1556     1
   1545   1547     1
   1545   1556     1
   1546   1551     1
   1546   1552     1
   1546   1560     1
   1546   1561     1
   1547   1557     1
   1547   1558     1
   1548   1553     1
   1548   1551     1
   1548   1552     1
   1548   1556     1
   1549   1553     1
   1549   1551     1
   1549   1552     1
   1549   1556     1
   1551   1554     1
   1551   1555     1
   1552   1554     1
   1552   1555     1
   1557   1562     1
   1557   1560     1
   1557   1561     1
   1558   1562     1
   1558   1560     1
   1558   1561     1
   1560   1563     1
   1560   1564     1
   1561   1563     1
   1561   1564     1
   1566   1573     1
   1566   1574     1
   1567   1572     1
   1567   1570     1
   1567   1571     1
   1568   1572     1
   1568   1570     1
   1568   1571     1
   1570   1594     1
   1570   1575     1
   1570   1573     1
   1570   1574     1
   1571   1594     1
   1571   1575     1
   1571   1573     1
   1571   1574     1
   1572   1577     1
   1572   1578     1
   1572   1586     1
   1572   1587     1
   1573   1576     1
   1573   1585     1
   1574   1576     1
   1574   1585     1
   1575   1580     1
   1575   1581     1
   1575   1589     1
   1575   1590     1
   1576   1586     1
   1576   1587     1
   1577   1585     1
   1577   1582     1
   1577   1580     1
   1577   1581     1
   1578   1585     1
   1578   1582     1
   1578   1580     1
   1578   1581     1
   1580   1583     1
   1580   1584     1
   1581   1583     1
   1581   1584     1
   1586   1591     1
   1586   1589     1
   1586   1590     1
   1587   1591     1
   1587   1589     1
   1587   1590     1
   1589   1592     1
   1589   1593     1
   1590   1592     1
   1590   1593     1
   1595   1602     1
   1595   1603     1
   1596   1601     1
   1596   1599     1
   1596   1600     1
   1597   1601     1
   1597   1599     1
   1597   1600     1
   1599   1604     1
   1599   1602     1
   1599   1603     1
   1599   1623     1
   1600   1604     1
   1600   1602     1
   1600   1603     1
   1600   1623     1
   1601   1606     1
   1601   1607     1
   1601   1615     1
   1601   1616     1
   1602   1605     1
   1602   1614     1
   1603   1605     1
   1603   1614     1
   1604   1609     1
   1604   1610     1
   1604   1618     1
   1604   1619     1
   1605   1615     1
   1605   1616     1
   1606   1611     1
   1606   1609     1
   1606   1610     1
   1606   1614     1
   1607   1611     1
   1607   1609     1
   1607   1610     1
   1607   1614     1
   1609   1612     1
   1609   1613     1
   1610   1612     1
   1610   1613     1
   1615   1620     1
   1615   1618     1
   1615   1619     1
   1616   1620     1
   1616   1618     1
   1616   1619     1
   1618   1621     1
   1618   1622     1
   1619   1621     1
   1619   1622     1
   1624   1631     1
   1624   1632     1
   1625   1630     1
   1625   1628     1
   1625   1629     1
   1626   1630     1
   1626   1628     1
   1626   1629     1
   1628   1652     1
   1628   1633     1
   1628   1631     1
   1628   1632     1
   1629   1652     1
   1629   1633     1
   1629   1631     1
   1629   1632     1
   1630   1635     1
   1630   1636     1
   1630   1644     1
   1630   1645     1
   1631   1634     1
   1631   1643     1
   1632   1634     1
   1632   1643     1
   1633   1638     1
   1633   1639     1
   1633   1647     1
   1633   1648     1
   1634   1644     1
   1634   1645     1
   1635   1643     1
   1635   1640     1
   1635   1638     1
   1635   1639     1
   1636   1643     1
   1636   1640     1
   1636   1638     1
   1636   1639     1
   1638   1641     1
   1638   1642     1
   1639   1641     1
   1639   1642     1
   1644   1649     1
   1644   1647     1
   1644   1648     1
   1645   1649     1
   1645   1647     1
   1645   1648     1
   1647   1650     1
   1647   1651     1
   1648   1650     1
   1648   1651     1
   1653   1660     1
   1653   1661     1
   1654   1659     1
   1654   1657     1
   1654   1658     1
   1655   1659     1
   1655   1657     1
   1655   1658     1
   1657   1662     1
   1657   1660     1
   1657   1661     1
   1657   1681     1
   1658   1662     1
   1658   1660     1
   1658   1661     1
   1658   1681     1
   1659   1664     1
   1659   1665     1
   1659   1673     1
   1659   1674     1
   1660   1663     1
   1660   1672     1
   1661   1663     1
   1661   1672     1
   1662   1667     1
   1662   1668     1
   1662   1676     1
   1662   1677     1
   1663   1673     1
   1663   1674     1
   1664   1669     1
   1664   1667     1
   1664   1668     1
   1664   1672     1
   1665   1669     1
   1665   1667     1
   1665   1668     1
   1665   1672     1
   1667   1670     1
   1667   1671     1
   1668   1670     1
   1668   1671     1
   1673   1678     1
   1673   1676     1
   1673   1677     1
   1674   1678     1
   1674   1676     1
   1674   1677     1
   1676   1679     1
   1676   1680     1
   1677   1679     1
   1677   1680     1
   1682   1689     1
   1682   1690     1
   1683   1688     1
   1683   1686     1
   1683   1687     1
   1684   1688     1
   1684   1686     1
   1684   1687     1
   1686   1710     1
   1686   1691     1
   1686   1689     1
   1686   1690     1
   1687   1710     1
   1687   1691     1
   1687   1689     1
   1687   1690     1
   1688   1693     1
   1688   1694     1
   1688   1702     1
   1688   1703     1
   1689   1692     1
   1689   1701     1
   1690   1692     1
   1690   1701     1
   1691   1696     1
   1691   1697     1
   1691   1705     1
   1691   1706     1
   1692   1702     1
   1692   1703     1
   1693   1701     1
   1693   1698     1
   1693   1696     1
   1693   1697     1
   1694   1701     1
   1694   1698     1
   1694   1696     1
   1694   1697     1
   1696   1699     1
   1696   1700     1
   1697   1699     1
   1697   1700     1
   1702   1707     1
   1702   1705     1
   1702   1706     1
   1703   1707     1
   1703   1705     1
   1703   1706     1
   1705   1708     1
   1705   1709     1
   1706   1708     1
   1706   1709     1
   1711   1718     1
   1711   1719     1
   1712   1717     1
   1712   1715     1
   1712   1716     1
   1713   1717     1
   1713   1715     1
   1713   1716     1
   1715   1720     1
   1715   1718     1
   1715   1719     1
   1715   1739     1
   1716   1720     1
   1716   1718     1
   1716   1719     1
   1716   1739     1
   1717   1722     1
   1717   1723     1
   1717   1731     1
   1717   1732     1
   1718   1721     1
   1718   1730     1
   1719   1721     1
   1719   1730     1
   1720   1725     1
   1720   1726     1
   1720   1734     1
   1720   1735     1
   1721   1731     1
   1721   1732     1
   1722   1727     1
   1722   1725     1
   1722   1726     1
   1722   1730     1
   1723   1727     1
   1723   1725     1
   1723   1726     1
   1723   1730     1
   1725   1728     1
   1725   1729     1
   1726   1728     1
   1726   1729     1
   1731   1736     1
   1731   1734     1
   1731   1735     1
   1732   1736     1
   1732   1734     1
   1732   1735     1
   1734   1737     1
   1734   1738     1
   1735   1737     1
   1735   1738     1
   1740   1747     1
   1740   1748     1
   1741   1746     1
   1741   1744     1
   1741   1745     1
   1742   1746     1
   1742   1744     1
   1742   1745     1
   1744   1768     1
   1744   1749     1
   1744   1747     1
   1744   1748     1
   1745   1768     1
   1745   1749     1
   1745   1747     1
   1745   1748     1
   1746   1751     1
   1746   1752     1
   1746   1760     1
   1746   1761     1
   1747   1750     1
   1747   1759     1
   1748   1750     1
   1748   1759     1
   1749   1754     1
   1749   1755     1
   1749   1763     1
   1749   1764     1
   1750   1760     1
   1750   1761     1
   1751   1759     1
   1751   1756     1
   1751   1754     1
   1751   1755     1
   1752   1759     1
   1752   1756     1
   1752   1754     1
   1752   1755     1
   1754   1757     1
   1754   1758     1
   1755   1757     1
   1755   1758     1
   1760   1765     1
   1760   1763     1
   1760   1764     1
   1761   1765     1
   1761   1763     1
   1761   1764     1
   1763   1766     1
   1763   1767     1
   1764   1766     1
   1764   1767     1
   1769   1776     1
   1769   1777     1
   1770   1775     1
   1770   1773     1
   1770   1774     1
   1771   1775     1
   1771   1773     1
   1771   1774     1
   1773   1778     1
   1773   1776     1
   1773   1777     1
   1773   1797     1
   1774   1778     1
   1774   1776     1
   1774   1777     1
   1774   1797     1
   1775   1780     1
   1775   1781     1
   1775   1789     1
   1775   1790     1
   1776   1779     1
   1776   1788     1
   1777   1779     1
   1777   1788     1
   1778   1783     1
   1778   1784     1
   1778   1792     1
   1778   1793     1
   1779   1789     1
   1779   1790     1
   1780   1785     1
   1780   1783     1
   1780   1784     1
   1780   1788     1
   1781   1785     1
   1781   1783     1
   1781   1784     1
   1781   1788     1
   1783   1786     1
   1783   1787     1
   1784   1786     1
   1784   1787     1
   1789   1794     1
   1789   1792     1
   1789   1793     1
   1790   1794     1
   1790   1792     1
   1790   1793     1
   1792   1795     1
   1792   1796     1
   1793   1795     1
   1793   1796     1

[ angles ]
;    ai     aj     ak funct         c0         c1         c2         c3
      1      2      8     1   107.9700462 569.024000
      1      5     11     1   107.9700462 569.024000
      2      1      5     1   112.4800480 524.673600
      2      8     14     1   111.5100476 526.347200
      5     11     17     1   111.5100476 526.347200
      8     14     20     1   111.0400475 552.288000
     11     17     21     1   111.0400475 552.288000
     14     20     28     1   112.3500484 533.878400
     14     20     31     1   112.3500484 533.878400
     17     21     22     1   112.3500484 533.878400
     17     21     25     1   112.3500484 533.878400
     20     28     40     1   111.0400475 552.288000
     20     31     43     1   111.0400475 552.288000
     21     22     34     1   111.0400475 552.288000
     21     25     37     1   111.0400475 552.288000
     22     21     25     1   112.3500484 533.878400
     22     34     55     1   111.5100476 526.347200
     25     37     52     1   111.5100476 526.347200
     28     20     31     1   112.3500484 533.878400
     28     40     49     1   111.5100476 526.347200
     31     43     46     1   111.5100476 526.347200
     34     55    173     1   107.9700462 569.024000
     37     52    144     1   107.9700462 569.024000
     40     49    115     1   107.9700462 569.024000
     43     46     86     1   107.9700462 569.024000
     46     86     77     1   112.4800480 524.673600
     49    115    106     1   112.4800480 524.673600
     52    144    135     1   112.4800480 524.673600
     55    173    164     1   112.4800480 524.673600
     58     59     71     1   111.0400475 552.288000
     58     62     74     1   111.0400475 552.288000
     58     65     68     1   111.0400475 552.288000
     59     58     62     1   112.3500484 533.878400
     59     58     65     1   112.3500484 533.878400
     59     71     83     1   111.5100476 526.347200
     62     58     65     1   112.3500484 533.878400
     62     74     80     1   111.5100476 526.347200
     65     68     77     1   111.5100476 526.347200
     68     77     86     1   107.9700462 569.024000
     71     83    231     1   107.9700462 569.024000
     74     80    202     1   107.9700462 569.024000
     80    202    193     1   112.4800480 524.673600
     83    231    222     1   112.4800480 524.673600
     87     88    100     1   111.0400475 552.288000
     87     91    103     1   111.0400475 552.288000
     87     94     97     1   111.0400475 552.288000
     88     87     91     1   112.3500484 533.878400
     88     87     94     1   112.3500484 533.878400
     88    100    112     1   111.5100476 526.347200
     91     87     94     1   112.3500484 533.878400
     91    103    109     1   111.5100476 526.347200
     94     97    106     1   111.5100476 526.347200
     97    106    115     1   107.9700462 569.024000
    100    112    289     1   107.9700462 569.024000
    103    109    260     1   107.9700462 569.024000
    109    260    251     1   112.4800480 524.673600
    112    289    280     1   112.4800480 524.673600
    116    117    129     1   111.0400475 552.288000
    116    120    132     1   111.0400475 552.288000
    116    123    126     1   111.0400475 552.288000
    117    116    120     1   112.3500484 533.878400
    117    116    123     1   112.3500484 533.878400
    117    129    141     1   111.5100476 526.347200
    120    116    123     1   112.3500484 533.878400
    120    132    138     1   111.5100476 526.347200
    123    126    135     1   111.5100476 526.347200
    126    135    144     1   107.9700462 569.024000
    129    141    347     1   107.9700462 569.024000
    132    138    318     1   107.9700462 569.024000
    138    318    309     1   112.4800480 524.673600
    141    347    338     1   112.4800480 524.673600
    145    146    158     1   111.0400475 552.288000
    145    149    161     1   111.0400475 552.288000
    145    152    155     1   111.0400475 552.288000
    146    145    149     1   112.3500484 533.878400
    146    145    152     1   112.3500484 533.878400
    146    158    170     1   111.5100476 526.347200
    149    145    152     1   112.3500484 533.878400
    149    161    167     1   111.5100476 526.347200
    152    155    164     1   111.5100476 526.347200
    155    164    173     1   107.9700462 569.024000
    158    170    405     1   107.9700462 569.024000
    161    167    376     1   107.9700462 569.024000
    167    376    367     1   112.4800480 524.673600
    170    405    396     1   112.4800480 524.673600
    174    175    187     1   111.0400475 552.288000
    174    178    190     1   111.0400475 552.288000
    174    181    184     1   111.0400475 552.288000
    175    174    178     1   112.3500484 533.878400
    175    174    181     1   112.3500484 533.878400
    175    187    199     1   111.5100476 526.347200
    178    174    181     1   112.3500484 533.878400
    178    190    196     1   111.5100476 526.347200
    181    184    193     1   111.5100476 526.347200
    184    193    202     1   107.9700462 569.024000
    187    199    463     1   107.9700462 569.024000
    190    196    434     1   107.9700462 569.024000
    196    434    425     1   112.4800480 524.673600
    199    463    454     1   112.4800480 524.673600
    203    204    216     1   111.0400475 552.288000
    203    207    219     1   111.0400475 552.288000
    203    210    213     1   111.0400475 552.288000
    204    203    207     1   112.3500484 533.878400
    204    203    210     1   112.3500484 533.878400
    204    216    228     1   111.5100476 526.347200
    207    203    210     1   112.3500484 533.878400
    207    219    225     1   111.5100476 526.347200
    210    213    222     1   111.5100476 526.347200
    213    222    231     1   107.9700462 569.024000
    216    228    521     1   107.9700462 569.024000
    219    225    492     1   107.9700462 569.024000
    225    492    483     1   112.4800480 524.673600
    228    521    512     1   112.4800480 524.673600
    232    233    245     1   111.0400475 552.288000
    232    236    248     1   111.0400475 552.288000
    232    239    242     1   111.0400475 552.288000
    233    232    236     1   112.3500484 533.878400
    233    232    239     1   112.3500484 533.878400
    233    245    257     1   111.5100476 526.347200
    236    232    239     1   112.3500484 533.878400
    236    248    254     1   111.5100476 526.347200
    239    242    251     1   111.5100476 526.347200
    242    251    260     1   107.9700462 569.024000
    245    257    579     1   107.9700462 569.024000
    248    254    550     1   107.9700462 569.024000
    254    550    541     1   112.4800480 524.673600
    257    579    570     1   112.4800480 524.673600
    261    262    274     1   111.0400475 552.288000
    261    265    277     1   111.0400475 552.288000
    261    268    271     1   111.0400475 552.288000
    262    261    265     1   112.3500484 533.878400
    262    261    268     1   112.3500484 533.878400
    262    274    286     1   111.5100476 526.347200
    265    261    268     1   112.3500484 533.878400
    265    277    283     1   111.5100476 526.347200
    268    271    280     1   111.5100476 526.347200
    271    280    289     1   107.9700462 569.024000
    274    286    637     1   107.9700462 569.024000
    277    283    608     1   107.9700462 569.024000
    283    608    599     1   112.4800480 524.673600
    286    637    628     1   112.4800480 524.673600
    290    291    303     1   111.0400475 552.288000
    290    294    306     1   111.0400475 552.288000
    290    297    300     1   111.0400475 552.288000
    291    290    294     1   112.3500484 533.878400
    291    290    297     1   112.3500484 533.878400
    291    303    315     1   111.5100476 526.347200
    294    290    297     1   112.3500484 533.878400
    294    306    312     1   111.5100476 526.347200
    297    300    309     1   111.5100476 526.347200
    300    309    318     1   107.9700462 569.024000
    303    315    695     1   107.9700462 569.024000
    306    312    666     1   107.9700462 569.024000
    312    666    657     1   112.4800480 524.673600
    315    695    686     1   112.4800480 524.673600
    319    320    332     1   111.0400475 552.288000
    319    323    335     1   111.0400475 552.288000
    319    326    329     1   111.0400475 552.288000
    320    319    323     1   112.3500484 533.878400
    320    319    326     1   112.3500484 533.878400
    320    332    344     1   111.5100476 526.347200
    323    319    326     1   112.3500484 533.878400
    323    335    341     1   111.5100476 526.347200
    326    329    338     1   111.5100476 526.347200
    329    338    347     1   107.9700462 569.024000
    332    344    753     1   107.9700462 569.024000
    335    341    724     1   107.9700462 569.024000
    341    724    715     1   112.4800480 524.673600
    344    753    744     1   112.4800480 524.673600
    348    349    361     1   111.0400475 552.288000
    348    352    364     1   111.0400475 552.288000
    348    355    358     1   111.0400475 552.288000
    349    348    352     1   112.3500484 533.878400
    349    348    355     1   112.3500484 533.878400
    349    361    373     1   111.5100476 526.347200
    352    348    355     1   112.3500484 533.878400
    352    364    370     1   111.5100476 526.347200
    355    358    367     1   111.5100476 526.347200
    358    367    376     1   107.9700462 569.024000
    361    373    811     1   107.9700462 569.024000
    364    370    782     1   107.9700462 569.024000
    370    782    773     1   112.4800480 524.673600
    373    811    802     1   112.4800480 524.673600
    377    378    390     1   111.0400475 552.288000
    377    381    393     1   111.0400475 552.288000
    377    384    387     1   111.0400475 552.288000
    378    377    381     1   112.3500484 533.878400
    378    377    384     1   112.3500484 533.878400
    378    390    402     1   111.5100476 526.347200
    381    377    384     1   112.3500484 533.878400
    381    393    399     1   111.5100476 526.347200
    384    387    396     1   111.5100476 526.347200
    387    396    405     1   107.9700462 569.024000
    390    402    869     1   107.9700462 569.024000
    393    399    840     1   107.9700462 569.024000
    399    840    831     1   112.4800480 524.673600
    402    869    860     1   112.4800480 524.673600
    406    407    419     1   111.0400475 552.288000
    406    410    422     1   111.0400475 552.288000
    406    413    416     1   111.0400475 552.288000
    407    406    410     1   112.3500484 533.878400
    407    406    413     1   112.3500484 533.878400
    407    419    431     1   111.5100476 526.347200
    410    406    413     1   112.3500484 533.878400
    410    422    428     1   111.5100476 526.347200
    413    416    425     1   111.5100476 526.347200
    416    425    434     1   107.9700462 569.024000
    419    431    927     1   107.9700462 569.024000
    422    428    898     1   107.9700462 569.024000
    428    898    870     1   112.4800480 524.673600
    431    927    899     1   112.4800480 524.673600
    435    436    448     1   111.0400475 552.288000
    435    439    451     1   111.0400475 552.288000
    435    442    445     1   111.0400475 552.288000
    436    435    439     1   112.3500484 533.878400
    436    435    442     1   112.3500484 533.878400
    436    448    460     1   111.5100476 526.347200
    439    435    442     1   112.3500484 533.878400
    439    451    457     1   111.5100476 526.347200
    442    445    454     1   111.5100476 526.347200
    445    454    463     1   107.9700462 569.024000
    448    460    985     1   107.9700462 569.024000
    451    457    956     1   107.9700462 569.024000
    457    956    928     1   112.4800480 524.673600
    460    985    957     1   112.4800480 524.673600
    464    465    477     1   111.0400475 552.288000
    464    468    480     1   111.0400475 552.288000
    464    471    474     1   111.0400475 552.288000
    465    464    468     1   112.3500484 533.878400
    465    464    471     1   112.3500484 533.878400
    465    477    489     1   111.5100476 526.347200
    468    464    471     1   112.3500484 533.878400
    468    480    486     1   111.5100476 526.347200
    471    474    483     1   111.5100476 526.347200
    474    483    492     1   107.9700462 569.024000
    477    489   1043     1   107.9700462 569.024000
    480    486   1014     1   107.9700462 569.024000
    486   1014    986     1   112.4800480 524.673600
    489   1043   1015     1   112.4800480 524.673600
    493    494    506     1   111.0400475 552.288000
    493    497    509     1   111.0400475 552.288000
    493    500    503     1   111.0400475 552.288000
    494    493    497     1   112.3500484 533.878400
    494    493    500     1   112.3500484 533.878400
    494    506    518     1   111.5100476 526.347200
    497    493    500     1   112.3500484 533.878400
    497    509    515     1   111.5100476 526.347200
    500    503    512     1   111.5100476 526.347200
    503    512    521     1   107.9700462 569.024000
    506    518   1101     1   107.9700462 569.024000
    509    515   1072     1   107.9700462 569.024000
    515   1072   1044     1   112.4800480 524.673600
    518   1101   1073     1   112.4800480 524.673600
    522    523    535     1   111.0400475 552.288000
    522    526    538     1   111.0400475 552.288000
    522    529    532     1   111.0400475 552.288000
    523    522    526     1   112.3500484 533.878400
    523    522    529     1   112.3500484 533.878400
    523    535    547     1   111.5100476 526.347200
    526    522    529     1   112.3500484 533.878400
    526    538    544     1   111.5100476 526.347200
    529    532    541     1   111.5100476 526.347200
    532    541    550     1   107.9700462 569.024000
    535    547   1159     1   107.9700462 569.024000
    538    544   1130     1   107.9700462 569.024000
    544   1130   1102     1   112.4800480 524.673600
    547   1159   1131     1   112.4800480 524.673600
    551    552    564     1   111.0400475 552.288000
    551    555    567     1   111.0400475 552.288000
    551    558    561     1   111.0400475 552.288000
    552    551    555     1   112.3500484 533.878400
    552    551    558     1   112.3500484 533.878400
    552    564    576     1   111.5100476 526.347200
    555    551    558     1   112.3500484 533.878400
    555    567    573     1   111.5100476 526.347200
    558    561    570     1   111.5100476 526.347200
    561    570    579     1   107.9700462 569.024000
    564    576   1217     1   107.9700462 569.024000
    567    573   1188     1   107.9700462 569.024000
    573   1188   1160     1   112.4800480 524.673600
    576   1217   1189     1   112.4800480 524.673600
    580    581    593     1   111.0400475 552.288000
    580    584    596     1   111.0400475 552.288000
    580    587    590     1   111.0400475 552.288000
    581    580    584     1   112.3500484 533.878400
    581    580    587     1   112.3500484 533.878400
    581    593    605     1   111.5100476 526.347200
    584    580    587     1   112.3500484 533.878400
    584    596    602     1   111.5100476 526.347200
    587    590    599     1   111.5100476 526.347200
    590    599    608     1   107.9700462 569.024000
    593    605   1275     1   107.9700462 569.024000
    596    602   1246     1   107.9700462 569.024000
    602   1246   1218     1   112.4800480 524.673600
    605   1275   1247     1   112.4800480 524.673600
    609    610    622     1   111.0400475 552.288000
    609    613    625     1   111.0400475 552.288000
    609    616    619     1   111.0400475 552.288000
    610    609    613     1   112.3500484 533.878400
    610    609    616     1   112.3500484 533.878400
    610    622    634     1   111.5100476 526.347200
    613    609    616     1   112.3500484 533.878400
    613    625    631     1   111.5100476 526.347200
    616    619    628     1   111.5100476 526.347200
    619    628    637     1   107.9700462 569.024000
    622    634   1333     1   107.9700462 569.024000
    625    631   1304     1   107.9700462 569.024000
    631   1304   1276     1   112.4800480 524.673600
    634   1333   1305     1   112.4800480 524.673600
    638    639    651     1   111.0400475 552.288000
    638    642    654     1   111.0400475 552.288000
    638    645    648     1   111.0400475 552.288000
    639    638    642     1   112.3500484 533.878400
    639    638    645     1   112.3500484 533.878400
    639    651    663     1   111.5100476 526.347200
    642    638    645     1   112.3500484 533.878400
    642    654    660     1   111.5100476 526.347200
    645    648    657     1   111.5100476 526.347200
    648    657    666     1   107.9700462 569.024000
    651    663   1391     1   107.9700462 569.024000
    654    660   1362     1   107.9700462 569.024000
    660   1362   1334     1   112.4800480 524.673600
    663   1391   1363     1   112.4800480 524.673600
    667    668    680     1   111.0400475 552.288000
    667    671    683     1   111.0400475 552.288000
    667    674    677     1   111.0400475 552.288000
    668    667    671     1   112.3500484 533.878400
    668    667    674     1   112.3500484 533.878400
    668    680    692     1   111.5100476 526.347200
    671    667    674     1   112.3500484 533.878400
    671    683    689     1   111.5100476 526.347200
    674    677    686     1   111.5100476 526.347200
    677    686    695     1   107.9700462 569.024000
    680    692   1449     1   107.9700462 569.024000
    683    689   1420     1   107.9700462 569.024000
    689   1420   1392     1   112.4800480 524.673600
    692   1449   1421     1   112.4800480 524.673600
    696    697    709     1   111.0400475 552.288000
    696    700    712     1   111.0400475 552.288000
    696    703    706     1   111.0400475 552.288000
    697    696    700     1   112.3500484 533.878400
    697    696    703     1   112.3500484 533.878400
    697    709    721     1   111.5100476 526.347200
    700    696    703     1   112.3500484 533.878400
    700    712    718     1   111.5100476 526.347200
    703    706    715     1   111.5100476 526.347200
    706    715    724     1   107.9700462 569.024000
    709    721   1507     1   107.9700462 569.024000
    712    718   1478     1   107.9700462 569.024000
    718   1478   1450     1   112.4800480 524.673600
    721   1507   1479     1   112.4800480 524.673600
    725    726    738     1   111.0400475 552.288000
    725    729    741     1   111.0400475 552.288000
    725    732    735     1   111.0400475 552.288000
    726    725    729     1   112.3500484 533.878400
    726    725    732     1   112.3500484 533.878400
    726    738    750     1   111.5100476 526.347200
    729    725    732     1   112.3500484 533.878400
    729    741    747     1   111.5100476 526.347200
    732    735    744     1   111.5100476 526.347200
    735    744    753     1   107.9700462 569.024000
    738    750   1565     1   107.9700462 569.024000
    741    747   1536     1   107.9700462 569.024000
    747   1536   1508     1   112.4800480 524.673600
    750   1565   1537     1   112.4800480 524.673600
    754    755    767     1   111.0400475 552.288000
    754    758    770     1   111.0400475 552.288000
    754    761    764     1   111.0400475 552.288000
    755    754    758     1   112.3500484 533.878400
    755    754    761     1   112.3500484 533.878400
    755    767    779     1   111.5100476 526.347200
    758    754    761     1   112.3500484 533.878400
    758    770    776     1   111.5100476 526.347200
    761    764    773     1   111.5100476 526.347200
    764    773    782     1   107.9700462 569.024000
    767    779   1623     1   107.9700462 569.024000
    770    776   1594     1   107.9700462 569.024000
    776   1594   1566     1   112.4800480 524.673600
    779   1623   1595     1   112.4800480 524.673600
    783    784    796     1   111.0400475 552.288000
    783    787    799     1   111.0400475 552.288000
    783    790    793     1   111.0400475 552.288000
    784    783    787     1   112.3500484 533.878400
    784    783    790     1   112.3500484 533.878400
    784    796    808     1   111.5100476 526.347200
    787    783    790     1   112.3500484 533.878400
    787    799    805     1   111.5100476 526.347200
    790    793    802     1   111.5100476 526.347200
    793    802    811     1   107.9700462 569.024000
    796    808   1681     1   107.9700462 569.024000
    799    805   1652     1   107.9700462 569.024000
    805   1652   1624     1   112.4800480 524.673600
    808   1681   1653     1   112.4800480 524.673600
    812    813    825     1   111.0400475 552.288000
    812    816    828     1   111.0400475 552.288000
    812    819    822     1   111.0400475 552.288000
    813    812    816     1   112.3500484 533.878400
    813    812    819     1   112.3500484 533.878400
    813    825    837     1   111.5100476 526.347200
    816    812    819     1   112.3500484 533.878400
    816    828    834     1   111.5100476 526.347200
    819    822    831     1   111.5100476 526.347200
    822    831    840     1   107.9700462 569.024000
    825    837   1739     1   107.9700462 569.024000
    828    834   1710     1   107.9700462 569.024000
    834   1710   1682     1   112.4800480 524.673600
    837   1739   1711     1   112.4800480 524.673600
    841    842    854     1   111.0400475 552.288000
    841    845    857     1   111.0400475 552.288000
    841    848    851     1   111.0400475 552.288000
    842    841    845     1   112.3500484 533.878400
    842    841    848     1   112.3500484 533.878400
    842    854    866     1   111.5100476 526.347200
    845    841    848     1   112.3500484 533.878400
    845    857    863     1   111.5100476 526.347200
    848    851    860     1   111.5100476 526.347200
    851    860    869     1   107.9700462 569.024000
    854    866   1797     1   107.9700462 569.024000
    857    863   1768     1   107.9700462 569.024000
    863   1768   1740     1   112.4800480 524.673600
    866   1797   1769     1   112.4800480 524.673600
    870    873    876     1   111.5100476 526.347200
    873    870    898     1   107.9700462 569.024000
    873    876    879     1   111.0400475 552.288000
    876    879    880     1   112.3500484 533.878400
    876    879    889     1   112.3500484 533.878400
    879    880    883     1   111.0400475 552.288000
    879    889    892     1   111.0400475 552.288000
    880    879    889     1   112.3500484 533.878400
    880    883    886     1   111.0400475 529.694400
    883    886    887     1   123.2000528 564.003200
    883    886    888     1   123.2000528 564.003200
    887    886    888     1   130.2500561 651.867200
    889    892    895     1   111.0400475 529.694400
    892    895    896     1   123.2000528 564.003200
    892    895    897     1   123.2000528 564.003200
    896    895    897     1   130.2500561 651.867200
    899    902    905     1   111.5100476 526.347200
    902    905    908     1   111.0400475 552.288000
    902    899    927     1   107.9700462 569.024000
    905    908    909     1   112.3500484 533.878400
    905    908    918     1   112.3500484 533.878400
    908    909    912     1   111.0400475 552.288000
    908    918    921     1   111.0400475 552.288000
    909    912    915     1   111.0400475 529.694400
    909    908    918     1   112.3500484 533.878400
    912    915    916     1   123.2000528 564.003200
    912    915    917     1   123.2000528 564.003200
    916    915    917     1   130.2500561 651.867200
    918    921    924     1   111.0400475 529.694400
    921    924    925     1   123.2000528 564.003200
    921    924    926     1   123.2000528 564.003200
    925    924    926     1   130.2500561 651.867200
    928    931    934     1   111.5100476 526.347200
    931    928    956     1   107.9700462 569.024000
    931    934    937     1   111.0400475 552.288000
    934    937    938     1   112.3500484 533.878400
    934    937    947     1   112.3500484 533.878400
    937    938    941     1   111.0400475 552.288000
    937    947    950     1   111.0400475 552.288000
    938    937    947     1   112.3500484 533.878400
    938    941    944     1   111.0400475 529.694400
    941    944    945     1   123.2000528 564.003200
    941    944    946     1   123.2000528 564.003200
    945    944    946     1   130.2500561 651.867200
    947    950    953     1   111.0400475 529.694400
    950    953    954     1   123.2000528 564.003200
    950    953    955     1   123.2000528 564.003200
    954    953    955     1   130.2500561 651.867200
    957    960    963     1   111.5100476 526.347200
    960    963    966     1   111.0400475 552.288000
    960    957    985     1   107.9700462 569.024000
    963    966    967     1   112.3500484 533.878400
    963    966    976     1   112.3500484 533.878400
    966    967    970     1   111.0400475 552.288000
    966    976    979     1   111.0400475 552.288000
    967    970    973     1   111.0400475 529.694400
    967    966    976     1   112.3500484 533.878400
    970    973    974     1   123.2000528 564.003200
    970    973    975     1   123.2000528 564.003200
    974    973    975     1   130.2500561 651.867200
    976    979    982     1   111.0400475 529.694400
    979    982    983     1   123.2000528 564.003200
    979    982    984     1   123.2000528 564.003200
    983    982    984     1   130.2500561 651.867200
    986    989    992     1   111.5100476 526.347200
    989    986   1014     1   107.9700462 569.024000
    989    992    995     1   111.0400475 552.288000
    992    995    996     1   112.3500484 533.878400
    992    995   1005     1   112.3500484 533.878400
    995    996    999     1   111.0400475 552.288000
    995   1005   1008     1   111.0400475 552.288000
    996    995   1005     1   112.3500484 533.878400
    996    999   1002     1   111.0400475 529.694400
    999   1002   1003     1   123.2000528 564.003200
    999   1002   1004     1   123.2000528 564.003200
   1003   1002   1004     1   130.2500561 651.867200
   1005   1008   1011     1   111.0400475 529.694400
   1008   1011   1012     1   123.2000528 564.003200
   1008   1011   1013     1   123.2000528 564.003200
   1012   1011   1013     1   130.2500561 651.867200
   1015   1018   1021     1   111.5100476 526.347200
   1018   1021   1024     1   111.0400475 552.288000
   1018   1015   1043     1   107.9700462 569.024000
   1021   1024   1025     1   112.3500484 533.878400
   1021   1024   1034     1   112.3500484 533.878400
   1024   1025   1028     1   111.0400475 552.288000
   1024   1034   1037     1   111.0400475 552.288000
   1025   1028   1031     1   111.0400475 529.694400
   1025   1024   1034     1   112.3500484 533.878400
   1028   1031   1032     1   123.2000528 564.003200
   1028   1031   1033     1   123.2000528 564.003200
   1032   1031   1033     1   130.2500561 651.867200
   1034   1037   1040     1   111.0400475 529.694400
   1037   1040   1041     1   123.2000528 564.003200
   1037   1040   1042     1   123.2000528 564.003200
   1041   1040   1042     1   130.2500561 651.867200
   1044   1047   1050     1   111.5100476 526.347200
   1047   1044   1072     1   107.9700462 569.024000
   1047   1050   1053     1   111.0400475 552.288000
   1050   1053   1054     1   112.3500484 533.878400
   1050   1053   1063     1   112.3500484 533.878400
   1053   1054   1057     1   111.0400475 552.288000
   1053   1063   1066     1   111.0400475 552.288000
   1054   1053   1063     1   112.3500484 533.878400
   1054   1057   1060     1   111.0400475 529.694400
   1057   1060   1061     1   123.2000528 564.003200
   1057   1060   1062     1   123.2000528 564.003200
   1061   1060   1062     1   130.2500561 651.867200
   1063   1066   1069     1   111.0400475 529.694400
   1066   1069   1070     1   123.2000528 564.003200
   1066   1069   1071     1   123.2000528 564.003200
   1070   1069   1071     1   130.2500561 651.867200
   1073   1076   1079     1   111.5100476 526.347200
   1076   1079   1082     1   111.0400475 552.288000
   1076   1073   1101     1   107.9700462 569.024000
   1079   1082   1083     1   112.3500484 533.878400
   1079   1082   1092     1   112.3500484 533.878400
   1082   1083   1086     1   111.0400475 552.288000
   1082   1092   1095     1   111.0400475 552.288000
   1083   1086   1089     1   111.0400475 529.694400
   1083   1082   1092     1   112.3500484 533.878400
   1086   1089   1090     1   123.2000528 564.003200
   1086   1089   1091     1   123.2000528 564.003200
   1090   1089   1091     1   130.2500561 651.867200
   1092   1095   1098     1   111.0400475 529.694400
   1095   1098   1099     1   123.2000528 564.003200
   1095   1098   1100     1   123.2000528 564.003200
   1099   1098   1100     1   130.2500561 651.867200
   1102   1105   1108     1   111.5100476 526.347200
   1105   1102   1130     1   107.9700462 569.024000
   1105   1108   1111     1   111.0400475 552.288000
   1108   1111   1112     1   112.3500484 533.878400
   1108   1111   1121     1   112.3500484 533.878400
   1111   1112   1115     1   111.0400475 552.288000
   1111   1121   1124     1   111.0400475 552.288000
   1112   1111   1121     1   112.3500484 533.878400
   1112   1115   1118     1   111.0400475 529.694400
   1115   1118   1119     1   123.2000528 564.003200
   1115   1118   1120     1   123.2000528 564.003200
   1119   1118   1120     1   130.2500561 651.867200
   1121   1124   1127     1   111.0400475 529.694400
   1124   1127   1128     1   123.2000528 564.003200
   1124   1127   1129     1   123.2000528 564.003200
   1128   1127   1129     1   130.2500561 651.867200
   1131   1134   1137     1   111.5100476 526.347200
   1134   1137   1140     1   111.0400475 552.288000
   1134   1131   1159     1   107.9700462 569.024000
   1137   1140   1141     1   112.3500484 533.878400
   1137   1140   1150     1   112.3500484 533.878400
   1140   1141   1144     1   111.0400475 552.288000
   1140   1150   1153     1   111.0400475 552.288000
   1141   1144   1147     1   111.0400475 529.694400
   1141   1140   1150     1   112.3500484 533.878400
   1144   1147   1148     1   123.2000528 564.003200
   1144   1147   1149     1   123.2000528 564.003200
   1148   1147   1149     1   130.2500561 651.867200
   1150   1153   1156     1   111.0400475 529.694400
   1153   1156   1157     1   123.2000528 564.003200
   1153   1156   1158     1   123.2000528 564.003200
   1157   1156   1158     1   130.2500561 651.867200
   1160   1163   1166     1   111.5100476 526.347200
   1163   1160   1188     1   107.9700462 569.024000
   1163   1166   1169     1   111.0400475 552.288000
   1166   1169   1170     1   112.3500484 533.878400
   1166   1169   1179     1   112.3500484 533.878400
   1169   1170   1173     1   111.0400475 552.288000
   1169   1179   1182     1   111.0400475 552.288000
   1170   1169   1179     1   112.3500484 533.878400
   1170   1173   1176     1   111.0400475 529.694400
   1173   1176   1177     1   123.2000528 564.003200
   1173   1176   1178     1   123.2000528 564.003200
   1177   1176   1178     1   130.2500561 651.867200
   1179   1182   1185     1   111.0400475 529.694400
   1182   1185   1186     1   123.2000528 564.003200
   1182   1185   1187     1   123.2000528 564.003200
   1186   1185   1187     1   130.2500561 651.867200
   1189   1192   1195     1   111.5100476 526.347200
   1192   1195   1198     1   111.0400475 552.288000
   1192   1189   1217     1   107.9700462 569.024000
   1195   1198   1199     1   112.3500484 533.878400
   1195   1198   1208     1   112.3500484 533.878400
   1198   1199   1202     1   111.0400475 552.288000
   1198   1208   1211     1   111.0400475 552.288000
   1199   1202   1205     1   111.0400475 529.694400
   1199   1198   1208     1   112.3500484 533.878400
   1202   1205   1206     1   123.2000528 564.003200
   1202   1205   1207     1   123.2000528 564.003200
   1206   1205   1207     1   130.2500561 651.867200
   1208   1211   1214     1   111.0400475 529.694400
   1211   1214   1215     1   123.2000528 564.003200
   1211   1214   1216     1   123.2000528 564.003200
   1215   1214   1216     1   130.2500561 651.867200
   1218   1221   1224     1   111.5100476 526.347200
   1221   1218   1246     1   107.9700462 569.024000
   1221   1224   1227     1   111.0400475 552.288000
   1224   1227   1228     1   112.3500484 533.878400
   1224   1227   1237     1   112.3500484 533.878400
   1227   1228   1231     1   111.0400475 552.288000
   1227   1237   1240     1   111.0400475 552.288000
   1228   1227   1237     1   112.3500484 533.878400
   1228   1231   1234     1   111.0400475 529.694400
   1231   1234   1235     1   123.2000528 564.003200
   1231   1234   1236     1   123.2000528 564.003200
   1235   1234   1236     1   130.2500561 651.867200
   1237   1240   1243     1   111.0400475 529.694400
   1240   1243   1244     1   123.2000528 564.003200
   1240   1243   1245     1   123.2000528 564.003200
   1244   1243   1245     1   130.2500561 651.867200
   1247   1250   1253     1   111.5100476 526.347200
   1250   1253   1256     1   111.0400475 552.288000
   1250   1247   1275     1   107.9700462 569.024000
   1253   1256   1257     1   112.3500484 533.878400
   1253   1256   1266     1   112.3500484 533.878400
   1256   1257   1260     1   111.0400475 552.288000
   1256   1266   1269     1   111.0400475 552.288000
   1257   1260   1263     1   111.0400475 529.694400
   1257   1256   1266     1   112.3500484 533.878400
   1260   1263   1264     1   123.2000528 564.003200
   1260   1263   1265     1   123.2000528 564.003200
   1264   1263   1265     1   130.2500561 651.867200
   1266   1269   1272     1   111.0400475 529.694400
   1269   1272   1273     1   123.2000528 564.003200
   1269   1272   1274     1   123.2000528 564.003200
   1273   1272   1274     1   130.2500561 651.867200
   1276   1279   1282     1   111.5100476 526.347200
   1279   1276   1304     1   107.9700462 569.024000
   1279   1282   1285     1   111.0400475 552.288000
   1282   1285   1286     1   112.3500484 533.878400
   1282   1285   1295     1   112.3500484 533.878400
   1285   1286   1289     1   111.0400475 552.288000
   1285   1295   1298     1   111.0400475 552.288000
   1286   1285   1295     1   112.3500484 533.878400
   1286   1289   1292     1   111.0400475 529.694400
   1289   1292   1293     1   123.2000528 564.003200
   1289   1292   1294     1   123.2000528 564.003200
   1293   1292   1294     1   130.2500561 651.867200
   1295   1298   1301     1   111.0400475 529.694400
   1298   1301   1302     1   123.2000528 564.003200
   1298   1301   1303     1   123.2000528 564.003200
   1302   1301   1303     1   130.2500561 651.867200
   1305   1308   1311     1   111.5100476 526.347200
   1308   1311   1314     1   111.0400475 552.288000
   1308   1305   1333     1   107.9700462 569.024000
   1311   1314   1315     1   112.3500484 533.878400
   1311   1314   1324     1   112.3500484 533.878400
   1314   1315   1318     1   111.0400475 552.288000
   1314   1324   1327     1   111.0400475 552.288000
   1315   1318   1321     1   111.0400475 529.694400
   1315   1314   1324     1   112.3500484 533.878400
   1318   1321   1322     1   123.2000528 564.003200
   1318   1321   1323     1   123.2000528 564.003200
   1322   1321   1323     1   130.2500561 651.867200
   1324   1327   1330     1   111.0400475 529.694400
   1327   1330   1331     1   123.2000528 564.003200
   1327   1330   1332     1   123.2000528 564.003200
   1331   1330   1332     1   130.2500561 651.867200
   1334   1337   1340     1   111.5100476 526.347200
   1337   1334   1362     1   107.9700462 569.024000
   1337   1340   1343     1   111.0400475 552.288000
   1340   1343   1344     1   112.3500484 533.878400
   1340   1343   1353     1   112.3500484 533.878400
   1343   1344   1347     1   111.0400475 552.288000
   1343   1353   1356     1   111.0400475 552.288000
   1344   1343   1353     1   112.3500484 533.878400
   1344   1347   1350     1   111.0400475 529.694400
   1347   1350   1351     1   123.2000528 564.003200
   1347   1350   1352     1   123.2000528 564.003200
   1351   1350   1352     1   130.2500561 651.867200
   1353   1356   1359     1   111.0400475 529.694400
   1356   1359   1360     1   123.2000528 564.003200
   1356   1359   1361     1   123.2000528 564.003200
   1360   1359   1361     1   130.2500561 651.867200
   1363   1366   1369     1   111.5100476 526.347200
   1366   1369   1372     1   111.0400475 552.288000
   1366   1363   1391     1   107.9700462 569.024000
   1369   1372   1373     1   112.3500484 533.878400
   1369   1372   1382     1   112.3500484 533.878400
   1372   1373   1376     1   111.0400475 552.288000
   1372   1382   1385     1   111.0400475 552.288000
   1373   1376   1379     1   111.0400475 529.694400
   1373   1372   1382     1   112.3500484 533.878400
   1376   1379   1380     1   123.2000528 564.003200
   1376   1379   1381     1   123.2000528 564.003200
   1380   1379   1381     1   130.2500561 651.867200
   1382   1385   1388     1   111.0400475 529.694400
   1385   1388   1389     1   123.2000528 564.003200
   1385   1388   1390     1   123.2000528 564.003200
   1389   1388   1390     1   130.2500561 651.867200
   1392   1395   1398     1   111.5100476 526.347200
   1395   1392   1420     1   107.9700462 569.024000
   1395   1398   1401     1   111.0400475 552.288000
   1398   1401   1402     1   112.3500484 533.878400
   1398   1401   1411     1   112.3500484 533.878400
   1401   1402   1405     1   111.0400475 552.288000
   1401   1411   1414     1   111.0400475 552.288000
   1402   1401   1411     1   112.3500484 533.878400
   1402   1405   1408     1   111.0400475 529.694400
   1405   1408   1409     1   123.2000528 564.003200
   1405   1408   1410     1   123.2000528 564.003200
   1409   1408   1410     1   130.2500561 651.867200
   1411   1414   1417     1   111.0400475 529.694400
   1414   1417   1418     1   123.2000528 564.003200
   1414   1417   1419     1   123.2000528 564.003200
   1418   1417   1419     1   130.2500561 651.867200
   1421   1424   1427     1   111.5100476 526.347200
   1424   1427   1430     1   111.0400475 552.288000
   1424   1421   1449     1   107.9700462 569.024000
   1427   1430   1431     1   112.3500484 533.878400
   1427   1430   1440     1   112.3500484 533.878400
   1430   1431   1434     1   111.0400475 552.288000
   1430   1440   1443     1   111.0400475 552.288000
   1431   1434   1437     1   111.0400475 529.694400
   1431   1430   1440     1   112.3500484 533.878400
   1434   1437   1438     1   123.2000528 564.003200
   1434   1437   1439     1   123.2000528 564.003200
   1438   1437   1439     1   130.2500561 651.867200
   1440   1443   1446     1   111.0400475 529.694400
   1443   1446   1447     1   123.2000528 564.003200
   1443   1446   1448     1   123.2000528 564.003200
   1447   1446   1448     1   130.2500561 651.867200
   1450   1453   1456     1   111.5100476 526.347200
   1453   1450   1478     1   107.9700462 569.024000
   1453   1456   1459     1   111.0400475 552.288000
   1456   1459   1460     1   112.3500484 533.878400
   1456   1459   1469     1   112.3500484 533.878400
   1459   1460   1463     1   111.0400475 552.288000
   1459   1469   1472     1   111.0400475 552.288000
   1460   1459   1469     1   112.3500484 533.878400
   1460   1463   1466     1   111.0400475 529.694400
   1463   1466   1467     1   123.2000528 564.003200
   1463   1466   1468     1   123.2000528 564.003200
   1467   1466   1468     1   130.2500561 651.867200
   1469   1472   1475     1   111.0400475 529.694400
   1472   1475   1476     1   123.2000528 564.003200
   1472   1475   1477     1   123.2000528 564.003200
   1476   1475   1477     1   130.2500561 651.867200
   1479   1482   1485     1   111.5100476 526.347200
   1482   1485   1488     1   111.0400475 552.288000
   1482   1479   1507     1   107.9700462 569.024000
   1485   1488   1489     1   112.3500484 533.878400
   1485   1488   1498     1   112.3500484 533.878400
   1488   1489   1492     1   111.0400475 552.288000
   1488   1498   1501     1   111.0400475 552.288000
   1489   1492   1495     1   111.0400475 529.694400
   1489   1488   1498     1   112.3500484 533.878400
   1492   1495   1496     1   123.2000528 564.003200
   1492   1495   1497     1   123.2000528 564.003200
   1496   1495   1497     1   130.2500561 651.867200
   1498   1501   1504     1   111.0400475 529.694400
   1501   1504   1505     1   123.2000528 564.003200
   1501   1504   1506     1   123.2000528 564.003200
   1505   1504   1506     1   130.2500561 651.867200
   1508   1511   1514     1   111.5100476 526.347200
   1511   1508   1536     1   107.9700462 569.024000
   1511   1514   1517     1   111.0400475 552.288000
   1514   1517   1518     1   112.3500484 533.878400
   1514   1517   1527     1   112.3500484 533.878400
   1517   1518   1521     1   111.0400475 552.288000
   1517   1527   1530     1   111.0400475 552.288000
   1518   1517   1527     1   112.3500484 533.878400
   1518   1521   1524     1   111.0400475 529.694400
   1521   1524   1525     1   123.2000528 564.003200
   1521   1524   1526     1   123.2000528 564.003200
   1525   1524   1526     1   130.2500561 651.867200
   1527   1530   1533     1   111.0400475 529.694400
   1530   1533   1534     1   123.2000528 564.003200
   1530   1533   1535     1   123.2000528 564.003200
   1534   1533   1535     1   130.2500561 651.867200
   1537   1540   1543     1   111.5100476 526.347200
   1540   1543   1546     1   111.0400475 552.288000
   1540   1537   1565     1   107.9700462 569.024000
   1543   1546   1547     1   112.3500484 533.878400
   1543   1546   1556     1   112.3500484 533.878400
   1546   1547   1550     1   111.0400475 552.288000
   1546   1556   1559     1   111.0400475 552.288000
   1547   1550   1553     1   111.0400475 529.694400
   1547   1546   1556     1   112.3500484 533.878400
   1550   1553   1554     1   123.2000528 564.003200
   1550   1553   1555     1   123.2000528 564.003200
   1554   1553   1555     1   130.2500561 651.867200
   1556   1559   1562     1   111.0400475 529.694400
   1559   1562   1563     1   123.2000528 564.003200
   1559   1562   1564     1   123.2000528 564.003200
   1563   1562   1564     1   130.2500561 651.867200
   1566   1569   1572     1   111.5100476 526.347200
   1569   1566   1594     1   107.9700462 569.024000
   1569   1572   1575     1   111.0400475 552.288000
   1572   1575   1576     1   112.3500484 533.878400
   1572   1575   1585     1   112.3500484 533.878400
   1575   1576   1579     1   111.0400475 552.288000
   1575   1585   1588     1   111.0400475 552.288000
   1576   1575   1585     1   112.3500484 533.878400
   1576   1579   1582     1   111.0400475 529.694400
   1579   1582   1583     1   123.2000528 564.003200
   1579   1582   1584     1   123.2000528 564.003200
   1583   1582   1584     1   130.2500561 651.867200
   1585   1588   1591     1   111.0400475 529.694400
   1588   1591   1592     1   123.2000528 564.003200
   1588   1591   1593     1   123.2000528 564.003200
   1592   1591   1593     1   130.2500561 651.867200
   1595   1598   1601     1   111.5100476 526.347200
   1598   1601   1604     1   111.0400475 552.288000
   1598   1595   1623     1   107.9700462 569.024000
   1601   1604   1605     1   112.3500484 533.878400
   1601   1604   1614     1   112.3500484 533.878400
   1604   1605   1608     1   111.0400475 552.288000
   1604   1614   1617     1   111.0400475 552.288000
   1605   1608   1611     1   111.0400475 529.694400
   1605   1604   1614     1   112.3500484 533.878400
   1608   1611   1612     1   123.2000528 564.003200
   1608   1611   1613     1   123.2000528 564.003200
   1612   1611   1613     1   130.2500561 651.867200
   1614   1617   1620     1   111.0400475 529.694400
   1617   1620   1621     1   123.2000528 564.003200
   1617   1620   1622     1   123.2000528 564.003200
   1621   1620   1622     1   130.2500561 651.867200
   1624   1627   1630     1   111.5100476 526.347200
   1627   1624   1652     1   107.9700462 569.024000
   1627   1630   1633     1   111.0400475 552.288000
   1630   1633   1634     1   112.3500484 533.878400
   1630   1633   1643     1   112.3500484 533.878400
   1633   1634   1637     1   111.0400475 552.288000
   1633   1643   1646     1   111.0400475 552.288000
   1634   1633   1643     1   112.3500484 533.878400
   1634   1637   1640     1   111.0400475 529.694400
   1637   1640   1641     1   123.2000528 564.003200
   1637   1640   1642     1   123.2000528 564.003200
   1641   1640   1642     1   130.2500561 651.867200
   1643   1646   1649     1   111.0400475 529.694400
   1646   1649   1650     1   123.2000528 564.003200
   1646   1649   1651     1   123.2000528 564.003200
   1650   1649   1651     1   130.2500561 651.867200
   1653   1656   1659     1   111.5100476 526.347200
   1656   1659   1662     1   111.0400475 552.288000
   1656   1653   1681     1   107.9700462 569.024000
   1659   1662   1663     1   112.3500484 533.878400
   1659   1662   1672     1   112.3500484 533.878400
   1662   1663   1666     1   111.0400475 552.288000
   1662   1672   1675     1   111.0400475 552.288000
   1663   1666   1669     1   111.0400475 529.694400
   1663   1662   1672     1   112.3500484 533.878400
   1666   1669   1670     1   123.2000528 564.003200
   1666   1669   1671     1   123.2000528 564.003200
   1670   1669   1671     1   130.2500561 651.867200
   1672   1675   1678     1   111.0400475 529.694400
   1675   1678   1679     1   123.2000528 564.003200
   1675   1678   1680     1   123.2000528 564.003200
   1679   1678   1680     1   130.2500561 651.867200
   1682   1685   1688     1   111.5100476 526.347200
   1685   1682   1710     1   107.9700462 569.024000
   1685   1688   1691     1   111.0400475 552.288000
   1688   1691   1692     1   112.3500484 533.878400
   1688   1691   1701     1   112.3500484 533.878400
   1691   1692   1695     1   111.0400475 552.288000
   1691   1701   1704     1   111.0400475 552.288000
   1692   1691   1701     1   112.3500484 533.878400
   1692   1695   1698     1   111.0400475 529.694400
   1695   1698   1699     1   123.2000528 564.003200
   1695   1698   1700     1   123.2000528 564.003200
   1699   1698   1700     1   130.2500561 651.867200
   1701   1704   1707     1   111.0400475 529.694400
   1704   1707   1708     1   123.2000528 564.003200
   1704   1707   1709     1   123.2000528 564.003200
   1708   1707   1709     1   130.2500561 651.867200
   1711   1714   1717     1   111.5100476 526.347200
   1714   1717   1720     1   111.0400475 552.288000
   1714   1711   1739     1   107.9700462 569.024000
   1717   1720   1721     1   112.3500484 533.878400
   1717   1720   1730     1   112.3500484 533.878400
   1720   1721   1724     1   111.0400475 552.288000
   1720   1730   1733     1   111.0400475 552.288000
   1721   1724   1727     1   111.0400475 529.694400
   1721   1720   1730     1   112.3500484 533.878400
   1724   1727   1728     1   123.2000528 564.003200
   1724   1727   1729     1   123.2000528 564.003200
   1728   1727   1729     1   130.2500561 651.867200
   1730   1733   1736     1   111.0400475 529.694400
   1733   1736   1737     1   123.2000528 564.003200
   1733   1736   1738     1   123.2000528 564.003200
   1737   1736   1738     1   130.2500561 651.867200
   1740   1743   1746     1   111.5100476 526.347200
   1743   1740   1768     1   107.9700462 569.024000
   1743   1746   1749     1   111.0400475 552.288000
   1746   1749   1750     1   112.3500484 533.878400
   1746   1749   1759     1   112.3500484 533.878400
   1749   1750   1753     1   111.0400475 552.288000
   1749   1759   1762     1   111.0400475 552.288000
   1750   1749   1759     1   112.3500484 533.878400
   1750   1753   1756     1   111.0400475 529.694400
   1753   1756   1757     1   123.2000528 564.003200
   1753   1756   1758     1   123.2000528 564.003200
   1757   1756   1758     1   130.2500561 651.867200
   1759   1762   1765     1   111.0400475 529.694400
   1762   1765   1766     1   123.2000528 564.003200
   1762   1765   1767     1   123.2000528 564.003200
   1766   1765   1767     1   130.2500561 651.867200
   1769   1772   1775     1   111.5100476 526.347200
   1772   1775   1778     1   111.0400475 552.288000
   1772   1769   1797     1   107.9700462 569.024000
   1775   1778   1779     1   112.3500484 533.878400
   1775   1778   1788     1   112.3500484 533.878400
   1778   1779   1782     1   111.0400475 552.288000
   1778   1788   1791     1   111.0400475 552.288000
   1779   1782   1785     1   111.0400475 529.694400
   1779   1778   1788     1   112.3500484 533.878400
   1782   1785   1786     1   123.2000528 564.003200
   1782   1785   1787     1   123.2000528 564.003200
   1786   1785   1787     1   130.2500561 651.867200
   1788   1791   1794     1   111.0400475 529.694400
   1791   1794   1795     1   123.2000528 564.003200
   1791   1794   1796     1   123.2000528 564.003200
   1795   1794   1796     1   130.2500561 651.867200
      1      2      3     1   109.7800468 425.094400
      1      2      4     1   109.7800468 425.094400
      1      5      6     1   109.7800468 425.094400
      1      5      7     1   109.7800468 425.094400
      2      8      9     1   109.8000471 387.438400
      2      8     10     1   109.8000471 387.438400
      3      2      8     1   109.5600471 388.275200
      3      2      4     1   108.4600466 328.025600
      4      2      8     1   109.5600471 388.275200
      5     11     12     1   109.8000471 387.438400
      5     11     13     1   109.8000471 387.438400
      6      5     11     1   109.5600471 388.275200
      6      5      7     1   108.4600466 328.025600
      7      5     11     1   109.5600471 388.275200
      8     14     15     1   109.5600471 388.275200
      8     14     16     1   109.5600471 388.275200
      9      8     14     1   109.8000471 387.438400
      9      8     10     1   107.5800459 329.699200
     10      8     14     1   109.8000471 387.438400
     11     17     18     1   109.5600471 388.275200
     11     17     19     1   109.5600471 388.275200
     12     11     17     1   109.8000471 387.438400
     12     11     13     1   107.5800459 329.699200
     13     11     17     1   109.8000471 387.438400
     15     14     20     1   109.8800469 414.216000
     15     14     16     1   108.4600466 328.025600
     16     14     20     1   109.8800469 414.216000
     18     17     21     1   109.8800469 414.216000
     18     17     19     1   108.4600466 328.025600
     19     17     21     1   109.8800469 414.216000
     20     28     29     1   109.8800469 414.216000
     20     28     30     1   109.8800469 414.216000
     20     31     32     1   109.8800469 414.216000
     20     31     33     1   109.8800469 414.216000
     21     22     23     1   109.8800469 414.216000
     21     22     24     1   109.8800469 414.216000
     21     25     26     1   109.8800469 414.216000
     21     25     27     1   109.8800469 414.216000
     22     34     35     1   109.8000471 387.438400
     22     34     36     1   109.8000471 387.438400
     23     22     34     1   109.5600471 388.275200
     23     22     24     1   108.4600466 328.025600
     24     22     34     1   109.5600471 388.275200
     25     37     38     1   109.8000471 387.438400
     25     37     39     1   109.8000471 387.438400
     26     25     37     1   109.5600471 388.275200
     26     25     27     1   108.4600466 328.025600
     27     25     37     1   109.5600471 388.275200
     28     40     41     1   109.8000471 387.438400
     28     40     42     1   109.8000471 387.438400
     29     28     40     1   109.5600471 388.275200
     29     28     30     1   108.4600466 328.025600
     30     28     40     1   109.5600471 388.275200
     31     43     44     1   109.8000471 387.438400
     31     43     45     1   109.8000471 387.438400
     32     31     43     1   109.5600471 388.275200
     32     31     33     1   108.4600466 328.025600
     33     31     43     1   109.5600471 388.275200
     34     55     56     1   109.5600471 388.275200
     34     55     57     1   109.5600471 388.275200
     35     34     55     1   109.8000471 387.438400
     35     34     36     1   107.5800459 329.699200
     36     34     55     1   109.8000471 387.438400
     37     52     53     1   109.5600471 388.275200
     37     52     54     1   109.5600471 388.275200
     38     37     52     1   109.8000471 387.438400
     38     37     39     1   107.5800459 329.699200
     39     37     52     1   109.8000471 387.438400
     40     49     50     1   109.5600471 388.275200
     40     49     51     1   109.5600471 388.275200
     41     40     49     1   109.8000471 387.438400
     41     40     42     1   107.5800459 329.699200
     42     40     49     1   109.8000471 387.438400
     43     46     47     1   109.5600471 388.275200
     43     46     48     1   109.5600471 388.275200
     44     43     46     1   109.8000471 387.438400
     44     43     45     1   107.5800459 329.699200
     45     43     46     1   109.8000471 387.438400
     47     46     86     1   109.7800468 425.094400
     47     46     48     1   108.4600466 328.025600
     48     46     86     1   109.7800468 425.094400
     50     49    115     1   109.7800468 425.094400
     50     49     51     1   108.4600466 328.025600
     51     49    115     1   109.7800468 425.094400
     53     52    144     1   109.7800468 425.094400
     53     52     54     1   108.4600466 328.025600
     54     52    144     1   109.7800468 425.094400
     56     55    173     1   109.7800468 425.094400
     56     55     57     1   108.4600466 328.025600
     57     55    173     1   109.7800468 425.094400
     58     59     60     1   109.8800469 414.216000
     58     59     61     1   109.8800469 414.216000
     58     62     63     1   109.8800469 414.216000
     58     62     64     1   109.8800469 414.216000
     58     65     66     1   109.8800469 414.216000
     58     65     67     1   109.8800469 414.216000
     59     71     72     1   109.8000471 387.438400
     59     71     73     1   109.8000471 387.438400
     60     59     71     1   109.5600471 388.275200
     60     59     61     1   108.4600466 328.025600
     61     59     71     1   109.5600471 388.275200
     62     74     75     1   109.8000471 387.438400
     62     74     76     1   109.8000471 387.438400
     63     62     74     1   109.5600471 388.275200
     63     62     64     1   108.4600466 328.025600
     64     62     74     1   109.5600471 388.275200
     65     68     69     1   109.8000471 387.438400
     65     68     70     1   109.8000471 387.438400
     66     65     68     1   109.5600471 388.275200
     66     65     67     1   108.4600466 328.025600
     67     65     68     1   109.5600471 388.275200
     68     77     78     1   109.5600471 388.275200
     68     77     79     1   109.5600471 388.275200
     69     68     77     1   109.8000471 387.438400
     69     68     70     1   107.5800459 329.699200
     70     68     77     1   109.8000471 387.438400
     71     83     84     1   109.5600471 388.275200
     71     83     85     1   109.5600471 388.275200
     72     71     83     1   109.8000471 387.438400
     72     71     73     1   107.5800459 329.699200
     73     71     83     1   109.8000471 387.438400
     74     80     81     1   109.5600471 388.275200
     74     80     82     1   109.5600471 388.275200
     75     74     80     1   109.8000471 387.438400
     75     74     76     1   107.5800459 329.699200
     76     74     80     1   109.8000471 387.438400
     78     77     86     1   109.7800468 425.094400
     78     77     79     1   108.4600466 328.025600
     79     77     86     1   109.7800468 425.094400
     81     80    202     1   109.7800468 425.094400
     81     80     82     1   108.4600466 328.025600
     82     80    202     1   109.7800468 425.094400
     84     83    231     1   109.7800468 425.094400
     84     83     85     1   108.4600466 328.025600
     85     83    231     1   109.7800468 425.094400
     87     88     89     1   109.8800469 414.216000
     87     88     90     1   109.8800469 414.216000
     87     91     92     1   109.8800469 414.216000
     87     91     93     1   109.8800469 414.216000
     87     94     95     1   109.8800469 414.216000
     87     94     96     1   109.8800469 414.216000
     88    100    101     1   109.8000471 387.438400
     88    100    102     1   109.8000471 387.438400
     89     88    100     1   109.5600471 388.275200
     89     88     90     1   108.4600466 328.025600
     90     88    100     1   109.5600471 388.275200
     91    103    104     1   109.8000471 387.438400
     91    103    105     1   109.8000471 387.438400
     92     91    103     1   109.5600471 388.275200
     92     91     93     1   108.4600466 328.025600
     93     91    103     1   109.5600471 388.275200
     94     97     98     1   109.8000471 387.438400
     94     97     99     1   109.8000471 387.438400
     95     94     97     1   109.5600471 388.275200
     95     94     96     1   108.4600466 328.025600
     96     94     97     1   109.5600471 388.275200
     97    106    107     1   109.5600471 388.275200
     97    106    108     1   109.5600471 388.275200
     98     97    106     1   109.8000471 387.438400
     98     97     99     1   107.5800459 329.699200
     99     97    106     1   109.8000471 387.438400
    100    112    113     1   109.5600471 388.275200
    100    112    114     1   109.5600471 388.275200
    101    100    112     1   109.8000471 387.438400
    101    100    102     1   107.5800459 329.699200
    102    100    112     1   109.8000471 387.438400
    103    109    110     1   109.5600471 388.275200
    103    109    111     1   109.5600471 388.275200
    104    103    109     1   109.8000471 387.438400
    104    103    105     1   107.5800459 329.699200
    105    103    109     1   109.8000471 387.438400
    107    106    115     1   109.7800468 425.094400
    107    106    108     1   108.4600466 328.025600
    108    106    115     1   109.7800468 425.094400
    110    109    260     1   109.7800468 425.094400
    110    109    111     1   108.4600466 328.025600
    111    109    260     1   109.7800468 425.094400
    113    112    289     1   109.7800468 425.094400
    113    112    114     1   108.4600466 328.025600
    114    112    289     1   109.7800468 425.094400
    116    117    118     1   109.8800469 414.216000
    116    117    119     1   109.8800469 414.216000
    116    120    121     1   109.8800469 414.216000
    116    120    122     1   109.8800469 414.216000
    116    123    124     1   109.8800469 414.216000
    116    123    125     1   109.8800469 414.216000
    117    129    130     1   109.8000471 387.438400
    117    129    131     1   109.8000471 387.438400
    118    117    129     1   109.5600471 388.275200
    118    117    119     1   108.4600466 328.025600
    119    117    129     1   109.5600471 388.275200
    120    132    133     1   109.8000471 387.438400
    120    132    134     1   109.8000471 387.438400
    121    120    132     1   109.5600471 388.275200
    121    120    122     1   108.4600466 328.025600
    122    120    132     1   109.5600471 388.275200
    123    126    127     1   109.8000471 387.438400
    123    126    128     1   109.8000471 387.438400
    124    123    126     1   109.5600471 388.275200
    124    123    125     1   108.4600466 328.025600
    125    123    126     1   109.5600471 388.275200
    126    135    136     1   109.5600471 388.275200
    126    135    137     1   109.5600471 388.275200
    127    126    135     1   109.8000471 387.438400
    127    126    128     1   107.5800459 329.699200
    128    126    135     1   109.8000471 387.438400
    129    141    142     1   109.5600471 388.275200
    129    141    143     1   109.5600471 388.275200
    130    129    141     1   109.8000471 387.438400
    130    129    131     1   107.5800459 329.699200
    131    129    141     1   109.8000471 387.438400
    132    138    139     1   109.5600471 388.275200
    132    138    140     1   109.5600471 388.275200
    133    132    138     1   109.8000471 387.438400
    133    132    134     1   107.5800459 329.699200
    134    132    138     1   109.8000471 387.438400
    136    135    144     1   109.7800468 425.094400
    136    135    137     1   108.4600466 328.025600
    137    135    144     1   109.7800468 425.094400
    139    138    318     1   109.7800468 425.094400
    139    138    140     1   108.4600466 328.025600
    140    138    318     1   109.7800468 425.094400
    142    141    347     1   109.7800468 425.094400
    142    141    143     1   108.4600466 328.025600
    143    141    347     1   109.7800468 425.094400
    145    146    147     1   109.8800469 414.216000
    145    146    148     1   109.8800469 414.216000
    145    149    150     1   109.8800469 414.216000
    145    149    151     1   109.8800469 414.216000
    145    152    153     1   109.8800469 414.216000
    145    152    154     1   109.8800469 414.216000
    146    158    159     1   109.8000471 387.438400
    146    158    160     1   109.8000471 387.438400
    147    146    158     1   109.5600471 388.275200
    147    146    148     1   108.4600466 328.025600
    148    146    158     1   109.5600471 388.275200
    149    161    162     1   109.8000471 387.438400
    149    161    163     1   109.8000471 387.438400
    150    149    161     1   109.5600471 388.275200
    150    149    151     1   108.4600466 328.025600
    151    149    161     1   109.5600471 388.275200
    152    155    156     1   109.8000471 387.438400
    152    155    157     1   109.8000471 387.438400
    153    152    155     1   109.5600471 388.275200
    153    152    154     1   108.4600466 328.025600
    154    152    155     1   109.5600471 388.275200
    155    164    165     1   109.5600471 388.275200
    155    164    166     1   109.5600471 388.275200
    156    155    164     1   109.8000471 387.438400
    156    155    157     1   107.5800459 329.699200
    157    155    164     1   109.8000471 387.438400
    158    170    171     1   109.5600471 388.275200
    158    170    172     1   109.5600471 388.275200
    159    158    170     1   109.8000471 387.438400
    159    158    160     1   107.5800459 329.699200
    160    158    170     1   109.8000471 387.438400
    161    167    168     1   109.5600471 388.275200
    161    167    169     1   109.5600471 388.275200
    162    161    167     1   109.8000471 387.438400
    162    161    163     1   107.5800459 329.699200
    163    161    167     1   109.8000471 387.438400
    165    164    173     1   109.7800468 425.094400
    165    164    166     1   108.4600466 328.025600
    166    164    173     1   109.7800468 425.094400
    168    167    376     1   109.7800468 425.094400
    168    167    169     1   108.4600466 328.025600
    169    167    376     1   109.7800468 425.094400
    171    170    405     1   109.7800468 425.094400
    171    170    172     1   108.4600466 328.025600
    172    170    405     1   109.7800468 425.094400
    174    175    176     1   109.8800469 414.216000
    174    175    177     1   109.8800469 414.216000
    174    178    179     1   109.8800469 414.216000
    174    178    180     1   109.8800469 414.216000
    174    181    182     1   109.8800469 414.216000
    174    181    183     1   109.8800469 414.216000
    175    187    188     1   109.8000471 387.438400
    175    187    189     1   109.8000471 387.438400
    176    175    187     1   109.5600471 388.275200
    176    175    177     1   108.4600466 328.025600
    177    175    187     1   109.5600471 388.275200
    178    190    191     1   109.8000471 387.438400
    178    190    192     1   109.8000471 387.438400
    179    178    190     1   109.5600471 388.275200
    179    178    180     1   108.4600466 328.025600
    180    178    190     1   109.5600471 388.275200
    181    184    185     1   109.8000471 387.438400
    181    184    186     1   109.8000471 387.438400
    182    181    184     1   109.5600471 388.275200
    182    181    183     1   108.4600466 328.025600
    183    181    184     1   109.5600471 388.275200
    184    193    194     1   109.5600471 388.275200
    184    193    195     1   109.5600471 388.275200
    185    184    193     1   109.8000471 387.438400
    185    184    186     1   107.5800459 329.699200
    186    184    193     1   109.8000471 387.438400
    187    199    200     1   109.5600471 388.275200
    187    199    201     1   109.5600471 388.275200
    188    187    199     1   109.8000471 387.438400
    188    187    189     1   107.5800459 329.699200
    189    187    199     1   109.8000471 387.438400
    190    196    197     1   109.5600471 388.275200
    190    196    198     1   109.5600471 388.275200
    191    190    196     1   109.8000471 387.438400
    191    190    192     1   107.5800459 329.699200
    192    190    196     1   109.8000471 387.438400
    194    193    202     1   109.7800468 425.094400
    194    193    195     1   108.4600466 328.025600
    195    193    202     1   109.7800468 425.094400
    197    196    434     1   109.7800468 425.094400
    197    196    198     1   108.4600466 328.025600
    198    196    434     1   109.7800468 425.094400
    200    199    463     1   109.7800468 425.094400
    200    199    201     1   108.4600466 328.025600
    201    199    463     1   109.7800468 425.094400
    203    204    205     1   109.8800469 414.216000
    203    204    206     1   109.8800469 414.216000
    203    207    208     1   109.8800469 414.216000
    203    207    209     1   109.8800469 414.216000
    203    210    211     1   109.8800469 414.216000
    203    210    212     1   109.8800469 414.216000
    204    216    217     1   109.8000471 387.438400
    204    216    218     1   109.8000471 387.438400
    205    204    216     1   109.5600471 388.275200
    205    204    206     1   108.4600466 328.025600
    206    204    216     1   109.5600471 388.275200
    207    219    220     1   109.8000471 387.438400
    207    219    221     1   109.8000471 387.438400
    208    207    219     1   109.5600471 388.275200
    208    207    209     1   108.4600466 328.025600
    209    207    219     1   109.5600471 388.275200
    210    213    214     1   109.8000471 387.438400
    210    213    215     1   109.8000471 387.438400
    211    210    213     1   109.5600471 388.275200
    211    210    212     1   108.4600466 328.025600
    212    210    213     1   109.5600471 388.275200
    213    222    223     1   109.5600471 388.275200
    213    222    224     1   109.5600471 388.275200
    214    213    222     1   109.8000471 387.438400
    214    213    215     1   107.5800459 329.699200
    215    213    222     1   109.8000471 387.438400
    216    228    229     1   109.5600471 388.275200
    216    228    230     1   109.5600471 388.275200
    217    216    228     1   109.8000471 387.438400
    217    216    218     1   107.5800459 329.699200
    218    216    228     1   109.8000471 387.438400
    219    225    226     1   109.5600471 388.275200
    219    225    227     1   109.5600471 388.275200
    220    219    225     1   109.8000471 387.438400
    220    219    221     1   107.5800459 329.699200
    221    219    225     1   109.8000471 387.438400
    223    222    231     1   109.7800468 425.094400
    223    222    224     1   108.4600466 328.025600
    224    222    231     1   109.7800468 425.094400
    226    225    492     1   109.7800468 425.094400
    226    225    227     1   108.4600466 328.025600
    227    225    492     1   109.7800468 425.094400
    229    228    521     1   109.7800468 425.094400
    229    228    230     1   108.4600466 328.025600
    230    228    521     1   109.7800468 425.094400
    232    233    234     1   109.8800469 414.216000
    232    233    235     1   109.8800469 414.216000
    232    236    237     1   109.8800469 414.216000
    232    236    238     1   109.8800469 414.216000
    232    239    240     1   109.8800469 414.216000
    232    239    241     1   109.8800469 414.216000
    233    245    246     1   109.8000471 387.438400
    233    245    247     1   109.8000471 387.438400
    234    233    245     1   109.5600471 388.275200
    234    233    235     1   108.4600466 328.025600
    235    233    245     1   109.5600471 388.275200
    236    248    249     1   109.8000471 387.438400
    236    248    250     1   109.8000471 387.438400
    237    236    248     1   109.5600471 388.275200
    237    236    238     1   108.4600466 328.025600
    238    236    248     1   109.5600471 388.275200
    239    242    243     1   109.8000471 387.438400
    239    242    244     1   109.8000471 387.438400
    240    239    242     1   109.5600471 388.275200
    240    239    241     1   108.4600466 328.025600
    241    239    242     1   109.5600471 388.275200
    242    251    252     1   109.5600471 388.275200
    242    251    253     1   109.5600471 388.275200
    243    242    251     1   109.8000471 387.438400
    243    242    244     1   107.5800459 329.699200
    244    242    251     1   109.8000471 387.438400
    245    257    258     1   109.5600471 388.275200
    245    257    259     1   109.5600471 388.275200
    246    245    257     1   109.8000471 387.438400
    246    245    247     1   107.5800459 329.699200
    247    245    257     1   109.8000471 387.438400
    248    254    255     1   109.5600471 388.275200
    248    254    256     1   109.5600471 388.275200
    249    248    254     1   109.8000471 387.438400
    249    248    250     1   107.5800459 329.699200
    250    248    254     1   109.8000471 387.438400
    252    251    260     1   109.7800468 425.094400
    252    251    253     1   108.4600466 328.025600
    253    251    260     1   109.7800468 425.094400
    255    254    550     1   109.7800468 425.094400
    255    254    256     1   108.4600466 328.025600
    256    254    550     1   109.7800468 425.094400
    258    257    579     1   109.7800468 425.094400
    258    257    259     1   108.4600466 328.025600
    259    257    579     1   109.7800468 425.094400
    261    262    263     1   109.8800469 414.216000
    261    262    264     1   109.8800469 414.216000
    261    265    266     1   109.8800469 414.216000
    261    265    267     1   109.8800469 414.216000
    261    268    269     1   109.8800469 414.216000
    261    268    270     1   109.8800469 414.216000
    262    274    275     1   109.8000471 387.438400
    262    274    276     1   109.8000471 387.438400
    263    262    274     1   109.5600471 388.275200
    263    262    264     1   108.4600466 328.025600
    264    262    274     1   109.5600471 388.275200
    265    277    278     1   109.8000471 387.438400
    265    277    279     1   109.8000471 387.438400
    266    265    277     1   109.5600471 388.275200
    266    265    267     1   108.4600466 328.025600
    267    265    277     1   109.5600471 388.275200
    268    271    272     1   109.8000471 387.438400
    268    271    273     1   109.8000471 387.438400
    269    268    271     1   109.5600471 388.275200
    269    268    270     1   108.4600466 328.025600
    270    268    271     1   109.5600471 388.275200
    271    280    281     1   109.5600471 388.275200
    271    280    282     1   109.5600471 388.275200
    272    271    280     1   109.8000471 387.438400
    272    271    273     1   107.5800459 329.699200
    273    271    280     1   109.8000471 387.438400
    274    286    287     1   109.5600471 388.275200
    274    286    288     1   109.5600471 388.275200
    275    274    286     1   109.8000471 387.438400
    275    274    276     1   107.5800459 329.699200
    276    274    286     1   109.8000471 387.438400
    277    283    284     1   109.5600471 388.275200
    277    283    285     1   109.5600471 388.275200
    278    277    283     1   109.8000471 387.438400
    278    277    279     1   107.5800459 329.699200
    279    277    283     1   109.8000471 387.438400
    281    280    289     1   109.7800468 425.094400
    281    280    282     1   108.4600466 328.025600
    282    280    289     1   109.7800468 425.094400
    284    283    608     1   109.7800468 425.094400
    284    283    285     1   108.4600466 328.025600
    285    283    608     1   109.7800468 425.094400
    287    286    637     1   109.7800468 425.094400
    287    286    288     1   108.4600466 328.025600
    288    286    637     1   109.7800468 425.094400
    290    291    292     1   109.8800469 414.216000
    290    291    293     1   109.8800469 414.216000
    290    294    295     1   109.8800469 414.216000
    290    294    296     1   109.8800469 414.216000
    290    297    298     1   109.8800469 414.216000
    290    297    299     1   109.8800469 414.216000
    291    303    304     1   109.8000471 387.438400
    291    303    305     1   109.8000471 387.438400
    292    291    303     1   109.5600471 388.275200
    292    291    293     1   108.4600466 328.025600
    293    291    303     1   109.5600471 388.275200
    294    306    307     1   109.8000471 387.438400
    294    306    308     1   109.8000471 387.438400
    295    294    306     1   109.5600471 388.275200
    295    294    296     1   108.4600466 328.025600
    296    294    306     1   109.5600471 388.275200
    297    300    301     1   109.8000471 387.438400
    297    300    302     1   109.8000471 387.438400
    298    297    300     1   109.5600471 388.275200
    298    297    299     1   108.4600466 328.025600
    299    297    300     1   109.5600471 388.275200
    300    309    310     1   109.5600471 388.275200
    300    309    311     1   109.5600471 388.275200
    301    300    309     1   109.8000471 387.438400
    301    300    302     1   107.5800459 329.699200
    302    300    309     1   109.8000471 387.438400
    303    315    316     1   109.5600471 388.275200
    303    315    317     1   109.5600471 388.275200
    304    303    315     1   109.8000471 387.438400
    304    303    305     1   107.5800459 329.699200
    305    303    315     1   109.8000471 387.438400
    306    312    313     1   109.5600471 388.275200
    306    312    314     1   109.5600471 388.275200
    307    306    312     1   109.8000471 387.438400
    307    306    308     1   107.5800459 329.699200
    308    306    312     1   109.8000471 387.438400
    310    309    318     1   109.7800468 425.094400
    310    309    311     1   108.4600466 328.025600
    311    309    318     1   109.7800468 425.094400
    313    312    666     1   109.7800468 425.094400
    313    312    314     1   108.4600466 328.025600
    314    312    666     1   109.7800468 425.094400
    316    315    695     1   109.7800468 425.094400
    316    315    317     1   108.4600466 328.025600
    317    315    695     1   109.7800468 425.094400
    319    320    321     1   109.8800469 414.216000
    319    320    322     1   109.8800469 414.216000
    319    323    324     1   109.8800469 414.216000
    319    323    325     1   109.8800469 414.216000
    319    326    327     1   109.8800469 414.216000
    319    326    328     1   109.8800469 414.216000
    320    332    333     1   109.8000471 387.438400
    320    332    334     1   109.8000471 387.438400
    321    320    332     1   109.5600471 388.275200
    321    320    322     1   108.4600466 328.025600
    322    320    332     1   109.5600471 388.275200
    323    335    336     1   109.8000471 387.438400
    323    335    337     1   109.8000471 387.438400
    324    323    335     1   109.5600471 388.275200
    324    323    325     1   108.4600466 328.025600
    325    323    335     1   109.5600471 388.275200
    326    329    330     1   109.8000471 387.438400
    326    329    331     1   109.8000471 387.438400
    327    326    329     1   109.5600471 388.275200
    327    326    328     1   108.4600466 328.025600
    328    326    329     1   109.5600471 388.275200
    329    338    339     1   109.5600471 388.275200
    329    338    340     1   109.5600471 388.275200
    330    329    338     1   109.8000471 387.438400
    330    329    331     1   107.5800459 329.699200
    331    329    338     1   109.8000471 387.438400
    332    344    345     1   109.5600471 388.275200
    332    344    346     1   109.5600471 388.275200
    333    332    344     1   109.8000471 387.438400
    333    332    334     1   107.5800459 329.699200
    334    332    344     1   109.8000471 387.438400
    335    341    342     1   109.5600471 388.275200
    335    341    343     1   109.5600471 388.275200
    336    335    341     1   109.8000471 387.438400
    336    335    337     1   107.5800459 329.699200
    337    335    341     1   109.8000471 387.438400
    339    338    347     1   109.7800468 425.094400
    339    338    340     1   108.4600466 328.025600
    340    338    347     1   109.7800468 425.094400
    342    341    724     1   109.7800468 425.094400
    342    341    343     1   108.4600466 328.025600
    343    341    724     1   109.7800468 425.094400
    345    344    753     1   109.7800468 425.094400
    345    344    346     1   108.4600466 328.025600
    346    344    753     1   109.7800468 425.094400
    348    349    350     1   109.8800469 414.216000
    348    349    351     1   109.8800469 414.216000
    348    352    353     1   109.8800469 414.216000
    348    352    354     1   109.8800469 414.216000
    348    355    356     1   109.8800469 414.216000
    348    355    357     1   109.8800469 414.216000
    349    361    362     1   109.8000471 387.438400
    349    361    363     1   109.8000471 387.438400
    350    349    361     1   109.5600471 388.275200
    350    349    351     1   108.4600466 328.025600
    351    349    361     1   109.5600471 388.275200
    352    364    365     1   109.8000471 387.438400
    352    364    366     1   109.8000471 387.438400
    353    352    364     1   109.5600471 388.275200
    353    352    354     1   108.4600466 328.025600
    354    352    364     1   109.5600471 388.275200
    355    358    359     1   109.8000471 387.438400
    355    358    360     1   109.8000471 387.438400
    356    355    358     1   109.5600471 388.275200
    356    355    357     1   108.4600466 328.025600
    357    355    358     1   109.5600471 388.275200
    358    367    368     1   109.5600471 388.275200
    358    367    369     1   109.5600471 388.275200
    359    358    367     1   109.8000471 387.438400
    359    358    360     1   107.5800459 329.699200
    360    358    367     1   109.8000471 387.438400
    361    373    374     1   109.5600471 388.275200
    361    373    375     1   109.5600471 388.275200
    362    361    373     1   109.8000471 387.438400
    362    361    363     1   107.5800459 329.699200
    363    361    373     1   109.8000471 387.438400
    364    370    371     1   109.5600471 388.275200
    364    370    372     1   109.5600471 388.275200
    365    364    370     1   109.8000471 387.438400
    365    364    366     1   107.5800459 329.699200
    366    364    370     1   109.8000471 387.438400
    368    367    376     1   109.7800468 425.094400
    368    367    369     1   108.4600466 328.025600
    369    367    376     1   109.7800468 425.094400
    371    370    782     1   109.7800468 425.094400
    371    370    372     1   108.4600466 328.025600
    372    370    782     1   109.7800468 425.094400
    374    373    811     1   109.7800468 425.094400
    374    373    375     1   108.4600466 328.025600
    375    373    811     1   109.7800468 425.094400
    377    378    379     1   109.8800469 414.216000
    377    378    380     1   109.8800469 414.216000
    377    381    382     1   109.8800469 414.216000
    377    381    383     1   109.8800469 414.216000
    377    384    385     1   109.8800469 414.216000
    377    384    386     1   109.8800469 414.216000
    378    390    391     1   109.8000471 387.438400
    378    390    392     1   109.8000471 387.438400
    379    378    390     1   109.5600471 388.275200
    379    378    380     1   108.4600466 328.025600
    380    378    390     1   109.5600471 388.275200
    381    393    394     1   109.8000471 387.438400
    381    393    395     1   109.8000471 387.438400
    382    381    393     1   109.5600471 388.275200
    382    381    383     1   108.4600466 328.025600
    383    381    393     1   109.5600471 388.275200
    384    387    388     1   109.8000471 387.438400
    384    387    389     1   109.8000471 387.438400
    385    384    387     1   109.5600471 388.275200
    385    384    386     1   108.4600466 328.025600
    386    384    387     1   109.5600471 388.275200
    387    396    397     1   109.5600471 388.275200
    387    396    398     1   109.5600471 388.275200
    388    387    396     1   109.8000471 387.438400
    388    387    389     1   107.5800459 329.699200
    389    387    396     1   109.8000471 387.438400
    390    402    403     1   109.5600471 388.275200
    390    402    404     1   109.5600471 388.275200
    391    390    402     1   109.8000471 387.438400
    391    390    392     1   107.5800459 329.699200
    392    390    402     1   109.8000471 387.438400
    393    399    400     1   109.5600471 388.275200
    393    399    401     1   109.5600471 388.275200
    394    393    399     1   109.8000471 387.438400
    394    393    395     1   107.5800459 329.699200
    395    393    399     1   109.8000471 387.438400
    397    396    405     1   109.7800468 425.094400
    397    396    398     1   108.4600466 328.025600
    398    396    405     1   109.7800468 425.094400
    400    399    840     1   109.7800468 425.094400
    400    399    401     1   108.4600466 328.025600
    401    399    840     1   109.7800468 425.094400
    403    402    869     1   109.7800468 425.094400
    403    402    404     1   108.4600466 328.025600
    404    402    869     1   109.7800468 425.094400
    406    407    408     1   109.8800469 414.216000
    406    407    409     1   109.8800469 414.216000
    406    410    411     1   109.8800469 414.216000
    406    410    412     1   109.8800469 414.216000
    406    413    414     1   109.8800469 414.216000
    406    413    415     1   109.8800469 414.216000
    407    419    420     1   109.8000471 387.438400
    407    419    421     1   109.8000471 387.438400
    408    407    419     1   109.5600471 388.275200
    408    407    409     1   108.4600466 328.025600
    409    407    419     1   109.5600471 388.275200
    410    422    423     1   109.8000471 387.438400
    410    422    424     1   109.8000471 387.438400
    411    410    422     1   109.5600471 388.275200
    411    410    412     1   108.4600466 328.025600
    412    410    422     1   109.5600471 388.275200
    413    416    417     1   109.8000471 387.438400
    413    416    418     1   109.8000471 387.438400
    414    413    416     1   109.5600471 388.275200
    414    413    415     1   108.4600466 328.025600
    415    413    416     1   109.5600471 388.275200
    416    425    426     1   109.5600471 388.275200
    416    425    427     1   109.5600471 388.275200
    417    416    425     1   109.8000471 387.438400
    417    416    418     1   107.5800459 329.699200
    418    416    425     1   109.8000471 387.438400
    419    431    432     1   109.5600471 388.275200
    419    431    433     1   109.5600471 388.275200
    420    419    431     1   109.8000471 387.438400
    420    419    421     1   107.5800459 329.699200
    421    419    431     1   109.8000471 387.438400
    422    428    429     1   109.5600471 388.275200
    422    428    430     1   109.5600471 388.275200
    423    422    428     1   109.8000471 387.438400
    423    422    424     1   107.5800459 329.699200
    424    422    428     1   109.8000471 387.438400
    426    425    434     1   109.7800468 425.094400
    426    425    427     1   108.4600466 328.025600
    427    425    434     1   109.7800468 425.094400
    429    428    898     1   109.7800468 425.094400
    429    428    430     1   108.4600466 328.025600
    430    428    898     1   109.7800468 425.094400
    432    431    927     1   109.7800468 425.094400
    432    431    433     1   108.4600466 328.025600
    433    431    927     1   109.7800468 425.094400
    435    436    437     1   109.8800469 414.216000
    435    436    438     1   109.8800469 414.216000
    435    439    440     1   109.8800469 414.216000
    435    439    441     1   109.8800469 414.216000
    435    442    443     1   109.8800469 414.216000
    435    442    444     1   109.8800469 414.216000
    436    448    449     1   109.8000471 387.438400
    436    448    450     1   109.8000471 387.438400
    437    436    448     1   109.5600471 388.275200
    437    436    438     1   108.4600466 328.025600
    438    436    448     1   109.5600471 388.275200
    439    451    452     1   109.8000471 387.438400
    439    451    453     1   109.8000471 387.438400
    440    439    451     1   109.5600471 388.275200
    440    439    441     1   108.4600466 328.025600
    441    439    451     1   109.5600471 388.275200
    442    445    446     1   109.8000471 387.438400
    442    445    447     1   109.8000471 387.438400
    443    442    445     1   109.5600471 388.275200
    443    442    444     1   108.4600466 328.025600
    444    442    445     1   109.5600471 388.275200
    445    454    455     1   109.5600471 388.275200
    445    454    456     1   109.5600471 388.275200
    446    445    454     1   109.8000471 387.438400
    446    445    447     1   107.5800459 329.699200
    447    445    454     1   109.8000471 387.438400
    448    460    461     1   109.5600471 388.275200
    448    460    462     1   109.5600471 388.275200
    449    448    460     1   109.8000471 387.438400
    449    448    450     1   107.5800459 329.699200
    450    448    460     1   109.8000471 387.438400
    451    457    458     1   109.5600471 388.275200
    451    457    459     1   109.5600471 388.275200
    452    451    457     1   109.8000471 387.438400
    452    451    453     1   107.5800459 329.699200
    453    451    457     1   109.8000471 387.438400
    455    454    463     1   109.7800468 425.094400
    455    454    456     1   108.4600466 328.025600
    456    454    463     1   109.7800468 425.094400
    458    457    956     1   109.7800468 425.094400
    458    457    459     1   108.4600466 328.025600
    459    457    956     1   109.7800468 425.094400
    461    460    985     1   109.7800468 425.094400
    461    460    462     1   108.4600466 328.025600
    462    460    985     1   109.7800468 425.094400
    464    465    466     1   109.8800469 414.216000
    464    465    467     1   109.8800469 414.216000
    464    468    469     1   109.8800469 414.216000
    464    468    470     1   109.8800469 414.216000
    464    471    472     1   109.8800469 414.216000
    464    471    473     1   109.8800469 414.216000
    465    477    478     1   109.8000471 387.438400
    465    477    479     1   109.8000471 387.438400
    466    465    477     1   109.5600471 388.275200
    466    465    467     1   108.4600466 328.025600
    467    465    477     1   109.5600471 388.275200
    468    480    481     1   109.8000471 387.438400
    468    480    482     1   109.8000471 387.438400
    469    468    480     1   109.5600471 388.275200
    469    468    470     1   108.4600466 328.025600
    470    468    480     1   109.5600471 388.275200
    471    474    475     1   109.8000471 387.438400
    471    474    476     1   109.8000471 387.438400
    472    471    474     1   109.5600471 388.275200
    472    471    473     1   108.4600466 328.025600
    473    471    474     1   109.5600471 388.275200
    474    483    484     1   109.5600471 388.275200
    474    483    485     1   109.5600471 388.275200
    475    474    483     1   109.8000471 387.438400
    475    474    476     1   107.5800459 329.699200
    476    474    483     1   109.8000471 387.438400
    477    489    490     1   109.5600471 388.275200
    477    489    491     1   109.5600471 388.275200
    478    477    489     1   109.8000471 387.438400
    478    477    479     1   107.5800459 329.699200
    479    477    489     1   109.8000471 387.438400
    480    486    487     1   109.5600471 388.275200
    480    486    488     1   109.5600471 388.275200
    481    480    486     1   109.8000471 387.438400
    481    480    482     1   107.5800459 329.699200
    482    480    486     1   109.8000471 387.438400
    484    483    492     1   109.7800468 425.094400
    484    483    485     1   108.4600466 328.025600
    485    483    492     1   109.7800468 425.094400
    487    486   1014     1   109.7800468 425.094400
    487    486    488     1   108.4600466 328.025600
    488    486   1014     1   109.7800468 425.094400
    490    489   1043     1   109.7800468 425.094400
    490    489    491     1   108.4600466 328.025600
    491    489   1043     1   109.7800468 425.094400
    493    494    495     1   109.8800469 414.216000
    493    494    496     1   109.8800469 414.216000
    493    497    498     1   109.8800469 414.216000
    493    497    499     1   109.8800469 414.216000
    493    500    501     1   109.8800469 414.216000
    493    500    502     1   109.8800469 414.216000
    494    506    507     1   109.8000471 387.438400
    494    506    508     1   109.8000471 387.438400
    495    494    506     1   109.5600471 388.275200
    495    494    496     1   108.4600466 328.025600
    496    494    506     1   109.5600471 388.275200
    497    509    510     1   109.8000471 387.438400
    497    509    511     1   109.8000471 387.438400
    498    497    509     1   109.5600471 388.275200
    498    497    499     1   108.4600466 328.025600
    499    497    509     1   109.5600471 388.275200
    500    503    504     1   109.8000471 387.438400
    500    503    505     1   109.8000471 387.438400
    501    500    503     1   109.5600471 388.275200
    501    500    502     1   108.4600466 328.025600
    502    500    503     1   109.5600471 388.275200
    503    512    513     1   109.5600471 388.275200
    503    512    514     1   109.5600471 388.275200
    504    503    512     1   109.8000471 387.438400
    504    503    505     1   107.5800459 329.699200
    505    503    512     1   109.8000471 387.438400
    506    518    519     1   109.5600471 388.275200
    506    518    520     1   109.5600471 388.275200
    507    506    518     1   109.8000471 387.438400
    507    506    508     1   107.5800459 329.699200
    508    506    518     1   109.8000471 387.438400
    509    515    516     1   109.5600471 388.275200
    509    515    517     1   109.5600471 388.275200
    510    509    515     1   109.8000471 387.438400
    510    509    511     1   107.5800459 329.699200
    511    509    515     1   109.8000471 387.438400
    513    512    521     1   109.7800468 425.094400
    513    512    514     1   108.4600466 328.025600
    514    512    521     1   109.7800468 425.094400
    516    515   1072     1   109.7800468 425.094400
    516    515    517     1   108.4600466 328.025600
    517    515   1072     1   109.7800468 425.094400
    519    518   1101     1   109.7800468 425.094400
    519    518    520     1   108.4600466 328.025600
    520    518   1101     1   109.7800468 425.094400
    522    523    524     1   109.8800469 414.216000
    522    523    525     1   109.8800469 414.216000
    522    526    527     1   109.8800469 414.216000
    522    526    528     1   109.8800469 414.216000
    522    529    530     1   109.8800469 414.216000
    522    529    531     1   109.8800469 414.216000
    523    535    536     1   109.8000471 387.438400
    523    535    537     1   109.8000471 387.438400
    524    523    535     1   109.5600471 388.275200
    524    523    525     1   108.4600466 328.025600
    525    523    535     1   109.5600471 388.275200
    526    538    539     1   109.8000471 387.438400
    526    538    540     1   109.8000471 387.438400
    527    526    538     1   109.5600471 388.275200
    527    526    528     1   108.4600466 328.025600
    528    526    538     1   109.5600471 388.275200
    529    532    533     1   109.8000471 387.438400
    529    532    534     1   109.8000471 387.438400
    530    529    532     1   109.5600471 388.275200
    530    529    531     1   108.4600466 328.025600
    531    529    532     1   109.5600471 388.275200
    532    541    542     1   109.5600471 388.275200
    532    541    543     1   109.5600471 388.275200
    533    532    541     1   109.8000471 387.438400
    533    532    534     1   107.5800459 329.699200
    534    532    541     1   109.8000471 387.438400
    535    547    548     1   109.5600471 388.275200
    535    547    549     1   109.5600471 388.275200
    536    535    547     1   109.8000471 387.438400
    536    535    537     1   107.5800459 329.699200
    537    535    547     1   109.8000471 387.438400
    538    544    545     1   109.5600471 388.275200
    538    544    546     1   109.5600471 388.275200
    539    538    544     1   109.8000471 387.438400
    539    538    540     1   107.5800459 329.699200
    540    538    544     1   109.8000471 387.438400
    542    541    550     1   109.7800468 425.094400
    542    541    543     1   108.4600466 328.025600
    543    541    550     1   109.7800468 425.094400
    545    544   1130     1   109.7800468 425.094400
    545    544    546     1   108.4600466 328.025600
    546    544   1130     1   109.7800468 425.094400
    548    547   1159     1   109.7800468 425.094400
    548    547    549     1   108.4600466 328.025600
    549    547   1159     1   109.7800468 425.094400
    551    552    553     1   109.8800469 414.216000
    551    552    554     1   109.8800469 414.216000
    551    555    556     1   109.8800469 414.216000
    551    555    557     1   109.8800469 414.216000
    551    558    559     1   109.8800469 414.216000
    551    558    560     1   109.8800469 414.216000
    552    564    565     1   109.8000471 387.438400
    552    564    566     1   109.8000471 387.438400
    553    552    564     1   109.5600471 388.275200
    553    552    554     1   108.4600466 328.025600
    554    552    564     1   109.5600471 388.275200
    555    567    568     1   109.8000471 387.438400
    555    567    569     1   109.8000471 387.438400
    556    555    567     1   109.5600471 388.275200
    556    555    557     1   108.4600466 328.025600
    557    555    567     1   109.5600471 388.275200
    558    561    562     1   109.8000471 387.438400
    558    561    563     1   109.8000471 387.438400
    559    558    561     1   109.5600471 388.275200
    559    558    560     1   108.4600466 328.025600
    560    558    561     1   109.5600471 388.275200
    561    570    571     1   109.5600471 388.275200
    561    570    572     1   109.5600471 388.275200
    562    561    570     1   109.8000471 387.438400
    562    561    563     1   107.5800459 329.699200
    563    561    570     1   109.8000471 387.438400
    564    576    577     1   109.5600471 388.275200
    564    576    578     1   109.5600471 388.275200
    565    564    576     1   109.8000471 387.438400
    565    564    566     1   107.5800459 329.699200
    566    564    576     1   109.8000471 387.438400
    567    573    574     1   109.5600471 388.275200
    567    573    575     1   109.5600471 388.275200
    568    567    573     1   109.8000471 387.438400
    568    567    569     1   107.5800459 329.699200
    569    567    573     1   109.8000471 387.438400
    571    570    579     1   109.7800468 425.094400
    571    570    572     1   108.4600466 328.025600
    572    570    579     1   109.7800468 425.094400
    574    573   1188     1   109.7800468 425.094400
    574    573    575     1   108.4600466 328.025600
    575    573   1188     1   109.7800468 425.094400
    577    576   1217     1   109.7800468 425.094400
    577    576    578     1   108.4600466 328.025600
    578    576   1217     1   109.7800468 425.094400
    580    581    582     1   109.8800469 414.216000
    580    581    583     1   109.8800469 414.216000
    580    584    585     1   109.8800469 414.216000
    580    584    586     1   109.8800469 414.216000
    580    587    588     1   109.8800469 414.216000
    580    587    589     1   109.8800469 414.216000
    581    593    594     1   109.8000471 387.438400
    581    593    595     1   109.8000471 387.438400
    582    581    593     1   109.5600471 388.275200
    582    581    583     1   108.4600466 328.025600
    583    581    593     1   109.5600471 388.275200
    584    596    597     1   109.8000471 387.438400
    584    596    598     1   109.8000471 387.438400
    585    584    596     1   109.5600471 388.275200
    585    584    586     1   108.4600466 328.025600
    586    584    596     1   109.5600471 388.275200
    587    590    591     1   109.8000471 387.438400
    587    590    592     1   109.8000471 387.438400
    588    587    590     1   109.5600471 388.275200
    588    587    589     1   108.4600466 328.025600
    589    587    590     1   109.5600471 388.275200
    590    599    600     1   109.5600471 388.275200
    590    599    601     1   109.5600471 388.275200
    591    590    599     1   109.8000471 387.438400
    591    590    592     1   107.5800459 329.699200
    592    590    599     1   109.8000471 387.438400
    593    605    606     1   109.5600471 388.275200
    593    605    607     1   109.5600471 388.275200
    594    593    605     1   109.8000471 387.438400
    594    593    595     1   107.5800459 329.699200
    595    593    605     1   109.8000471 387.438400
    596    602    603     1   109.5600471 388.275200
    596    602    604     1   109.5600471 388.275200
    597    596    602     1   109.8000471 387.438400
    597    596    598     1   107.5800459 329.699200
    598    596    602     1   109.8000471 387.438400
    600    599    608     1   109.7800468 425.094400
    600    599    601     1   108.4600466 328.025600
    601    599    608     1   109.7800468 425.094400
    603    602   1246     1   109.7800468 425.094400
    603    602    604     1   108.4600466 328.025600
    604    602   1246     1   109.7800468 425.094400
    606    605   1275     1   109.7800468 425.094400
    606    605    607     1   108.4600466 328.025600
    607    605   1275     1   109.7800468 425.094400
    609    610    611     1   109.8800469 414.216000
    609    610    612     1   109.8800469 414.216000
    609    613    614     1   109.8800469 414.216000
    609    613    615     1   109.8800469 414.216000
    609    616    617     1   109.8800469 414.216000
    609    616    618     1   109.8800469 414.216000
    610    622    623     1   109.8000471 387.438400
    610    622    624     1   109.8000471 387.438400
    611    610    622     1   109.5600471 388.275200
    611    610    612     1   108.4600466 328.025600
    612    610    622     1   109.5600471 388.275200
    613    625    626     1   109.8000471 387.438400
    613    625    627     1   109.8000471 387.438400
    614    613    625     1   109.5600471 388.275200
    614    613    615     1   108.4600466 328.025600
    615    613    625     1   109.5600471 388.275200
    616    619    620     1   109.8000471 387.438400
    616    619    621     1   109.8000471 387.438400
    617    616    619     1   109.5600471 388.275200
    617    616    618     1   108.4600466 328.025600
    618    616    619     1   109.5600471 388.275200
    619    628    629     1   109.5600471 388.275200
    619    628    630     1   109.5600471 388.275200
    620    619    628     1   109.8000471 387.438400
    620    619    621     1   107.5800459 329.699200
    621    619    628     1   109.8000471 387.438400
    622    634    635     1   109.5600471 388.275200
    622    634    636     1   109.5600471 388.275200
    623    622    634     1   109.8000471 387.438400
    623    622    624     1   107.5800459 329.699200
    624    622    634     1   109.8000471 387.438400
    625    631    632     1   109.5600471 388.275200
    625    631    633     1   109.5600471 388.275200
    626    625    631     1   109.8000471 387.438400
    626    625    627     1   107.5800459 329.699200
    627    625    631     1   109.8000471 387.438400
    629    628    637     1   109.7800468 425.094400
    629    628    630     1   108.4600466 328.025600
    630    628    637     1   109.7800468 425.094400
    632    631   1304     1   109.7800468 425.094400
    632    631    633     1   108.4600466 328.025600
    633    631   1304     1   109.7800468 425.094400
    635    634   1333     1   109.7800468 425.094400
    635    634    636     1   108.4600466 328.025600
    636    634   1333     1   109.7800468 425.094400
    638    639    640     1   109.8800469 414.216000
    638    639    641     1   109.8800469 414.216000
    638    642    643     1   109.8800469 414.216000
    638    642    644     1   109.8800469 414.216000
    638    645    646     1   109.8800469 414.216000
    638    645    647     1   109.8800469 414.216000
    639    651    652     1   109.8000471 387.438400
    639    651    653     1   109.8000471 387.438400
    640    639    651     1   109.5600471 388.275200
    640    639    641     1   108.4600466 328.025600
    641    639    651     1   109.5600471 388.275200
    642    654    655     1   109.8000471 387.438400
    642    654    656     1   109.8000471 387.438400
    643    642    654     1   109.5600471 388.275200
    643    642    644     1   108.4600466 328.025600
    644    642    654     1   109.5600471 388.275200
    645    648    649     1   109.8000471 387.438400
    645    648    650     1   109.8000471 387.438400
    646    645    648     1   109.5600471 388.275200
    646    645    647     1   108.4600466 328.025600
    647    645    648     1   109.5600471 388.275200
    648    657    658     1   109.5600471 388.275200
    648    657    659     1   109.5600471 388.275200
    649    648    657     1   109.8000471 387.438400
    649    648    650     1   107.5800459 329.699200
    650    648    657     1   109.8000471 387.438400
    651    663    664     1   109.5600471 388.275200
    651    663    665     1   109.5600471 388.275200
    652    651    663     1   109.8000471 387.438400
    652    651    653     1   107.5800459 329.699200
    653    651    663     1   109.8000471 387.438400
    654    660    661     1   109.5600471 388.275200
    654    660    662     1   109.5600471 388.275200
    655    654    660     1   109.8000471 387.438400
    655    654    656     1   107.5800459 329.699200
    656    654    660     1   109.8000471 387.438400
    658    657    666     1   109.7800468 425.094400
    658    657    659     1   108.4600466 328.025600
    659    657    666     1   109.7800468 425.094400
    661    660   1362     1   109.7800468 425.094400
    661    660    662     1   108.4600466 328.025600
    662    660   1362     1   109.7800468 425.094400
    664    663   1391     1   109.7800468 425.094400
    664    663    665     1   108.4600466 328.025600
    665    663   1391     1   109.7800468 425.094400
    667    668    669     1   109.8800469 414.216000
    667    668    670     1   109.8800469 414.216000
    667    671    672     1   109.8800469 414.216000
    667    671    673     1   109.8800469 414.216000
    667    674    675     1   109.8800469 414.216000
    667    674    676     1   109.8800469 414.216000
    668    680    681     1   109.8000471 387.438400
    668    680    682     1   109.8000471 387.438400
    669    668    680     1   109.5600471 388.275200
    669    668    670     1   108.4600466 328.025600
    670    668    680     1   109.5600471 388.275200
    671    683    684     1   109.8000471 387.438400
    671    683    685     1   109.8000471 387.438400
    672    671    683     1   109.5600471 388.275200
    672    671    673     1   108.4600466 328.025600
    673    671    683     1   109.5600471 388.275200
    674    677    678     1   109.8000471 387.438400
    674    677    679     1   109.8000471 387.438400
    675    674    677     1   109.5600471 388.275200
    675    674    676     1   108.4600466 328.025600
    676    674    677     1   109.5600471 388.275200
    677    686    687     1   109.5600471 388.275200
    677    686    688     1   109.5600471 388.275200
    678    677    686     1   109.8000471 387.438400
    678    677    679     1   107.5800459 329.699200
    679    677    686     1   109.8000471 387.438400
    680    692    693     1   109.5600471 388.275200
    680    692    694     1   109.5600471 388.275200
    681    680    692     1   109.8000471 387.438400
    681    680    682     1   107.5800459 329.699200
    682    680    692     1   109.8000471 387.438400
    683    689    690     1   109.5600471 388.275200
    683    689    691     1   109.5600471 388.275200
    684    683    689     1   109.8000471 387.438400
    684    683    685     1   107.5800459 329.699200
    685    683    689     1   109.8000471 387.438400
    687    686    695     1   109.7800468 425.094400
    687    686    688     1   108.4600466 328.025600
    688    686    695     1   109.7800468 425.094400
    690    689   1420     1   109.7800468 425.094400
    690    689    691     1   108.4600466 328.025600
    691    689   1420     1   109.7800468 425.094400
    693    692   1449     1   109.7800468 425.094400
    693    692    694     1   108.4600466 328.025600
    694    692   1449     1   109.7800468 425.094400
    696    697    698     1   109.8800469 414.216000
    696    697    699     1   109.8800469 414.216000
    696    700    701     1   109.8800469 414.216000
    696    700    702     1   109.8800469 414.216000
    696    703    704     1   109.8800469 414.216000
    696    703    705     1   109.8800469 414.216000
    697    709    710     1   109.8000471 387.438400
    697    709    711     1   109.8000471 387.438400
    698    697    709     1   109.5600471 388.275200
    698    697    699     1   108.4600466 328.025600
    699    697    709     1   109.5600471 388.275200
    700    712    713     1   109.8000471 387.438400
    700    712    714     1   109.8000471 387.438400
    701    700    712     1   109.5600471 388.275200
    701    700    702     1   108.4600466 328.025600
    702    700    712     1   109.5600471 388.275200
    703    706    707     1   109.8000471 387.438400
    703    706    708     1   109.8000471 387.438400
    704    703    706     1   109.5600471 388.275200
    704    703    705     1   108.4600466 328.025600
    705    703    706     1   109.5600471 388.275200
    706    715    716     1   109.5600471 388.275200
    706    715    717     1   109.5600471 388.275200
    707    706    715     1   109.8000471 387.438400
    707    706    708     1   107.5800459 329.699200
    708    706    715     1   109.8000471 387.438400
    709    721    722     1   109.5600471 388.275200
    709    721    723     1   109.5600471 388.275200
    710    709    721     1   109.8000471 387.438400
    710    709    711     1   107.5800459 329.699200
    711    709    721     1   109.8000471 387.438400
    712    718    719     1   109.5600471 388.275200
    712    718    720     1   109.5600471 388.275200
    713    712    718     1   109.8000471 387.438400
    713    712    714     1   107.5800459 329.699200
    714    712    718     1   109.8000471 387.438400
    716    715    724     1   109.7800468 425.094400
    716    715    717     1   108.4600466 328.025600
    717    715    724     1   109.7800468 425.094400
    719    718   1478     1   109.7800468 425.094400
    719    718    720     1   108.4600466 328.025600
    720    718   1478     1   109.7800468 425.094400
    722    721   1507     1   109.7800468 425.094400
    722    721    723     1   108.4600466 328.025600
    723    721   1507     1   109.7800468 425.094400
    725    726    727     1   109.8800469 414.216000
    725    726    728     1   109.8800469 414.216000
    725    729    730     1   109.8800469 414.216000
    725    729    731     1   109.8800469 414.216000
    725    732    733     1   109.8800469 414.216000
    725    732    734     1   109.8800469 414.216000
    726    738    739     1   109.8000471 387.438400
    726    738    740     1   109.8000471 387.438400
    727    726    738     1   109.5600471 388.275200
    727    726    728     1   108.4600466 328.025600
    728    726    738     1   109.5600471 388.275200
    729    741    742     1   109.8000471 387.438400
    729    741    743     1   109.8000471 387.438400
    730    729    741     1   109.5600471 388.275200
    730    729    731     1   108.4600466 328.025600
    731    729    741     1   109.5600471 388.275200
    732    735    736     1   109.8000471 387.438400
    732    735    737     1   109.8000471 387.438400
    733    732    735     1   109.5600471 388.275200
    733    732    734     1   108.4600466 328.025600
    734    732    735     1   109.5600471 388.275200
    735    744    745     1   109.5600471 388.275200
    735    744    746     1   109.5600471 388.275200
    736    735    744     1   109.8000471 387.438400
    736    735    737     1   107.5800459 329.699200
    737    735    744     1   109.8000471 387.438400
    738    750    751     1   109.5600471 388.275200
    738    750    752     1   109.5600471 388.275200
    739    738    750     1   109.8000471 387.438400
    739    738    740     1   107.5800459 329.699200
    740    738    750     1   109.8000471 387.438400
    741    747    748     1   109.5600471 388.275200
    741    747    749     1   109.5600471 388.275200
    742    741    747     1   109.8000471 387.438400
    742    741    743     1   107.5800459 329.699200
    743    741    747     1   109.8000471 387.438400
    745    744    753     1   109.7800468 425.094400
    745    744    746     1   108.4600466 328.025600
    746    744    753     1   109.7800468 425.094400
    748    747   1536     1   109.7800468 425.094400
    748    747    749     1   108.4600466 328.025600
    749    747   1536     1   109.7800468 425.094400
    751    750   1565     1   109.7800468 425.094400
    751    750    752     1   108.4600466 328.025600
    752    750   1565     1   109.7800468 425.094400
    754    755    756     1   109.8800469 414.216000
    754    755    757     1   109.8800469 414.216000
    754    758    759     1   109.8800469 414.216000
    754    758    760     1   109.8800469 414.216000
    754    761    762     1   109.8800469 414.216000
    754    761    763     1   109.8800469 414.216000
    755    767    768     1   109.8000471 387.438400
    755    767    769     1   109.8000471 387.438400
    756    755    767     1   109.5600471 388.275200
    756    755    757     1   108.4600466 328.025600
    757    755    767     1   109.5600471 388.275200
    758    770    771     1   109.8000471 387.438400
    758    770    772     1   109.8000471 387.438400
    759    758    770     1   109.5600471 388.275200
    759    758    760     1   108.4600466 328.025600
    760    758    770     1   109.5600471 388.275200
    761    764    765     1   109.8000471 387.438400
    761    764    766     1   109.8000471 387.438400
    762    761    764     1   109.5600471 388.275200
    762    761    763     1   108.4600466 328.025600
    763    761    764     1   109.5600471 388.275200
    764    773    774     1   109.5600471 388.275200
    764    773    775     1   109.5600471 388.275200
    765    764    773     1   109.8000471 387.438400
    765    764    766     1   107.5800459 329.699200
    766    764    773     1   109.8000471 387.438400
    767    779    780     1   109.5600471 388.275200
    767    779    781     1   109.5600471 388.275200
    768    767    779     1   109.8000471 387.438400
    768    767    769     1   107.5800459 329.699200
    769    767    779     1   109.8000471 387.438400
    770    776    777     1   109.5600471 388.275200
    770    776    778     1   109.5600471 388.275200
    771    770    776     1   109.8000471 387.438400
    771    770    772     1   107.5800459 329.699200
    772    770    776     1   109.8000471 387.438400
    774    773    782     1   109.7800468 425.094400
    774    773    775     1   108.4600466 328.025600
    775    773    782     1   109.7800468 425.094400
    777    776   1594     1   109.7800468 425.094400
    777    776    778     1   108.4600466 328.025600
    778    776   1594     1   109.7800468 425.094400
    780    779   1623     1   109.7800468 425.094400
    780    779    781     1   108.4600466 328.025600
    781    779   1623     1   109.7800468 425.094400
    783    784    785     1   109.8800469 414.216000
    783    784    786     1   109.8800469 414.216000
    783    787    788     1   109.8800469 414.216000
    783    787    789     1   109.8800469 414.216000
    783    790    791     1   109.8800469 414.216000
    783    790    792     1   109.8800469 414.216000
    784    796    797     1   109.8000471 387.438400
    784    796    798     1   109.8000471 387.438400
    785    784    796     1   109.5600471 388.275200
    785    784    786     1   108.4600466 328.025600
    786    784    796     1   109.5600471 388.275200
    787    799    800     1   109.8000471 387.438400
    787    799    801     1   109.8000471 387.438400
    788    787    799     1   109.5600471 388.275200
    788    787    789     1   108.4600466 328.025600
    789    787    799     1   109.5600471 388.275200
    790    793    794     1   109.8000471 387.438400
    790    793    795     1   109.8000471 387.438400
    791    790    793     1   109.5600471 388.275200
    791    790    792     1   108.4600466 328.025600
    792    790    793     1   109.5600471 388.275200
    793    802    803     1   109.5600471 388.275200
    793    802    804     1   109.5600471 388.275200
    794    793    802     1   109.8000471 387.438400
    794    793    795     1   107.5800459 329.699200
    795    793    802     1   109.8000471 387.438400
    796    808    809     1   109.5600471 388.275200
    796    808    810     1   109.5600471 388.275200
    797    796    808     1   109.8000471 387.438400
    797    796    798     1   107.5800459 329.699200
    798    796    808     1   109.8000471 387.438400
    799    805    806     1   109.5600471 388.275200
    799    805    807     1   109.5600471 388.275200
    800    799    805     1   109.8000471 387.438400
    800    799    801     1   107.5800459 329.699200
    801    799    805     1   109.8000471 387.438400
    803    802    811     1   109.7800468 425.094400
    803    802    804     1   108.4600466 328.025600
    804    802    811     1   109.7800468 425.094400
    806    805   1652     1   109.7800468 425.094400
    806    805    807     1   108.4600466 328.025600
    807    805   1652     1   109.7800468 425.094400
    809    808   1681     1   109.7800468 425.094400
    809    808    810     1   108.4600466 328.025600
    810    808   1681     1   109.7800468 425.094400
    812    813    814     1   109.8800469 414.216000
    812    813    815     1   109.8800469 414.216000
    812    816    817     1   109.8800469 414.216000
    812    816    818     1   109.8800469 414.216000
    812    819    820     1   109.8800469 414.216000
    812    819    821     1   109.8800469 414.216000
    813    825    826     1   109.8000471 387.438400
    813    825    827     1   109.8000471 387.438400
    814    813    825     1   109.5600471 388.275200
    814    813    815     1   108.4600466 328.025600
    815    813    825     1   109.5600471 388.275200
    816    828    829     1   109.8000471 387.438400
    816    828    830     1   109.8000471 387.438400
    817    816    828     1   109.5600471 388.275200
    817    816    818     1   108.4600466 328.025600
    818    816    828     1   109.5600471 388.275200
    819    822    823     1   109.8000471 387.438400
    819    822    824     1   109.8000471 387.438400
    820    819    822     1   109.5600471 388.275200
    820    819    821     1   108.4600466 328.025600
    821    819    822     1   109.5600471 388.275200
    822    831    832     1   109.5600471 388.275200
    822    831    833     1   109.5600471 388.275200
    823    822    831     1   109.8000471 387.438400
    823    822    824     1   107.5800459 329.699200
    824    822    831     1   109.8000471 387.438400
    825    837    838     1   109.5600471 388.275200
    825    837    839     1   109.5600471 388.275200
    826    825    837     1   109.8000471 387.438400
    826    825    827     1   107.5800459 329.699200
    827    825    837     1   109.8000471 387.438400
    828    834    835     1   109.5600471 388.275200
    828    834    836     1   109.5600471 388.275200
    829    828    834     1   109.8000471 387.438400
    829    828    830     1   107.5800459 329.699200
    830    828    834     1   109.8000471 387.438400
    832    831    840     1   109.7800468 425.094400
    832    831    833     1   108.4600466 328.025600
    833    831    840     1   109.7800468 425.094400
    835    834   1710     1   109.7800468 425.094400
    835    834    836     1   108.4600466 328.025600
    836    834   1710     1   109.7800468 425.094400
    838    837   1739     1   109.7800468 425.094400
    838    837    839     1   108.4600466 328.025600
    839    837   1739     1   109.7800468 425.094400
    841    842    843     1   109.8800469 414.216000
    841    842    844     1   109.8800469 414.216000
    841    845    846     1   109.8800469 414.216000
    841    845    847     1   109.8800469 414.216000
    841    848    849     1   109.8800469 414.216000
    841    848    850     1   109.8800469 414.216000
    842    854    855     1   109.8000471 387.438400
    842    854    856     1   109.8000471 387.438400
    843    842    854     1   109.5600471 388.275200
    843    842    844     1   108.4600466 328.025600
    844    842    854     1   109.5600471 388.275200
    845    857    858     1   109.8000471 387.438400
    845    857    859     1   109.8000471 387.438400
    846    845    857     1   109.5600471 388.275200
    846    845    847     1   108.4600466 328.025600
    847    845    857     1   109.5600471 388.275200
    848    851    852     1   109.8000471 387.438400
    848    851    853     1   109.8000471 387.438400
    849    848    851     1   109.5600471 388.275200
    849    848    850     1   108.4600466 328.025600
    850    848    851     1   109.5600471 388.275200
    851    860    861     1   109.5600471 388.275200
    851    860    862     1   109.5600471 388.275200
    852    851    860     1   109.8000471 387.438400
    852    851    853     1   107.5800459 329.699200
    853    851    860     1   109.8000471 387.438400
    854    866    867     1   109.5600471 388.275200
    854    866    868     1   109.5600471 388.275200
    855    854    866     1   109.8000471 387.438400
    855    854    856     1   107.5800459 329.699200
    856    854    866     1   109.8000471 387.438400
    857    863    864     1   109.5600471 388.275200
    857    863    865     1   109.5600471 388.275200
    858    857    863     1   109.8000471 387.438400
    858    857    859     1   107.5800459 329.699200
    859    857    863     1   109.8000471 387.438400
    861    860    869     1   109.7800468 425.094400
    861    860    862     1   108.4600466 328.025600
    862    860    869     1   109.7800468 425.094400
    864    863   1768     1   109.7800468 425.094400
    864    863    865     1   108.4600466 328.025600
    865    863   1768     1   109.7800468 425.094400
    867    866   1797     1   109.7800468 425.094400
    867    866    868     1   108.4600466 328.025600
    868    866   1797     1   109.7800468 425.094400
    870    873    874     1   109.8000471 387.438400
    870    873    875     1   109.8000471 387.438400
    871    870    873     1   109.5600471 388.275200
    871    870    898     1   109.7800468 425.094400
    871    870    872     1   108.4600466 328.025600
    872    870    873     1   109.5600471 388.275200
    872    870    898     1   109.7800468 425.094400
    873    876    877     1   109.5600471 388.275200
    873    876    878     1   109.5600471 388.275200
    874    873    876     1   109.8000471 387.438400
    874    873    875     1   107.5800459 329.699200
    875    873    876     1   109.8000471 387.438400
    877    876    879     1   109.8800469 414.216000
    877    876    878     1   108.4600466 328.025600
    878    876    879     1   109.8800469 414.216000
    879    880    881     1   109.8800469 414.216000
    879    880    882     1   109.8800469 414.216000
    879    889    890     1   109.8800469 414.216000
    879    889    891     1   109.8800469 414.216000
    880    883    884     1   109.8000471 387.438400
    880    883    885     1   109.8000471 387.438400
    881    880    883     1   109.5600471 388.275200
    881    880    882     1   108.4600466 328.025600
    882    880    883     1   109.5600471 388.275200
    884    883    886     1   108.7700466 392.459200
    884    883    885     1   107.5800459 329.699200
    885    883    886     1   108.7700466 392.459200
    889    892    893     1   109.8000471 387.438400
    889    892    894     1   109.8000471 387.438400
    890    889    892     1   109.5600471 388.275200
    890    889    891     1   108.4600466 328.025600
    891    889    892     1   109.5600471 388.275200
    893    892    895     1   108.7700466 392.459200
    893    892    894     1   107.5800459 329.699200
    894    892    895     1   108.7700466 392.459200
    899    902    903     1   109.8000471 387.438400
    899    902    904     1   109.8000471 387.438400
    900    899    902     1   109.5600471 388.275200
    900    899    927     1   109.7800468 425.094400
    900    899    901     1   108.4600466 328.025600
    901    899    902     1   109.5600471 388.275200
    901    899    927     1   109.7800468 425.094400
    902    905    906     1   109.5600471 388.275200
    902    905    907     1   109.5600471 388.275200
    903    902    905     1   109.8000471 387.438400
    903    902    904     1   107.5800459 329.699200
    904    902    905     1   109.8000471 387.438400
    906    905    908     1   109.8800469 414.216000
    906    905    907     1   108.4600466 328.025600
    907    905    908     1   109.8800469 414.216000
    908    909    910     1   109.8800469 414.216000
    908    909    911     1   109.8800469 414.216000
    908    918    919     1   109.8800469 414.216000
    908    918    920     1   109.8800469 414.216000
    909    912    913     1   109.8000471 387.438400
    909    912    914     1   109.8000471 387.438400
    910    909    912     1   109.5600471 388.275200
    910    909    911     1   108.4600466 328.025600
    911    909    912     1   109.5600471 388.275200
    913    912    915     1   108.7700466 392.459200
    913    912    914     1   107.5800459 329.699200
    914    912    915     1   108.7700466 392.459200
    918    921    922     1   109.8000471 387.438400
    918    921    923     1   109.8000471 387.438400
    919    918    921     1   109.5600471 388.275200
    919    918    920     1   108.4600466 328.025600
    920    918    921     1   109.5600471 388.275200
    922    921    924     1   108.7700466 392.459200
    922    921    923     1   107.5800459 329.699200
    923    921    924     1   108.7700466 392.459200
    928    931    932     1   109.8000471 387.438400
    928    931    933     1   109.8000471 387.438400
    929    928    931     1   109.5600471 388.275200
    929    928    956     1   109.7800468 425.094400
    929    928    930     1   108.4600466 328.025600
    930    928    931     1   109.5600471 388.275200
    930    928    956     1   109.7800468 425.094400
    931    934    935     1   109.5600471 388.275200
    931    934    936     1   109.5600471 388.275200
    932    931    934     1   109.8000471 387.438400
    932    931    933     1   107.5800459 329.699200
    933    931    934     1   109.8000471 387.438400
    935    934    937     1   109.8800469 414.216000
    935    934    936     1   108.4600466 328.025600
    936    934    937     1   109.8800469 414.216000
    937    938    939     1   109.8800469 414.216000
    937    938    940     1   109.8800469 414.216000
    937    947    948     1   109.8800469 414.216000
    937    947    949     1   109.8800469 414.216000
    938    941    942     1   109.8000471 387.438400
    938    941    943     1   109.8000471 387.438400
    939    938    941     1   109.5600471 388.275200
    939    938    940     1   108.4600466 328.025600
    940    938    941     1   109.5600471 388.275200
    942    941    944     1   108.7700466 392.459200
    942    941    943     1   107.5800459 329.699200
    943    941    944     1   108.7700466 392.459200
    947    950    951     1   109.8000471 387.438400
    947    950    952     1   109.8000471 387.438400
    948    947    950     1   109.5600471 388.275200
    948    947    949     1   108.4600466 328.025600
    949    947    950     1   109.5600471 388.275200
    951    950    953     1   108.7700466 392.459200
    951    950    952     1   107.5800459 329.699200
    952    950    953     1   108.7700466 392.459200
    957    960    961     1   109.8000471 387.438400
    957    960    962     1   109.8000471 387.438400
    958    957    960     1   109.5600471 388.275200
    958    957    985     1   109.7800468 425.094400
    958    957    959     1   108.4600466 328.025600
    959    957    960     1   109.5600471 388.275200
    959    957    985     1   109.7800468 425.094400
    960    963    964     1   109.5600471 388.275200
    960    963    965     1   109.5600471 388.275200
    961    960    963     1   109.8000471 387.438400
    961    960    962     1   107.5800459 329.699200
    962    960    963     1   109.8000471 387.438400
    964    963    966     1   109.8800469 414.216000
    964    963    965     1   108.4600466 328.025600
    965    963    966     1   109.8800469 414.216000
    966    967    968     1   109.8800469 414.216000
    966    967    969     1   109.8800469 414.216000
    966    976    977     1   109.8800469 414.216000
    966    976    978     1   109.8800469 414.216000
    967    970    971     1   109.8000471 387.438400
    967    970    972     1   109.8000471 387.438400
    968    967    970     1   109.5600471 388.275200
    968    967    969     1   108.4600466 328.025600
    969    967    970     1   109.5600471 388.275200
    971    970    973     1   108.7700466 392.459200
    971    970    972     1   107.5800459 329.699200
    972    970    973     1   108.7700466 392.459200
    976    979    980     1   109.8000471 387.438400
    976    979    981     1   109.8000471 387.438400
    977    976    979     1   109.5600471 388.275200
    977    976    978     1   108.4600466 328.025600
    978    976    979     1   109.5600471 388.275200
    980    979    982     1   108.7700466 392.459200
    980    979    981     1   107.5800459 329.699200
    981    979    982     1   108.7700466 392.459200
    986    989    990     1   109.8000471 387.438400
    986    989    991     1   109.8000471 387.438400
    987    986    989     1   109.5600471 388.275200
    987    986   1014     1   109.7800468 425.094400
    987    986    988     1   108.4600466 328.025600
    988    986    989     1   109.5600471 388.275200
    988    986   1014     1   109.7800468 425.094400
    989    992    993     1   109.5600471 388.275200
    989    992    994     1   109.5600471 388.275200
    990    989    992     1   109.8000471 387.438400
    990    989    991     1   107.5800459 329.699200
    991    989    992     1   109.8000471 387.438400
    993    992    995     1   109.8800469 414.216000
    993    992    994     1   108.4600466 328.025600
    994    992    995     1   109.8800469 414.216000
    995    996    997     1   109.8800469 414.216000
    995    996    998     1   109.8800469 414.216000
    995   1005   1006     1   109.8800469 414.216000
    995   1005   1007     1   109.8800469 414.216000
    996    999   1000     1   109.8000471 387.438400
    996    999   1001     1   109.8000471 387.438400
    997    996    999     1   109.5600471 388.275200
    997    996    998     1   108.4600466 328.025600
    998    996    999     1   109.5600471 388.275200
   1000    999   1002     1   108.7700466 392.459200
   1000    999   1001     1   107.5800459 329.699200
   1001    999   1002     1   108.7700466 392.459200
   1005   1008   1009     1   109.8000471 387.438400
   1005   1008   1010     1   109.8000471 387.438400
   1006   1005   1008     1   109.5600471 388.275200
   1006   1005   1007     1   108.4600466 328.025600
   1007   1005   1008     1   109.5600471 388.275200
   1009   1008   1011     1   108.7700466 392.459200
   1009   1008   1010     1   107.5800459 329.699200
   1010   1008   1011     1   108.7700466 392.459200
   1015   1018   1019     1   109.8000471 387.438400
   1015   1018   1020     1   109.8000471 387.438400
   1016   1015   1018     1   109.5600471 388.275200
   1016   1015   1043     1   109.7800468 425.094400
   1016   1015   1017     1   108.4600466 328.025600
   1017   1015   1018     1   109.5600471 388.275200
   1017   1015   1043     1   109.7800468 425.094400
   1018   1021   1022     1   109.5600471 388.275200
   1018   1021   1023     1   109.5600471 388.275200
   1019   1018   1021     1   109.8000471 387.438400
   1019   1018   1020     1   107.5800459 329.699200
   1020   1018   1021     1   109.8000471 387.438400
   1022   1021   1024     1   109.8800469 414.216000
   1022   1021   1023     1   108.4600466 328.025600
   1023   1021   1024     1   109.8800469 414.216000
   1024   1025   1026     1   109.8800469 414.216000
   1024   1025   1027     1   109.8800469 414.216000
   1024   1034   1035     1   109.8800469 414.216000
   1024   1034   1036     1   109.8800469 414.216000
   1025   1028   1029     1   109.8000471 387.438400
   1025   1028   1030     1   109.8000471 387.438400
   1026   1025   1028     1   109.5600471 388.275200
   1026   1025   1027     1   108.4600466 328.025600
   1027   1025   1028     1   109.5600471 388.275200
   1029   1028   1031     1   108.7700466 392.459200
   1029   1028   1030     1   107.5800459 329.699200
   1030   1028   1031     1   108.7700466 392.459200
   1034   1037   1038     1   109.8000471 387.438400
   1034   1037   1039     1   109.8000471 387.438400
   1035   1034   1037     1   109.5600471 388.275200
   1035   1034   1036     1   108.4600466 328.025600
   1036   1034   1037     1   109.5600471 388.275200
   1038   1037   1040     1   108.7700466 392.459200
   1038   1037   1039     1   107.5800459 329.699200
   1039   1037   1040     1   108.7700466 392.459200
   1044   1047   1048     1   109.8000471 387.438400
   1044   1047   1049     1   109.8000471 387.438400
   1045   1044   1047     1   109.5600471 388.275200
   1045   1044   1072     1   109.7800468 425.094400
   1045   1044   1046     1   108.4600466 328.025600
   1046   1044   1047     1   109.5600471 388.275200
   1046   1044   1072     1   109.7800468 425.094400
   1047   1050   1051     1   109.5600471 388.275200
   1047   1050   1052     1   109.5600471 388.275200
   1048   1047   1050     1   109.8000471 387.438400
   1048   1047   1049     1   107.5800459 329.699200
   1049   1047   1050     1   109.8000471 387.438400
   1051   1050   1053     1   109.8800469 414.216000
   1051   1050   1052     1   108.4600466 328.025600
   1052   1050   1053     1   109.8800469 414.216000
   1053   1054   1055     1   109.8800469 414.216000
   1053   1054   1056     1   109.8800469 414.216000
   1053   1063   1064     1   109.8800469 414.216000
   1053   1063   1065     1   109.8800469 414.216000
   1054   1057   1058     1   109.8000471 387.438400
   1054   1057   1059     1   109.8000471 387.438400
   1055   1054   1057     1   109.5600471 388.275200
   1055   1054   1056     1   108.4600466 328.025600
   1056   1054   1057     1   109.5600471 388.275200
   1058   1057   1060     1   108.7700466 392.459200
   1058   1057   1059     1   107.5800459 329.699200
   1059   1057   1060     1   108.7700466 392.459200
   1063   1066   1067     1   109.8000471 387.438400
   1063   1066   1068     1   109.8000471 387.438400
   1064   1063   1066     1   109.5600471 388.275200
   1064   1063   1065     1   108.4600466 328.025600
   1065   1063   1066     1   109.5600471 388.275200
   1067   1066   1069     1   108.7700466 392.459200
   1067   1066   1068     1   107.5800459 329.699200
   1068   1066   1069     1   108.7700466 392.459200
   1073   1076   1077     1   109.8000471 387.438400
   1073   1076   1078     1   109.8000471 387.438400
   1074   1073   1076     1   109.5600471 388.275200
   1074   1073   1101     1   109.7800468 425.094400
   1074   1073   1075     1   108.4600466 328.025600
   1075   1073   1076     1   109.5600471 388.275200
   1075   1073   1101     1   109.7800468 425.094400
   1076   1079   1080     1   109.5600471 388.275200
   1076   1079   1081     1   109.5600471 388.275200
   1077   1076   1079     1   109.8000471 387.438400
   1077   1076   1078     1   107.5800459 329.699200
   1078   1076   1079     1   109.8000471 387.438400
   1080   1079   1082     1   109.8800469 414.216000
   1080   1079   1081     1   108.4600466 328.025600
   1081   1079   1082     1   109.8800469 414.216000
   1082   1083   1084     1   109.8800469 414.216000
   1082   1083   1085     1   109.8800469 414.216000
   1082   1092   1093     1   109.8800469 414.216000
   1082   1092   1094     1   109.8800469 414.216000
   1083   1086   1087     1   109.8000471 387.438400
   1083   1086   1088     1   109.8000471 387.438400
   1084   1083   1086     1   109.5600471 388.275200
   1084   1083   1085     1   108.4600466 328.025600
   1085   1083   1086     1   109.5600471 388.275200
   1087   1086   1089     1   108.7700466 392.459200
   1087   1086   1088     1   107.5800459 329.699200
   1088   1086   1089     1   108.7700466 392.459200
   1092   1095   1096     1   109.8000471 387.438400
   1092   1095   1097     1   109.8000471 387.438400
   1093   1092   1095     1   109.5600471 388.275200
   1093   1092   1094     1   108.4600466 328.025600
   1094   1092   1095     1   109.5600471 388.275200
   1096   1095   1098     1   108.7700466 392.459200
   1096   1095   1097     1   107.5800459 329.699200
   1097   1095   1098     1   108.7700466 392.459200
   1102   1105   1106     1   109.8000471 387.438400
   1102   1105   1107     1   109.8000471 387.438400
   1103   1102   1105     1   109.5600471 388.275200
   1103   1102   1130     1   109.7800468 425.094400
   1103   1102   1104     1   108.4600466 328.025600
   1104   1102   1105     1   109.5600471 388.275200
   1104   1102   1130     1   109.7800468 425.094400
   1105   1108   1109     1   109.5600471 388.275200
   1105   1108   1110     1   109.5600471 388.275200
   1106   1105   1108     1   109.8000471 387.438400
   1106   1105   1107     1   107.5800459 329.699200
   1107   1105   1108     1   109.8000471 387.438400
   1109   1108   1111     1   109.8800469 414.216000
   1109   1108   1110     1   108.4600466 328.025600
   1110   1108   1111     1   109.8800469 414.216000
   1111   1112   1113     1   109.8800469 414.216000
   1111   1112   1114     1   109.8800469 414.216000
   1111   1121   1122     1   109.8800469 414.216000
   1111   1121   1123     1   109.8800469 414.216000
   1112   1115   1116     1   109.8000471 387.438400
   1112   1115   1117     1   109.8000471 387.438400
   1113   1112   1115     1   109.5600471 388.275200
   1113   1112   1114     1   108.4600466 328.025600
   1114   1112   1115     1   109.5600471 388.275200
   1116   1115   1118     1   108.7700466 392.459200
   1116   1115   1117     1   107.5800459 329.699200
   1117   1115   1118     1   108.7700466 392.459200
   1121   1124   1125     1   109.8000471 387.438400
   1121   1124   1126     1   109.8000471 387.438400
   1122   1121   1124     1   109.5600471 388.275200
   1122   1121   1123     1   108.4600466 328.025600
   1123   1121   1124     1   109.5600471 388.275200
   1125   1124   1127     1   108.7700466 392.459200
   1125   1124   1126     1   107.5800459 329.699200
   1126   1124   1127     1   108.7700466 392.459200
   1131   1134   1135     1   109.8000471 387.438400
   1131   1134   1136     1   109.8000471 387.438400
   1132   1131   1134     1   109.5600471 388.275200
   1132   1131   1159     1   109.7800468 425.094400
   1132   1131   1133     1   108.4600466 328.025600
   1133   1131   1134     1   109.5600471 388.275200
   1133   1131   1159     1   109.7800468 425.094400
   1134   1137   1138     1   109.5600471 388.275200
   1134   1137   1139     1   109.5600471 388.275200
   1135   1134   1137     1   109.8000471 387.438400
   1135   1134   1136     1   107.5800459 329.699200
   1136   1134   1137     1   109.8000471 387.438400
   1138   1137   1140     1   109.8800469 414.216000
   1138   1137   1139     1   108.4600466 328.025600
   1139   1137   1140     1   109.8800469 414.216000
   1140   1141   1142     1   109.8800469 414.216000
   1140   1141   1143     1   109.8800469 414.216000
   1140   1150   1151     1   109.8800469 414.216000
   1140   1150   1152     1   109.8800469 414.216000
   1141   1144   1145     1   109.8000471 387.438400
   1141   1144   1146     1   109.8000471 387.438400
   1142   1141   1144     1   109.5600471 388.275200
   1142   1141   1143     1   108.4600466 328.025600
   1143   1141   1144     1   109.5600471 388.275200
   1145   1144   1147     1   108.7700466 392.459200
   1145   1144   1146     1   107.5800459 329.699200
   1146   1144   1147     1   108.7700466 392.459200
   1150   1153   1154     1   109.8000471 387.438400
   1150   1153   1155     1   109.8000471 387.438400
   1151   1150   1153     1   109.5600471 388.275200
   1151   1150   1152     1   108.4600466 328.025600
   1152   1150   1153     1   109.5600471 388.275200
   1154   1153   1156     1   108.7700466 392.459200
   1154   1153   1155     1   107.5800459 329.699200
   1155   1153   1156     1   108.7700466 392.459200
   1160   1163   1164     1   109.8000471 387.438400
   1160   1163   1165     1   109.8000471 387.438400
   1161   1160   1163     1   109.5600471 388.275200
   1161   1160   1188     1   109.7800468 425.094400
   1161   1160   1162     1   108.4600466 328.025600
   1162   1160   1163     1   109.5600471 388.275200
   1162   1160   1188     1   109.7800468 425.094400
   1163   1166   1167     1   109.5600471 388.275200
   1163   1166   1168     1   109.5600471 388.275200
   1164   1163   1166     1   109.8000471 387.438400
   1164   1163   1165     1   107.5800459 329.699200
   1165   1163   1166     1   109.8000471 387.438400
   1167   1166   1169     1   109.8800469 414.216000
   1167   1166   1168     1   108.4600466 328.025600
   1168   1166   1169     1   109.8800469 414.216000
   1169   1170   1171     1   109.8800469 414.216000
   1169   1170   1172     1   109.8800469 414.216000
   1169   1179   1180     1   109.8800469 414.216000
   1169   1179   1181     1   109.8800469 414.216000
   1170   1173   1174     1   109.8000471 387.438400
   1170   1173   1175     1   109.8000471 387.438400
   1171   1170   1173     1   109.5600471 388.275200
   1171   1170   1172     1   108.4600466 328.025600
   1172   1170   1173     1   109.5600471 388.275200
   1174   1173   1176     1   108.7700466 392.459200
   1174   1173   1175     1   107.5800459 329.699200
   1175   1173   1176     1   108.7700466 392.459200
   1179   1182   1183     1   109.8000471 387.438400
   1179   1182   1184     1   109.8000471 387.438400
   1180   1179   1182     1   109.5600471 388.275200
   1180   1179   1181     1   108.4600466 328.025600
   1181   1179   1182     1   109.5600471 388.275200
   1183   1182   1185     1   108.7700466 392.459200
   1183   1182   1184     1   107.5800459 329.699200
   1184   1182   1185     1   108.7700466 392.459200
   1189   1192   1193     1   109.8000471 387.438400
   1189   1192   1194     1   109.8000471 387.438400
   1190   1189   1192     1   109.5600471 388.275200
   1190   1189   1217     1   109.7800468 425.094400
   1190   1189   1191     1   108.4600466 328.025600
   1191   1189   1192     1   109.5600471 388.275200
   1191   1189   1217     1   109.7800468 425.094400
   1192   1195   1196     1   109.5600471 388.275200
   1192   1195   1197     1   109.5600471 388.275200
   1193   1192   1195     1   109.8000471 387.438400
   1193   1192   1194     1   107.5800459 329.699200
   1194   1192   1195     1   109.8000471 387.438400
   1196   1195   1198     1   109.8800469 414.216000
   1196   1195   1197     1   108.4600466 328.025600
   1197   1195   1198     1   109.8800469 414.216000
   1198   1199   1200     1   109.8800469 414.216000
   1198   1199   1201     1   109.8800469 414.216000
   1198   1208   1209     1   109.8800469 414.216000
   1198   1208   1210     1   109.8800469 414.216000
   1199   1202   1203     1   109.8000471 387.438400
   1199   1202   1204     1   109.8000471 387.438400
   1200   1199   1202     1   109.5600471 388.275200
   1200   1199   1201     1   108.4600466 328.025600
   1201   1199   1202     1   109.5600471 388.275200
   1203   1202   1205     1   108.7700466 392.459200
   1203   1202   1204     1   107.5800459 329.699200
   1204   1202   1205     1   108.7700466 392.459200
   1208   1211   1212     1   109.8000471 387.438400
   1208   1211   1213     1   109.8000471 387.438400
   1209   1208   1211     1   109.5600471 388.275200
   1209   1208   1210     1   108.4600466 328.025600
   1210   1208   1211     1   109.5600471 388.275200
   1212   1211   1214     1   108.7700466 392.459200
   1212   1211   1213     1   107.5800459 329.699200
   1213   1211   1214     1   108.7700466 392.459200
   1218   1221   1222     1   109.8000471 387.438400
   1218   1221   1223     1   109.8000471 387.438400
   1219   1218   1221     1   109.5600471 388.275200
   1219   1218   1246     1   109.7800468 425.094400
   1219   1218   1220     1   108.4600466 328.025600
   1220   1218   1221     1   109.5600471 388.275200
   1220   1218   1246     1   109.7800468 425.094400
   1221   1224   1225     1   109.5600471 388.275200
   1221   1224   1226     1   109.5600471 388.275200
   1222   1221   1224     1   109.8000471 387.438400
   1222   1221   1223     1   107.5800459 329.699200
   1223   1221   1224     1   109.8000471 387.438400
   1225   1224   1227     1   109.8800469 414.216000
   1225   1224   1226     1   108.4600466 328.025600
   1226   1224   1227     1   109.8800469 414.216000
   1227   1228   1229     1   109.8800469 414.216000
   1227   1228   1230     1   109.8800469 414.216000
   1227   1237   1238     1   109.8800469 414.216000
   1227   1237   1239     1   109.8800469 414.216000
   1228   1231   1232     1   109.8000471 387.438400
   1228   1231   1233     1   109.8000471 387.438400
   1229   1228   1231     1   109.5600471 388.275200
   1229   1228   1230     1   108.4600466 328.025600
   1230   1228   1231     1   109.5600471 388.275200
   1232   1231   1234     1   108.7700466 392.459200
   1232   1231   1233     1   107.5800459 329.699200
   1233   1231   1234     1   108.7700466 392.459200
   1237   1240   1241     1   109.8000471 387.438400
   1237   1240   1242     1   109.8000471 387.438400
   1238   1237   1240     1   109.5600471 388.275200
   1238   1237   1239     1   108.4600466 328.025600
   1239   1237   1240     1   109.5600471 388.275200
   1241   1240   1243     1   108.7700466 392.459200
   1241   1240   1242     1   107.5800459 329.699200
   1242   1240   1243     1   108.7700466 392.459200
   1247   1250   1251     1   109.8000471 387.438400
   1247   1250   1252     1   109.8000471 387.438400
   1248   1247   1250     1   109.5600471 388.275200
   1248   1247   1275     1   109.7800468 425.094400
   1248   1247   1249     1   108.4600466 328.025600
   1249   1247   1250     1   109.5600471 388.275200
   1249   1247   1275     1   109.7800468 425.094400
   1250   1253   1254     1   109.5600471 388.275200
   1250   1253   1255     1   109.5600471 388.275200
   1251   1250   1253     1   109.8000471 387.438400
   1251   1250   1252     1   107.5800459 329.699200
   1252   1250   1253     1   109.8000471 387.438400
   1254   1253   1256     1   109.8800469 414.216000
   1254   1253   1255     1   108.4600466 328.025600
   1255   1253   1256     1   109.8800469 414.216000
   1256   1257   1258     1   109.8800469 414.216000
   1256   1257   1259     1   109.8800469 414.216000
   1256   1266   1267     1   109.8800469 414.216000
   1256   1266   1268     1   109.8800469 414.216000
   1257   1260   1261     1   109.8000471 387.438400
   1257   1260   1262     1   109.8000471 387.438400
   1258   1257   1260     1   109.5600471 388.275200
   1258   1257   1259     1   108.4600466 328.025600
   1259   1257   1260     1   109.5600471 388.275200
   1261   1260   1263     1   108.7700466 392.459200
   1261   1260   1262     1   107.5800459 329.699200
   1262   1260   1263     1   108.7700466 392.459200
   1266   1269   1270     1   109.8000471 387.438400
   1266   1269   1271     1   109.8000471 387.438400
   1267   1266   1269     1   109.5600471 388.275200
   1267   1266   1268     1   108.4600466 328.025600
   1268   1266   1269     1   109.5600471 388.275200
   1270   1269   1272     1   108.7700466 392.459200
   1270   1269   1271     1   107.5800459 329.699200
   1271   1269   1272     1   108.7700466 392.459200
   1276   1279   1280     1   109.8000471 387.438400
   1276   1279   1281     1   109.8000471 387.438400
   1277   1276   1279     1   109.5600471 388.275200
   1277   1276   1304     1   109.7800468 425.094400
   1277   1276   1278     1   108.4600466 328.025600
   1278   1276   1279     1   109.5600471 388.275200
   1278   1276   1304     1   109.7800468 425.094400
   1279   1282   1283     1   109.5600471 388.275200
   1279   1282   1284     1   109.5600471 388.275200
   1280   1279   1282     1   109.8000471 387.438400
   1280   1279   1281     1   107.5800459 329.699200
   1281   1279   1282     1   109.8000471 387.438400
   1283   1282   1285     1   109.8800469 414.216000
   1283   1282   1284     1   108.4600466 328.025600
   1284   1282   1285     1   109.8800469 414.216000
   1285   1286   1287     1   109.8800469 414.216000
   1285   1286   1288     1   109.8800469 414.216000
   1285   1295   1296     1   109.8800469 414.216000
   1285   1295   1297     1   109.8800469 414.216000
   1286   1289   1290     1   109.8000471 387.438400
   1286   1289   1291     1   109.8000471 387.438400
   1287   1286   1289     1   109.5600471 388.275200
   1287   1286   1288     1   108.4600466 328.025600
   1288   1286   1289     1   109.5600471 388.275200
   1290   1289   1292     1   108.7700466 392.459200
   1290   1289   1291     1   107.5800459 329.699200
   1291   1289   1292     1   108.7700466 392.459200
   1295   1298   1299     1   109.8000471 387.438400
   1295   1298   1300     1   109.8000471 387.438400
   1296   1295   1298     1   109.5600471 388.275200
   1296   1295   1297     1   108.4600466 328.025600
   1297   1295   1298     1   109.5600471 388.275200
   1299   1298   1301     1   108.7700466 392.459200
   1299   1298   1300     1   107.5800459 329.699200
   1300   1298   1301     1   108.7700466 392.459200
   1305   1308   1309     1   109.8000471 387.438400
   1305   1308   1310     1   109.8000471 387.438400
   1306   1305   1308     1   109.5600471 388.275200
   1306   1305   1333     1   109.7800468 425.094400
   1306   1305   1307     1   108.4600466 328.025600
   1307   1305   1308     1   109.5600471 388.275200
   1307   1305   1333     1   109.7800468 425.094400
   1308   1311   1312     1   109.5600471 388.275200
   1308   1311   1313     1   109.5600471 388.275200
   1309   1308   1311     1   109.8000471 387.438400
   1309   1308   1310     1   107.5800459 329.699200
   1310   1308   1311     1   109.8000471 387.438400
   1312   1311   1314     1   109.8800469 414.216000
   1312   1311   1313     1   108.4600466 328.025600
   1313   1311   1314     1   109.8800469 414.216000
   1314   1315   1316     1   109.8800469 414.216000
   1314   1315   1317     1   109.8800469 414.216000
   1314   1324   1325     1   109.8800469 414.216000
   1314   1324   1326     1   109.8800469 414.216000
   1315   1318   1319     1   109.8000471 387.438400
   1315   1318   1320     1   109.8000471 387.438400
   1316   1315   1318     1   109.5600471 388.275200
   1316   1315   1317     1   108.4600466 328.025600
   1317   1315   1318     1   109.5600471 388.275200
   1319   1318   1321     1   108.7700466 392.459200
   1319   1318   1320     1   107.5800459 329.699200
   1320   1318   1321     1   108.7700466 392.459200
   1324   1327   1328     1   109.8000471 387.438400
   1324   1327   1329     1   109.8000471 387.438400
   1325   1324   1327     1   109.5600471 388.275200
   1325   1324   1326     1   108.4600466 328.025600
   1326   1324   1327     1   109.5600471 388.275200
   1328   1327   1330     1   108.7700466 392.459200
   1328   1327   1329     1   107.5800459 329.699200
   1329   1327   1330     1   108.7700466 392.459200
   1334   1337   1338     1   109.8000471 387.438400
   1334   1337   1339     1   109.8000471 387.438400
   1335   1334   1337     1   109.5600471 388.275200
   1335   1334   1362     1   109.7800468 425.094400
   1335   1334   1336     1   108.4600466 328.025600
   1336   1334   1337     1   109.5600471 388.275200
   1336   1334   1362     1   109.7800468 425.094400
   1337   1340   1341     1   109.5600471 388.275200
   1337   1340   1342     1   109.5600471 388.275200
   1338   1337   1340     1   109.8000471 387.438400
   1338   1337   1339     1   107.5800459 329.699200
   1339   1337   1340     1   109.8000471 387.438400
   1341   1340   1343     1   109.8800469 414.216000
   1341   1340   1342     1   108.4600466 328.025600
   1342   1340   1343     1   109.8800469 414.216000
   1343   1344   1345     1   109.8800469 414.216000
   1343   1344   1346     1   109.8800469 414.216000
   1343   1353   1354     1   109.8800469 414.216000
   1343   1353   1355     1   109.8800469 414.216000
   1344   1347   1348     1   109.8000471 387.438400
   1344   1347   1349     1   109.8000471 387.438400
   1345   1344   1347     1   109.5600471 388.275200
   1345   1344   1346     1   108.4600466 328.025600
   1346   1344   1347     1   109.5600471 388.275200
   1348   1347   1350     1   108.7700466 392.459200
   1348   1347   1349     1   107.5800459 329.699200
   1349   1347   1350     1   108.7700466 392.459200
   1353   1356   1357     1   109.8000471 387.438400
   1353   1356   1358     1   109.8000471 387.438400
   1354   1353   1356     1   109.5600471 388.275200
   1354   1353   1355     1   108.4600466 328.025600
   1355   1353   1356     1   109.5600471 388.275200
   1357   1356   1359     1   108.7700466 392.459200
   1357   1356   1358     1   107.5800459 329.699200
   1358   1356   1359     1   108.7700466 392.459200
   1363   1366   1367     1   109.8000471 387.438400
   1363   1366   1368     1   109.8000471 387.438400
   1364   1363   1366     1   109.5600471 388.275200
   1364   1363   1391     1   109.7800468 425.094400
   1364   1363   1365     1   108.4600466 328.025600
   1365   1363   1366     1   109.5600471 388.275200
   1365   1363   1391     1   109.7800468 425.094400
   1366   1369   1370     1   109.5600471 388.275200
   1366   1369   1371     1   109.5600471 388.275200
   1367   1366   1369     1   109.8000471 387.438400
   1367   1366   1368     1   107.5800459 329.699200
   1368   1366   1369     1   109.8000471 387.438400
   1370   1369   1372     1   109.8800469 414.216000
   1370   1369   1371     1   108.4600466 328.025600
   1371   1369   1372     1   109.8800469 414.216000
   1372   1373   1374     1   109.8800469 414.216000
   1372   1373   1375     1   109.8800469 414.216000
   1372   1382   1383     1   109.8800469 414.216000
   1372   1382   1384     1   109.8800469 414.216000
   1373   1376   1377     1   109.8000471 387.438400
   1373   1376   1378     1   109.8000471 387.438400
   1374   1373   1376     1   109.5600471 388.275200
   1374   1373   1375     1   108.4600466 328.025600
   1375   1373   1376     1   109.5600471 388.275200
   1377   1376   1379     1   108.7700466 392.459200
   1377   1376   1378     1   107.5800459 329.699200
   1378   1376   1379     1   108.7700466 392.459200
   1382   1385   1386     1   109.8000471 387.438400
   1382   1385   1387     1   109.8000471 387.438400
   1383   1382   1385     1   109.5600471 388.275200
   1383   1382   1384     1   108.4600466 328.025600
   1384   1382   1385     1   109.5600471 388.275200
   1386   1385   1388     1   108.7700466 392.459200
   1386   1385   1387     1   107.5800459 329.699200
   1387   1385   1388     1   108.7700466 392.459200
   1392   1395   1396     1   109.8000471 387.438400
   1392   1395   1397     1   109.8000471 387.438400
   1393   1392   1395     1   109.5600471 388.275200
   1393   1392   1420     1   109.7800468 425.094400
   1393   1392   1394     1   108.4600466 328.025600
   1394   1392   1395     1   109.5600471 388.275200
   1394   1392   1420     1   109.7800468 425.094400
   1395   1398   1399     1   109.5600471 388.275200
   1395   1398   1400     1   109.5600471 388.275200
   1396   1395   1398     1   109.8000471 387.438400
   1396   1395   1397     1   107.5800459 329.699200
   1397   1395   1398     1   109.8000471 387.438400
   1399   1398   1401     1   109.8800469 414.216000
   1399   1398   1400     1   108.4600466 328.025600
   1400   1398   1401     1   109.8800469 414.216000
   1401   1402   1403     1   109.8800469 414.216000
   1401   1402   1404     1   109.8800469 414.216000
   1401   1411   1412     1   109.8800469 414.216000
   1401   1411   1413     1   109.8800469 414.216000
   1402   1405   1406     1   109.8000471 387.438400
   1402   1405   1407     1   109.8000471 387.438400
   1403   1402   1405     1   109.5600471 388.275200
   1403   1402   1404     1   108.4600466 328.025600
   1404   1402   1405     1   109.5600471 388.275200
   1406   1405   1408     1   108.7700466 392.459200
   1406   1405   1407     1   107.5800459 329.699200
   1407   1405   1408     1   108.7700466 392.459200
   1411   1414   1415     1   109.8000471 387.438400
   1411   1414   1416     1   109.8000471 387.438400
   1412   1411   1414     1   109.5600471 388.275200
   1412   1411   1413     1   108.4600466 328.025600
   1413   1411   1414     1   109.5600471 388.275200
   1415   1414   1417     1   108.7700466 392.459200
   1415   1414   1416     1   107.5800459 329.699200
   1416   1414   1417     1   108.7700466 392.459200
   1421   1424   1425     1   109.8000471 387.438400
   1421   1424   1426     1   109.8000471 387.438400
   1422   1421   1424     1   109.5600471 388.275200
   1422   1421   1449     1   109.7800468 425.094400
   1422   1421   1423     1   108.4600466 328.025600
   1423   1421   1424     1   109.5600471 388.275200
   1423   1421   1449     1   109.7800468 425.094400
   1424   1427   1428     1   109.5600471 388.275200
   1424   1427   1429     1   109.5600471 388.275200
   1425   1424   1427     1   109.8000471 387.438400
   1425   1424   1426     1   107.5800459 329.699200
   1426   1424   1427     1   109.8000471 387.438400
   1428   1427   1430     1   109.8800469 414.216000
   1428   1427   1429     1   108.4600466 328.025600
   1429   1427   1430     1   109.8800469 414.216000
   1430   1431   1432     1   109.8800469 414.216000
   1430   1431   1433     1   109.8800469 414.216000
   1430   1440   1441     1   109.8800469 414.216000
   1430   1440   1442     1   109.8800469 414.216000
   1431   1434   1435     1   109.8000471 387.438400
   1431   1434   1436     1   109.8000471 387.438400
   1432   1431   1434     1   109.5600471 388.275200
   1432   1431   1433     1   108.4600466 328.025600
   1433   1431   1434     1   109.5600471 388.275200
   1435   1434   1437     1   108.7700466 392.459200
   1435   1434   1436     1   107.5800459 329.699200
   1436   1434   1437     1   108.7700466 392.459200
   1440   1443   1444     1   109.8000471 387.438400
   1440   1443   1445     1   109.8000471 387.438400
   1441   1440   1443     1   109.5600471 388.275200
   1441   1440   1442     1   108.4600466 328.025600
   1442   1440   1443     1   109.5600471 388.275200
   1444   1443   1446     1   108.7700466 392.459200
   1444   1443   1445     1   107.5800459 329.699200
   1445   1443   1446     1   108.7700466 392.459200
   1450   1453   1454     1   109.8000471 387.438400
   1450   1453   1455     1   109.8000471 387.438400
   1451   1450   1453     1   109.5600471 388.275200
   1451   1450   1478     1   109.7800468 425.094400
   1451   1450   1452     1   108.4600466 328.025600
   1452   1450   1453     1   109.5600471 388.275200
   1452   1450   1478     1   109.7800468 425.094400
   1453   1456   1457     1   109.5600471 388.275200
   1453   1456   1458     1   109.5600471 388.275200
   1454   1453   1456     1   109.8000471 387.438400
   1454   1453   1455     1   107.5800459 329.699200
   1455   1453   1456     1   109.8000471 387.438400
   1457   1456   1459     1   109.8800469 414.216000
   1457   1456   1458     1   108.4600466 328.025600
   1458   1456   1459     1   109.8800469 414.216000
   1459   1460   1461     1   109.8800469 414.216000
   1459   1460   1462     1   109.8800469 414.216000
   1459   1469   1470     1   109.8800469 414.216000
   1459   1469   1471     1   109.8800469 414.216000
   1460   1463   1464     1   109.8000471 387.438400
   1460   1463   1465     1   109.8000471 387.438400
   1461   1460   1463     1   109.5600471 388.275200
   1461   1460   1462     1   108.4600466 328.025600
   1462   1460   1463     1   109.5600471 388.275200
   1464   1463   1466     1   108.7700466 392.459200
   1464   1463   1465     1   107.5800459 329.699200
   1465   1463   1466     1   108.7700466 392.459200
   1469   1472   1473     1   109.8000471 387.438400
   1469   1472   1474     1   109.8000471 387.438400
   1470   1469   1472     1   109.5600471 388.275200
   1470   1469   1471     1   108.4600466 328.025600
   1471   1469   1472     1   109.5600471 388.275200
   1473   1472   1475     1   108.7700466 392.459200
   1473   1472   1474     1   107.5800459 329.699200
   1474   1472   1475     1   108.7700466 392.459200
   1479   1482   1483     1   109.8000471 387.438400
   1479   1482   1484     1   109.8000471 387.438400
   1480   1479   1482     1   109.5600471 388.275200
   1480   1479   1507     1   109.7800468 425.094400
   1480   1479   1481     1   108.4600466 328.025600
   1481   1479   1482     1   109.5600471 388.275200
   1481   1479   1507     1   109.7800468 425.094400
   1482   1485   1486     1   109.5600471 388.275200
   1482   1485   1487     1   109.5600471 388.275200
   1483   1482   1485     1   109.8000471 387.438400
   1483   1482   1484     1   107.5800459 329.699200
   1484   1482   1485     1   109.8000471 387.438400
   1486   1485   1488     1   109.8800469 414.216000
   1486   1485   1487     1   108.4600466 328.025600
   1487   1485   1488     1   109.8800469 414.216000
   1488   1489   1490     1   109.8800469 414.216000
   1488   1489   1491     1   109.8800469 414.216000
   1488   1498   1499     1   109.8800469 414.216000
   1488   1498   1500     1   109.8800469 414.216000
   1489   1492   1493     1   109.8000471 387.438400
   1489   1492   1494     1   109.8000471 387.438400
   1490   1489   1492     1   109.5600471 388.275200
   1490   1489   1491     1   108.4600466 328.025600
   1491   1489   1492     1   109.5600471 388.275200
   1493   1492   1495     1   108.7700466 392.459200
   1493   1492   1494     1   107.5800459 329.699200
   1494   1492   1495     1   108.7700466 392.459200
   1498   1501   1502     1   109.8000471 387.438400
   1498   1501   1503     1   109.8000471 387.438400
   1499   1498   1501     1   109.5600471 388.275200
   1499   1498   1500     1   108.4600466 328.025600
   1500   1498   1501     1   109.5600471 388.275200
   1502   1501   1504     1   108.7700466 392.459200
   1502   1501   1503     1   107.5800459 329.699200
   1503   1501   1504     1   108.7700466 392.459200
   1508   1511   1512     1   109.8000471 387.438400
   1508   1511   1513     1   109.8000471 387.438400
   1509   1508   1511     1   109.5600471 388.275200
   1509   1508   1536     1   109.7800468 425.094400
   1509   1508   1510     1   108.4600466 328.025600
   1510   1508   1511     1   109.5600471 388.275200
   1510   1508   1536     1   109.7800468 425.094400
   1511   1514   1515     1   109.5600471 388.275200
   1511   1514   1516     1   109.5600471 388.275200
   1512   1511   1514     1   109.8000471 387.438400
   1512   1511   1513     1   107.5800459 329.699200
   1513   1511   1514     1   109.8000471 387.438400
   1515   1514   1517     1   109.8800469 414.216000
   1515   1514   1516     1   108.4600466 328.025600
   1516   1514   1517     1   109.8800469 414.216000
   1517   1518   1519     1   109.8800469 414.216000
   1517   1518   1520     1   109.8800469 414.216000
   1517   1527   1528     1   109.8800469 414.216000
   1517   1527   1529     1   109.8800469 414.216000
   1518   1521   1522     1   109.8000471 387.438400
   1518   1521   1523     1   109.8000471 387.438400
   1519   1518   1521     1   109.5600471 388.275200
   1519   1518   1520     1   108.4600466 328.025600
   1520   1518   1521     1   109.5600471 388.275200
   1522   1521   1524     1   108.7700466 392.459200
   1522   1521   1523     1   107.5800459 329.699200
   1523   1521   1524     1   108.7700466 392.459200
   1527   1530   1531     1   109.8000471 387.438400
   1527   1530   1532     1   109.8000471 387.438400
   1528   1527   1530     1   109.5600471 388.275200
   1528   1527   1529     1   108.4600466 328.025600
   1529   1527   1530     1   109.5600471 388.275200
   1531   1530   1533     1   108.7700466 392.459200
   1531   1530   1532     1   107.5800459 329.699200
   1532   1530   1533     1   108.7700466 392.459200
   1537   1540   1541     1   109.8000471 387.438400
   1537   1540   1542     1   109.8000471 387.438400
   1538   1537   1540     1   109.5600471 388.275200
   1538   1537   1565     1   109.7800468 425.094400
   1538   1537   1539     1   108.4600466 328.025600
   1539   1537   1540     1   109.5600471 388.275200
   1539   1537   1565     1   109.7800468 425.094400
   1540   1543   1544     1   109.5600471 388.275200
   1540   1543   1545     1   109.5600471 388.275200
   1541   1540   1543     1   109.8000471 387.438400
   1541   1540   1542     1   107.5800459 329.699200
   1542   1540   1543     1   109.8000471 387.438400
   1544   1543   1546     1   109.8800469 414.216000
   1544   1543   1545     1   108.4600466 328.025600
   1545   1543   1546     1   109.8800469 414.216000
   1546   1547   1548     1   109.8800469 414.216000
   1546   1547   1549     1   109.8800469 414.216000
   1546   1556   1557     1   109.8800469 414.216000
   1546   1556   1558     1   109.8800469 414.216000
   1547   1550   1551     1   109.8000471 387.438400
   1547   1550   1552     1   109.8000471 387.438400
   1548   1547   1550     1   109.5600471 388.275200
   1548   1547   1549     1   108.4600466 328.025600
   1549   1547   1550     1   109.5600471 388.275200
   1551   1550   1553     1   108.7700466 392.459200
   1551   1550   1552     1   107.5800459 329.699200
   1552   1550   1553     1   108.7700466 392.459200
   1556   1559   1560     1   109.8000471 387.438400
   1556   1559   1561     1   109.8000471 387.438400
   1557   1556   1559     1   109.5600471 388.275200
   1557   1556   1558     1   108.4600466 328.025600
   1558   1556   1559     1   109.5600471 388.275200
   1560   1559   1562     1   108.7700466 392.459200
   1560   1559   1561     1   107.5800459 329.699200
   1561   1559   1562     1   108.7700466 392.459200
   1566   1569   1570     1   109.8000471 387.438400
   1566   1569   1571     1   109.8000471 387.438400
   1567   1566   1569     1   109.5600471 388.275200
   1567   1566   1594     1   109.7800468 425.094400
   1567   1566   1568     1   108.4600466 328.025600
   1568   1566   1569     1   109.5600471 388.275200
   1568   1566   1594     1   109.7800468 425.094400
   1569   1572   1573     1   109.5600471 388.275200
   1569   1572   1574     1   109.5600471 388.275200
   1570   1569   1572     1   109.8000471 387.438400
   1570   1569   1571     1   107.5800459 329.699200
   1571   1569   1572     1   109.8000471 387.438400
   1573   1572   1575     1   109.8800469 414.216000
   1573   1572   1574     1   108.4600466 328.025600
   1574   1572   1575     1   109.8800469 414.216000
   1575   1576   1577     1   109.8800469 414.216000
   1575   1576   1578     1   109.8800469 414.216000
   1575   1585   1586     1   109.8800469 414.216000
   1575   1585   1587     1   109.8800469 414.216000
   1576   1579   1580     1   109.8000471 387.438400
   1576   1579   1581     1   109.8000471 387.438400
   1577   1576   1579     1   109.5600471 388.275200
   1577   1576   1578     1   108.4600466 328.025600
   1578   1576   1579     1   109.5600471 388.275200
   1580   1579   1582     1   108.7700466 392.459200
   1580   1579   1581     1   107.5800459 329.699200
   1581   1579   1582     1   108.7700466 392.459200
   1585   1588   1589     1   109.8000471 387.438400
   1585   1588   1590     1   109.8000471 387.438400
   1586   1585   1588     1   109.5600471 388.275200
   1586   1585   1587     1   108.4600466 328.025600
   1587   1585   1588     1   109.5600471 388.275200
   1589   1588   1591     1   108.7700466 392.459200
   1589   1588   1590     1   107.5800459 329.699200
   1590   1588   1591     1   108.7700466 392.459200
   1595   1598   1599     1   109.8000471 387.438400
   1595   1598   1600     1   109.8000471 387.438400
   1596   1595   1598     1   109.5600471 388.275200
   1596   1595   1623     1   109.7800468 425.094400
   1596   1595   1597     1   108.4600466 328.025600
   1597   1595   1598     1   109.5600471 388.275200
   1597   1595   1623     1   109.7800468 425.094400
   1598   1601   1602     1   109.5600471 388.275200
   1598   1601   1603     1   109.5600471 388.275200
   1599   1598   1601     1   109.8000471 387.438400
   1599   1598   1600     1   107.5800459 329.699200
   1600   1598   1601     1   109.8000471 387.438400
   1602   1601   1604     1   109.8800469 414.216000
   1602   1601   1603     1   108.4600466 328.025600
   1603   1601   1604     1   109.8800469 414.216000
   1604   1605   1606     1   109.8800469 414.216000
   1604   1605   1607     1   109.8800469 414.216000
   1604   1614   1615     1   109.8800469 414.216000
   1604   1614   1616     1   109.8800469 414.216000
   1605   1608   1609     1   109.8000471 387.438400
   1605   1608   1610     1   109.8000471 387.438400
   1606   1605   1608     1   109.5600471 388.275200
   1606   1605   1607     1   108.4600466 328.025600
   1607   1605   1608     1   109.5600471 388.275200
   1609   1608   1611     1   108.7700466 392.459200
   1609   1608   1610     1   107.5800459 329.699200
   1610   1608   1611     1   108.7700466 392.459200
   1614   1617   1618     1   109.8000471 387.438400
   1614   1617   1619     1   109.8000471 387.438400
   1615   1614   1617     1   109.5600471 388.275200
   1615   1614   1616     1   108.4600466 328.025600
   1616   1614   1617     1   109.5600471 388.275200
   1618   1617   1620     1   108.7700466 392.459200
   1618   1617   1619     1   107.5800459 329.699200
   1619   1617   1620     1   108.7700466 392.459200
   1624   1627   1628     1   109.8000471 387.438400
   1624   1627   1629     1   109.8000471 387.438400
   1625   1624   1627     1   109.5600471 388.275200
   1625   1624   1652     1   109.7800468 425.094400
   1625   1624   1626     1   108.4600466 328.025600
   1626   1624   1627     1   109.5600471 388.275200
   1626   1624   1652     1   109.7800468 425.094400
   1627   1630   1631     1   109.5600471 388.275200
   1627   1630   1632     1   109.5600471 388.275200
   1628   1627   1630     1   109.8000471 387.438400
   1628   1627   1629     1   107.5800459 329.699200
   1629   1627   1630     1   109.8000471 387.438400
   1631   1630   1633     1   109.8800469 414.216000
   1631   1630   1632     1   108.4600466 328.025600
   1632   1630   1633     1   109.8800469 414.216000
   1633   1634   1635     1   109.8800469 414.216000
   1633   1634   1636     1   109.8800469 414.216000
   1633   1643   1644     1   109.8800469 414.216000
   1633   1643   1645     1   109.8800469 414.216000
   1634   1637   1638     1   109.8000471 387.438400
   1634   1637   1639     1   109.8000471 387.438400
   1635   1634   1637     1   109.5600471 388.275200
   1635   1634   1636     1   108.4600466 328.025600
   1636   1634   1637     1   109.5600471 388.275200
   1638   1637   1640     1   108.7700466 392.459200
   1638   1637   1639     1   107.5800459 329.699200
   1639   1637   1640     1   108.7700466 392.459200
   1643   1646   1647     1   109.8000471 387.438400
   1643   1646   1648     1   109.8000471 387.438400
   1644   1643   1646     1   109.5600471 388.275200
   1644   1643   1645     1   108.4600466 328.025600
   1645   1643   1646     1   109.5600471 388.275200
   1647   1646   1649     1   108.7700466 392.459200
   1647   1646   1648     1   107.5800459 329.699200
   1648   1646   1649     1   108.7700466 392.459200
   1653   1656   1657     1   109.8000471 387.438400
   1653   1656   1658     1   109.8000471 387.438400
   1654   1653   1656     1   109.5600471 388.275200
   1654   1653   1681     1   109.7800468 425.094400
   1654   1653   1655     1   108.4600466 328.025600
   1655   1653   1656     1   109.5600471 388.275200
   1655   1653   1681     1   109.7800468 425.094400
   1656   1659   1660     1   109.5600471 388.275200
   1656   1659   1661     1   109.5600471 388.275200
   1657   1656   1659     1   109.8000471 387.438400
   1657   1656   1658     1   107.5800459 329.699200
   1658   1656   1659     1   109.8000471 387.438400
   1660   1659   1662     1   109.8800469 414.216000
   1660   1659   1661     1   108.4600466 328.025600
   1661   1659   1662     1   109.8800469 414.216000
   1662   1663   1664     1   109.8800469 414.216000
   1662   1663   1665     1   109.8800469 414.216000
   1662   1672   1673     1   109.8800469 414.216000
   1662   1672   1674     1   109.8800469 414.216000
   1663   1666   1667     1   109.8000471 387.438400
   1663   1666   1668     1   109.8000471 387.438400
   1664   1663   1666     1   109.5600471 388.275200
   1664   1663   1665     1   108.4600466 328.025600
   1665   1663   1666     1   109.5600471 388.275200
   1667   1666   1669     1   108.7700466 392.459200
   1667   1666   1668     1   107.5800459 329.699200
   1668   1666   1669     1   108.7700466 392.459200
   1672   1675   1676     1   109.8000471 387.438400
   1672   1675   1677     1   109.8000471 387.438400
   1673   1672   1675     1   109.5600471 388.275200
   1673   1672   1674     1   108.4600466 328.025600
   1674   1672   1675     1   109.5600471 388.275200
   1676   1675   1678     1   108.7700466 392.459200
   1676   1675   1677     1   107.5800459 329.699200
   1677   1675   1678     1   108.7700466 392.459200
   1682   1685   1686     1   109.8000471 387.438400
   1682   1685   1687     1   109.8000471 387.438400
   1683   1682   1685     1   109.5600471 388.275200
   1683   1682   1710     1   109.7800468 425.094400
   1683   1682   1684     1   108.4600466 328.025600
   1684   1682   1685     1   109.5600471 388.275200
   1684   1682   1710     1   109.7800468 425.094400
   1685   1688   1689     1   109.5600471 388.275200
   1685   1688   1690     1   109.5600471 388.275200
   1686   1685   1688     1   109.8000471 387.438400
   1686   1685   1687     1   107.5800459 329.699200
   1687   1685   1688     1   109.8000471 387.438400
   1689   1688   1691     1   109.8800469 414.216000
   1689   1688   1690     1   108.4600466 328.025600
   1690   1688   1691     1   109.8800469 414.216000
   1691   1692   1693     1   109.8800469 414.216000
   1691   1692   1694     1   109.8800469 414.216000
   1691   1701   1702     1   109.8800469 414.216000
   1691   1701   1703     1   109.8800469 414.216000
   1692   1695   1696     1   109.8000471 387.438400
   1692   1695   1697     1   109.8000471 387.438400
   1693   1692   1695     1   109.5600471 388.275200
   1693   1692   1694     1   108.4600466 328.025600
   1694   1692   1695     1   109.5600471 388.275200
   1696   1695   1698     1   108.7700466 392.459200
   1696   1695   1697     1   107.5800459 329.699200
   1697   1695   1698     1   108.7700466 392.459200
   1701   1704   1705     1   109.8000471 387.438400
   1701   1704   1706     1   109.8000471 387.438400
   1702   1701   1704     1   109.5600471 388.275200
   1702   1701   1703     1   108.4600466 328.025600
   1703   1701   1704     1   109.5600471 388.275200
   1705   1704   1707     1   108.7700466 392.459200
   1705   1704   1706     1   107.5800459 329.699200
   1706   1704   1707     1   108.7700466 392.459200
   1711   1714   1715     1   109.8000471 387.438400
   1711   1714   1716     1   109.8000471 387.438400
   1712   1711   1714     1   109.5600471 388.275200
   1712   1711   1739     1   109.7800468 425.094400
   1712   1711   1713     1   108.4600466 328.025600
   1713   1711   1714     1   109.5600471 388.275200
   1713   1711   1739     1   109.7800468 425.094400
   1714   1717   1718     1   109.5600471 388.275200
   1714   1717   1719     1   109.5600471 388.275200
   1715   1714   1717     1   109.8000471 387.438400
   1715   1714   1716     1   107.5800459 329.699200
   1716   1714   1717     1   109.8000471 387.438400
   1718   1717   1720     1   109.8800469 414.216000
   1718   1717   1719     1   108.4600466 328.025600
   1719   1717   1720     1   109.8800469 414.216000
   1720   1721   1722     1   109.8800469 414.216000
   1720   1721   1723     1   109.8800469 414.216000
   1720   1730   1731     1   109.8800469 414.216000
   1720   1730   1732     1   109.8800469 414.216000
   1721   1724   1725     1   109.8000471 387.438400
   1721   1724   1726     1   109.8000471 387.438400
   1722   1721   1724     1   109.5600471 388.275200
   1722   1721   1723     1   108.4600466 328.025600
   1723   1721   1724     1   109.5600471 388.275200
   1725   1724   1727     1   108.7700466 392.459200
   1725   1724   1726     1   107.5800459 329.699200
   1726   1724   1727     1   108.7700466 392.459200
   1730   1733   1734     1   109.8000471 387.438400
   1730   1733   1735     1   109.8000471 387.438400
   1731   1730   1733     1   109.5600471 388.275200
   1731   1730   1732     1   108.4600466 328.025600
   1732   1730   1733     1   109.5600471 388.275200
   1734   1733   1736     1   108.7700466 392.459200
   1734   1733   1735     1   107.5800459 329.699200
   1735   1733   1736     1   108.7700466 392.459200
   1740   1743   1744     1   109.8000471 387.438400
   1740   1743   1745     1   109.8000471 387.438400
   1741   1740   1743     1   109.5600471 388.275200
   1741   1740   1768     1   109.7800468 425.094400
   1741   1740   1742     1   108.4600466 328.025600
   1742   1740   1743     1   109.5600471 388.275200
   1742   1740   1768     1   109.7800468 425.094400
   1743   1746   1747     1   109.5600471 388.275200
   1743   1746   1748     1   109.5600471 388.275200
   1744   1743   1746     1   109.8000471 387.438400
   1744   1743   1745     1   107.5800459 329.699200
   1745   1743   1746     1   109.8000471 387.438400
   1747   1746   1749     1   109.8800469 414.216000
   1747   1746   1748     1   108.4600466 328.025600
   1748   1746   1749     1   109.8800469 414.216000
   1749   1750   1751     1   109.8800469 414.216000
   1749   1750   1752     1   109.8800469 414.216000
   1749   1759   1760     1   109.8800469 414.216000
   1749   1759   1761     1   109.8800469 414.216000
   1750   1753   1754     1   109.8000471 387.438400
   1750   1753   1755     1   109.8000471 387.438400
   1751   1750   1753     1   109.5600471 388.275200
   1751   1750   1752     1   108.4600466 328.025600
   1752   1750   1753     1   109.5600471 388.275200
   1754   1753   1756     1   108.7700466 392.459200
   1754   1753   1755     1   107.5800459 329.699200
   1755   1753   1756     1   108.7700466 392.459200
   1759   1762   1763     1   109.8000471 387.438400
   1759   1762   1764     1   109.8000471 387.438400
   1760   1759   1762     1   109.5600471 388.275200
   1760   1759   1761     1   108.4600466 328.025600
   1761   1759   1762     1   109.5600471 388.275200
   1763   1762   1765     1   108.7700466 392.459200
   1763   1762   1764     1   107.5800459 329.699200
   1764   1762   1765     1   108.7700466 392.459200
   1769   1772   1773     1   109.8000471 387.438400
   1769   1772   1774     1   109.8000471 387.438400
   1770   1769   1772     1   109.5600471 388.275200
   1770   1769   1797     1   109.7800468 425.094400
   1770   1769   1771     1   108.4600466 328.025600
   1771   1769   1772     1   109.5600471 388.275200
   1771   1769   1797     1   109.7800468 425.094400
   1772   1775   1776     1   109.5600471 388.275200
   1772   1775   1777     1   109.5600471 388.275200
   1773   1772   1775     1   109.8000471 387.438400
   1773   1772   1774     1   107.5800459 329.699200
   1774   1772   1775     1   109.8000471 387.438400
   1776   1775   1778     1   109.8800469 414.216000
   1776   1775   1777     1   108.4600466 328.025600
   1777   1775   1778     1   109.8800469 414.216000
   1778   1779   1780     1   109.8800469 414.216000
   1778   1779   1781     1   109.8800469 414.216000
   1778   1788   1789     1   109.8800469 414.216000
   1778   1788   1790     1   109.8800469 414.216000
   1779   1782   1783     1   109.8000471 387.438400
   1779   1782   1784     1   109.8000471 387.438400
   1780   1779   1782     1   109.5600471 388.275200
   1780   1779   1781     1   108.4600466 328.025600
   1781   1779   1782     1   109.5600471 388.275200
   1783   1782   1785     1   108.7700466 392.459200
   1783   1782   1784     1   107.5800459 329.699200
   1784   1782   1785     1   108.7700466 392.459200
   1788   1791   1792     1   109.8000471 387.438400
   1788   1791   1793     1   109.8000471 387.438400
   1789   1788   1791     1   109.5600471 388.275200
   1789   1788   1790     1   108.4600466 328.025600
   1790   1788   1791     1   109.5600471 388.275200
   1792   1791   1794     1   108.7700466 392.459200
   1792   1791   1793     1   107.5800459 329.699200
   1793   1791   1794     1   108.7700466 392.459200

[ dihedrals ]
;    ai     aj     ak     al funct         c0         c1         c2         c3         c4         c5
      1      2      8     14     1  0.0000000  0.6508444  3
      1      5     11     17     1  0.0000000  0.6508444  3
      2      1      5     11     1  180.0000771  0.4184000  2
      2      1      5     11     1  0.0000000  1.6024720  3
      2      8     14     20     1  0.0000000  0.6508444  3
      5      1      2      8     1  180.0000771  0.4184000  2
      5      1      2      8     1  0.0000000  1.6024720  3
      5     11     17     21     1  0.0000000  0.6508444  3
      8     14     20     28     1  180.0000771  2.0083200  2
      8     14     20     28     1  0.0000000  1.2552000  3
      8     14     20     31     1  180.0000771  2.0083200  2
      8     14     20     31     1  0.0000000  1.2552000  3
     11     17     21     22     1  180.0000771  2.0083200  2
     11     17     21     22     1  0.0000000  1.2552000  3
     11     17     21     25     1  180.0000771  2.0083200  2
     11     17     21     25     1  0.0000000  1.2552000  3
     14     20     28     40     1  180.0000771  2.0083200  2
     14     20     28     40     1  0.0000000  1.2552000  3
     14     20     31     43     1  180.0000771  2.0083200  2
     14     20     31     43     1  0.0000000  1.2552000  3
     17     21     22     34     1  180.0000771  2.0083200  2
     17     21     22     34     1  0.0000000  1.2552000  3
     17     21     25     37     1  180.0000771  2.0083200  2
     17     21     25     37     1  0.0000000  1.2552000  3
     20     28     40     49     1  0.0000000  0.6508444  3
     20     31     43     46     1  0.0000000  0.6508444  3
     21     22     34     55     1  0.0000000  0.6508444  3
     21     25     37     52     1  0.0000000  0.6508444  3
     22     21     25     37     1  180.0000771  2.0083200  2
     22     21     25     37     1  0.0000000  1.2552000  3
     22     34     55    173     1  0.0000000  0.6508444  3
     25     21     22     34     1  180.0000771  2.0083200  2
     25     21     22     34     1  0.0000000  1.2552000  3
     25     37     52    144     1  0.0000000  0.6508444  3
     28     20     31     43     1  180.0000771  2.0083200  2
     28     20     31     43     1  0.0000000  1.2552000  3
     28     40     49    115     1  0.0000000  0.6508444  3
     31     20     28     40     1  180.0000771  2.0083200  2
     31     20     28     40     1  0.0000000  1.2552000  3
     31     43     46     86     1  0.0000000  0.6508444  3
     34     55    173    164     1  180.0000771  0.4184000  2
     34     55    173    164     1  0.0000000  1.6024720  3
     37     52    144    135     1  180.0000771  0.4184000  2
     37     52    144    135     1  0.0000000  1.6024720  3
     40     49    115    106     1  180.0000771  0.4184000  2
     40     49    115    106     1  0.0000000  1.6024720  3
     43     46     86     77     1  180.0000771  0.4184000  2
     43     46     86     77     1  0.0000000  1.6024720  3
     46     86     77     68     1  180.0000771  0.4184000  2
     46     86     77     68     1  0.0000000  1.6024720  3
     49    115    106     97     1  180.0000771  0.4184000  2
     49    115    106     97     1  0.0000000  1.6024720  3
     52    144    135    126     1  180.0000771  0.4184000  2
     52    144    135    126     1  0.0000000  1.6024720  3
     55    173    164    155     1  180.0000771  0.4184000  2
     55    173    164    155     1  0.0000000  1.6024720  3
     58     59     71     83     1  0.0000000  0.6508444  3
     58     62     74     80     1  0.0000000  0.6508444  3
     58     65     68     77     1  0.0000000  0.6508444  3
     59     58     62     74     1  180.0000771  2.0083200  2
     59     58     62     74     1  0.0000000  1.2552000  3
     59     58     65     68     1  180.0000771  2.0083200  2
     59     58     65     68     1  0.0000000  1.2552000  3
     59     71     83    231     1  0.0000000  0.6508444  3
     62     58     59     71     1  180.0000771  2.0083200  2
     62     58     59     71     1  0.0000000  1.2552000  3
     62     58     65     68     1  180.0000771  2.0083200  2
     62     58     65     68     1  0.0000000  1.2552000  3
     62     74     80    202     1  0.0000000  0.6508444  3
     65     58     59     71     1  180.0000771  2.0083200  2
     65     58     59     71     1  0.0000000  1.2552000  3
     65     58     62     74     1  180.0000771  2.0083200  2
     65     58     62     74     1  0.0000000  1.2552000  3
     65     68     77     86     1  0.0000000  0.6508444  3
     71     83    231    222     1  180.0000771  0.4184000  2
     71     83    231    222     1  0.0000000  1.6024720  3
     74     80    202    193     1  180.0000771  0.4184000  2
     74     80    202    193     1  0.0000000  1.6024720  3
     80    202    193    184     1  180.0000771  0.4184000  2
     80    202    193    184     1  0.0000000  1.6024720  3
     83    231    222    213     1  180.0000771  0.4184000  2
     83    231    222    213     1  0.0000000  1.6024720  3
     87     88    100    112     1  0.0000000  0.6508444  3
     87     91    103    109     1  0.0000000  0.6508444  3
     87     94     97    106     1  0.0000000  0.6508444  3
     88     87     91    103     1  180.0000771  2.0083200  2
     88     87     91    103     1  0.0000000  1.2552000  3
     88     87     94     97     1  180.0000771  2.0083200  2
     88     87     94     97     1  0.0000000  1.2552000  3
     88    100    112    289     1  0.0000000  0.6508444  3
     91     87     88    100     1  180.0000771  2.0083200  2
     91     87     88    100     1  0.0000000  1.2552000  3
     91     87     94     97     1  180.0000771  2.0083200  2
     91     87     94     97     1  0.0000000  1.2552000  3
     91    103    109    260     1  0.0000000  0.6508444  3
     94     87     88    100     1  180.0000771  2.0083200  2
     94     87     88    100     1  0.0000000  1.2552000  3
     94     87     91    103     1  180.0000771  2.0083200  2
     94     87     91    103     1  0.0000000  1.2552000  3
     94     97    106    115     1  0.0000000  0.6508444  3
    100    112    289    280     1  180.0000771  0.4184000  2
    100    112    289    280     1  0.0000000  1.6024720  3
    103    109    260    251     1  180.0000771  0.4184000  2
    103    109    260    251     1  0.0000000  1.6024720  3
    109    260    251    242     1  180.0000771  0.4184000  2
    109    260    251    242     1  0.0000000  1.6024720  3
    112    289    280    271     1  180.0000771  0.4184000  2
    112    289    280    271     1  0.0000000  1.6024720  3
    116    117    129    141     1  0.0000000  0.6508444  3
    116    120    132    138     1  0.0000000  0.6508444  3
    116    123    126    135     1  0.0000000  0.6508444  3
    117    116    120    132     1  180.0000771  2.0083200  2
    117    116    120    132     1  0.0000000  1.2552000  3
    117    116    123    126     1  180.0000771  2.0083200  2
    117    116    123    126     1  0.0000000  1.2552000  3
    117    129    141    347     1  0.0000000  0.6508444  3
    120    116    117    129     1  180.0000771  2.0083200  2
    120    116    117    129     1  0.0000000  1.2552000  3
    120    116    123    126     1  180.0000771  2.0083200  2
    120    116    123    126     1  0.0000000  1.2552000  3
    120    132    138    318     1  0.0000000  0.6508444  3
    123    116    117    129     1  180.0000771  2.0083200  2
    123    116    117    129     1  0.0000000  1.2552000  3
    123    116    120    132     1  180.0000771  2.0083200  2
    123    116    120    132     1  0.0000000  1.2552000  3
    123    126    135    144     1  0.0000000  0.6508444  3
    129    141    347    338     1  180.0000771  0.4184000  2
    129    141    347    338     1  0.0000000  1.6024720  3
    132    138    318    309     1  180.0000771  0.4184000  2
    132    138    318    309     1  0.0000000  1.6024720  3
    138    318    309    300     1  180.0000771  0.4184000  2
    138    318    309    300     1  0.0000000  1.6024720  3
    141    347    338    329     1  180.0000771  0.4184000  2
    141    347    338    329     1  0.0000000  1.6024720  3
    145    146    158    170     1  0.0000000  0.6508444  3
    145    149    161    167     1  0.0000000  0.6508444  3
    145    152    155    164     1  0.0000000  0.6508444  3
    146    145    149    161     1  180.0000771  2.0083200  2
    146    145    149    161     1  0.0000000  1.2552000  3
    146    145    152    155     1  180.0000771  2.0083200  2
    146    145    152    155     1  0.0000000  1.2552000  3
    146    158    170    405     1  0.0000000  0.6508444  3
    149    145    146    158     1  180.0000771  2.0083200  2
    149    145    146    158     1  0.0000000  1.2552000  3
    149    145    152    155     1  180.0000771  2.0083200  2
    149    145    152    155     1  0.0000000  1.2552000  3
    149    161    167    376     1  0.0000000  0.6508444  3
    152    145    146    158     1  180.0000771  2.0083200  2
    152    145    146    158     1  0.0000000  1.2552000  3
    152    145    149    161     1  180.0000771  2.0083200  2
    152    145    149    161     1  0.0000000  1.2552000  3
    152    155    164    173     1  0.0000000  0.6508444  3
    158    170    405    396     1  180.0000771  0.4184000  2
    158    170    405    396     1  0.0000000  1.6024720  3
    161    167    376    367     1  180.0000771  0.4184000  2
    161    167    376    367     1  0.0000000  1.6024720  3
    167    376    367    358     1  180.0000771  0.4184000  2
    167    376    367    358     1  0.0000000  1.6024720  3
    170    405    396    387     1  180.0000771  0.4184000  2
    170    405    396    387     1  0.0000000  1.6024720  3
    174    175    187    199     1  0.0000000  0.6508444  3
    174    178    190    196     1  0.0000000  0.6508444  3
    174    181    184    193     1  0.0000000  0.6508444  3
    175    174    178    190     1  180.0000771  2.0083200  2
    175    174    178    190     1  0.0000000  1.2552000  3
    175    174    181    184     1  180.0000771  2.0083200  2
    175    174    181    184     1  0.0000000  1.2552000  3
    175    187    199    463     1  0.0000000  0.6508444  3
    178    174    175    187     1  180.0000771  2.0083200  2
    178    174    175    187     1  0.0000000  1.2552000  3
    178    174    181    184     1  180.0000771  2.0083200  2
    178    174    181    184     1  0.0000000  1.2552000  3
    178    190    196    434     1  0.0000000  0.6508444  3
    181    174    175    187     1  180.0000771  2.0083200  2
    181    174    175    187     1  0.0000000  1.2552000  3
    181    174    178    190     1  180.0000771  2.0083200  2
    181    174    178    190     1  0.0000000  1.2552000  3
    181    184    193    202     1  0.0000000  0.6508444  3
    187    199    463    454     1  180.0000771  0.4184000  2
    187    199    463    454     1  0.0000000  1.6024720  3
    190    196    434    425     1  180.0000771  0.4184000  2
    190    196    434    425     1  0.0000000  1.6024720  3
    196    434    425    416     1  180.0000771  0.4184000  2
    196    434    425    416     1  0.0000000  1.6024720  3
    199    463    454    445     1  180.0000771  0.4184000  2
    199    463    454    445     1  0.0000000  1.6024720  3
    203    204    216    228     1  0.0000000  0.6508444  3
    203    207    219    225     1  0.0000000  0.6508444  3
    203    210    213    222     1  0.0000000  0.6508444  3
    204    203    207    219     1  180.0000771  2.0083200  2
    204    203    207    219     1  0.0000000  1.2552000  3
    204    203    210    213     1  180.0000771  2.0083200  2
    204    203    210    213     1  0.0000000  1.2552000  3
    204    216    228    521     1  0.0000000  0.6508444  3
    207    203    204    216     1  180.0000771  2.0083200  2
    207    203    204    216     1  0.0000000  1.2552000  3
    207    203    210    213     1  180.0000771  2.0083200  2
    207    203    210    213     1  0.0000000  1.2552000  3
    207    219    225    492     1  0.0000000  0.6508444  3
    210    203    204    216     1  180.0000771  2.0083200  2
    210    203    204    216     1  0.0000000  1.2552000  3
    210    203    207    219     1  180.0000771  2.0083200  2
    210    203    207    219     1  0.0000000  1.2552000  3
    210    213    222    231     1  0.0000000  0.6508444  3
    216    228    521    512     1  180.0000771  0.4184000  2
    216    228    521    512     1  0.0000000  1.6024720  3
    219    225    492    483     1  180.0000771  0.4184000  2
    219    225    492    483     1  0.0000000  1.6024720  3
    225    492    483    474     1  180.0000771  0.4184000  2
    225    492    483    474     1  0.0000000  1.6024720  3
    228    521    512    503     1  180.0000771  0.4184000  2
    228    521    512    503     1  0.0000000  1.6024720  3
    232    233    245    257     1  0.0000000  0.6508444  3
    232    236    248    254     1  0.0000000  0.6508444  3
    232    239    242    251     1  0.0000000  0.6508444  3
    233    232    236    248     1  180.0000771  2.0083200  2
    233    232    236    248     1  0.0000000  1.2552000  3
    233    232    239    242     1  180.0000771  2.0083200  2
    233    232    239    242     1  0.0000000  1.2552000  3
    233    245    257    579     1  0.0000000  0.6508444  3
    236    232    233    245     1  180.0000771  2.0083200  2
    236    232    233    245     1  0.0000000  1.2552000  3
    236    232    239    242     1  180.0000771  2.0083200  2
    236    232    239    242     1  0.0000000  1.2552000  3
    236    248    254    550     1  0.0000000  0.6508444  3
    239    232    233    245     1  180.0000771  2.0083200  2
    239    232    233    245     1  0.0000000  1.2552000  3
    239    232    236    248     1  180.0000771  2.0083200  2
    239    232    236    248     1  0.0000000  1.2552000  3
    239    242    251    260     1  0.0000000  0.6508444  3
    245    257    579    570     1  180.0000771  0.4184000  2
    245    257    579    570     1  0.0000000  1.6024720  3
    248    254    550    541     1  180.0000771  0.4184000  2
    248    254    550    541     1  0.0000000  1.6024720  3
    254    550    541    532     1  180.0000771  0.4184000  2
    254    550    541    532     1  0.0000000  1.6024720  3
    257    579    570    561     1  180.0000771  0.4184000  2
    257    579    570    561     1  0.0000000  1.6024720  3
    261    262    274    286     1  0.0000000  0.6508444  3
    261    265    277    283     1  0.0000000  0.6508444  3
    261    268    271    280     1  0.0000000  0.6508444  3
    262    261    265    277     1  180.0000771  2.0083200  2
    262    261    265    277     1  0.0000000  1.2552000  3
    262    261    268    271     1  180.0000771  2.0083200  2
    262    261    268    271     1  0.0000000  1.2552000  3
    262    274    286    637     1  0.0000000  0.6508444  3
    265    261    262    274     1  180.0000771  2.0083200  2
    265    261    262    274     1  0.0000000  1.2552000  3
    265    261    268    271     1  180.0000771  2.0083200  2
    265    261    268    271     1  0.0000000  1.2552000  3
    265    277    283    608     1  0.0000000  0.6508444  3
    268    261    262    274     1  180.0000771  2.0083200  2
    268    261    262    274     1  0.0000000  1.2552000  3
    268    261    265    277     1  180.0000771  2.0083200  2
    268    261    265    277     1  0.0000000  1.2552000  3
    268    271    280    289     1  0.0000000  0.6508444  3
    274    286    637    628     1  180.0000771  0.4184000  2
    274    286    637    628     1  0.0000000  1.6024720  3
    277    283    608    599     1  180.0000771  0.4184000  2
    277    283    608    599     1  0.0000000  1.6024720  3
    283    608    599    590     1  180.0000771  0.4184000  2
    283    608    599    590     1  0.0000000  1.6024720  3
    286    637    628    619     1  180.0000771  0.4184000  2
    286    637    628    619     1  0.0000000  1.6024720  3
    290    291    303    315     1  0.0000000  0.6508444  3
    290    294    306    312     1  0.0000000  0.6508444  3
    290    297    300    309     1  0.0000000  0.6508444  3
    291    290    294    306     1  180.0000771  2.0083200  2
    291    290    294    306     1  0.0000000  1.2552000  3
    291    290    297    300     1  180.0000771  2.0083200  2
    291    290    297    300     1  0.0000000  1.2552000  3
    291    303    315    695     1  0.0000000  0.6508444  3
    294    290    291    303     1  180.0000771  2.0083200  2
    294    290    291    303     1  0.0000000  1.2552000  3
    294    290    297    300     1  180.0000771  2.0083200  2
    294    290    297    300     1  0.0000000  1.2552000  3
    294    306    312    666     1  0.0000000  0.6508444  3
    297    290    291    303     1  180.0000771  2.0083200  2
    297    290    291    303     1  0.0000000  1.2552000  3
    297    290    294    306     1  180.0000771  2.0083200  2
    297    290    294    306     1  0.0000000  1.2552000  3
    297    300    309    318     1  0.0000000  0.6508444  3
    303    315    695    686     1  180.0000771  0.4184000  2
    303    315    695    686     1  0.0000000  1.6024720  3
    306    312    666    657     1  180.0000771  0.4184000  2
    306    312    666    657     1  0.0000000  1.6024720  3
    312    666    657    648     1  180.0000771  0.4184000  2
    312    666    657    648     1  0.0000000  1.6024720  3
    315    695    686    677     1  180.0000771  0.4184000  2
    315    695    686    677     1  0.0000000  1.6024720  3
    319    320    332    344     1  0.0000000  0.6508444  3
    319    323    335    341     1  0.0000000  0.6508444  3
    319    326    329    338     1  0.0000000  0.6508444  3
    320    319    323    335     1  180.0000771  2.0083200  2
    320    319    323    335     1  0.0000000  1.2552000  3
    320    319    326    329     1  180.0000771  2.0083200  2
    320    319    326    329     1  0.0000000  1.2552000  3
    320    332    344    753     1  0.0000000  0.6508444  3
    323    319    320    332     1  180.0000771  2.0083200  2
    323    319    320    332     1  0.0000000  1.2552000  3
    323    319    326    329     1  180.0000771  2.0083200  2
    323    319    326    329     1  0.0000000  1.2552000  3
    323    335    341    724     1  0.0000000  0.6508444  3
    326    319    320    332     1  180.0000771  2.0083200  2
    326    319    320    332     1  0.0000000  1.2552000  3
    326    319    323    335     1  180.0000771  2.0083200  2
    326    319    323    335     1  0.0000000  1.2552000  3
    326    329    338    347     1  0.0000000  0.6508444  3
    332    344    753    744     1  180.0000771  0.4184000  2
    332    344    753    744     1  0.0000000  1.6024720  3
    335    341    724    715     1  180.0000771  0.4184000  2
    335    341    724    715     1  0.0000000  1.6024720  3
    341    724    715    706     1  180.0000771  0.4184000  2
    341    724    715    706     1  0.0000000  1.6024720  3
    344    753    744    735     1  180.0000771  0.4184000  2
    344    753    744    735     1  0.0000000  1.6024720  3
    348    349    361    373     1  0.0000000  0.6508444  3
    348    352    364    370     1  0.0000000  0.6508444  3
    348    355    358    367     1  0.0000000  0.6508444  3
    349    348    352    364     1  180.0000771  2.0083200  2
    349    348    352    364     1  0.0000000  1.2552000  3
    349    348    355    358     1  180.0000771  2.0083200  2
    349    348    355    358     1  0.0000000  1.2552000  3
    349    361    373    811     1  0.0000000  0.6508444  3
    352    348    349    361     1  180.0000771  2.0083200  2
    352    348    349    361     1  0.0000000  1.2552000  3
    352    348    355    358     1  180.0000771  2.0083200  2
    352    348    355    358     1  0.0000000  1.2552000  3
    352    364    370    782     1  0.0000000  0.6508444  3
    355    348    349    361     1  180.0000771  2.0083200  2
    355    348    349    361     1  0.0000000  1.2552000  3
    355    348    352    364     1  180.0000771  2.0083200  2
    355    348    352    364     1  0.0000000  1.2552000  3
    355    358    367    376     1  0.0000000  0.6508444  3
    361    373    811    802     1  180.0000771  0.4184000  2
    361    373    811    802     1  0.0000000  1.6024720  3
    364    370    782    773     1  180.0000771  0.4184000  2
    364    370    782    773     1  0.0000000  1.6024720  3
    370    782    773    764     1  180.0000771  0.4184000  2
    370    782    773    764     1  0.0000000  1.6024720  3
    373    811    802    793     1  180.0000771  0.4184000  2
    373    811    802    793     1  0.0000000  1.6024720  3
    377    378    390    402     1  0.0000000  0.6508444  3
    377    381    393    399     1  0.0000000  0.6508444  3
    377    384    387    396     1  0.0000000  0.6508444  3
    378    377    381    393     1  180.0000771  2.0083200  2
    378    377    381    393     1  0.0000000  1.2552000  3
    378    377    384    387     1  180.0000771  2.0083200  2
    378    377    384    387     1  0.0000000  1.2552000  3
    378    390    402    869     1  0.0000000  0.6508444  3
    381    377    378    390     1  180.0000771  2.0083200  2
    381    377    378    390     1  0.0000000  1.2552000  3
    381    377    384    387     1  180.0000771  2.0083200  2
    381    377    384    387     1  0.0000000  1.2552000  3
    381    393    399    840     1  0.0000000  0.6508444  3
    384    377    378    390     1  180.0000771  2.0083200  2
    384    377    378    390     1  0.0000000  1.2552000  3
    384    377    381    393     1  180.0000771  2.0083200  2
    384    377    381    393     1  0.0000000  1.2552000  3
    384    387    396    405     1  0.0000000  0.6508444  3
    390    402    869    860     1  180.0000771  0.4184000  2
    390    402    869    860     1  0.0000000  1.6024720  3
    393    399    840    831     1  180.0000771  0.4184000  2
    393    399    840    831     1  0.0000000  1.6024720  3
    399    840    831    822     1  180.0000771  0.4184000  2
    399    840    831    822     1  0.0000000  1.6024720  3
    402    869    860    851     1  180.0000771  0.4184000  2
    402    869    860    851     1  0.0000000  1.6024720  3
    406    407    419    431     1  0.0000000  0.6508444  3
    406    410    422    428     1  0.0000000  0.6508444  3
    406    413    416    425     1  0.0000000  0.6508444  3
    407    406    410    422     1  180.0000771  2.0083200  2
    407    406    410    422     1  0.0000000  1.2552000  3
    407    406    413    416     1  180.0000771  2.0083200  2
    407    406    413    416     1  0.0000000  1.2552000  3
    407    419    431    927     1  0.0000000  0.6508444  3
    410    406    407    419     1  180.0000771  2.0083200  2
    410    406    407    419     1  0.0000000  1.2552000  3
    410    406    413    416     1  180.0000771  2.0083200  2
    410    406    413    416     1  0.0000000  1.2552000  3
    410    422    428    898     1  0.0000000  0.6508444  3
    413    406    407    419     1  180.0000771  2.0083200  2
    413    406    407    419     1  0.0000000  1.2552000  3
    413    406    410    422     1  180.0000771  2.0083200  2
    413    406    410    422     1  0.0000000  1.2552000  3
    413    416    425    434     1  0.0000000  0.6508444  3
    419    431    927    899     1  180.0000771  0.4184000  2
    419    431    927    899     1  0.0000000  1.6024720  3
    422    428    898    870     1  180.0000771  0.4184000  2
    422    428    898    870     1  0.0000000  1.6024720  3
    428    898    870    873     1  180.0000771  0.4184000  2
    428    898    870    873     1  0.0000000  1.6024720  3
    431    927    899    902     1  180.0000771  0.4184000  2
    431    927    899    902     1  0.0000000  1.6024720  3
    435    436    448    460     1  0.0000000  0.6508444  3
    435    439    451    457     1  0.0000000  0.6508444  3
    435    442    445    454     1  0.0000000  0.6508444  3
    436    435    439    451     1  180.0000771  2.0083200  2
    436    435    439    451     1  0.0000000  1.2552000  3
    436    435    442    445     1  180.0000771  2.0083200  2
    436    435    442    445     1  0.0000000  1.2552000  3
    436    448    460    985     1  0.0000000  0.6508444  3
    439    435    436    448     1  180.0000771  2.0083200  2
    439    435    436    448     1  0.0000000  1.2552000  3
    439    435    442    445     1  180.0000771  2.0083200  2
    439    435    442    445     1  0.0000000  1.2552000  3
    439    451    457    956     1  0.0000000  0.6508444  3
    442    435    436    448     1  180.0000771  2.0083200  2
    442    435    436    448     1  0.0000000  1.2552000  3
    442    435    439    451     1  180.0000771  2.0083200  2
    442    435    439    451     1  0.0000000  1.2552000  3
    442    445    454    463     1  0.0000000  0.6508444  3
    448    460    985    957     1  180.0000771  0.4184000  2
    448    460    985    957     1  0.0000000  1.6024720  3
    451    457    956    928     1  180.0000771  0.4184000  2
    451    457    956    928     1  0.0000000  1.6024720  3
    457    956    928    931     1  180.0000771  0.4184000  2
    457    956    928    931     1  0.0000000  1.6024720  3
    460    985    957    960     1  180.0000771  0.4184000  2
    460    985    957    960     1  0.0000000  1.6024720  3
    464    465    477    489     1  0.0000000  0.6508444  3
    464    468    480    486     1  0.0000000  0.6508444  3
    464    471    474    483     1  0.0000000  0.6508444  3
    465    464    468    480     1  180.0000771  2.0083200  2
    465    464    468    480     1  0.0000000  1.2552000  3
    465    464    471    474     1  180.0000771  2.0083200  2
    465    464    471    474     1  0.0000000  1.2552000  3
    465    477    489   1043     1  0.0000000  0.6508444  3
    468    464    465    477     1  180.0000771  2.0083200  2
    468    464    465    477     1  0.0000000  1.2552000  3
    468    464    471    474     1  180.0000771  2.0083200  2
    468    464    471    474     1  0.0000000  1.2552000  3
    468    480    486   1014     1  0.0000000  0.6508444  3
    471    464    465    477     1  180.0000771  2.0083200  2
    471    464    465    477     1  0.0000000  1.2552000  3
    471    464    468    480     1  180.0000771  2.0083200  2
    471    464    468    480     1  0.0000000  1.2552000  3
    471    474    483    492     1  0.0000000  0.6508444  3
    477    489   1043   1015     1  180.0000771  0.4184000  2
    477    489   1043   1015     1  0.0000000  1.6024720  3
    480    486   1014    986     1  180.0000771  0.4184000  2
    480    486   1014    986     1  0.0000000  1.6024720  3
    486   1014    986    989     1  180.0000771  0.4184000  2
    486   1014    986    989     1  0.0000000  1.6024720  3
    489   1043   1015   1018     1  180.0000771  0.4184000  2
    489   1043   1015   1018     1  0.0000000  1.6024720  3
    493    494    506    518     1  0.0000000  0.6508444  3
    493    497    509    515     1  0.0000000  0.6508444  3
    493    500    503    512     1  0.0000000  0.6508444  3
    494    493    497    509     1  180.0000771  2.0083200  2
    494    493    497    509     1  0.0000000  1.2552000  3
    494    493    500    503     1  180.0000771  2.0083200  2
    494    493    500    503     1  0.0000000  1.2552000  3
    494    506    518   1101     1  0.0000000  0.6508444  3
    497    493    494    506     1  180.0000771  2.0083200  2
    497    493    494    506     1  0.0000000  1.2552000  3
    497    493    500    503     1  180.0000771  2.0083200  2
    497    493    500    503     1  0.0000000  1.2552000  3
    497    509    515   1072     1  0.0000000  0.6508444  3
    500    493    494    506     1  180.0000771  2.0083200  2
    500    493    494    506     1  0.0000000  1.2552000  3
    500    493    497    509     1  180.0000771  2.0083200  2
    500    493    497    509     1  0.0000000  1.2552000  3
    500    503    512    521     1  0.0000000  0.6508444  3
    506    518   1101   1073     1  180.0000771  0.4184000  2
    506    518   1101   1073     1  0.0000000  1.6024720  3
    509    515   1072   1044     1  180.0000771  0.4184000  2
    509    515   1072   1044     1  0.0000000  1.6024720  3
    515   1072   1044   1047     1  180.0000771  0.4184000  2
    515   1072   1044   1047     1  0.0000000  1.6024720  3
    518   1101   1073   1076     1  180.0000771  0.4184000  2
    518   1101   1073   1076     1  0.0000000  1.6024720  3
    522    523    535    547     1  0.0000000  0.6508444  3
    522    526    538    544     1  0.0000000  0.6508444  3
    522    529    532    541     1  0.0000000  0.6508444  3
    523    522    526    538     1  180.0000771  2.0083200  2
    523    522    526    538     1  0.0000000  1.2552000  3
    523    522    529    532     1  180.0000771  2.0083200  2
    523    522    529    532     1  0.0000000  1.2552000  3
    523    535    547   1159     1  0.0000000  0.6508444  3
    526    522    523    535     1  180.0000771  2.0083200  2
    526    522    523    535     1  0.0000000  1.2552000  3
    526    522    529    532     1  180.0000771  2.0083200  2
    526    522    529    532     1  0.0000000  1.2552000  3
    526    538    544   1130     1  0.0000000  0.6508444  3
    529    522    523    535     1  180.0000771  2.0083200  2
    529    522    523    535     1  0.0000000  1.2552000  3
    529    522    526    538     1  180.0000771  2.0083200  2
    529    522    526    538     1  0.0000000  1.2552000  3
    529    532    541    550     1  0.0000000  0.6508444  3
    535    547   1159   1131     1  180.0000771  0.4184000  2
    535    547   1159   1131     1  0.0000000  1.6024720  3
    538    544   1130   1102     1  180.0000771  0.4184000  2
    538    544   1130   1102     1  0.0000000  1.6024720  3
    544   1130   1102   1105     1  180.0000771  0.4184000  2
    544   1130   1102   1105     1  0.0000000  1.6024720  3
    547   1159   1131   1134     1  180.0000771  0.4184000  2
    547   1159   1131   1134     1  0.0000000  1.6024720  3
    551    552    564    576     1  0.0000000  0.6508444  3
    551    555    567    573     1  0.0000000  0.6508444  3
    551    558    561    570     1  0.0000000  0.6508444  3
    552    551    555    567     1  180.0000771  2.0083200  2
    552    551    555    567     1  0.0000000  1.2552000  3
    552    551    558    561     1  180.0000771  2.0083200  2
    552    551    558    561     1  0.0000000  1.2552000  3
    552    564    576   1217     1  0.0000000  0.6508444  3
    555    551    552    564     1  180.0000771  2.0083200  2
    555    551    552    564     1  0.0000000  1.2552000  3
    555    551    558    561     1  180.0000771  2.0083200  2
    555    551    558    561     1  0.0000000  1.2552000  3
    555    567    573   1188     1  0.0000000  0.6508444  3
    558    551    552    564     1  180.0000771  2.0083200  2
    558    551    552    564     1  0.0000000  1.2552000  3
    558    551    555    567     1  180.0000771  2.0083200  2
    558    551    555    567     1  0.0000000  1.2552000  3
    558    561    570    579     1  0.0000000  0.6508444  3
    564    576   1217   1189     1  180.0000771  0.4184000  2
    564    576   1217   1189     1  0.0000000  1.6024720  3
    567    573   1188   1160     1  180.0000771  0.4184000  2
    567    573   1188   1160     1  0.0000000  1.6024720  3
    573   1188   1160   1163     1  180.0000771  0.4184000  2
    573   1188   1160   1163     1  0.0000000  1.6024720  3
    576   1217   1189   1192     1  180.0000771  0.4184000  2
    576   1217   1189   1192     1  0.0000000  1.6024720  3
    580    581    593    605     1  0.0000000  0.6508444  3
    580    584    596    602     1  0.0000000  0.6508444  3
    580    587    590    599     1  0.0000000  0.6508444  3
    581    580    584    596     1  180.0000771  2.0083200  2
    581    580    584    596     1  0.0000000  1.2552000  3
    581    580    587    590     1  180.0000771  2.0083200  2
    581    580    587    590     1  0.0000000  1.2552000  3
    581    593    605   1275     1  0.0000000  0.6508444  3
    584    580    581    593     1  180.0000771  2.0083200  2
    584    580    581    593     1  0.0000000  1.2552000  3
    584    580    587    590     1  180.0000771  2.0083200  2
    584    580    587    590     1  0.0000000  1.2552000  3
    584    596    602   1246     1  0.0000000  0.6508444  3
    587    580    581    593     1  180.0000771  2.0083200  2
    587    580    581    593     1  0.0000000  1.2552000  3
    587    580    584    596     1  180.0000771  2.0083200  2
    587    580    584    596     1  0.0000000  1.2552000  3
    587    590    599    608     1  0.0000000  0.6508444  3
    593    605   1275   1247     1  180.0000771  0.4184000  2
    593    605   1275   1247     1  0.0000000  1.6024720  3
    596    602   1246   1218     1  180.0000771  0.4184000  2
    596    602   1246   1218     1  0.0000000  1.6024720  3
    602   1246   1218   1221     1  180.0000771  0.4184000  2
    602   1246   1218   1221     1  0.0000000  1.6024720  3
    605   1275   1247   1250     1  180.0000771  0.4184000  2
    605   1275   1247   1250     1  0.0000000  1.6024720  3
    609    610    622    634     1  0.0000000  0.6508444  3
    609    613    625    631     1  0.0000000  0.6508444  3
    609    616    619    628     1  0.0000000  0.6508444  3
    610    609    613    625     1  180.0000771  2.0083200  2
    610    609    613    625     1  0.0000000  1.2552000  3
    610    609    616    619     1  180.0000771  2.0083200  2
    610    609    616    619     1  0.0000000  1.2552000  3
    610    622    634   1333     1  0.0000000  0.6508444  3
    613    609    610    622     1  180.0000771  2.0083200  2
    613    609    610    622     1  0.0000000  1.2552000  3
    613    609    616    619     1  180.0000771  2.0083200  2
    613    609    616    619     1  0.0000000  1.2552000  3
    613    625    631   1304     1  0.0000000  0.6508444  3
    616    609    610    622     1  180.0000771  2.0083200  2
    616    609    610    622     1  0.0000000  1.2552000  3
    616    609    613    625     1  180.0000771  2.0083200  2
    616    609    613    625     1  0.0000000  1.2552000  3
    616    619    628    637     1  0.0000000  0.6508444  3
    622    634   1333   1305     1  180.0000771  0.4184000  2
    622    634   1333   1305     1  0.0000000  1.6024720  3
    625    631   1304   1276     1  180.0000771  0.4184000  2
    625    631   1304   1276     1  0.0000000  1.6024720  3
    631   1304   1276   1279     1  180.0000771  0.4184000  2
    631   1304   1276   1279     1  0.0000000  1.6024720  3
    634   1333   1305   1308     1  180.0000771  0.4184000  2
    634   1333   1305   1308     1  0.0000000  1.6024720  3
    638    639    651    663     1  0.0000000  0.6508444  3
    638    642    654    660     1  0.0000000  0.6508444  3
    638    645    648    657     1  0.0000000  0.6508444  3
    639    638    642    654     1  180.0000771  2.0083200  2
    639    638    642    654     1  0.0000000  1.2552000  3
    639    638    645    648     1  180.0000771  2.0083200  2
    639    638    645    648     1  0.0000000  1.2552000  3
    639    651    663   1391     1  0.0000000  0.6508444  3
    642    638    639    651     1  180.0000771  2.0083200  2
    642    638    639    651     1  0.0000000  1.2552000  3
    642    638    645    648     1  180.0000771  2.0083200  2
    642    638    645    648     1  0.0000000  1.2552000  3
    642    654    660   1362     1  0.0000000  0.6508444  3
    645    638    639    651     1  180.0000771  2.0083200  2
    645    638    639    651     1  0.0000000  1.2552000  3
    645    638    642    654     1  180.0000771  2.0083200  2
    645    638    642    654     1  0.0000000  1.2552000  3
    645    648    657    666     1  0.0000000  0.6508444  3
    651    663   1391   1363     1  180.0000771  0.4184000  2
    651    663   1391   1363     1  0.0000000  1.6024720  3
    654    660   1362   1334     1  180.0000771  0.4184000  2
    654    660   1362   1334     1  0.0000000  1.6024720  3
    660   1362   1334   1337     1  180.0000771  0.4184000  2
    660   1362   1334   1337     1  0.0000000  1.6024720  3
    663   1391   1363   1366     1  180.0000771  0.4184000  2
    663   1391   1363   1366     1  0.0000000  1.6024720  3
    667    668    680    692     1  0.0000000  0.6508444  3
    667    671    683    689     1  0.0000000  0.6508444  3
    667    674    677    686     1  0.0000000  0.6508444  3
    668    667    671    683     1  180.0000771  2.0083200  2
    668    667    671    683     1  0.0000000  1.2552000  3
    668    667    674    677     1  180.0000771  2.0083200  2
    668    667    674    677     1  0.0000000  1.2552000  3
    668    680    692   1449     1  0.0000000  0.6508444  3
    671    667    668    680     1  180.0000771  2.0083200  2
    671    667    668    680     1  0.0000000  1.2552000  3
    671    667    674    677     1  180.0000771  2.0083200  2
    671    667    674    677     1  0.0000000  1.2552000  3
    671    683    689   1420     1  0.0000000  0.6508444  3
    674    667    668    680     1  180.0000771  2.0083200  2
    674    667    668    680     1  0.0000000  1.2552000  3
    674    667    671    683     1  180.0000771  2.0083200  2
    674    667    671    683     1  0.0000000  1.2552000  3
    674    677    686    695     1  0.0000000  0.6508444  3
    680    692   1449   1421     1  180.0000771  0.4184000  2
    680    692   1449   1421     1  0.0000000  1.6024720  3
    683    689   1420   1392     1  180.0000771  0.4184000  2
    683    689   1420   1392     1  0.0000000  1.6024720  3
    689   1420   1392   1395     1  180.0000771  0.4184000  2
    689   1420   1392   1395     1  0.0000000  1.6024720  3
    692   1449   1421   1424     1  180.0000771  0.4184000  2
    692   1449   1421   1424     1  0.0000000  1.6024720  3
    696    697    709    721     1  0.0000000  0.6508444  3
    696    700    712    718     1  0.0000000  0.6508444  3
    696    703    706    715     1  0.0000000  0.6508444  3
    697    696    700    712     1  180.0000771  2.0083200  2
    697    696    700    712     1  0.0000000  1.2552000  3
    697    696    703    706     1  180.0000771  2.0083200  2
    697    696    703    706     1  0.0000000  1.2552000  3
    697    709    721   1507     1  0.0000000  0.6508444  3
    700    696    697    709     1  180.0000771  2.0083200  2
    700    696    697    709     1  0.0000000  1.2552000  3
    700    696    703    706     1  180.0000771  2.0083200  2
    700    696    703    706     1  0.0000000  1.2552000  3
    700    712    718   1478     1  0.0000000  0.6508444  3
    703    696    697    709     1  180.0000771  2.0083200  2
    703    696    697    709     1  0.0000000  1.2552000  3
    703    696    700    712     1  180.0000771  2.0083200  2
    703    696    700    712     1  0.0000000  1.2552000  3
    703    706    715    724     1  0.0000000  0.6508444  3
    709    721   1507   1479     1  180.0000771  0.4184000  2
    709    721   1507   1479     1  0.0000000  1.6024720  3
    712    718   1478   1450     1  180.0000771  0.4184000  2
    712    718   1478   1450     1  0.0000000  1.6024720  3
    718   1478   1450   1453     1  180.0000771  0.4184000  2
    718   1478   1450   1453     1  0.0000000  1.6024720  3
    721   1507   1479   1482     1  180.0000771  0.4184000  2
    721   1507   1479   1482     1  0.0000000  1.6024720  3
    725    726    738    750     1  0.0000000  0.6508444  3
    725    729    741    747     1  0.0000000  0.6508444  3
    725    732    735    744     1  0.0000000  0.6508444  3
    726    725    729    741     1  180.0000771  2.0083200  2
    726    725    729    741     1  0.0000000  1.2552000  3
    726    725    732    735     1  180.0000771  2.0083200  2
    726    725    732    735     1  0.0000000  1.2552000  3
    726    738    750   1565     1  0.0000000  0.6508444  3
    729    725    726    738     1  180.0000771  2.0083200  2
    729    725    726    738     1  0.0000000  1.2552000  3
    729    725    732    735     1  180.0000771  2.0083200  2
    729    725    732    735     1  0.0000000  1.2552000  3
    729    741    747   1536     1  0.0000000  0.6508444  3
    732    725    726    738     1  180.0000771  2.0083200  2
    732    725    726    738     1  0.0000000  1.2552000  3
    732    725    729    741     1  180.0000771  2.0083200  2
    732    725    729    741     1  0.0000000  1.2552000  3
    732    735    744    753     1  0.0000000  0.6508444  3
    738    750   1565   1537     1  180.0000771  0.4184000  2
    738    750   1565   1537     1  0.0000000  1.6024720  3
    741    747   1536   1508     1  180.0000771  0.4184000  2
    741    747   1536   1508     1  0.0000000  1.6024720  3
    747   1536   1508   1511     1  180.0000771  0.4184000  2
    747   1536   1508   1511     1  0.0000000  1.6024720  3
    750   1565   1537   1540     1  180.0000771  0.4184000  2
    750   1565   1537   1540     1  0.0000000  1.6024720  3
    754    755    767    779     1  0.0000000  0.6508444  3
    754    758    770    776     1  0.0000000  0.6508444  3
    754    761    764    773     1  0.0000000  0.6508444  3
    755    754    758    770     1  180.0000771  2.0083200  2
    755    754    758    770     1  0.0000000  1.2552000  3
    755    754    761    764     1  180.0000771  2.0083200  2
    755    754    761    764     1  0.0000000  1.2552000  3
    755    767    779   1623     1  0.0000000  0.6508444  3
    758    754    755    767     1  180.0000771  2.0083200  2
    758    754    755    767     1  0.0000000  1.2552000  3
    758    754    761    764     1  180.0000771  2.0083200  2
    758    754    761    764     1  0.0000000  1.2552000  3
    758    770    776   1594     1  0.0000000  0.6508444  3
    761    754    755    767     1  180.0000771  2.0083200  2
    761    754    755    767     1  0.0000000  1.2552000  3
    761    754    758    770     1  180.0000771  2.0083200  2
    761    754    758    770     1  0.0000000  1.2552000  3
    761    764    773    782     1  0.0000000  0.6508444  3
    767    779   1623   1595     1  180.0000771  0.4184000  2
    767    779   1623   1595     1  0.0000000  1.6024720  3
    770    776   1594   1566     1  180.0000771  0.4184000  2
    770    776   1594   1566     1  0.0000000  1.6024720  3
    776   1594   1566   1569     1  180.0000771  0.4184000  2
    776   1594   1566   1569     1  0.0000000  1.6024720  3
    779   1623   1595   1598     1  180.0000771  0.4184000  2
    779   1623   1595   1598     1  0.0000000  1.6024720  3
    783    784    796    808     1  0.0000000  0.6508444  3
    783    787    799    805     1  0.0000000  0.6508444  3
    783    790    793    802     1  0.0000000  0.6508444  3
    784    783    787    799     1  180.0000771  2.0083200  2
    784    783    787    799     1  0.0000000  1.2552000  3
    784    783    790    793     1  180.0000771  2.0083200  2
    784    783    790    793     1  0.0000000  1.2552000  3
    784    796    808   1681     1  0.0000000  0.6508444  3
    787    783    784    796     1  180.0000771  2.0083200  2
    787    783    784    796     1  0.0000000  1.2552000  3
    787    783    790    793     1  180.0000771  2.0083200  2
    787    783    790    793     1  0.0000000  1.2552000  3
    787    799    805   1652     1  0.0000000  0.6508444  3
    790    783    784    796     1  180.0000771  2.0083200  2
    790    783    784    796     1  0.0000000  1.2552000  3
    790    783    787    799     1  180.0000771  2.0083200  2
    790    783    787    799     1  0.0000000  1.2552000  3
    790    793    802    811     1  0.0000000  0.6508444  3
    796    808   1681   1653     1  180.0000771  0.4184000  2
    796    808   1681   1653     1  0.0000000  1.6024720  3
    799    805   1652   1624     1  180.0000771  0.4184000  2
    799    805   1652   1624     1  0.0000000  1.6024720  3
    805   1652   1624   1627     1  180.0000771  0.4184000  2
    805   1652   1624   1627     1  0.0000000  1.6024720  3
    808   1681   1653   1656     1  180.0000771  0.4184000  2
    808   1681   1653   1656     1  0.0000000  1.6024720  3
    812    813    825    837     1  0.0000000  0.6508444  3
    812    816    828    834     1  0.0000000  0.6508444  3
    812    819    822    831     1  0.0000000  0.6508444  3
    813    812    816    828     1  180.0000771  2.0083200  2
    813    812    816    828     1  0.0000000  1.2552000  3
    813    812    819    822     1  180.0000771  2.0083200  2
    813    812    819    822     1  0.0000000  1.2552000  3
    813    825    837   1739     1  0.0000000  0.6508444  3
    816    812    813    825     1  180.0000771  2.0083200  2
    816    812    813    825     1  0.0000000  1.2552000  3
    816    812    819    822     1  180.0000771  2.0083200  2
    816    812    819    822     1  0.0000000  1.2552000  3
    816    828    834   1710     1  0.0000000  0.6508444  3
    819    812    813    825     1  180.0000771  2.0083200  2
    819    812    813    825     1  0.0000000  1.2552000  3
    819    812    816    828     1  180.0000771  2.0083200  2
    819    812    816    828     1  0.0000000  1.2552000  3
    819    822    831    840     1  0.0000000  0.6508444  3
    825    837   1739   1711     1  180.0000771  0.4184000  2
    825    837   1739   1711     1  0.0000000  1.6024720  3
    828    834   1710   1682     1  180.0000771  0.4184000  2
    828    834   1710   1682     1  0.0000000  1.6024720  3
    834   1710   1682   1685     1  180.0000771  0.4184000  2
    834   1710   1682   1685     1  0.0000000  1.6024720  3
    837   1739   1711   1714     1  180.0000771  0.4184000  2
    837   1739   1711   1714     1  0.0000000  1.6024720  3
    841    842    854    866     1  0.0000000  0.6508444  3
    841    845    857    863     1  0.0000000  0.6508444  3
    841    848    851    860     1  0.0000000  0.6508444  3
    842    841    845    857     1  180.0000771  2.0083200  2
    842    841    845    857     1  0.0000000  1.2552000  3
    842    841    848    851     1  180.0000771  2.0083200  2
    842    841    848    851     1  0.0000000  1.2552000  3
    842    854    866   1797     1  0.0000000  0.6508444  3
    845    841    842    854     1  180.0000771  2.0083200  2
    845    841    842    854     1  0.0000000  1.2552000  3
    845    841    848    851     1  180.0000771  2.0083200  2
    845    841    848    851     1  0.0000000  1.2552000  3
    845    857    863   1768     1  0.0000000  0.6508444  3
    848    841    842    854     1  180.0000771  2.0083200  2
    848    841    842    854     1  0.0000000  1.2552000  3
    848    841    845    857     1  180.0000771  2.0083200  2
    848    841    845    857     1  0.0000000  1.2552000  3
    848    851    860    869     1  0.0000000  0.6508444  3
    854    866   1797   1769     1  180.0000771  0.4184000  2
    854    866   1797   1769     1  0.0000000  1.6024720  3
    857    863   1768   1740     1  180.0000771  0.4184000  2
    857    863   1768   1740     1  0.0000000  1.6024720  3
    863   1768   1740   1743     1  180.0000771  0.4184000  2
    863   1768   1740   1743     1  0.0000000  1.6024720  3
    866   1797   1769   1772     1  180.0000771  0.4184000  2
    866   1797   1769   1772     1  0.0000000  1.6024720  3
    870    873    876    879     1  0.0000000  0.6508444  3
    873    876    879    880     1  180.0000771  2.0083200  2
    873    876    879    880     1  0.0000000  1.2552000  3
    873    876    879    889     1  180.0000771  2.0083200  2
    873    876    879    889     1  0.0000000  1.2552000  3
    876    873    870    898     1  0.0000000  0.6508444  3
    876    879    880    883     1  180.0000771  2.0083200  2
    876    879    880    883     1  0.0000000  1.2552000  3
    876    879    889    892     1  180.0000771  2.0083200  2
    876    879    889    892     1  0.0000000  1.2552000  3
    879    880    883    886     1  0.0000000  0.6508444  3
    879    889    892    895     1  0.0000000  0.6508444  3
    880    879    889    892     1  180.0000771  2.0083200  2
    880    879    889    892     1  0.0000000  1.2552000  3
    880    883    886    887     1  180.0000771  0.0000000  2
    880    883    886    888     1  180.0000771  0.0000000  2
    883    880    879    889     1  180.0000771  2.0083200  2
    883    880    879    889     1  0.0000000  1.2552000  3
    889    892    895    896     1  180.0000771  0.0000000  2
    889    892    895    897     1  180.0000771  0.0000000  2
    899    902    905    908     1  0.0000000  0.6508444  3
    902    905    908    909     1  180.0000771  2.0083200  2
    902    905    908    909     1  0.0000000  1.2552000  3
    902    905    908    918     1  180.0000771  2.0083200  2
    902    905    908    918     1  0.0000000  1.2552000  3
    905    908    909    912     1  180.0000771  2.0083200  2
    905    908    909    912     1  0.0000000  1.2552000  3
    905    908    918    921     1  180.0000771  2.0083200  2
    905    908    918    921     1  0.0000000  1.2552000  3
    905    902    899    927     1  0.0000000  0.6508444  3
    908    909    912    915     1  0.0000000  0.6508444  3
    908    918    921    924     1  0.0000000  0.6508444  3
    909    912    915    916     1  180.0000771  0.0000000  2
    909    912    915    917     1  180.0000771  0.0000000  2
    909    908    918    921     1  180.0000771  2.0083200  2
    909    908    918    921     1  0.0000000  1.2552000  3
    912    909    908    918     1  180.0000771  2.0083200  2
    912    909    908    918     1  0.0000000  1.2552000  3
    918    921    924    925     1  180.0000771  0.0000000  2
    918    921    924    926     1  180.0000771  0.0000000  2
    928    931    934    937     1  0.0000000  0.6508444  3
    931    934    937    938     1  180.0000771  2.0083200  2
    931    934    937    938     1  0.0000000  1.2552000  3
    931    934    937    947     1  180.0000771  2.0083200  2
    931    934    937    947     1  0.0000000  1.2552000  3
    934    931    928    956     1  0.0000000  0.6508444  3
    934    937    938    941     1  180.0000771  2.0083200  2
    934    937    938    941     1  0.0000000  1.2552000  3
    934    937    947    950     1  180.0000771  2.0083200  2
    934    937    947    950     1  0.0000000  1.2552000  3
    937    938    941    944     1  0.0000000  0.6508444  3
    937    947    950    953     1  0.0000000  0.6508444  3
    938    937    947    950     1  180.0000771  2.0083200  2
    938    937    947    950     1  0.0000000  1.2552000  3
    938    941    944    945     1  180.0000771  0.0000000  2
    938    941    944    946     1  180.0000771  0.0000000  2
    941    938    937    947     1  180.0000771  2.0083200  2
    941    938    937    947     1  0.0000000  1.2552000  3
    947    950    953    954     1  180.0000771  0.0000000  2
    947    950    953    955     1  180.0000771  0.0000000  2
    957    960    963    966     1  0.0000000  0.6508444  3
    960    963    966    967     1  180.0000771  2.0083200  2
    960    963    966    967     1  0.0000000  1.2552000  3
    960    963    966    976     1  180.0000771  2.0083200  2
    960    963    966    976     1  0.0000000  1.2552000  3
    963    966    967    970     1  180.0000771  2.0083200  2
    963    966    967    970     1  0.0000000  1.2552000  3
    963    966    976    979     1  180.0000771  2.0083200  2
    963    966    976    979     1  0.0000000  1.2552000  3
    963    960    957    985     1  0.0000000  0.6508444  3
    966    967    970    973     1  0.0000000  0.6508444  3
    966    976    979    982     1  0.0000000  0.6508444  3
    967    970    973    974     1  180.0000771  0.0000000  2
    967    970    973    975     1  180.0000771  0.0000000  2
    967    966    976    979     1  180.0000771  2.0083200  2
    967    966    976    979     1  0.0000000  1.2552000  3
    970    967    966    976     1  180.0000771  2.0083200  2
    970    967    966    976     1  0.0000000  1.2552000  3
    976    979    982    983     1  180.0000771  0.0000000  2
    976    979    982    984     1  180.0000771  0.0000000  2
    986    989    992    995     1  0.0000000  0.6508444  3
    989    992    995    996     1  180.0000771  2.0083200  2
    989    992    995    996     1  0.0000000  1.2552000  3
    989    992    995   1005     1  180.0000771  2.0083200  2
    989    992    995   1005     1  0.0000000  1.2552000  3
    992    989    986   1014     1  0.0000000  0.6508444  3
    992    995    996    999     1  180.0000771  2.0083200  2
    992    995    996    999     1  0.0000000  1.2552000  3
    992    995   1005   1008     1  180.0000771  2.0083200  2
    992    995   1005   1008     1  0.0000000  1.2552000  3
    995    996    999   1002     1  0.0000000  0.6508444  3
    995   1005   1008   1011     1  0.0000000  0.6508444  3
    996    995   1005   1008     1  180.0000771  2.0083200  2
    996    995   1005   1008     1  0.0000000  1.2552000  3
    996    999   1002   1003     1  180.0000771  0.0000000  2
    996    999   1002   1004     1  180.0000771  0.0000000  2
    999    996    995   1005     1  180.0000771  2.0083200  2
    999    996    995   1005     1  0.0000000  1.2552000  3
   1005   1008   1011   1012     1  180.0000771  0.0000000  2
   1005   1008   1011   1013     1  180.0000771  0.0000000  2
   1015   1018   1021   1024     1  0.0000000  0.6508444  3
   1018   1021   1024   1025     1  180.0000771  2.0083200  2
   1018   1021   1024   1025     1  0.0000000  1.2552000  3
   1018   1021   1024   1034     1  180.0000771  2.0083200  2
   1018   1021   1024   1034     1  0.0000000  1.2552000  3
   1021   1024   1025   1028     1  180.0000771  2.0083200  2
   1021   1024   1025   1028     1  0.0000000  1.2552000  3
   1021   1024   1034   1037     1  180.0000771  2.0083200  2
   1021   1024   1034   1037     1  0.0000000  1.2552000  3
   1021   1018   1015   1043     1  0.0000000  0.6508444  3
   1024   1025   1028   1031     1  0.0000000  0.6508444  3
   1024   1034   1037   1040     1  0.0000000  0.6508444  3
   1025   1028   1031   1032     1  180.0000771  0.0000000  2
   1025   1028   1031   1033     1  180.0000771  0.0000000  2
   1025   1024   1034   1037     1  180.0000771  2.0083200  2
   1025   1024   1034   1037     1  0.0000000  1.2552000  3
   1028   1025   1024   1034     1  180.0000771  2.0083200  2
   1028   1025   1024   1034     1  0.0000000  1.2552000  3
   1034   1037   1040   1041     1  180.0000771  0.0000000  2
   1034   1037   1040   1042     1  180.0000771  0.0000000  2
   1044   1047   1050   1053     1  0.0000000  0.6508444  3
   1047   1050   1053   1054     1  180.0000771  2.0083200  2
   1047   1050   1053   1054     1  0.0000000  1.2552000  3
   1047   1050   1053   1063     1  180.0000771  2.0083200  2
   1047   1050   1053   1063     1  0.0000000  1.2552000  3
   1050   1047   1044   1072     1  0.0000000  0.6508444  3
   1050   1053   1054   1057     1  180.0000771  2.0083200  2
   1050   1053   1054   1057     1  0.0000000  1.2552000  3
   1050   1053   1063   1066     1  180.0000771  2.0083200  2
   1050   1053   1063   1066     1  0.0000000  1.2552000  3
   1053   1054   1057   1060     1  0.0000000  0.6508444  3
   1053   1063   1066   1069     1  0.0000000  0.6508444  3
   1054   1053   1063   1066     1  180.0000771  2.0083200  2
   1054   1053   1063   1066     1  0.0000000  1.2552000  3
   1054   1057   1060   1061     1  180.0000771  0.0000000  2
   1054   1057   1060   1062     1  180.0000771  0.0000000  2
   1057   1054   1053   1063     1  180.0000771  2.0083200  2
   1057   1054   1053   1063     1  0.0000000  1.2552000  3
   1063   1066   1069   1070     1  180.0000771  0.0000000  2
   1063   1066   1069   1071     1  180.0000771  0.0000000  2
   1073   1076   1079   1082     1  0.0000000  0.6508444  3
   1076   1079   1082   1083     1  180.0000771  2.0083200  2
   1076   1079   1082   1083     1  0.0000000  1.2552000  3
   1076   1079   1082   1092     1  180.0000771  2.0083200  2
   1076   1079   1082   1092     1  0.0000000  1.2552000  3
   1079   1082   1083   1086     1  180.0000771  2.0083200  2
   1079   1082   1083   1086     1  0.0000000  1.2552000  3
   1079   1082   1092   1095     1  180.0000771  2.0083200  2
   1079   1082   1092   1095     1  0.0000000  1.2552000  3
   1079   1076   1073   1101     1  0.0000000  0.6508444  3
   1082   1083   1086   1089     1  0.0000000  0.6508444  3
   1082   1092   1095   1098     1  0.0000000  0.6508444  3
   1083   1086   1089   1090     1  180.0000771  0.0000000  2
   1083   1086   1089   1091     1  180.0000771  0.0000000  2
   1083   1082   1092   1095     1  180.0000771  2.0083200  2
   1083   1082   1092   1095     1  0.0000000  1.2552000  3
   1086   1083   1082   1092     1  180.0000771  2.0083200  2
   1086   1083   1082   1092     1  0.0000000  1.2552000  3
   1092   1095   1098   1099     1  180.0000771  0.0000000  2
   1092   1095   1098   1100     1  180.0000771  0.0000000  2
   1102   1105   1108   1111     1  0.0000000  0.6508444  3
   1105   1108   1111   1112     1  180.0000771  2.0083200  2
   1105   1108   1111   1112     1  0.0000000  1.2552000  3
   1105   1108   1111   1121     1  180.0000771  2.0083200  2
   1105   1108   1111   1121     1  0.0000000  1.2552000  3
   1108   1105   1102   1130     1  0.0000000  0.6508444  3
   1108   1111   1112   1115     1  180.0000771  2.0083200  2
   1108   1111   1112   1115     1  0.0000000  1.2552000  3
   1108   1111   1121   1124     1  180.0000771  2.0083200  2
   1108   1111   1121   1124     1  0.0000000  1.2552000  3
   1111   1112   1115   1118     1  0.0000000  0.6508444  3
   1111   1121   1124   1127     1  0.0000000  0.6508444  3
   1112   1111   1121   1124     1  180.0000771  2.0083200  2
   1112   1111   1121   1124     1  0.0000000  1.2552000  3
   1112   1115   1118   1119     1  180.0000771  0.0000000  2
   1112   1115   1118   1120     1  180.0000771  0.0000000  2
   1115   1112   1111   1121     1  180.0000771  2.0083200  2
   1115   1112   1111   1121     1  0.0000000  1.2552000  3
   1121   1124   1127   1128     1  180.0000771  0.0000000  2
   1121   1124   1127   1129     1  180.0000771  0.0000000  2
   1131   1134   1137   1140     1  0.0000000  0.6508444  3
   1134   1137   1140   1141     1  180.0000771  2.0083200  2
   1134   1137   1140   1141     1  0.0000000  1.2552000  3
   1134   1137   1140   1150     1  180.0000771  2.0083200  2
   1134   1137   1140   1150     1  0.0000000  1.2552000  3
   1137   1140   1141   1144     1  180.0000771  2.0083200  2
   1137   1140   1141   1144     1  0.0000000  1.2552000  3
   1137   1140   1150   1153     1  180.0000771  2.0083200  2
   1137   1140   1150   1153     1  0.0000000  1.2552000  3
   1137   1134   1131   1159     1  0.0000000  0.6508444  3
   1140   1141   1144   1147     1  0.0000000  0.6508444  3
   1140   1150   1153   1156     1  0.0000000  0.6508444  3
   1141   1144   1147   1148     1  180.0000771  0.0000000  2
   1141   1144   1147   1149     1  180.0000771  0.0000000  2
   1141   1140   1150   1153     1  180.0000771  2.0083200  2
   1141   1140   1150   1153     1  0.0000000  1.2552000  3
   1144   1141   1140   1150     1  180.0000771  2.0083200  2
   1144   1141   1140   1150     1  0.0000000  1.2552000  3
   1150   1153   1156   1157     1  180.0000771  0.0000000  2
   1150   1153   1156   1158     1  180.0000771  0.0000000  2
   1160   1163   1166   1169     1  0.0000000  0.6508444  3
   1163   1166   1169   1170     1  180.0000771  2.0083200  2
   1163   1166   1169   1170     1  0.0000000  1.2552000  3
   1163   1166   1169   1179     1  180.0000771  2.0083200  2
   1163   1166   1169   1179     1  0.0000000  1.2552000  3
   1166   1163   1160   1188     1  0.0000000  0.6508444  3
   1166   1169   1170   1173     1  180.0000771  2.0083200  2
   1166   1169   1170   1173     1  0.0000000  1.2552000  3
   1166   1169   1179   1182     1  180.0000771  2.0083200  2
   1166   1169   1179   1182     1  0.0000000  1.2552000  3
   1169   1170   1173   1176     1  0.0000000  0.6508444  3
   1169   1179   1182   1185     1  0.0000000  0.6508444  3
   1170   1169   1179   1182     1  180.0000771  2.0083200  2
   1170   1169   1179   1182     1  0.0000000  1.2552000  3
   1170   1173   1176   1177     1  180.0000771  0.0000000  2
   1170   1173   1176   1178     1  180.0000771  0.0000000  2
   1173   1170   1169   1179     1  180.0000771  2.0083200  2
   1173   1170   1169   1179     1  0.0000000  1.2552000  3
   1179   1182   1185   1186     1  180.0000771  0.0000000  2
   1179   1182   1185   1187     1  180.0000771  0.0000000  2
   1189   1192   1195   1198     1  0.0000000  0.6508444  3
   1192   1195   1198   1199     1  180.0000771  2.0083200  2
   1192   1195   1198   1199     1  0.0000000  1.2552000  3
   1192   1195   1198   1208     1  180.0000771  2.0083200  2
   1192   1195   1198   1208     1  0.0000000  1.2552000  3
   1195   1198   1199   1202     1  180.0000771  2.0083200  2
   1195   1198   1199   1202     1  0.0000000  1.2552000  3
   1195   1198   1208   1211     1  180.0000771  2.0083200  2
   1195   1198   1208   1211     1  0.0000000  1.2552000  3
   1195   1192   1189   1217     1  0.0000000  0.6508444  3
   1198   1199   1202   1205     1  0.0000000  0.6508444  3
   1198   1208   1211   1214     1  0.0000000  0.6508444  3
   1199   1202   1205   1206     1  180.0000771  0.0000000  2
   1199   1202   1205   1207     1  180.0000771  0.0000000  2
   1199   1198   1208   1211     1  180.0000771  2.0083200  2
   1199   1198   1208   1211     1  0.0000000  1.2552000  3
   1202   1199   1198   1208     1  180.0000771  2.0083200  2
   1202   1199   1198   1208     1  0.0000000  1.2552000  3
   1208   1211   1214   1215     1  180.0000771  0.0000000  2
   1208   1211   1214   1216     1  180.0000771  0.0000000  2
   1218   1221   1224   1227     1  0.0000000  0.6508444  3
   1221   1224   1227   1228     1  180.0000771  2.0083200  2
   1221   1224   1227   1228     1  0.0000000  1.2552000  3
   1221   1224   1227   1237     1  180.0000771  2.0083200  2
   1221   1224   1227   1237     1  0.0000000  1.2552000  3
   1224   1221   1218   1246     1  0.0000000  0.6508444  3
   1224   1227   1228   1231     1  180.0000771  2.0083200  2
   1224   1227   1228   1231     1  0.0000000  1.2552000  3
   1224   1227   1237   1240     1  180.0000771  2.0083200  2
   1224   1227   1237   1240     1  0.0000000  1.2552000  3
   1227   1228   1231   1234     1  0.0000000  0.6508444  3
   1227   1237   1240   1243     1  0.0000000  0.6508444  3
   1228   1227   1237   1240     1  180.0000771  2.0083200  2
   1228   1227   1237   1240     1  0.0000000  1.2552000  3
   1228   1231   1234   1235     1  180.0000771  0.0000000  2
   1228   1231   1234   1236     1  180.0000771  0.0000000  2
   1231   1228   1227   1237     1  180.0000771  2.0083200  2
   1231   1228   1227   1237     1  0.0000000  1.2552000  3
   1237   1240   1243   1244     1  180.0000771  0.0000000  2
   1237   1240   1243   1245     1  180.0000771  0.0000000  2
   1247   1250   1253   1256     1  0.0000000  0.6508444  3
   1250   1253   1256   1257     1  180.0000771  2.0083200  2
   1250   1253   1256   1257     1  0.0000000  1.2552000  3
   1250   1253   1256   1266     1  180.0000771  2.0083200  2
   1250   1253   1256   1266     1  0.0000000  1.2552000  3
   1253   1256   1257   1260     1  180.0000771  2.0083200  2
   1253   1256   1257   1260     1  0.0000000  1.2552000  3
   1253   1256   1266   1269     1  180.0000771  2.0083200  2
   1253   1256   1266   1269     1  0.0000000  1.2552000  3
   1253   1250   1247   1275     1  0.0000000  0.6508444  3
   1256   1257   1260   1263     1  0.0000000  0.6508444  3
   1256   1266   1269   1272     1  0.0000000  0.6508444  3
   1257   1260   1263   1264     1  180.0000771  0.0000000  2
   1257   1260   1263   1265     1  180.0000771  0.0000000  2
   1257   1256   1266   1269     1  180.0000771  2.0083200  2
   1257   1256   1266   1269     1  0.0000000  1.2552000  3
   1260   1257   1256   1266     1  180.0000771  2.0083200  2
   1260   1257   1256   1266     1  0.0000000  1.2552000  3
   1266   1269   1272   1273     1  180.0000771  0.0000000  2
   1266   1269   1272   1274     1  180.0000771  0.0000000  2
   1276   1279   1282   1285     1  0.0000000  0.6508444  3
   1279   1282   1285   1286     1  180.0000771  2.0083200  2
   1279   1282   1285   1286     1  0.0000000  1.2552000  3
   1279   1282   1285   1295     1  180.0000771  2.0083200  2
   1279   1282   1285   1295     1  0.0000000  1.2552000  3
   1282   1279   1276   1304     1  0.0000000  0.6508444  3
   1282   1285   1286   1289     1  180.0000771  2.0083200  2
   1282   1285   1286   1289     1  0.0000000  1.2552000  3
   1282   1285   1295   1298     1  180.0000771  2.0083200  2
   1282   1285   1295   1298     1  0.0000000  1.2552000  3
   1285   1286   1289   1292     1  0.0000000  0.6508444  3
   1285   1295   1298   1301     1  0.0000000  0.6508444  3
   1286   1285   1295   1298     1  180.0000771  2.0083200  2
   1286   1285   1295   1298     1  0.0000000  1.2552000  3
   1286   1289   1292   1293     1  180.0000771  0.0000000  2
   1286   1289   1292   1294     1  180.0000771  0.0000000  2
   1289   1286   1285   1295     1  180.0000771  2.0083200  2
   1289   1286   1285   1295     1  0.0000000  1.2552000  3
   1295   1298   1301   1302     1  180.0000771  0.0000000  2
   1295   1298   1301   1303     1  180.0000771  0.0000000  2
   1305   1308   1311   1314     1  0.0000000  0.6508444  3
   1308   1311   1314   1315     1  180.0000771  2.0083200  2
   1308   1311   1314   1315     1  0.0000000  1.2552000  3
   1308   1311   1314   1324     1  180.0000771  2.0083200  2
   1308   1311   1314   1324     1  0.0000000  1.2552000  3
   1311   1314   1315   1318     1  180.0000771  2.0083200  2
   1311   1314   1315   1318     1  0.0000000  1.2552000  3
   1311   1314   1324   1327     1  180.0000771  2.0083200  2
   1311   1314   1324   1327     1  0.0000000  1.2552000  3
   1311   1308   1305   1333     1  0.0000000  0.6508444  3
   1314   1315   1318   1321     1  0.0000000  0.6508444  3
   1314   1324   1327   1330     1  0.0000000  0.6508444  3
   1315   1318   1321   1322     1  180.0000771  0.0000000  2
   1315   1318   1321   1323     1  180.0000771  0.0000000  2
   1315   1314   1324   1327     1  180.0000771  2.0083200  2
   1315   1314   1324   1327     1  0.0000000  1.2552000  3
   1318   1315   1314   1324     1  180.0000771  2.0083200  2
   1318   1315   1314   1324     1  0.0000000  1.2552000  3
   1324   1327   1330   1331     1  180.0000771  0.0000000  2
   1324   1327   1330   1332     1  180.0000771  0.0000000  2
   1334   1337   1340   1343     1  0.0000000  0.6508444  3
   1337   1340   1343   1344     1  180.0000771  2.0083200  2
   1337   1340   1343   1344     1  0.0000000  1.2552000  3
   1337   1340   1343   1353     1  180.0000771  2.0083200  2
   1337   1340   1343   1353     1  0.0000000  1.2552000  3
   1340   1337   1334   1362     1  0.0000000  0.6508444  3
   1340   1343   1344   1347     1  180.0000771  2.0083200  2
   1340   1343   1344   1347     1  0.0000000  1.2552000  3
   1340   1343   1353   1356     1  180.0000771  2.0083200  2
   1340   1343   1353   1356     1  0.0000000  1.2552000  3
   1343   1344   1347   1350     1  0.0000000  0.6508444  3
   1343   1353   1356   1359     1  0.0000000  0.6508444  3
   1344   1343   1353   1356     1  180.0000771  2.0083200  2
   1344   1343   1353   1356     1  0.0000000  1.2552000  3
   1344   1347   1350   1351     1  180.0000771  0.0000000  2
   1344   1347   1350   1352     1  180.0000771  0.0000000  2
   1347   1344   1343   1353     1  180.0000771  2.0083200  2
   1347   1344   1343   1353     1  0.0000000  1.2552000  3
   1353   1356   1359   1360     1  180.0000771  0.0000000  2
   1353   1356   1359   1361     1  180.0000771  0.0000000  2
   1363   1366   1369   1372     1  0.0000000  0.6508444  3
   1366   1369   1372   1373     1  180.0000771  2.0083200  2
   1366   1369   1372   1373     1  0.0000000  1.2552000  3
   1366   1369   1372   1382     1  180.0000771  2.0083200  2
   1366   1369   1372   1382     1  0.0000000  1.2552000  3
   1369   1372   1373   1376     1  180.0000771  2.0083200  2
   1369   1372   1373   1376     1  0.0000000  1.2552000  3
   1369   1372   1382   1385     1  180.0000771  2.0083200  2
   1369   1372   1382   1385     1  0.0000000  1.2552000  3
   1369   1366   1363   1391     1  0.0000000  0.6508444  3
   1372   1373   1376   1379     1  0.0000000  0.6508444  3
   1372   1382   1385   1388     1  0.0000000  0.6508444  3
   1373   1376   1379   1380     1  180.0000771  0.0000000  2
   1373   1376   1379   1381     1  180.0000771  0.0000000  2
   1373   1372   1382   1385     1  180.0000771  2.0083200  2
   1373   1372   1382   1385     1  0.0000000  1.2552000  3
   1376   1373   1372   1382     1  180.0000771  2.0083200  2
   1376   1373   1372   1382     1  0.0000000  1.2552000  3
   1382   1385   1388   1389     1  180.0000771  0.0000000  2
   1382   1385   1388   1390     1  180.0000771  0.0000000  2
   1392   1395   1398   1401     1  0.0000000  0.6508444  3
   1395   1398   1401   1402     1  180.0000771  2.0083200  2
   1395   1398   1401   1402     1  0.0000000  1.2552000  3
   1395   1398   1401   1411     1  180.0000771  2.0083200  2
   1395   1398   1401   1411     1  0.0000000  1.2552000  3
   1398   1395   1392   1420     1  0.0000000  0.6508444  3
   1398   1401   1402   1405     1  180.0000771  2.0083200  2
   1398   1401   1402   1405     1  0.0000000  1.2552000  3
   1398   1401   1411   1414     1  180.0000771  2.0083200  2
   1398   1401   1411   1414     1  0.0000000  1.2552000  3
   1401   1402   1405   1408     1  0.0000000  0.6508444  3
   1401   1411   1414   1417     1  0.0000000  0.6508444  3
   1402   1401   1411   1414     1  180.0000771  2.0083200  2
   1402   1401   1411   1414     1  0.0000000  1.2552000  3
   1402   1405   1408   1409     1  180.0000771  0.0000000  2
   1402   1405   1408   1410     1  180.0000771  0.0000000  2
   1405   1402   1401   1411     1  180.0000771  2.0083200  2
   1405   1402   1401   1411     1  0.0000000  1.2552000  3
   1411   1414   1417   1418     1  180.0000771  0.0000000  2
   1411   1414   1417   1419     1  180.0000771  0.0000000  2
   1421   1424   1427   1430     1  0.0000000  0.6508444  3
   1424   1427   1430   1431     1  180.0000771  2.0083200  2
   1424   1427   1430   1431     1  0.0000000  1.2552000  3
   1424   1427   1430   1440     1  180.0000771  2.0083200  2
   1424   1427   1430   1440     1  0.0000000  1.2552000  3
   1427   1430   1431   1434     1  180.0000771  2.0083200  2
   1427   1430   1431   1434     1  0.0000000  1.2552000  3
   1427   1430   1440   1443     1  180.0000771  2.0083200  2
   1427   1430   1440   1443     1  0.0000000  1.2552000  3
   1427   1424   1421   1449     1  0.0000000  0.6508444  3
   1430   1431   1434   1437     1  0.0000000  0.6508444  3
   1430   1440   1443   1446     1  0.0000000  0.6508444  3
   1431   1434   1437   1438     1  180.0000771  0.0000000  2
   1431   1434   1437   1439     1  180.0000771  0.0000000  2
   1431   1430   1440   1443     1  180.0000771  2.0083200  2
   1431   1430   1440   1443     1  0.0000000  1.2552000  3
   1434   1431   1430   1440     1  180.0000771  2.0083200  2
   1434   1431   1430   1440     1  0.0000000  1.2552000  3
   1440   1443   1446   1447     1  180.0000771  0.0000000  2
   1440   1443   1446   1448     1  180.0000771  0.0000000  2
   1450   1453   1456   1459     1  0.0000000  0.6508444  3
   1453   1456   1459   1460     1  180.0000771  2.0083200  2
   1453   1456   1459   1460     1  0.0000000  1.2552000  3
   1453   1456   1459   1469     1  180.0000771  2.0083200  2
   1453   1456   1459   1469     1  0.0000000  1.2552000  3
   1456   1453   1450   1478     1  0.0000000  0.6508444  3
   1456   1459   1460   1463     1  180.0000771  2.0083200  2
   1456   1459   1460   1463     1  0.0000000  1.2552000  3
   1456   1459   1469   1472     1  180.0000771  2.0083200  2
   1456   1459   1469   1472     1  0.0000000  1.2552000  3
   1459   1460   1463   1466     1  0.0000000  0.6508444  3
   1459   1469   1472   1475     1  0.0000000  0.6508444  3
   1460   1459   1469   1472     1  180.0000771  2.0083200  2
   1460   1459   1469   1472     1  0.0000000  1.2552000  3
   1460   1463   1466   1467     1  180.0000771  0.0000000  2
   1460   1463   1466   1468     1  180.0000771  0.0000000  2
   1463   1460   1459   1469     1  180.0000771  2.0083200  2
   1463   1460   1459   1469     1  0.0000000  1.2552000  3
   1469   1472   1475   1476     1  180.0000771  0.0000000  2
   1469   1472   1475   1477     1  180.0000771  0.0000000  2
   1479   1482   1485   1488     1  0.0000000  0.6508444  3
   1482   1485   1488   1489     1  180.0000771  2.0083200  2
   1482   1485   1488   1489     1  0.0000000  1.2552000  3
   1482   1485   1488   1498     1  180.0000771  2.0083200  2
   1482   1485   1488   1498     1  0.0000000  1.2552000  3
   1485   1488   1489   1492     1  180.0000771  2.0083200  2
   1485   1488   1489   1492     1  0.0000000  1.2552000  3
   1485   1488   1498   1501     1  180.0000771  2.0083200  2
   1485   1488   1498   1501     1  0.0000000  1.2552000  3
   1485   1482   1479   1507     1  0.0000000  0.6508444  3
   1488   1489   1492   1495     1  0.0000000  0.6508444  3
   1488   1498   1501   1504     1  0.0000000  0.6508444  3
   1489   1492   1495   1496     1  180.0000771  0.0000000  2
   1489   1492   1495   1497     1  180.0000771  0.0000000  2
   1489   1488   1498   1501     1  180.0000771  2.0083200  2
   1489   1488   1498   1501     1  0.0000000  1.2552000  3
   1492   1489   1488   1498     1  180.0000771  2.0083200  2
   1492   1489   1488   1498     1  0.0000000  1.2552000  3
   1498   1501   1504   1505     1  180.0000771  0.0000000  2
   1498   1501   1504   1506     1  180.0000771  0.0000000  2
   1508   1511   1514   1517     1  0.0000000  0.6508444  3
   1511   1514   1517   1518     1  180.0000771  2.0083200  2
   1511   1514   1517   1518     1  0.0000000  1.2552000  3
   1511   1514   1517   1527     1  180.0000771  2.0083200  2
   1511   1514   1517   1527     1  0.0000000  1.2552000  3
   1514   1511   1508   1536     1  0.0000000  0.6508444  3
   1514   1517   1518   1521     1  180.0000771  2.0083200  2
   1514   1517   1518   1521     1  0.0000000  1.2552000  3
   1514   1517   1527   1530     1  180.0000771  2.0083200  2
   1514   1517   1527   1530     1  0.0000000  1.2552000  3
   1517   1518   1521   1524     1  0.0000000  0.6508444  3
   1517   1527   1530   1533     1  0.0000000  0.6508444  3
   1518   1517   1527   1530     1  180.0000771  2.0083200  2
   1518   1517   1527   1530     1  0.0000000  1.2552000  3
   1518   1521   1524   1525     1  180.0000771  0.0000000  2
   1518   1521   1524   1526     1  180.0000771  0.0000000  2
   1521   1518   1517   1527     1  180.0000771  2.0083200  2
   1521   1518   1517   1527     1  0.0000000  1.2552000  3
   1527   1530   1533   1534     1  180.0000771  0.0000000  2
   1527   1530   1533   1535     1  180.0000771  0.0000000  2
   1537   1540   1543   1546     1  0.0000000  0.6508444  3
   1540   1543   1546   1547     1  180.0000771  2.0083200  2
   1540   1543   1546   1547     1  0.0000000  1.2552000  3
   1540   1543   1546   1556     1  180.0000771  2.0083200  2
   1540   1543   1546   1556     1  0.0000000  1.2552000  3
   1543   1546   1547   1550     1  180.0000771  2.0083200  2
   1543   1546   1547   1550     1  0.0000000  1.2552000  3
   1543   1546   1556   1559     1  180.0000771  2.0083200  2
   1543   1546   1556   1559     1  0.0000000  1.2552000  3
   1543   1540   1537   1565     1  0.0000000  0.6508444  3
   1546   1547   1550   1553     1  0.0000000  0.6508444  3
   1546   1556   1559   1562     1  0.0000000  0.6508444  3
   1547   1550   1553   1554     1  180.0000771  0.0000000  2
   1547   1550   1553   1555     1  180.0000771  0.0000000  2
   1547   1546   1556   1559     1  180.0000771  2.0083200  2
   1547   1546   1556   1559     1  0.0000000  1.2552000  3
   1550   1547   1546   1556     1  180.0000771  2.0083200  2
   1550   1547   1546   1556     1  0.0000000  1.2552000  3
   1556   1559   1562   1563     1  180.0000771  0.0000000  2
   1556   1559   1562   1564     1  180.0000771  0.0000000  2
   1566   1569   1572   1575     1  0.0000000  0.6508444  3
   1569   1572   1575   1576     1  180.0000771  2.0083200  2
   1569   1572   1575   1576     1  0.0000000  1.2552000  3
   1569   1572   1575   1585     1  180.0000771  2.0083200  2
   1569   1572   1575   1585     1  0.0000000  1.2552000  3
   1572   1569   1566   1594     1  0.0000000  0.6508444  3
   1572   1575   1576   1579     1  180.0000771  2.0083200  2
   1572   1575   1576   1579     1  0.0000000  1.2552000  3
   1572   1575   1585   1588     1  180.0000771  2.0083200  2
   1572   1575   1585   1588     1  0.0000000  1.2552000  3
   1575   1576   1579   1582     1  0.0000000  0.6508444  3
   1575   1585   1588   1591     1  0.0000000  0.6508444  3
   1576   1575   1585   1588     1  180.0000771  2.0083200  2
   1576   1575   1585   1588     1  0.0000000  1.2552000  3
   1576   1579   1582   1583     1  180.0000771  0.0000000  2
   1576   1579   1582   1584     1  180.0000771  0.0000000  2
   1579   1576   1575   1585     1  180.0000771  2.0083200  2
   1579   1576   1575   1585     1  0.0000000  1.2552000  3
   1585   1588   1591   1592     1  180.0000771  0.0000000  2
   1585   1588   1591   1593     1  180.0000771  0.0000000  2
   1595   1598   1601   1604     1  0.0000000  0.6508444  3
   1598   1601   1604   1605     1  180.0000771  2.0083200  2
   1598   1601   1604   1605     1  0.0000000  1.2552000  3
   1598   1601   1604   1614     1  180.0000771  2.0083200  2
   1598   1601   1604   1614     1  0.0000000  1.2552000  3
   1601   1604   1605   1608     1  180.0000771  2.0083200  2
   1601   1604   1605   1608     1  0.0000000  1.2552000  3
   1601   1604   1614   1617     1  180.0000771  2.0083200  2
   1601   1604   1614   1617     1  0.0000000  1.2552000  3
   1601   1598   1595   1623     1  0.0000000  0.6508444  3
   1604   1605   1608   1611     1  0.0000000  0.6508444  3
   1604   1614   1617   1620     1  0.0000000  0.6508444  3
   1605   1608   1611   1612     1  180.0000771  0.0000000  2
   1605   1608   1611   1613     1  180.0000771  0.0000000  2
   1605   1604   1614   1617     1  180.0000771  2.0083200  2
   1605   1604   1614   1617     1  0.0000000  1.2552000  3
   1608   1605   1604   1614     1  180.0000771  2.0083200  2
   1608   1605   1604   1614     1  0.0000000  1.2552000  3
   1614   1617   1620   1621     1  180.0000771  0.0000000  2
   1614   1617   1620   1622     1  180.0000771  0.0000000  2
   1624   1627   1630   1633     1  0.0000000  0.6508444  3
   1627   1630   1633   1634     1  180.0000771  2.0083200  2
   1627   1630   1633   1634     1  0.0000000  1.2552000  3
   1627   1630   1633   1643     1  180.0000771  2.0083200  2
   1627   1630   1633   1643     1  0.0000000  1.2552000  3
   1630   1627   1624   1652     1  0.0000000  0.6508444  3
   1630   1633   1634   1637     1  180.0000771  2.0083200  2
   1630   1633   1634   1637     1  0.0000000  1.2552000  3
   1630   1633   1643   1646     1  180.0000771  2.0083200  2
   1630   1633   1643   1646     1  0.0000000  1.2552000  3
   1633   1634   1637   1640     1  0.0000000  0.6508444  3
   1633   1643   1646   1649     1  0.0000000  0.6508444  3
   1634   1633   1643   1646     1  180.0000771  2.0083200  2
   1634   1633   1643   1646     1  0.0000000  1.2552000  3
   1634   1637   1640   1641     1  180.0000771  0.0000000  2
   1634   1637   1640   1642     1  180.0000771  0.0000000  2
   1637   1634   1633   1643     1  180.0000771  2.0083200  2
   1637   1634   1633   1643     1  0.0000000  1.2552000  3
   1643   1646   1649   1650     1  180.0000771  0.0000000  2
   1643   1646   1649   1651     1  180.0000771  0.0000000  2
   1653   1656   1659   1662     1  0.0000000  0.6508444  3
   1656   1659   1662   1663     1  180.0000771  2.0083200  2
   1656   1659   1662   1663     1  0.0000000  1.2552000  3
   1656   1659   1662   1672     1  180.0000771  2.0083200  2
   1656   1659   1662   1672     1  0.0000000  1.2552000  3
   1659   1662   1663   1666     1  180.0000771  2.0083200  2
   1659   1662   1663   1666     1  0.0000000  1.2552000  3
   1659   1662   1672   1675     1  180.0000771  2.0083200  2
   1659   1662   1672   1675     1  0.0000000  1.2552000  3
   1659   1656   1653   1681     1  0.0000000  0.6508444  3
   1662   1663   1666   1669     1  0.0000000  0.6508444  3
   1662   1672   1675   1678     1  0.0000000  0.6508444  3
   1663   1666   1669   1670     1  180.0000771  0.0000000  2
   1663   1666   1669   1671     1  180.0000771  0.0000000  2
   1663   1662   1672   1675     1  180.0000771  2.0083200  2
   1663   1662   1672   1675     1  0.0000000  1.2552000  3
   1666   1663   1662   1672     1  180.0000771  2.0083200  2
   1666   1663   1662   1672     1  0.0000000  1.2552000  3
   1672   1675   1678   1679     1  180.0000771  0.0000000  2
   1672   1675   1678   1680     1  180.0000771  0.0000000  2
   1682   1685   1688   1691     1  0.0000000  0.6508444  3
   1685   1688   1691   1692     1  180.0000771  2.0083200  2
   1685   1688   1691   1692     1  0.0000000  1.2552000  3
   1685   1688   1691   1701     1  180.0000771  2.0083200  2
   1685   1688   1691   1701     1  0.0000000  1.2552000  3
   1688   1685   1682   1710     1  0.0000000  0.6508444  3
   1688   1691   1692   1695     1  180.0000771  2.0083200  2
   1688   1691   1692   1695     1  0.0000000  1.2552000  3
   1688   1691   1701   1704     1  180.0000771  2.0083200  2
   1688   1691   1701   1704     1  0.0000000  1.2552000  3
   1691   1692   1695   1698     1  0.0000000  0.6508444  3
   1691   1701   1704   1707     1  0.0000000  0.6508444  3
   1692   1691   1701   1704     1  180.0000771  2.0083200  2
   1692   1691   1701   1704     1  0.0000000  1.2552000  3
   1692   1695   1698   1699     1  180.0000771  0.0000000  2
   1692   1695   1698   1700     1  180.0000771  0.0000000  2
   1695   1692   1691   1701     1  180.0000771  2.0083200  2
   1695   1692   1691   1701     1  0.0000000  1.2552000  3
   1701   1704   1707   1708     1  180.0000771  0.0000000  2
   1701   1704   1707   1709     1  180.0000771  0.0000000  2
   1711   1714   1717   1720     1  0.0000000  0.6508444  3
   1714   1717   1720   1721     1  180.0000771  2.0083200  2
   1714   1717   1720   1721     1  0.0000000  1.2552000  3
   1714   1717   1720   1730     1  180.0000771  2.0083200  2
   1714   1717   1720   1730     1  0.0000000  1.2552000  3
   1717   1720   1721   1724     1  180.0000771  2.0083200  2
   1717   1720   1721   1724     1  0.0000000  1.2552000  3
   1717   1720   1730   1733     1  180.0000771  2.0083200  2
   1717   1720   1730   1733     1  0.0000000  1.2552000  3
   1717   1714   1711   1739     1  0.0000000  0.6508444  3
   1720   1721   1724   1727     1  0.0000000  0.6508444  3
   1720   1730   1733   1736     1  0.0000000  0.6508444  3
   1721   1724   1727   1728     1  180.0000771  0.0000000  2
   1721   1724   1727   1729     1  180.0000771  0.0000000  2
   1721   1720   1730   1733     1  180.0000771  2.0083200  2
   1721   1720   1730   1733     1  0.0000000  1.2552000  3
   1724   1721   1720   1730     1  180.0000771  2.0083200  2
   1724   1721   1720   1730     1  0.0000000  1.2552000  3
   1730   1733   1736   1737     1  180.0000771  0.0000000  2
   1730   1733   1736   1738     1  180.0000771  0.0000000  2
   1740   1743   1746   1749     1  0.0000000  0.6508444  3
   1743   1746   1749   1750     1  180.0000771  2.0083200  2
   1743   1746   1749   1750     1  0.0000000  1.2552000  3
   1743   1746   1749   1759     1  180.0000771  2.0083200  2
   1743   1746   1749   1759     1  0.0000000  1.2552000  3
   1746   1743   1740   1768     1  0.0000000  0.6508444  3
   1746   1749   1750   1753     1  180.0000771  2.0083200  2
   1746   1749   1750   1753     1  0.0000000  1.2552000  3
   1746   1749   1759   1762     1  180.0000771  2.0083200  2
   1746   1749   1759   1762     1  0.0000000  1.2552000  3
   1749   1750   1753   1756     1  0.0000000  0.6508444  3
   1749   1759   1762   1765     1  0.0000000  0.6508444  3
   1750   1749   1759   1762     1  180.0000771  2.0083200  2
   1750   1749   1759   1762     1  0.0000000  1.2552000  3
   1750   1753   1756   1757     1  180.0000771  0.0000000  2
   1750   1753   1756   1758     1  180.0000771  0.0000000  2
   1753   1750   1749   1759     1  180.0000771  2.0083200  2
   1753   1750   1749   1759     1  0.0000000  1.2552000  3
   1759   1762   1765   1766     1  180.0000771  0.0000000  2
   1759   1762   1765   1767     1  180.0000771  0.0000000  2
   1769   1772   1775   1778     1  0.0000000  0.6508444  3
   1772   1775   1778   1779     1  180.0000771  2.0083200  2
   1772   1775   1778   1779     1  0.0000000  1.2552000  3
   1772   1775   1778   1788     1  180.0000771  2.0083200  2
   1772   1775   1778   1788     1  0.0000000  1.2552000  3
   1775   1778   1779   1782     1  180.0000771  2.0083200  2
   1775   1778   1779   1782     1  0.0000000  1.2552000  3
   1775   1778   1788   1791     1  180.0000771  2.0083200  2
   1775   1778   1788   1791     1  0.0000000  1.2552000  3
   1775   1772   1769   1797     1  0.0000000  0.6508444  3
   1778   1779   1782   1785     1  0.0000000  0.6508444  3
   1778   1788   1791   1794     1  0.0000000  0.6508444  3
   1779   1782   1785   1786     1  180.0000771  0.0000000  2
   1779   1782   1785   1787     1  180.0000771  0.0000000  2
   1779   1778   1788   1791     1  180.0000771  2.0083200  2
   1779   1778   1788   1791     1  0.0000000  1.2552000  3
   1782   1779   1778   1788     1  180.0000771  2.0083200  2
   1782   1779   1778   1788     1  0.0000000  1.2552000  3
   1788   1791   1794   1795     1  180.0000771  0.0000000  2
   1788   1791   1794   1796     1  180.0000771  0.0000000  2
    883    887    886    888     4  180.0000771  4.6024000  2
    892    896    895    897     4  180.0000771  4.6024000  2
    912    916    915    917     4  180.0000771  4.6024000  2
    921    925    924    926     4  180.0000771  4.6024000  2
    941    945    944    946     4  180.0000771  4.6024000  2
    950    954    953    955     4  180.0000771  4.6024000  2
    970    974    973    975     4  180.0000771  4.6024000  2
    979    983    982    984     4  180.0000771  4.6024000  2
    999   1003   1002   1004     4  180.0000771  4.6024000  2
   1008   1012   1011   1013     4  180.0000771  4.6024000  2
   1028   1032   1031   1033     4  180.0000771  4.6024000  2
   1037   1041   1040   1042     4  180.0000771  4.6024000  2
   1057   1061   1060   1062     4  180.0000771  4.6024000  2
   1066   1070   1069   1071     4  180.0000771  4.6024000  2
   1086   1090   1089   1091     4  180.0000771  4.6024000  2
   1095   1099   1098   1100     4  180.0000771  4.6024000  2
   1115   1119   1118   1120     4  180.0000771  4.6024000  2
   1124   1128   1127   1129     4  180.0000771  4.6024000  2
   1144   1148   1147   1149     4  180.0000771  4.6024000  2
   1153   1157   1156   1158     4  180.0000771  4.6024000  2
   1173   1177   1176   1178     4  180.0000771  4.6024000  2
   1182   1186   1185   1187     4  180.0000771  4.6024000  2
   1202   1206   1205   1207     4  180.0000771  4.6024000  2
   1211   1215   1214   1216     4  180.0000771  4.6024000  2
   1231   1235   1234   1236     4  180.0000771  4.6024000  2
   1240   1244   1243   1245     4  180.0000771  4.6024000  2
   1260   1264   1263   1265     4  180.0000771  4.6024000  2
   1269   1273   1272   1274     4  180.0000771  4.6024000  2
   1289   1293   1292   1294     4  180.0000771  4.6024000  2
   1298   1302   1301   1303     4  180.0000771  4.6024000  2
   1318   1322   1321   1323     4  180.0000771  4.6024000  2
   1327   1331   1330   1332     4  180.0000771  4.6024000  2
   1347   1351   1350   1352     4  180.0000771  4.6024000  2
   1356   1360   1359   1361     4  180.0000771  4.6024000  2
   1376   1380   1379   1381     4  180.0000771  4.6024000  2
   1385   1389   1388   1390     4  180.0000771  4.6024000  2
   1405   1409   1408   1410     4  180.0000771  4.6024000  2
   1414   1418   1417   1419     4  180.0000771  4.6024000  2
   1434   1438   1437   1439     4  180.0000771  4.6024000  2
   1443   1447   1446   1448     4  180.0000771  4.6024000  2
   1463   1467   1466   1468     4  180.0000771  4.6024000  2
   1472   1476   1475   1477     4  180.0000771  4.6024000  2
   1492   1496   1495   1497     4  180.0000771  4.6024000  2
   1501   1505   1504   1506     4  180.0000771  4.6024000  2
   1521   1525   1524   1526     4  180.0000771  4.6024000  2
   1530   1534   1533   1535     4  180.0000771  4.6024000  2
   1550   1554   1553   1555     4  180.0000771  4.6024000  2
   1559   1563   1562   1564     4  180.0000771  4.6024000  2
   1579   1583   1582   1584     4  180.0000771  4.6024000  2
   1588   1592   1591   1593     4  180.0000771  4.6024000  2
   1608   1612   1611   1613     4  180.0000771  4.6024000  2
   1617   1621   1620   1622     4  180.0000771  4.6024000  2
   1637   1641   1640   1642     4  180.0000771  4.6024000  2
   1646   1650   1649   1651     4  180.0000771  4.6024000  2
   1666   1670   1669   1671     4  180.0000771  4.6024000  2
   1675   1679   1678   1680     4  180.0000771  4.6024000  2
   1695   1699   1698   1700     4  180.0000771  4.6024000  2
   1704   1708   1707   1709     4  180.0000771  4.6024000  2
   1724   1728   1727   1729     4  180.0000771  4.6024000  2
   1733   1737   1736   1738     4  180.0000771  4.6024000  2
   1753   1757   1756   1758     4  180.0000771  4.6024000  2
   1762   1766   1765   1767     4  180.0000771  4.6024000  2
   1782   1786   1785   1787     4  180.0000771  4.6024000  2
   1791   1795   1794   1796     4  180.0000771  4.6024000  2
      1      2      8      9     1  0.0000000  1.0460000  1
      1      2      8      9     1  0.0000000  0.0000000  3
      1      2      8     10     1  0.0000000  1.0460000  1
      1      2      8     10     1  0.0000000  0.0000000  3
      1      5     11     12     1  0.0000000  1.0460000  1
      1      5     11     12     1  0.0000000  0.0000000  3
      1      5     11     13     1  0.0000000  1.0460000  1
      1      5     11     13     1  0.0000000  0.0000000  3
      2      1      5      6     1  0.0000000  1.6038667  3
      2      1      5      7     1  0.0000000  1.6038667  3
      2      8     14     15     1  0.0000000  0.6508444  3
      2      8     14     16     1  0.0000000  0.6508444  3
      5      1      2      3     1  0.0000000  1.6038667  3
      3      2      8     14     1  0.0000000  0.6508444  3
      3      2      8      9     1  0.0000000  0.6508444  3
      3      2      8     10     1  0.0000000  0.6508444  3
      5      1      2      4     1  0.0000000  1.6038667  3
      4      2      8     14     1  0.0000000  0.6508444  3
      4      2      8      9     1  0.0000000  0.6508444  3
      4      2      8     10     1  0.0000000  0.6508444  3
      5     11     17     18     1  0.0000000  0.6508444  3
      5     11     17     19     1  0.0000000  0.6508444  3
      6      5     11     17     1  0.0000000  0.6508444  3
      6      5     11     12     1  0.0000000  0.6508444  3
      6      5     11     13     1  0.0000000  0.6508444  3
      7      5     11     17     1  0.0000000  0.6508444  3
      7      5     11     12     1  0.0000000  0.6508444  3
      7      5     11     13     1  0.0000000  0.6508444  3
      9      8     14     20     1  0.0000000  0.6508444  3
      9      8     14     15     1  0.0000000  0.6508444  3
      9      8     14     16     1  0.0000000  0.6508444  3
     10      8     14     20     1  0.0000000  0.6508444  3
     10      8     14     15     1  0.0000000  0.6508444  3
     10      8     14     16     1  0.0000000  0.6508444  3
     12     11     17     21     1  0.0000000  0.6508444  3
     12     11     17     18     1  0.0000000  0.6508444  3
     12     11     17     19     1  0.0000000  0.6508444  3
     13     11     17     21     1  0.0000000  0.6508444  3
     13     11     17     18     1  0.0000000  0.6508444  3
     13     11     17     19     1  0.0000000  0.6508444  3
     14     20     28     29     1  0.0000000  1.2552000  3
     14     20     28     30     1  0.0000000  1.2552000  3
     14     20     31     32     1  0.0000000  1.2552000  3
     14     20     31     33     1  0.0000000  1.2552000  3
     15     14     20     28     1  0.0000000  1.2552000  3
     15     14     20     31     1  0.0000000  1.2552000  3
     16     14     20     28     1  0.0000000  1.2552000  3
     16     14     20     31     1  0.0000000  1.2552000  3
     17     21     22     23     1  0.0000000  1.2552000  3
     17     21     22     24     1  0.0000000  1.2552000  3
     17     21     25     26     1  0.0000000  1.2552000  3
     17     21     25     27     1  0.0000000  1.2552000  3
     18     17     21     22     1  0.0000000  1.2552000  3
     18     17     21     25     1  0.0000000  1.2552000  3
     19     17     21     22     1  0.0000000  1.2552000  3
     19     17     21     25     1  0.0000000  1.2552000  3
     20     28     40     41     1  0.0000000  0.6508444  3
     20     28     40     42     1  0.0000000  0.6508444  3
     20     31     43     44     1  0.0000000  0.6508444  3
     20     31     43     45     1  0.0000000  0.6508444  3
     21     22     34     35     1  0.0000000  0.6508444  3
     21     22     34     36     1  0.0000000  0.6508444  3
     21     25     37     38     1  0.0000000  0.6508444  3
     21     25     37     39     1  0.0000000  0.6508444  3
     22     21     25     26     1  0.0000000  1.2552000  3
     22     21     25     27     1  0.0000000  1.2552000  3
     22     34     55     56     1  0.0000000  0.6508444  3
     22     34     55     57     1  0.0000000  0.6508444  3
     23     22     21     25     1  0.0000000  1.2552000  3
     23     22     34     55     1  0.0000000  0.6508444  3
     23     22     34     35     1  0.0000000  0.6508444  3
     23     22     34     36     1  0.0000000  0.6508444  3
     24     22     21     25     1  0.0000000  1.2552000  3
     24     22     34     55     1  0.0000000  0.6508444  3
     24     22     34     35     1  0.0000000  0.6508444  3
     24     22     34     36     1  0.0000000  0.6508444  3
     25     37     52     53     1  0.0000000  0.6508444  3
     25     37     52     54     1  0.0000000  0.6508444  3
     26     25     37     52     1  0.0000000  0.6508444  3
     26     25     37     38     1  0.0000000  0.6508444  3
     26     25     37     39     1  0.0000000  0.6508444  3
     27     25     37     52     1  0.0000000  0.6508444  3
     27     25     37     38     1  0.0000000  0.6508444  3
     27     25     37     39     1  0.0000000  0.6508444  3
     28     20     31     32     1  0.0000000  1.2552000  3
     28     20     31     33     1  0.0000000  1.2552000  3
     28     40     49     50     1  0.0000000  0.6508444  3
     28     40     49     51     1  0.0000000  0.6508444  3
     29     28     20     31     1  0.0000000  1.2552000  3
     29     28     40     49     1  0.0000000  0.6508444  3
     29     28     40     41     1  0.0000000  0.6508444  3
     29     28     40     42     1  0.0000000  0.6508444  3
     30     28     20     31     1  0.0000000  1.2552000  3
     30     28     40     49     1  0.0000000  0.6508444  3
     30     28     40     41     1  0.0000000  0.6508444  3
     30     28     40     42     1  0.0000000  0.6508444  3
     31     43     46     47     1  0.0000000  0.6508444  3
     31     43     46     48     1  0.0000000  0.6508444  3
     32     31     43     46     1  0.0000000  0.6508444  3
     32     31     43     44     1  0.0000000  0.6508444  3
     32     31     43     45     1  0.0000000  0.6508444  3
     33     31     43     46     1  0.0000000  0.6508444  3
     33     31     43     44     1  0.0000000  0.6508444  3
     33     31     43     45     1  0.0000000  0.6508444  3
     35     34     55    173     1  0.0000000  1.0460000  1
     35     34     55    173     1  0.0000000  0.0000000  3
     35     34     55     56     1  0.0000000  0.6508444  3
     35     34     55     57     1  0.0000000  0.6508444  3
     36     34     55    173     1  0.0000000  1.0460000  1
     36     34     55    173     1  0.0000000  0.0000000  3
     36     34     55     56     1  0.0000000  0.6508444  3
     36     34     55     57     1  0.0000000  0.6508444  3
     38     37     52    144     1  0.0000000  1.0460000  1
     38     37     52    144     1  0.0000000  0.0000000  3
     38     37     52     53     1  0.0000000  0.6508444  3
     38     37     52     54     1  0.0000000  0.6508444  3
     39     37     52    144     1  0.0000000  1.0460000  1
     39     37     52    144     1  0.0000000  0.0000000  3
     39     37     52     53     1  0.0000000  0.6508444  3
     39     37     52     54     1  0.0000000  0.6508444  3
     41     40     49    115     1  0.0000000  1.0460000  1
     41     40     49    115     1  0.0000000  0.0000000  3
     41     40     49     50     1  0.0000000  0.6508444  3
     41     40     49     51     1  0.0000000  0.6508444  3
     42     40     49    115     1  0.0000000  1.0460000  1
     42     40     49    115     1  0.0000000  0.0000000  3
     42     40     49     50     1  0.0000000  0.6508444  3
     42     40     49     51     1  0.0000000  0.6508444  3
     44     43     46     86     1  0.0000000  1.0460000  1
     44     43     46     86     1  0.0000000  0.0000000  3
     44     43     46     47     1  0.0000000  0.6508444  3
     44     43     46     48     1  0.0000000  0.6508444  3
     45     43     46     86     1  0.0000000  1.0460000  1
     45     43     46     86     1  0.0000000  0.0000000  3
     45     43     46     47     1  0.0000000  0.6508444  3
     45     43     46     48     1  0.0000000  0.6508444  3
     46     86     77     78     1  0.0000000  1.6038667  3
     46     86     77     79     1  0.0000000  1.6038667  3
     47     46     86     77     1  0.0000000  1.6038667  3
     48     46     86     77     1  0.0000000  1.6038667  3
     49    115    106    107     1  0.0000000  1.6038667  3
     49    115    106    108     1  0.0000000  1.6038667  3
     50     49    115    106     1  0.0000000  1.6038667  3
     51     49    115    106     1  0.0000000  1.6038667  3
     52    144    135    136     1  0.0000000  1.6038667  3
     52    144    135    137     1  0.0000000  1.6038667  3
     53     52    144    135     1  0.0000000  1.6038667  3
     54     52    144    135     1  0.0000000  1.6038667  3
     55    173    164    165     1  0.0000000  1.6038667  3
     55    173    164    166     1  0.0000000  1.6038667  3
     56     55    173    164     1  0.0000000  1.6038667  3
     57     55    173    164     1  0.0000000  1.6038667  3
     58     59     71     72     1  0.0000000  0.6508444  3
     58     59     71     73     1  0.0000000  0.6508444  3
     58     62     74     75     1  0.0000000  0.6508444  3
     58     62     74     76     1  0.0000000  0.6508444  3
     58     65     68     69     1  0.0000000  0.6508444  3
     58     65     68     70     1  0.0000000  0.6508444  3
     59     58     62     63     1  0.0000000  1.2552000  3
     59     58     62     64     1  0.0000000  1.2552000  3
     59     58     65     66     1  0.0000000  1.2552000  3
     59     58     65     67     1  0.0000000  1.2552000  3
     59     71     83     84     1  0.0000000  0.6508444  3
     59     71     83     85     1  0.0000000  0.6508444  3
     60     59     58     62     1  0.0000000  1.2552000  3
     60     59     58     65     1  0.0000000  1.2552000  3
     60     59     71     83     1  0.0000000  0.6508444  3
     60     59     71     72     1  0.0000000  0.6508444  3
     60     59     71     73     1  0.0000000  0.6508444  3
     61     59     58     62     1  0.0000000  1.2552000  3
     61     59     58     65     1  0.0000000  1.2552000  3
     61     59     71     83     1  0.0000000  0.6508444  3
     61     59     71     72     1  0.0000000  0.6508444  3
     61     59     71     73     1  0.0000000  0.6508444  3
     62     58     65     66     1  0.0000000  1.2552000  3
     62     58     65     67     1  0.0000000  1.2552000  3
     62     74     80     81     1  0.0000000  0.6508444  3
     62     74     80     82     1  0.0000000  0.6508444  3
     63     62     58     65     1  0.0000000  1.2552000  3
     63     62     74     80     1  0.0000000  0.6508444  3
     63     62     74     75     1  0.0000000  0.6508444  3
     63     62     74     76     1  0.0000000  0.6508444  3
     64     62     58     65     1  0.0000000  1.2552000  3
     64     62     74     80     1  0.0000000  0.6508444  3
     64     62     74     75     1  0.0000000  0.6508444  3
     64     62     74     76     1  0.0000000  0.6508444  3
     65     68     77     78     1  0.0000000  0.6508444  3
     65     68     77     79     1  0.0000000  0.6508444  3
     66     65     68     77     1  0.0000000  0.6508444  3
     66     65     68     69     1  0.0000000  0.6508444  3
     66     65     68     70     1  0.0000000  0.6508444  3
     67     65     68     77     1  0.0000000  0.6508444  3
     67     65     68     69     1  0.0000000  0.6508444  3
     67     65     68     70     1  0.0000000  0.6508444  3
     69     68     77     86     1  0.0000000  1.0460000  1
     69     68     77     86     1  0.0000000  0.0000000  3
     69     68     77     78     1  0.0000000  0.6508444  3
     69     68     77     79     1  0.0000000  0.6508444  3
     70     68     77     86     1  0.0000000  1.0460000  1
     70     68     77     86     1  0.0000000  0.0000000  3
     70     68     77     78     1  0.0000000  0.6508444  3
     70     68     77     79     1  0.0000000  0.6508444  3
     72     71     83    231     1  0.0000000  1.0460000  1
     72     71     83    231     1  0.0000000  0.0000000  3
     72     71     83     84     1  0.0000000  0.6508444  3
     72     71     83     85     1  0.0000000  0.6508444  3
     73     71     83    231     1  0.0000000  1.0460000  1
     73     71     83    231     1  0.0000000  0.0000000  3
     73     71     83     84     1  0.0000000  0.6508444  3
     73     71     83     85     1  0.0000000  0.6508444  3
     75     74     80    202     1  0.0000000  1.0460000  1
     75     74     80    202     1  0.0000000  0.0000000  3
     75     74     80     81     1  0.0000000  0.6508444  3
     75     74     80     82     1  0.0000000  0.6508444  3
     76     74     80    202     1  0.0000000  1.0460000  1
     76     74     80    202     1  0.0000000  0.0000000  3
     76     74     80     81     1  0.0000000  0.6508444  3
     76     74     80     82     1  0.0000000  0.6508444  3
     80    202    193    194     1  0.0000000  1.6038667  3
     80    202    193    195     1  0.0000000  1.6038667  3
     81     80    202    193     1  0.0000000  1.6038667  3
     82     80    202    193     1  0.0000000  1.6038667  3
     83    231    222    223     1  0.0000000  1.6038667  3
     83    231    222    224     1  0.0000000  1.6038667  3
     84     83    231    222     1  0.0000000  1.6038667  3
     85     83    231    222     1  0.0000000  1.6038667  3
     87     88    100    101     1  0.0000000  0.6508444  3
     87     88    100    102     1  0.0000000  0.6508444  3
     87     91    103    104     1  0.0000000  0.6508444  3
     87     91    103    105     1  0.0000000  0.6508444  3
     87     94     97     98     1  0.0000000  0.6508444  3
     87     94     97     99     1  0.0000000  0.6508444  3
     88     87     91     92     1  0.0000000  1.2552000  3
     88     87     91     93     1  0.0000000  1.2552000  3
     88     87     94     95     1  0.0000000  1.2552000  3
     88     87     94     96     1  0.0000000  1.2552000  3
     88    100    112    113     1  0.0000000  0.6508444  3
     88    100    112    114     1  0.0000000  0.6508444  3
     89     88     87     91     1  0.0000000  1.2552000  3
     89     88     87     94     1  0.0000000  1.2552000  3
     89     88    100    112     1  0.0000000  0.6508444  3
     89     88    100    101     1  0.0000000  0.6508444  3
     89     88    100    102     1  0.0000000  0.6508444  3
     90     88     87     91     1  0.0000000  1.2552000  3
     90     88     87     94     1  0.0000000  1.2552000  3
     90     88    100    112     1  0.0000000  0.6508444  3
     90     88    100    101     1  0.0000000  0.6508444  3
     90     88    100    102     1  0.0000000  0.6508444  3
     91     87     94     95     1  0.0000000  1.2552000  3
     91     87     94     96     1  0.0000000  1.2552000  3
     91    103    109    110     1  0.0000000  0.6508444  3
     91    103    109    111     1  0.0000000  0.6508444  3
     92     91     87     94     1  0.0000000  1.2552000  3
     92     91    103    109     1  0.0000000  0.6508444  3
     92     91    103    104     1  0.0000000  0.6508444  3
     92     91    103    105     1  0.0000000  0.6508444  3
     93     91     87     94     1  0.0000000  1.2552000  3
     93     91    103    109     1  0.0000000  0.6508444  3
     93     91    103    104     1  0.0000000  0.6508444  3
     93     91    103    105     1  0.0000000  0.6508444  3
     94     97    106    107     1  0.0000000  0.6508444  3
     94     97    106    108     1  0.0000000  0.6508444  3
     95     94     97    106     1  0.0000000  0.6508444  3
     95     94     97     98     1  0.0000000  0.6508444  3
     95     94     97     99     1  0.0000000  0.6508444  3
     96     94     97    106     1  0.0000000  0.6508444  3
     96     94     97     98     1  0.0000000  0.6508444  3
     96     94     97     99     1  0.0000000  0.6508444  3
     98     97    106    115     1  0.0000000  1.0460000  1
     98     97    106    115     1  0.0000000  0.0000000  3
     98     97    106    107     1  0.0000000  0.6508444  3
     98     97    106    108     1  0.0000000  0.6508444  3
     99     97    106    115     1  0.0000000  1.0460000  1
     99     97    106    115     1  0.0000000  0.0000000  3
     99     97    106    107     1  0.0000000  0.6508444  3
     99     97    106    108     1  0.0000000  0.6508444  3
    101    100    112    289     1  0.0000000  1.0460000  1
    101    100    112    289     1  0.0000000  0.0000000  3
    101    100    112    113     1  0.0000000  0.6508444  3
    101    100    112    114     1  0.0000000  0.6508444  3
    102    100    112    289     1  0.0000000  1.0460000  1
    102    100    112    289     1  0.0000000  0.0000000  3
    102    100    112    113     1  0.0000000  0.6508444  3
    102    100    112    114     1  0.0000000  0.6508444  3
    104    103    109    260     1  0.0000000  1.0460000  1
    104    103    109    260     1  0.0000000  0.0000000  3
    104    103    109    110     1  0.0000000  0.6508444  3
    104    103    109    111     1  0.0000000  0.6508444  3
    105    103    109    260     1  0.0000000  1.0460000  1
    105    103    109    260     1  0.0000000  0.0000000  3
    105    103    109    110     1  0.0000000  0.6508444  3
    105    103    109    111     1  0.0000000  0.6508444  3
    109    260    251    252     1  0.0000000  1.6038667  3
    109    260    251    253     1  0.0000000  1.6038667  3
    110    109    260    251     1  0.0000000  1.6038667  3
    111    109    260    251     1  0.0000000  1.6038667  3
    112    289    280    281     1  0.0000000  1.6038667  3
    112    289    280    282     1  0.0000000  1.6038667  3
    113    112    289    280     1  0.0000000  1.6038667  3
    114    112    289    280     1  0.0000000  1.6038667  3
    116    117    129    130     1  0.0000000  0.6508444  3
    116    117    129    131     1  0.0000000  0.6508444  3
    116    120    132    133     1  0.0000000  0.6508444  3
    116    120    132    134     1  0.0000000  0.6508444  3
    116    123    126    127     1  0.0000000  0.6508444  3
    116    123    126    128     1  0.0000000  0.6508444  3
    117    116    120    121     1  0.0000000  1.2552000  3
    117    116    120    122     1  0.0000000  1.2552000  3
    117    116    123    124     1  0.0000000  1.2552000  3
    117    116    123    125     1  0.0000000  1.2552000  3
    117    129    141    142     1  0.0000000  0.6508444  3
    117    129    141    143     1  0.0000000  0.6508444  3
    118    117    116    120     1  0.0000000  1.2552000  3
    118    117    116    123     1  0.0000000  1.2552000  3
    118    117    129    141     1  0.0000000  0.6508444  3
    118    117    129    130     1  0.0000000  0.6508444  3
    118    117    129    131     1  0.0000000  0.6508444  3
    119    117    116    120     1  0.0000000  1.2552000  3
    119    117    116    123     1  0.0000000  1.2552000  3
    119    117    129    141     1  0.0000000  0.6508444  3
    119    117    129    130     1  0.0000000  0.6508444  3
    119    117    129    131     1  0.0000000  0.6508444  3
    120    116    123    124     1  0.0000000  1.2552000  3
    120    116    123    125     1  0.0000000  1.2552000  3
    120    132    138    139     1  0.0000000  0.6508444  3
    120    132    138    140     1  0.0000000  0.6508444  3
    121    120    116    123     1  0.0000000  1.2552000  3
    121    120    132    138     1  0.0000000  0.6508444  3
    121    120    132    133     1  0.0000000  0.6508444  3
    121    120    132    134     1  0.0000000  0.6508444  3
    122    120    116    123     1  0.0000000  1.2552000  3
    122    120    132    138     1  0.0000000  0.6508444  3
    122    120    132    133     1  0.0000000  0.6508444  3
    122    120    132    134     1  0.0000000  0.6508444  3
    123    126    135    136     1  0.0000000  0.6508444  3
    123    126    135    137     1  0.0000000  0.6508444  3
    124    123    126    135     1  0.0000000  0.6508444  3
    124    123    126    127     1  0.0000000  0.6508444  3
    124    123    126    128     1  0.0000000  0.6508444  3
    125    123    126    135     1  0.0000000  0.6508444  3
    125    123    126    127     1  0.0000000  0.6508444  3
    125    123    126    128     1  0.0000000  0.6508444  3
    127    126    135    144     1  0.0000000  1.0460000  1
    127    126    135    144     1  0.0000000  0.0000000  3
    127    126    135    136     1  0.0000000  0.6508444  3
    127    126    135    137     1  0.0000000  0.6508444  3
    128    126    135    144     1  0.0000000  1.0460000  1
    128    126    135    144     1  0.0000000  0.0000000  3
    128    126    135    136     1  0.0000000  0.6508444  3
    128    126    135    137     1  0.0000000  0.6508444  3
    130    129    141    347     1  0.0000000  1.0460000  1
    130    129    141    347     1  0.0000000  0.0000000  3
    130    129    141    142     1  0.0000000  0.6508444  3
    130    129    141    143     1  0.0000000  0.6508444  3
    131    129    141    347     1  0.0000000  1.0460000  1
    131    129    141    347     1  0.0000000  0.0000000  3
    131    129    141    142     1  0.0000000  0.6508444  3
    131    129    141    143     1  0.0000000  0.6508444  3
    133    132    138    318     1  0.0000000  1.0460000  1
    133    132    138    318     1  0.0000000  0.0000000  3
    133    132    138    139     1  0.0000000  0.6508444  3
    133    132    138    140     1  0.0000000  0.6508444  3
    134    132    138    318     1  0.0000000  1.0460000  1
    134    132    138    318     1  0.0000000  0.0000000  3
    134    132    138    139     1  0.0000000  0.6508444  3
    134    132    138    140     1  0.0000000  0.6508444  3
    138    318    309    310     1  0.0000000  1.6038667  3
    138    318    309    311     1  0.0000000  1.6038667  3
    139    138    318    309     1  0.0000000  1.6038667  3
    140    138    318    309     1  0.0000000  1.6038667  3
    141    347    338    339     1  0.0000000  1.6038667  3
    141    347    338    340     1  0.0000000  1.6038667  3
    142    141    347    338     1  0.0000000  1.6038667  3
    143    141    347    338     1  0.0000000  1.6038667  3
    145    146    158    159     1  0.0000000  0.6508444  3
    145    146    158    160     1  0.0000000  0.6508444  3
    145    149    161    162     1  0.0000000  0.6508444  3
    145    149    161    163     1  0.0000000  0.6508444  3
    145    152    155    156     1  0.0000000  0.6508444  3
    145    152    155    157     1  0.0000000  0.6508444  3
    146    145    149    150     1  0.0000000  1.2552000  3
    146    145    149    151     1  0.0000000  1.2552000  3
    146    145    152    153     1  0.0000000  1.2552000  3
    146    145    152    154     1  0.0000000  1.2552000  3
    146    158    170    171     1  0.0000000  0.6508444  3
    146    158    170    172     1  0.0000000  0.6508444  3
    147    146    145    149     1  0.0000000  1.2552000  3
    147    146    145    152     1  0.0000000  1.2552000  3
    147    146    158    170     1  0.0000000  0.6508444  3
    147    146    158    159     1  0.0000000  0.6508444  3
    147    146    158    160     1  0.0000000  0.6508444  3
    148    146    145    149     1  0.0000000  1.2552000  3
    148    146    145    152     1  0.0000000  1.2552000  3
    148    146    158    170     1  0.0000000  0.6508444  3
    148    146    158    159     1  0.0000000  0.6508444  3
    148    146    158    160     1  0.0000000  0.6508444  3
    149    145    152    153     1  0.0000000  1.2552000  3
    149    145    152    154     1  0.0000000  1.2552000  3
    149    161    167    168     1  0.0000000  0.6508444  3
    149    161    167    169     1  0.0000000  0.6508444  3
    150    149    145    152     1  0.0000000  1.2552000  3
    150    149    161    167     1  0.0000000  0.6508444  3
    150    149    161    162     1  0.0000000  0.6508444  3
    150    149    161    163     1  0.0000000  0.6508444  3
    151    149    145    152     1  0.0000000  1.2552000  3
    151    149    161    167     1  0.0000000  0.6508444  3
    151    149    161    162     1  0.0000000  0.6508444  3
    151    149    161    163     1  0.0000000  0.6508444  3
    152    155    164    165     1  0.0000000  0.6508444  3
    152    155    164    166     1  0.0000000  0.6508444  3
    153    152    155    164     1  0.0000000  0.6508444  3
    153    152    155    156     1  0.0000000  0.6508444  3
    153    152    155    157     1  0.0000000  0.6508444  3
    154    152    155    164     1  0.0000000  0.6508444  3
    154    152    155    156     1  0.0000000  0.6508444  3
    154    152    155    157     1  0.0000000  0.6508444  3
    156    155    164    173     1  0.0000000  1.0460000  1
    156    155    164    173     1  0.0000000  0.0000000  3
    156    155    164    165     1  0.0000000  0.6508444  3
    156    155    164    166     1  0.0000000  0.6508444  3
    157    155    164    173     1  0.0000000  1.0460000  1
    157    155    164    173     1  0.0000000  0.0000000  3
    157    155    164    165     1  0.0000000  0.6508444  3
    157    155    164    166     1  0.0000000  0.6508444  3
    159    158    170    405     1  0.0000000  1.0460000  1
    159    158    170    405     1  0.0000000  0.0000000  3
    159    158    170    171     1  0.0000000  0.6508444  3
    159    158    170    172     1  0.0000000  0.6508444  3
    160    158    170    405     1  0.0000000  1.0460000  1
    160    158    170    405     1  0.0000000  0.0000000  3
    160    158    170    171     1  0.0000000  0.6508444  3
    160    158    170    172     1  0.0000000  0.6508444  3
    162    161    167    376     1  0.0000000  1.0460000  1
    162    161    167    376     1  0.0000000  0.0000000  3
    162    161    167    168     1  0.0000000  0.6508444  3
    162    161    167    169     1  0.0000000  0.6508444  3
    163    161    167    376     1  0.0000000  1.0460000  1
    163    161    167    376     1  0.0000000  0.0000000  3
    163    161    167    168     1  0.0000000  0.6508444  3
    163    161    167    169     1  0.0000000  0.6508444  3
    167    376    367    368     1  0.0000000  1.6038667  3
    167    376    367    369     1  0.0000000  1.6038667  3
    168    167    376    367     1  0.0000000  1.6038667  3
    169    167    376    367     1  0.0000000  1.6038667  3
    170    405    396    397     1  0.0000000  1.6038667  3
    170    405    396    398     1  0.0000000  1.6038667  3
    171    170    405    396     1  0.0000000  1.6038667  3
    172    170    405    396     1  0.0000000  1.6038667  3
    174    175    187    188     1  0.0000000  0.6508444  3
    174    175    187    189     1  0.0000000  0.6508444  3
    174    178    190    191     1  0.0000000  0.6508444  3
    174    178    190    192     1  0.0000000  0.6508444  3
    174    181    184    185     1  0.0000000  0.6508444  3
    174    181    184    186     1  0.0000000  0.6508444  3
    175    174    178    179     1  0.0000000  1.2552000  3
    175    174    178    180     1  0.0000000  1.2552000  3
    175    174    181    182     1  0.0000000  1.2552000  3
    175    174    181    183     1  0.0000000  1.2552000  3
    175    187    199    200     1  0.0000000  0.6508444  3
    175    187    199    201     1  0.0000000  0.6508444  3
    176    175    174    178     1  0.0000000  1.2552000  3
    176    175    174    181     1  0.0000000  1.2552000  3
    176    175    187    199     1  0.0000000  0.6508444  3
    176    175    187    188     1  0.0000000  0.6508444  3
    176    175    187    189     1  0.0000000  0.6508444  3
    177    175    174    178     1  0.0000000  1.2552000  3
    177    175    174    181     1  0.0000000  1.2552000  3
    177    175    187    199     1  0.0000000  0.6508444  3
    177    175    187    188     1  0.0000000  0.6508444  3
    177    175    187    189     1  0.0000000  0.6508444  3
    178    174    181    182     1  0.0000000  1.2552000  3
    178    174    181    183     1  0.0000000  1.2552000  3
    178    190    196    197     1  0.0000000  0.6508444  3
    178    190    196    198     1  0.0000000  0.6508444  3
    179    178    174    181     1  0.0000000  1.2552000  3
    179    178    190    196     1  0.0000000  0.6508444  3
    179    178    190    191     1  0.0000000  0.6508444  3
    179    178    190    192     1  0.0000000  0.6508444  3
    180    178    174    181     1  0.0000000  1.2552000  3
    180    178    190    196     1  0.0000000  0.6508444  3
    180    178    190    191     1  0.0000000  0.6508444  3
    180    178    190    192     1  0.0000000  0.6508444  3
    181    184    193    194     1  0.0000000  0.6508444  3
    181    184    193    195     1  0.0000000  0.6508444  3
    182    181    184    193     1  0.0000000  0.6508444  3
    182    181    184    185     1  0.0000000  0.6508444  3
    182    181    184    186     1  0.0000000  0.6508444  3
    183    181    184    193     1  0.0000000  0.6508444  3
    183    181    184    185     1  0.0000000  0.6508444  3
    183    181    184    186     1  0.0000000  0.6508444  3
    185    184    193    202     1  0.0000000  1.0460000  1
    185    184    193    202     1  0.0000000  0.0000000  3
    185    184    193    194     1  0.0000000  0.6508444  3
    185    184    193    195     1  0.0000000  0.6508444  3
    186    184    193    202     1  0.0000000  1.0460000  1
    186    184    193    202     1  0.0000000  0.0000000  3
    186    184    193    194     1  0.0000000  0.6508444  3
    186    184    193    195     1  0.0000000  0.6508444  3
    188    187    199    463     1  0.0000000  1.0460000  1
    188    187    199    463     1  0.0000000  0.0000000  3
    188    187    199    200     1  0.0000000  0.6508444  3
    188    187    199    201     1  0.0000000  0.6508444  3
    189    187    199    463     1  0.0000000  1.0460000  1
    189    187    199    463     1  0.0000000  0.0000000  3
    189    187    199    200     1  0.0000000  0.6508444  3
    189    187    199    201     1  0.0000000  0.6508444  3
    191    190    196    434     1  0.0000000  1.0460000  1
    191    190    196    434     1  0.0000000  0.0000000  3
    191    190    196    197     1  0.0000000  0.6508444  3
    191    190    196    198     1  0.0000000  0.6508444  3
    192    190    196    434     1  0.0000000  1.0460000  1
    192    190    196    434     1  0.0000000  0.0000000  3
    192    190    196    197     1  0.0000000  0.6508444  3
    192    190    196    198     1  0.0000000  0.6508444  3
    196    434    425    426     1  0.0000000  1.6038667  3
    196    434    425    427     1  0.0000000  1.6038667  3
    197    196    434    425     1  0.0000000  1.6038667  3
    198    196    434    425     1  0.0000000  1.6038667  3
    199    463    454    455     1  0.0000000  1.6038667  3
    199    463    454    456     1  0.0000000  1.6038667  3
    200    199    463    454     1  0.0000000  1.6038667  3
    201    199    463    454     1  0.0000000  1.6038667  3
    203    204    216    217     1  0.0000000  0.6508444  3
    203    204    216    218     1  0.0000000  0.6508444  3
    203    207    219    220     1  0.0000000  0.6508444  3
    203    207    219    221     1  0.0000000  0.6508444  3
    203    210    213    214     1  0.0000000  0.6508444  3
    203    210    213    215     1  0.0000000  0.6508444  3
    204    203    207    208     1  0.0000000  1.2552000  3
    204    203    207    209     1  0.0000000  1.2552000  3
    204    203    210    211     1  0.0000000  1.2552000  3
    204    203    210    212     1  0.0000000  1.2552000  3
    204    216    228    229     1  0.0000000  0.6508444  3
    204    216    228    230     1  0.0000000  0.6508444  3
    205    204    203    207     1  0.0000000  1.2552000  3
    205    204    203    210     1  0.0000000  1.2552000  3
    205    204    216    228     1  0.0000000  0.6508444  3
    205    204    216    217     1  0.0000000  0.6508444  3
    205    204    216    218     1  0.0000000  0.6508444  3
    206    204    203    207     1  0.0000000  1.2552000  3
    206    204    203    210     1  0.0000000  1.2552000  3
    206    204    216    228     1  0.0000000  0.6508444  3
    206    204    216    217     1  0.0000000  0.6508444  3
    206    204    216    218     1  0.0000000  0.6508444  3
    207    203    210    211     1  0.0000000  1.2552000  3
    207    203    210    212     1  0.0000000  1.2552000  3
    207    219    225    226     1  0.0000000  0.6508444  3
    207    219    225    227     1  0.0000000  0.6508444  3
    208    207    203    210     1  0.0000000  1.2552000  3
    208    207    219    225     1  0.0000000  0.6508444  3
    208    207    219    220     1  0.0000000  0.6508444  3
    208    207    219    221     1  0.0000000  0.6508444  3
    209    207    203    210     1  0.0000000  1.2552000  3
    209    207    219    225     1  0.0000000  0.6508444  3
    209    207    219    220     1  0.0000000  0.6508444  3
    209    207    219    221     1  0.0000000  0.6508444  3
    210    213    222    223     1  0.0000000  0.6508444  3
    210    213    222    224     1  0.0000000  0.6508444  3
    211    210    213    222     1  0.0000000  0.6508444  3
    211    210    213    214     1  0.0000000  0.6508444  3
    211    210    213    215     1  0.0000000  0.6508444  3
    212    210    213    222     1  0.0000000  0.6508444  3
    212    210    213    214     1  0.0000000  0.6508444  3
    212    210    213    215     1  0.0000000  0.6508444  3
    214    213    222    231     1  0.0000000  1.0460000  1
    214    213    222    231     1  0.0000000  0.0000000  3
    214    213    222    223     1  0.0000000  0.6508444  3
    214    213    222    224     1  0.0000000  0.6508444  3
    215    213    222    231     1  0.0000000  1.0460000  1
    215    213    222    231     1  0.0000000  0.0000000  3
    215    213    222    223     1  0.0000000  0.6508444  3
    215    213    222    224     1  0.0000000  0.6508444  3
    217    216    228    521     1  0.0000000  1.0460000  1
    217    216    228    521     1  0.0000000  0.0000000  3
    217    216    228    229     1  0.0000000  0.6508444  3
    217    216    228    230     1  0.0000000  0.6508444  3
    218    216    228    521     1  0.0000000  1.0460000  1
    218    216    228    521     1  0.0000000  0.0000000  3
    218    216    228    229     1  0.0000000  0.6508444  3
    218    216    228    230     1  0.0000000  0.6508444  3
    220    219    225    492     1  0.0000000  1.0460000  1
    220    219    225    492     1  0.0000000  0.0000000  3
    220    219    225    226     1  0.0000000  0.6508444  3
    220    219    225    227     1  0.0000000  0.6508444  3
    221    219    225    492     1  0.0000000  1.0460000  1
    221    219    225    492     1  0.0000000  0.0000000  3
    221    219    225    226     1  0.0000000  0.6508444  3
    221    219    225    227     1  0.0000000  0.6508444  3
    225    492    483    484     1  0.0000000  1.6038667  3
    225    492    483    485     1  0.0000000  1.6038667  3
    226    225    492    483     1  0.0000000  1.6038667  3
    227    225    492    483     1  0.0000000  1.6038667  3
    228    521    512    513     1  0.0000000  1.6038667  3
    228    521    512    514     1  0.0000000  1.6038667  3
    229    228    521    512     1  0.0000000  1.6038667  3
    230    228    521    512     1  0.0000000  1.6038667  3
    232    233    245    246     1  0.0000000  0.6508444  3
    232    233    245    247     1  0.0000000  0.6508444  3
    232    236    248    249     1  0.0000000  0.6508444  3
    232    236    248    250     1  0.0000000  0.6508444  3
    232    239    242    243     1  0.0000000  0.6508444  3
    232    239    242    244     1  0.0000000  0.6508444  3
    233    232    236    237     1  0.0000000  1.2552000  3
    233    232    236    238     1  0.0000000  1.2552000  3
    233    232    239    240     1  0.0000000  1.2552000  3
    233    232    239    241     1  0.0000000  1.2552000  3
    233    245    257    258     1  0.0000000  0.6508444  3
    233    245    257    259     1  0.0000000  0.6508444  3
    234    233    232    236     1  0.0000000  1.2552000  3
    234    233    232    239     1  0.0000000  1.2552000  3
    234    233    245    257     1  0.0000000  0.6508444  3
    234    233    245    246     1  0.0000000  0.6508444  3
    234    233    245    247     1  0.0000000  0.6508444  3
    235    233    232    236     1  0.0000000  1.2552000  3
    235    233    232    239     1  0.0000000  1.2552000  3
    235    233    245    257     1  0.0000000  0.6508444  3
    235    233    245    246     1  0.0000000  0.6508444  3
    235    233    245    247     1  0.0000000  0.6508444  3
    236    232    239    240     1  0.0000000  1.2552000  3
    236    232    239    241     1  0.0000000  1.2552000  3
    236    248    254    255     1  0.0000000  0.6508444  3
    236    248    254    256     1  0.0000000  0.6508444  3
    237    236    232    239     1  0.0000000  1.2552000  3
    237    236    248    254     1  0.0000000  0.6508444  3
    237    236    248    249     1  0.0000000  0.6508444  3
    237    236    248    250     1  0.0000000  0.6508444  3
    238    236    232    239     1  0.0000000  1.2552000  3
    238    236    248    254     1  0.0000000  0.6508444  3
    238    236    248    249     1  0.0000000  0.6508444  3
    238    236    248    250     1  0.0000000  0.6508444  3
    239    242    251    252     1  0.0000000  0.6508444  3
    239    242    251    253     1  0.0000000  0.6508444  3
    240    239    242    251     1  0.0000000  0.6508444  3
    240    239    242    243     1  0.0000000  0.6508444  3
    240    239    242    244     1  0.0000000  0.6508444  3
    241    239    242    251     1  0.0000000  0.6508444  3
    241    239    242    243     1  0.0000000  0.6508444  3
    241    239    242    244     1  0.0000000  0.6508444  3
    243    242    251    260     1  0.0000000  1.0460000  1
    243    242    251    260     1  0.0000000  0.0000000  3
    243    242    251    252     1  0.0000000  0.6508444  3
    243    242    251    253     1  0.0000000  0.6508444  3
    244    242    251    260     1  0.0000000  1.0460000  1
    244    242    251    260     1  0.0000000  0.0000000  3
    244    242    251    252     1  0.0000000  0.6508444  3
    244    242    251    253     1  0.0000000  0.6508444  3
    246    245    257    579     1  0.0000000  1.0460000  1
    246    245    257    579     1  0.0000000  0.0000000  3
    246    245    257    258     1  0.0000000  0.6508444  3
    246    245    257    259     1  0.0000000  0.6508444  3
    247    245    257    579     1  0.0000000  1.0460000  1
    247    245    257    579     1  0.0000000  0.0000000  3
    247    245    257    258     1  0.0000000  0.6508444  3
    247    245    257    259     1  0.0000000  0.6508444  3
    249    248    254    550     1  0.0000000  1.0460000  1
    249    248    254    550     1  0.0000000  0.0000000  3
    249    248    254    255     1  0.0000000  0.6508444  3
    249    248    254    256     1  0.0000000  0.6508444  3
    250    248    254    550     1  0.0000000  1.0460000  1
    250    248    254    550     1  0.0000000  0.0000000  3
    250    248    254    255     1  0.0000000  0.6508444  3
    250    248    254    256     1  0.0000000  0.6508444  3
    254    550    541    542     1  0.0000000  1.6038667  3
    254    550    541    543     1  0.0000000  1.6038667  3
    255    254    550    541     1  0.0000000  1.6038667  3
    256    254    550    541     1  0.0000000  1.6038667  3
    257    579    570    571     1  0.0000000  1.6038667  3
    257    579    570    572     1  0.0000000  1.6038667  3
    258    257    579    570     1  0.0000000  1.6038667  3
    259    257    579    570     1  0.0000000  1.6038667  3
    261    262    274    275     1  0.0000000  0.6508444  3
    261    262    274    276     1  0.0000000  0.6508444  3
    261    265    277    278     1  0.0000000  0.6508444  3
    261    265    277    279     1  0.0000000  0.6508444  3
    261    268    271    272     1  0.0000000  0.6508444  3
    261    268    271    273     1  0.0000000  0.6508444  3
    262    261    265    266     1  0.0000000  1.2552000  3
    262    261    265    267     1  0.0000000  1.2552000  3
    262    261    268    269     1  0.0000000  1.2552000  3
    262    261    268    270     1  0.0000000  1.2552000  3
    262    274    286    287     1  0.0000000  0.6508444  3
    262    274    286    288     1  0.0000000  0.6508444  3
    263    262    261    265     1  0.0000000  1.2552000  3
    263    262    261    268     1  0.0000000  1.2552000  3
    263    262    274    286     1  0.0000000  0.6508444  3
    263    262    274    275     1  0.0000000  0.6508444  3
    263    262    274    276     1  0.0000000  0.6508444  3
    264    262    261    265     1  0.0000000  1.2552000  3
    264    262    261    268     1  0.0000000  1.2552000  3
    264    262    274    286     1  0.0000000  0.6508444  3
    264    262    274    275     1  0.0000000  0.6508444  3
    264    262    274    276     1  0.0000000  0.6508444  3
    265    261    268    269     1  0.0000000  1.2552000  3
    265    261    268    270     1  0.0000000  1.2552000  3
    265    277    283    284     1  0.0000000  0.6508444  3
    265    277    283    285     1  0.0000000  0.6508444  3
    266    265    261    268     1  0.0000000  1.2552000  3
    266    265    277    283     1  0.0000000  0.6508444  3
    266    265    277    278     1  0.0000000  0.6508444  3
    266    265    277    279     1  0.0000000  0.6508444  3
    267    265    261    268     1  0.0000000  1.2552000  3
    267    265    277    283     1  0.0000000  0.6508444  3
    267    265    277    278     1  0.0000000  0.6508444  3
    267    265    277    279     1  0.0000000  0.6508444  3
    268    271    280    281     1  0.0000000  0.6508444  3
    268    271    280    282     1  0.0000000  0.6508444  3
    269    268    271    280     1  0.0000000  0.6508444  3
    269    268    271    272     1  0.0000000  0.6508444  3
    269    268    271    273     1  0.0000000  0.6508444  3
    270    268    271    280     1  0.0000000  0.6508444  3
    270    268    271    272     1  0.0000000  0.6508444  3
    270    268    271    273     1  0.0000000  0.6508444  3
    272    271    280    289     1  0.0000000  1.0460000  1
    272    271    280    289     1  0.0000000  0.0000000  3
    272    271    280    281     1  0.0000000  0.6508444  3
    272    271    280    282     1  0.0000000  0.6508444  3
    273    271    280    289     1  0.0000000  1.0460000  1
    273    271    280    289     1  0.0000000  0.0000000  3
    273    271    280    281     1  0.0000000  0.6508444  3
    273    271    280    282     1  0.0000000  0.6508444  3
    275    274    286    637     1  0.0000000  1.0460000  1
    275    274    286    637     1  0.0000000  0.0000000  3
    275    274    286    287     1  0.0000000  0.6508444  3
    275    274    286    288     1  0.0000000  0.6508444  3
    276    274    286    637     1  0.0000000  1.0460000  1
    276    274    286    637     1  0.0000000  0.0000000  3
    276    274    286    287     1  0.0000000  0.6508444  3
    276    274    286    288     1  0.0000000  0.6508444  3
    278    277    283    608     1  0.0000000  1.0460000  1
    278    277    283    608     1  0.0000000  0.0000000  3
    278    277    283    284     1  0.0000000  0.6508444  3
    278    277    283    285     1  0.0000000  0.6508444  3
    279    277    283    608     1  0.0000000  1.0460000  1
    279    277    283    608     1  0.0000000  0.0000000  3
    279    277    283    284     1  0.0000000  0.6508444  3
    279    277    283    285     1  0.0000000  0.6508444  3
    283    608    599    600     1  0.0000000  1.6038667  3
    283    608    599    601     1  0.0000000  1.6038667  3
    284    283    608    599     1  0.0000000  1.6038667  3
    285    283    608    599     1  0.0000000  1.6038667  3
    286    637    628    629     1  0.0000000  1.6038667  3
    286    637    628    630     1  0.0000000  1.6038667  3
    287    286    637    628     1  0.0000000  1.6038667  3
    288    286    637    628     1  0.0000000  1.6038667  3
    290    291    303    304     1  0.0000000  0.6508444  3
    290    291    303    305     1  0.0000000  0.6508444  3
    290    294    306    307     1  0.0000000  0.6508444  3
    290    294    306    308     1  0.0000000  0.6508444  3
    290    297    300    301     1  0.0000000  0.6508444  3
    290    297    300    302     1  0.0000000  0.6508444  3
    291    290    294    295     1  0.0000000  1.2552000  3
    291    290    294    296     1  0.0000000  1.2552000  3
    291    290    297    298     1  0.0000000  1.2552000  3
    291    290    297    299     1  0.0000000  1.2552000  3
    291    303    315    316     1  0.0000000  0.6508444  3
    291    303    315    317     1  0.0000000  0.6508444  3
    292    291    290    294     1  0.0000000  1.2552000  3
    292    291    290    297     1  0.0000000  1.2552000  3
    292    291    303    315     1  0.0000000  0.6508444  3
    292    291    303    304     1  0.0000000  0.6508444  3
    292    291    303    305     1  0.0000000  0.6508444  3
    293    291    290    294     1  0.0000000  1.2552000  3
    293    291    290    297     1  0.0000000  1.2552000  3
    293    291    303    315     1  0.0000000  0.6508444  3
    293    291    303    304     1  0.0000000  0.6508444  3
    293    291    303    305     1  0.0000000  0.6508444  3
    294    290    297    298     1  0.0000000  1.2552000  3
    294    290    297    299     1  0.0000000  1.2552000  3
    294    306    312    313     1  0.0000000  0.6508444  3
    294    306    312    314     1  0.0000000  0.6508444  3
    295    294    290    297     1  0.0000000  1.2552000  3
    295    294    306    312     1  0.0000000  0.6508444  3
    295    294    306    307     1  0.0000000  0.6508444  3
    295    294    306    308     1  0.0000000  0.6508444  3
    296    294    290    297     1  0.0000000  1.2552000  3
    296    294    306    312     1  0.0000000  0.6508444  3
    296    294    306    307     1  0.0000000  0.6508444  3
    296    294    306    308     1  0.0000000  0.6508444  3
    297    300    309    310     1  0.0000000  0.6508444  3
    297    300    309    311     1  0.0000000  0.6508444  3
    298    297    300    309     1  0.0000000  0.6508444  3
    298    297    300    301     1  0.0000000  0.6508444  3
    298    297    300    302     1  0.0000000  0.6508444  3
    299    297    300    309     1  0.0000000  0.6508444  3
    299    297    300    301     1  0.0000000  0.6508444  3
    299    297    300    302     1  0.0000000  0.6508444  3
    301    300    309    318     1  0.0000000  1.0460000  1
    301    300    309    318     1  0.0000000  0.0000000  3
    301    300    309    310     1  0.0000000  0.6508444  3
    301    300    309    311     1  0.0000000  0.6508444  3
    302    300    309    318     1  0.0000000  1.0460000  1
    302    300    309    318     1  0.0000000  0.0000000  3
    302    300    309    310     1  0.0000000  0.6508444  3
    302    300    309    311     1  0.0000000  0.6508444  3
    304    303    315    695     1  0.0000000  1.0460000  1
    304    303    315    695     1  0.0000000  0.0000000  3
    304    303    315    316     1  0.0000000  0.6508444  3
    304    303    315    317     1  0.0000000  0.6508444  3
    305    303    315    695     1  0.0000000  1.0460000  1
    305    303    315    695     1  0.0000000  0.0000000  3
    305    303    315    316     1  0.0000000  0.6508444  3
    305    303    315    317     1  0.0000000  0.6508444  3
    307    306    312    666     1  0.0000000  1.0460000  1
    307    306    312    666     1  0.0000000  0.0000000  3
    307    306    312    313     1  0.0000000  0.6508444  3
    307    306    312    314     1  0.0000000  0.6508444  3
    308    306    312    666     1  0.0000000  1.0460000  1
    308    306    312    666     1  0.0000000  0.0000000  3
    308    306    312    313     1  0.0000000  0.6508444  3
    308    306    312    314     1  0.0000000  0.6508444  3
    312    666    657    658     1  0.0000000  1.6038667  3
    312    666    657    659     1  0.0000000  1.6038667  3
    313    312    666    657     1  0.0000000  1.6038667  3
    314    312    666    657     1  0.0000000  1.6038667  3
    315    695    686    687     1  0.0000000  1.6038667  3
    315    695    686    688     1  0.0000000  1.6038667  3
    316    315    695    686     1  0.0000000  1.6038667  3
    317    315    695    686     1  0.0000000  1.6038667  3
    319    320    332    333     1  0.0000000  0.6508444  3
    319    320    332    334     1  0.0000000  0.6508444  3
    319    323    335    336     1  0.0000000  0.6508444  3
    319    323    335    337     1  0.0000000  0.6508444  3
    319    326    329    330     1  0.0000000  0.6508444  3
    319    326    329    331     1  0.0000000  0.6508444  3
    320    319    323    324     1  0.0000000  1.2552000  3
    320    319    323    325     1  0.0000000  1.2552000  3
    320    319    326    327     1  0.0000000  1.2552000  3
    320    319    326    328     1  0.0000000  1.2552000  3
    320    332    344    345     1  0.0000000  0.6508444  3
    320    332    344    346     1  0.0000000  0.6508444  3
    321    320    319    323     1  0.0000000  1.2552000  3
    321    320    319    326     1  0.0000000  1.2552000  3
    321    320    332    344     1  0.0000000  0.6508444  3
    321    320    332    333     1  0.0000000  0.6508444  3
    321    320    332    334     1  0.0000000  0.6508444  3
    322    320    319    323     1  0.0000000  1.2552000  3
    322    320    319    326     1  0.0000000  1.2552000  3
    322    320    332    344     1  0.0000000  0.6508444  3
    322    320    332    333     1  0.0000000  0.6508444  3
    322    320    332    334     1  0.0000000  0.6508444  3
    323    319    326    327     1  0.0000000  1.2552000  3
    323    319    326    328     1  0.0000000  1.2552000  3
    323    335    341    342     1  0.0000000  0.6508444  3
    323    335    341    343     1  0.0000000  0.6508444  3
    324    323    319    326     1  0.0000000  1.2552000  3
    324    323    335    341     1  0.0000000  0.6508444  3
    324    323    335    336     1  0.0000000  0.6508444  3
    324    323    335    337     1  0.0000000  0.6508444  3
    325    323    319    326     1  0.0000000  1.2552000  3
    325    323    335    341     1  0.0000000  0.6508444  3
    325    323    335    336     1  0.0000000  0.6508444  3
    325    323    335    337     1  0.0000000  0.6508444  3
    326    329    338    339     1  0.0000000  0.6508444  3
    326    329    338    340     1  0.0000000  0.6508444  3
    327    326    329    338     1  0.0000000  0.6508444  3
    327    326    329    330     1  0.0000000  0.6508444  3
    327    326    329    331     1  0.0000000  0.6508444  3
    328    326    329    338     1  0.0000000  0.6508444  3
    328    326    329    330     1  0.0000000  0.6508444  3
    328    326    329    331     1  0.0000000  0.6508444  3
    330    329    338    347     1  0.0000000  1.0460000  1
    330    329    338    347     1  0.0000000  0.0000000  3
    330    329    338    339     1  0.0000000  0.6508444  3
    330    329    338    340     1  0.0000000  0.6508444  3
    331    329    338    347     1  0.0000000  1.0460000  1
    331    329    338    347     1  0.0000000  0.0000000  3
    331    329    338    339     1  0.0000000  0.6508444  3
    331    329    338    340     1  0.0000000  0.6508444  3
    333    332    344    753     1  0.0000000  1.0460000  1
    333    332    344    753     1  0.0000000  0.0000000  3
    333    332    344    345     1  0.0000000  0.6508444  3
    333    332    344    346     1  0.0000000  0.6508444  3
    334    332    344    753     1  0.0000000  1.0460000  1
    334    332    344    753     1  0.0000000  0.0000000  3
    334    332    344    345     1  0.0000000  0.6508444  3
    334    332    344    346     1  0.0000000  0.6508444  3
    336    335    341    724     1  0.0000000  1.0460000  1
    336    335    341    724     1  0.0000000  0.0000000  3
    336    335    341    342     1  0.0000000  0.6508444  3
    336    335    341    343     1  0.0000000  0.6508444  3
    337    335    341    724     1  0.0000000  1.0460000  1
    337    335    341    724     1  0.0000000  0.0000000  3
    337    335    341    342     1  0.0000000  0.6508444  3
    337    335    341    343     1  0.0000000  0.6508444  3
    341    724    715    716     1  0.0000000  1.6038667  3
    341    724    715    717     1  0.0000000  1.6038667  3
    342    341    724    715     1  0.0000000  1.6038667  3
    343    341    724    715     1  0.0000000  1.6038667  3
    344    753    744    745     1  0.0000000  1.6038667  3
    344    753    744    746     1  0.0000000  1.6038667  3
    345    344    753    744     1  0.0000000  1.6038667  3
    346    344    753    744     1  0.0000000  1.6038667  3
    348    349    361    362     1  0.0000000  0.6508444  3
    348    349    361    363     1  0.0000000  0.6508444  3
    348    352    364    365     1  0.0000000  0.6508444  3
    348    352    364    366     1  0.0000000  0.6508444  3
    348    355    358    359     1  0.0000000  0.6508444  3
    348    355    358    360     1  0.0000000  0.6508444  3
    349    348    352    353     1  0.0000000  1.2552000  3
    349    348    352    354     1  0.0000000  1.2552000  3
    349    348    355    356     1  0.0000000  1.2552000  3
    349    348    355    357     1  0.0000000  1.2552000  3
    349    361    373    374     1  0.0000000  0.6508444  3
    349    361    373    375     1  0.0000000  0.6508444  3
    350    349    348    352     1  0.0000000  1.2552000  3
    350    349    348    355     1  0.0000000  1.2552000  3
    350    349    361    373     1  0.0000000  0.6508444  3
    350    349    361    362     1  0.0000000  0.6508444  3
    350    349    361    363     1  0.0000000  0.6508444  3
    351    349    348    352     1  0.0000000  1.2552000  3
    351    349    348    355     1  0.0000000  1.2552000  3
    351    349    361    373     1  0.0000000  0.6508444  3
    351    349    361    362     1  0.0000000  0.6508444  3
    351    349    361    363     1  0.0000000  0.6508444  3
    352    348    355    356     1  0.0000000  1.2552000  3
    352    348    355    357     1  0.0000000  1.2552000  3
    352    364    370    371     1  0.0000000  0.6508444  3
    352    364    370    372     1  0.0000000  0.6508444  3
    353    352    348    355     1  0.0000000  1.2552000  3
    353    352    364    370     1  0.0000000  0.6508444  3
    353    352    364    365     1  0.0000000  0.6508444  3
    353    352    364    366     1  0.0000000  0.6508444  3
    354    352    348    355     1  0.0000000  1.2552000  3
    354    352    364    370     1  0.0000000  0.6508444  3
    354    352    364    365     1  0.0000000  0.6508444  3
    354    352    364    366     1  0.0000000  0.6508444  3
    355    358    367    368     1  0.0000000  0.6508444  3
    355    358    367    369     1  0.0000000  0.6508444  3
    356    355    358    367     1  0.0000000  0.6508444  3
    356    355    358    359     1  0.0000000  0.6508444  3
    356    355    358    360     1  0.0000000  0.6508444  3
    357    355    358    367     1  0.0000000  0.6508444  3
    357    355    358    359     1  0.0000000  0.6508444  3
    357    355    358    360     1  0.0000000  0.6508444  3
    359    358    367    376     1  0.0000000  1.0460000  1
    359    358    367    376     1  0.0000000  0.0000000  3
    359    358    367    368     1  0.0000000  0.6508444  3
    359    358    367    369     1  0.0000000  0.6508444  3
    360    358    367    376     1  0.0000000  1.0460000  1
    360    358    367    376     1  0.0000000  0.0000000  3
    360    358    367    368     1  0.0000000  0.6508444  3
    360    358    367    369     1  0.0000000  0.6508444  3
    362    361    373    811     1  0.0000000  1.0460000  1
    362    361    373    811     1  0.0000000  0.0000000  3
    362    361    373    374     1  0.0000000  0.6508444  3
    362    361    373    375     1  0.0000000  0.6508444  3
    363    361    373    811     1  0.0000000  1.0460000  1
    363    361    373    811     1  0.0000000  0.0000000  3
    363    361    373    374     1  0.0000000  0.6508444  3
    363    361    373    375     1  0.0000000  0.6508444  3
    365    364    370    782     1  0.0000000  1.0460000  1
    365    364    370    782     1  0.0000000  0.0000000  3
    365    364    370    371     1  0.0000000  0.6508444  3
    365    364    370    372     1  0.0000000  0.6508444  3
    366    364    370    782     1  0.0000000  1.0460000  1
    366    364    370    782     1  0.0000000  0.0000000  3
    366    364    370    371     1  0.0000000  0.6508444  3
    366    364    370    372     1  0.0000000  0.6508444  3
    370    782    773    774     1  0.0000000  1.6038667  3
    370    782    773    775     1  0.0000000  1.6038667  3
    371    370    782    773     1  0.0000000  1.6038667  3
    372    370    782    773     1  0.0000000  1.6038667  3
    373    811    802    803     1  0.0000000  1.6038667  3
    373    811    802    804     1  0.0000000  1.6038667  3
    374    373    811    802     1  0.0000000  1.6038667  3
    375    373    811    802     1  0.0000000  1.6038667  3
    377    378    390    391     1  0.0000000  0.6508444  3
    377    378    390    392     1  0.0000000  0.6508444  3
    377    381    393    394     1  0.0000000  0.6508444  3
    377    381    393    395     1  0.0000000  0.6508444  3
    377    384    387    388     1  0.0000000  0.6508444  3
    377    384    387    389     1  0.0000000  0.6508444  3
    378    377    381    382     1  0.0000000  1.2552000  3
    378    377    381    383     1  0.0000000  1.2552000  3
    378    377    384    385     1  0.0000000  1.2552000  3
    378    377    384    386     1  0.0000000  1.2552000  3
    378    390    402    403     1  0.0000000  0.6508444  3
    378    390    402    404     1  0.0000000  0.6508444  3
    379    378    377    381     1  0.0000000  1.2552000  3
    379    378    377    384     1  0.0000000  1.2552000  3
    379    378    390    402     1  0.0000000  0.6508444  3
    379    378    390    391     1  0.0000000  0.6508444  3
    379    378    390    392     1  0.0000000  0.6508444  3
    380    378    377    381     1  0.0000000  1.2552000  3
    380    378    377    384     1  0.0000000  1.2552000  3
    380    378    390    402     1  0.0000000  0.6508444  3
    380    378    390    391     1  0.0000000  0.6508444  3
    380    378    390    392     1  0.0000000  0.6508444  3
    381    377    384    385     1  0.0000000  1.2552000  3
    381    377    384    386     1  0.0000000  1.2552000  3
    381    393    399    400     1  0.0000000  0.6508444  3
    381    393    399    401     1  0.0000000  0.6508444  3
    382    381    377    384     1  0.0000000  1.2552000  3
    382    381    393    399     1  0.0000000  0.6508444  3
    382    381    393    394     1  0.0000000  0.6508444  3
    382    381    393    395     1  0.0000000  0.6508444  3
    383    381    377    384     1  0.0000000  1.2552000  3
    383    381    393    399     1  0.0000000  0.6508444  3
    383    381    393    394     1  0.0000000  0.6508444  3
    383    381    393    395     1  0.0000000  0.6508444  3
    384    387    396    397     1  0.0000000  0.6508444  3
    384    387    396    398     1  0.0000000  0.6508444  3
    385    384    387    396     1  0.0000000  0.6508444  3
    385    384    387    388     1  0.0000000  0.6508444  3
    385    384    387    389     1  0.0000000  0.6508444  3
    386    384    387    396     1  0.0000000  0.6508444  3
    386    384    387    388     1  0.0000000  0.6508444  3
    386    384    387    389     1  0.0000000  0.6508444  3
    388    387    396    405     1  0.0000000  1.0460000  1
    388    387    396    405     1  0.0000000  0.0000000  3
    388    387    396    397     1  0.0000000  0.6508444  3
    388    387    396    398     1  0.0000000  0.6508444  3
    389    387    396    405     1  0.0000000  1.0460000  1
    389    387    396    405     1  0.0000000  0.0000000  3
    389    387    396    397     1  0.0000000  0.6508444  3
    389    387    396    398     1  0.0000000  0.6508444  3
    391    390    402    869     1  0.0000000  1.0460000  1
    391    390    402    869     1  0.0000000  0.0000000  3
    391    390    402    403     1  0.0000000  0.6508444  3
    391    390    402    404     1  0.0000000  0.6508444  3
    392    390    402    869     1  0.0000000  1.0460000  1
    392    390    402    869     1  0.0000000  0.0000000  3
    392    390    402    403     1  0.0000000  0.6508444  3
    392    390    402    404     1  0.0000000  0.6508444  3
    394    393    399    840     1  0.0000000  1.0460000  1
    394    393    399    840     1  0.0000000  0.0000000  3
    394    393    399    400     1  0.0000000  0.6508444  3
    394    393    399    401     1  0.0000000  0.6508444  3
    395    393    399    840     1  0.0000000  1.0460000  1
    395    393    399    840     1  0.0000000  0.0000000  3
    395    393    399    400     1  0.0000000  0.6508444  3
    395    393    399    401     1  0.0000000  0.6508444  3
    399    840    831    832     1  0.0000000  1.6038667  3
    399    840    831    833     1  0.0000000  1.6038667  3
    400    399    840    831     1  0.0000000  1.6038667  3
    401    399    840    831     1  0.0000000  1.6038667  3
    402    869    860    861     1  0.0000000  1.6038667  3
    402    869    860    862     1  0.0000000  1.6038667  3
    403    402    869    860     1  0.0000000  1.6038667  3
    404    402    869    860     1  0.0000000  1.6038667  3
    406    407    419    420     1  0.0000000  0.6508444  3
    406    407    419    421     1  0.0000000  0.6508444  3
    406    410    422    423     1  0.0000000  0.6508444  3
    406    410    422    424     1  0.0000000  0.6508444  3
    406    413    416    417     1  0.0000000  0.6508444  3
    406    413    416    418     1  0.0000000  0.6508444  3
    407    406    410    411     1  0.0000000  1.2552000  3
    407    406    410    412     1  0.0000000  1.2552000  3
    407    406    413    414     1  0.0000000  1.2552000  3
    407    406    413    415     1  0.0000000  1.2552000  3
    407    419    431    432     1  0.0000000  0.6508444  3
    407    419    431    433     1  0.0000000  0.6508444  3
    408    407    406    410     1  0.0000000  1.2552000  3
    408    407    406    413     1  0.0000000  1.2552000  3
    408    407    419    431     1  0.0000000  0.6508444  3
    408    407    419    420     1  0.0000000  0.6508444  3
    408    407    419    421     1  0.0000000  0.6508444  3
    409    407    406    410     1  0.0000000  1.2552000  3
    409    407    406    413     1  0.0000000  1.2552000  3
    409    407    419    431     1  0.0000000  0.6508444  3
    409    407    419    420     1  0.0000000  0.6508444  3
    409    407    419    421     1  0.0000000  0.6508444  3
    410    406    413    414     1  0.0000000  1.2552000  3
    410    406    413    415     1  0.0000000  1.2552000  3
    410    422    428    429     1  0.0000000  0.6508444  3
    410    422    428    430     1  0.0000000  0.6508444  3
    411    410    406    413     1  0.0000000  1.2552000  3
    411    410    422    428     1  0.0000000  0.6508444  3
    411    410    422    423     1  0.0000000  0.6508444  3
    411    410    422    424     1  0.0000000  0.6508444  3
    412    410    406    413     1  0.0000000  1.2552000  3
    412    410    422    428     1  0.0000000  0.6508444  3
    412    410    422    423     1  0.0000000  0.6508444  3
    412    410    422    424     1  0.0000000  0.6508444  3
    413    416    425    426     1  0.0000000  0.6508444  3
    413    416    425    427     1  0.0000000  0.6508444  3
    414    413    416    425     1  0.0000000  0.6508444  3
    414    413    416    417     1  0.0000000  0.6508444  3
    414    413    416    418     1  0.0000000  0.6508444  3
    415    413    416    425     1  0.0000000  0.6508444  3
    415    413    416    417     1  0.0000000  0.6508444  3
    415    413    416    418     1  0.0000000  0.6508444  3
    417    416    425    434     1  0.0000000  1.0460000  1
    417    416    425    434     1  0.0000000  0.0000000  3
    417    416    425    426     1  0.0000000  0.6508444  3
    417    416    425    427     1  0.0000000  0.6508444  3
    418    416    425    434     1  0.0000000  1.0460000  1
    418    416    425    434     1  0.0000000  0.0000000  3
    418    416    425    426     1  0.0000000  0.6508444  3
    418    416    425    427     1  0.0000000  0.6508444  3
    420    419    431    927     1  0.0000000  1.0460000  1
    420    419    431    927     1  0.0000000  0.0000000  3
    420    419    431    432     1  0.0000000  0.6508444  3
    420    419    431    433     1  0.0000000  0.6508444  3
    421    419    431    927     1  0.0000000  1.0460000  1
    421    419    431    927     1  0.0000000  0.0000000  3
    421    419    431    432     1  0.0000000  0.6508444  3
    421    419    431    433     1  0.0000000  0.6508444  3
    423    422    428    898     1  0.0000000  1.0460000  1
    423    422    428    898     1  0.0000000  0.0000000  3
    423    422    428    429     1  0.0000000  0.6508444  3
    423    422    428    430     1  0.0000000  0.6508444  3
    424    422    428    898     1  0.0000000  1.0460000  1
    424    422    428    898     1  0.0000000  0.0000000  3
    424    422    428    429     1  0.0000000  0.6508444  3
    424    422    428    430     1  0.0000000  0.6508444  3
    428    898    870    871     1  0.0000000  1.6038667  3
    428    898    870    872     1  0.0000000  1.6038667  3
    429    428    898    870     1  0.0000000  1.6038667  3
    430    428    898    870     1  0.0000000  1.6038667  3
    431    927    899    900     1  0.0000000  1.6038667  3
    431    927    899    901     1  0.0000000  1.6038667  3
    432    431    927    899     1  0.0000000  1.6038667  3
    433    431    927    899     1  0.0000000  1.6038667  3
    435    436    448    449     1  0.0000000  0.6508444  3
    435    436    448    450     1  0.0000000  0.6508444  3
    435    439    451    452     1  0.0000000  0.6508444  3
    435    439    451    453     1  0.0000000  0.6508444  3
    435    442    445    446     1  0.0000000  0.6508444  3
    435    442    445    447     1  0.0000000  0.6508444  3
    436    435    439    440     1  0.0000000  1.2552000  3
    436    435    439    441     1  0.0000000  1.2552000  3
    436    435    442    443     1  0.0000000  1.2552000  3
    436    435    442    444     1  0.0000000  1.2552000  3
    436    448    460    461     1  0.0000000  0.6508444  3
    436    448    460    462     1  0.0000000  0.6508444  3
    437    436    435    439     1  0.0000000  1.2552000  3
    437    436    435    442     1  0.0000000  1.2552000  3
    437    436    448    460     1  0.0000000  0.6508444  3
    437    436    448    449     1  0.0000000  0.6508444  3
    437    436    448    450     1  0.0000000  0.6508444  3
    438    436    435    439     1  0.0000000  1.2552000  3
    438    436    435    442     1  0.0000000  1.2552000  3
    438    436    448    460     1  0.0000000  0.6508444  3
    438    436    448    449     1  0.0000000  0.6508444  3
    438    436    448    450     1  0.0000000  0.6508444  3
    439    435    442    443     1  0.0000000  1.2552000  3
    439    435    442    444     1  0.0000000  1.2552000  3
    439    451    457    458     1  0.0000000  0.6508444  3
    439    451    457    459     1  0.0000000  0.6508444  3
    440    439    435    442     1  0.0000000  1.2552000  3
    440    439    451    457     1  0.0000000  0.6508444  3
    440    439    451    452     1  0.0000000  0.6508444  3
    440    439    451    453     1  0.0000000  0.6508444  3
    441    439    435    442     1  0.0000000  1.2552000  3
    441    439    451    457     1  0.0000000  0.6508444  3
    441    439    451    452     1  0.0000000  0.6508444  3
    441    439    451    453     1  0.0000000  0.6508444  3
    442    445    454    455     1  0.0000000  0.6508444  3
    442    445    454    456     1  0.0000000  0.6508444  3
    443    442    445    454     1  0.0000000  0.6508444  3
    443    442    445    446     1  0.0000000  0.6508444  3
    443    442    445    447     1  0.0000000  0.6508444  3
    444    442    445    454     1  0.0000000  0.6508444  3
    444    442    445    446     1  0.0000000  0.6508444  3
    444    442    445    447     1  0.0000000  0.6508444  3
    446    445    454    463     1  0.0000000  1.0460000  1
    446    445    454    463     1  0.0000000  0.0000000  3
    446    445    454    455     1  0.0000000  0.6508444  3
    446    445    454    456     1  0.0000000  0.6508444  3
    447    445    454    463     1  0.0000000  1.0460000  1
    447    445    454    463     1  0.0000000  0.0000000  3
    447    445    454    455     1  0.0000000  0.6508444  3
    447    445    454    456     1  0.0000000  0.6508444  3
    449    448    460    985     1  0.0000000  1.0460000  1
    449    448    460    985     1  0.0000000  0.0000000  3
    449    448    460    461     1  0.0000000  0.6508444  3
    449    448    460    462     1  0.0000000  0.6508444  3
    450    448    460    985     1  0.0000000  1.0460000  1
    450    448    460    985     1  0.0000000  0.0000000  3
    450    448    460    461     1  0.0000000  0.6508444  3
    450    448    460    462     1  0.0000000  0.6508444  3
    452    451    457    956     1  0.0000000  1.0460000  1
    452    451    457    956     1  0.0000000  0.0000000  3
    452    451    457    458     1  0.0000000  0.6508444  3
    452    451    457    459     1  0.0000000  0.6508444  3
    453    451    457    956     1  0.0000000  1.0460000  1
    453    451    457    956     1  0.0000000  0.0000000  3
    453    451    457    458     1  0.0000000  0.6508444  3
    453    451    457    459     1  0.0000000  0.6508444  3
    457    956    928    929     1  0.0000000  1.6038667  3
    457    956    928    930     1  0.0000000  1.6038667  3
    458    457    956    928     1  0.0000000  1.6038667  3
    459    457    956    928     1  0.0000000  1.6038667  3
    460    985    957    958     1  0.0000000  1.6038667  3
    460    985    957    959     1  0.0000000  1.6038667  3
    461    460    985    957     1  0.0000000  1.6038667  3
    462    460    985    957     1  0.0000000  1.6038667  3
    464    465    477    478     1  0.0000000  0.6508444  3
    464    465    477    479     1  0.0000000  0.6508444  3
    464    468    480    481     1  0.0000000  0.6508444  3
    464    468    480    482     1  0.0000000  0.6508444  3
    464    471    474    475     1  0.0000000  0.6508444  3
    464    471    474    476     1  0.0000000  0.6508444  3
    465    464    468    469     1  0.0000000  1.2552000  3
    465    464    468    470     1  0.0000000  1.2552000  3
    465    464    471    472     1  0.0000000  1.2552000  3
    465    464    471    473     1  0.0000000  1.2552000  3
    465    477    489    490     1  0.0000000  0.6508444  3
    465    477    489    491     1  0.0000000  0.6508444  3
    466    465    464    468     1  0.0000000  1.2552000  3
    466    465    464    471     1  0.0000000  1.2552000  3
    466    465    477    489     1  0.0000000  0.6508444  3
    466    465    477    478     1  0.0000000  0.6508444  3
    466    465    477    479     1  0.0000000  0.6508444  3
    467    465    464    468     1  0.0000000  1.2552000  3
    467    465    464    471     1  0.0000000  1.2552000  3
    467    465    477    489     1  0.0000000  0.6508444  3
    467    465    477    478     1  0.0000000  0.6508444  3
    467    465    477    479     1  0.0000000  0.6508444  3
    468    464    471    472     1  0.0000000  1.2552000  3
    468    464    471    473     1  0.0000000  1.2552000  3
    468    480    486    487     1  0.0000000  0.6508444  3
    468    480    486    488     1  0.0000000  0.6508444  3
    469    468    464    471     1  0.0000000  1.2552000  3
    469    468    480    486     1  0.0000000  0.6508444  3
    469    468    480    481     1  0.0000000  0.6508444  3
    469    468    480    482     1  0.0000000  0.6508444  3
    470    468    464    471     1  0.0000000  1.2552000  3
    470    468    480    486     1  0.0000000  0.6508444  3
    470    468    480    481     1  0.0000000  0.6508444  3
    470    468    480    482     1  0.0000000  0.6508444  3
    471    474    483    484     1  0.0000000  0.6508444  3
    471    474    483    485     1  0.0000000  0.6508444  3
    472    471    474    483     1  0.0000000  0.6508444  3
    472    471    474    475     1  0.0000000  0.6508444  3
    472    471    474    476     1  0.0000000  0.6508444  3
    473    471    474    483     1  0.0000000  0.6508444  3
    473    471    474    475     1  0.0000000  0.6508444  3
    473    471    474    476     1  0.0000000  0.6508444  3
    475    474    483    492     1  0.0000000  1.0460000  1
    475    474    483    492     1  0.0000000  0.0000000  3
    475    474    483    484     1  0.0000000  0.6508444  3
    475    474    483    485     1  0.0000000  0.6508444  3
    476    474    483    492     1  0.0000000  1.0460000  1
    476    474    483    492     1  0.0000000  0.0000000  3
    476    474    483    484     1  0.0000000  0.6508444  3
    476    474    483    485     1  0.0000000  0.6508444  3
    478    477    489   1043     1  0.0000000  1.0460000  1
    478    477    489   1043     1  0.0000000  0.0000000  3
    478    477    489    490     1  0.0000000  0.6508444  3
    478    477    489    491     1  0.0000000  0.6508444  3
    479    477    489   1043     1  0.0000000  1.0460000  1
    479    477    489   1043     1  0.0000000  0.0000000  3
    479    477    489    490     1  0.0000000  0.6508444  3
    479    477    489    491     1  0.0000000  0.6508444  3
    481    480    486   1014     1  0.0000000  1.0460000  1
    481    480    486   1014     1  0.0000000  0.0000000  3
    481    480    486    487     1  0.0000000  0.6508444  3
    481    480    486    488     1  0.0000000  0.6508444  3
    482    480    486   1014     1  0.0000000  1.0460000  1
    482    480    486   1014     1  0.0000000  0.0000000  3
    482    480    486    487     1  0.0000000  0.6508444  3
    482    480    486    488     1  0.0000000  0.6508444  3
    486   1014    986    987     1  0.0000000  1.6038667  3
    486   1014    986    988     1  0.0000000  1.6038667  3
    487    486   1014    986     1  0.0000000  1.6038667  3
    488    486   1014    986     1  0.0000000  1.6038667  3
    489   1043   1015   1016     1  0.0000000  1.6038667  3
    489   1043   1015   1017     1  0.0000000  1.6038667  3
    490    489   1043   1015     1  0.0000000  1.6038667  3
    491    489   1043   1015     1  0.0000000  1.6038667  3
    493    494    506    507     1  0.0000000  0.6508444  3
    493    494    506    508     1  0.0000000  0.6508444  3
    493    497    509    510     1  0.0000000  0.6508444  3
    493    497    509    511     1  0.0000000  0.6508444  3
    493    500    503    504     1  0.0000000  0.6508444  3
    493    500    503    505     1  0.0000000  0.6508444  3
    494    493    497    498     1  0.0000000  1.2552000  3
    494    493    497    499     1  0.0000000  1.2552000  3
    494    493    500    501     1  0.0000000  1.2552000  3
    494    493    500    502     1  0.0000000  1.2552000  3
    494    506    518    519     1  0.0000000  0.6508444  3
    494    506    518    520     1  0.0000000  0.6508444  3
    495    494    493    497     1  0.0000000  1.2552000  3
    495    494    493    500     1  0.0000000  1.2552000  3
    495    494    506    518     1  0.0000000  0.6508444  3
    495    494    506    507     1  0.0000000  0.6508444  3
    495    494    506    508     1  0.0000000  0.6508444  3
    496    494    493    497     1  0.0000000  1.2552000  3
    496    494    493    500     1  0.0000000  1.2552000  3
    496    494    506    518     1  0.0000000  0.6508444  3
    496    494    506    507     1  0.0000000  0.6508444  3
    496    494    506    508     1  0.0000000  0.6508444  3
    497    493    500    501     1  0.0000000  1.2552000  3
    497    493    500    502     1  0.0000000  1.2552000  3
    497    509    515    516     1  0.0000000  0.6508444  3
    497    509    515    517     1  0.0000000  0.6508444  3
    498    497    493    500     1  0.0000000  1.2552000  3
    498    497    509    515     1  0.0000000  0.6508444  3
    498    497    509    510     1  0.0000000  0.6508444  3
    498    497    509    511     1  0.0000000  0.6508444  3
    499    497    493    500     1  0.0000000  1.2552000  3
    499    497    509    515     1  0.0000000  0.6508444  3
    499    497    509    510     1  0.0000000  0.6508444  3
    499    497    509    511     1  0.0000000  0.6508444  3
    500    503    512    513     1  0.0000000  0.6508444  3
    500    503    512    514     1  0.0000000  0.6508444  3
    501    500    503    512     1  0.0000000  0.6508444  3
    501    500    503    504     1  0.0000000  0.6508444  3
    501    500    503    505     1  0.0000000  0.6508444  3
    502    500    503    512     1  0.0000000  0.6508444  3
    502    500    503    504     1  0.0000000  0.6508444  3
    502    500    503    505     1  0.0000000  0.6508444  3
    504    503    512    521     1  0.0000000  1.0460000  1
    504    503    512    521     1  0.0000000  0.0000000  3
    504    503    512    513     1  0.0000000  0.6508444  3
    504    503    512    514     1  0.0000000  0.6508444  3
    505    503    512    521     1  0.0000000  1.0460000  1
    505    503    512    521     1  0.0000000  0.0000000  3
    505    503    512    513     1  0.0000000  0.6508444  3
    505    503    512    514     1  0.0000000  0.6508444  3
    507    506    518   1101     1  0.0000000  1.0460000  1
    507    506    518   1101     1  0.0000000  0.0000000  3
    507    506    518    519     1  0.0000000  0.6508444  3
    507    506    518    520     1  0.0000000  0.6508444  3
    508    506    518   1101     1  0.0000000  1.0460000  1
    508    506    518   1101     1  0.0000000  0.0000000  3
    508    506    518    519     1  0.0000000  0.6508444  3
    508    506    518    520     1  0.0000000  0.6508444  3
    510    509    515   1072     1  0.0000000  1.0460000  1
    510    509    515   1072     1  0.0000000  0.0000000  3
    510    509    515    516     1  0.0000000  0.6508444  3
    510    509    515    517     1  0.0000000  0.6508444  3
    511    509    515   1072     1  0.0000000  1.0460000  1
    511    509    515   1072     1  0.0000000  0.0000000  3
    511    509    515    516     1  0.0000000  0.6508444  3
    511    509    515    517     1  0.0000000  0.6508444  3
    515   1072   1044   1045     1  0.0000000  1.6038667  3
    515   1072   1044   1046     1  0.0000000  1.6038667  3
    516    515   1072   1044     1  0.0000000  1.6038667  3
    517    515   1072   1044     1  0.0000000  1.6038667  3
    518   1101   1073   1074     1  0.0000000  1.6038667  3
    518   1101   1073   1075     1  0.0000000  1.6038667  3
    519    518   1101   1073     1  0.0000000  1.6038667  3
    520    518   1101   1073     1  0.0000000  1.6038667  3
    522    523    535    536     1  0.0000000  0.6508444  3
    522    523    535    537     1  0.0000000  0.6508444  3
    522    526    538    539     1  0.0000000  0.6508444  3
    522    526    538    540     1  0.0000000  0.6508444  3
    522    529    532    533     1  0.0000000  0.6508444  3
    522    529    532    534     1  0.0000000  0.6508444  3
    523    522    526    527     1  0.0000000  1.2552000  3
    523    522    526    528     1  0.0000000  1.2552000  3
    523    522    529    530     1  0.0000000  1.2552000  3
    523    522    529    531     1  0.0000000  1.2552000  3
    523    535    547    548     1  0.0000000  0.6508444  3
    523    535    547    549     1  0.0000000  0.6508444  3
    524    523    522    526     1  0.0000000  1.2552000  3
    524    523    522    529     1  0.0000000  1.2552000  3
    524    523    535    547     1  0.0000000  0.6508444  3
    524    523    535    536     1  0.0000000  0.6508444  3
    524    523    535    537     1  0.0000000  0.6508444  3
    525    523    522    526     1  0.0000000  1.2552000  3
    525    523    522    529     1  0.0000000  1.2552000  3
    525    523    535    547     1  0.0000000  0.6508444  3
    525    523    535    536     1  0.0000000  0.6508444  3
    525    523    535    537     1  0.0000000  0.6508444  3
    526    522    529    530     1  0.0000000  1.2552000  3
    526    522    529    531     1  0.0000000  1.2552000  3
    526    538    544    545     1  0.0000000  0.6508444  3
    526    538    544    546     1  0.0000000  0.6508444  3
    527    526    522    529     1  0.0000000  1.2552000  3
    527    526    538    544     1  0.0000000  0.6508444  3
    527    526    538    539     1  0.0000000  0.6508444  3
    527    526    538    540     1  0.0000000  0.6508444  3
    528    526    522    529     1  0.0000000  1.2552000  3
    528    526    538    544     1  0.0000000  0.6508444  3
    528    526    538    539     1  0.0000000  0.6508444  3
    528    526    538    540     1  0.0000000  0.6508444  3
    529    532    541    542     1  0.0000000  0.6508444  3
    529    532    541    543     1  0.0000000  0.6508444  3
    530    529    532    541     1  0.0000000  0.6508444  3
    530    529    532    533     1  0.0000000  0.6508444  3
    530    529    532    534     1  0.0000000  0.6508444  3
    531    529    532    541     1  0.0000000  0.6508444  3
    531    529    532    533     1  0.0000000  0.6508444  3
    531    529    532    534     1  0.0000000  0.6508444  3
    533    532    541    550     1  0.0000000  1.0460000  1
    533    532    541    550     1  0.0000000  0.0000000  3
    533    532    541    542     1  0.0000000  0.6508444  3
    533    532    541    543     1  0.0000000  0.6508444  3
    534    532    541    550     1  0.0000000  1.0460000  1
    534    532    541    550     1  0.0000000  0.0000000  3
    534    532    541    542     1  0.0000000  0.6508444  3
    534    532    541    543     1  0.0000000  0.6508444  3
    536    535    547   1159     1  0.0000000  1.0460000  1
    536    535    547   1159     1  0.0000000  0.0000000  3
    536    535    547    548     1  0.0000000  0.6508444  3
    536    535    547    549     1  0.0000000  0.6508444  3
    537    535    547   1159     1  0.0000000  1.0460000  1
    537    535    547   1159     1  0.0000000  0.0000000  3
    537    535    547    548     1  0.0000000  0.6508444  3
    537    535    547    549     1  0.0000000  0.6508444  3
    539    538    544   1130     1  0.0000000  1.0460000  1
    539    538    544   1130     1  0.0000000  0.0000000  3
    539    538    544    545     1  0.0000000  0.6508444  3
    539    538    544    546     1  0.0000000  0.6508444  3
    540    538    544   1130     1  0.0000000  1.0460000  1
    540    538    544   1130     1  0.0000000  0.0000000  3
    540    538    544    545     1  0.0000000  0.6508444  3
    540    538    544    546     1  0.0000000  0.6508444  3
    544   1130   1102   1103     1  0.0000000  1.6038667  3
    544   1130   1102   1104     1  0.0000000  1.6038667  3
    545    544   1130   1102     1  0.0000000  1.6038667  3
    546    544   1130   1102     1  0.0000000  1.6038667  3
    547   1159   1131   1132     1  0.0000000  1.6038667  3
    547   1159   1131   1133     1  0.0000000  1.6038667  3
    548    547   1159   1131     1  0.0000000  1.6038667  3
    549    547   1159   1131     1  0.0000000  1.6038667  3
    551    552    564    565     1  0.0000000  0.6508444  3
    551    552    564    566     1  0.0000000  0.6508444  3
    551    555    567    568     1  0.0000000  0.6508444  3
    551    555    567    569     1  0.0000000  0.6508444  3
    551    558    561    562     1  0.0000000  0.6508444  3
    551    558    561    563     1  0.0000000  0.6508444  3
    552    551    555    556     1  0.0000000  1.2552000  3
    552    551    555    557     1  0.0000000  1.2552000  3
    552    551    558    559     1  0.0000000  1.2552000  3
    552    551    558    560     1  0.0000000  1.2552000  3
    552    564    576    577     1  0.0000000  0.6508444  3
    552    564    576    578     1  0.0000000  0.6508444  3
    553    552    551    555     1  0.0000000  1.2552000  3
    553    552    551    558     1  0.0000000  1.2552000  3
    553    552    564    576     1  0.0000000  0.6508444  3
    553    552    564    565     1  0.0000000  0.6508444  3
    553    552    564    566     1  0.0000000  0.6508444  3
    554    552    551    555     1  0.0000000  1.2552000  3
    554    552    551    558     1  0.0000000  1.2552000  3
    554    552    564    576     1  0.0000000  0.6508444  3
    554    552    564    565     1  0.0000000  0.6508444  3
    554    552    564    566     1  0.0000000  0.6508444  3
    555    551    558    559     1  0.0000000  1.2552000  3
    555    551    558    560     1  0.0000000  1.2552000  3
    555    567    573    574     1  0.0000000  0.6508444  3
    555    567    573    575     1  0.0000000  0.6508444  3
    556    555    551    558     1  0.0000000  1.2552000  3
    556    555    567    573     1  0.0000000  0.6508444  3
    556    555    567    568     1  0.0000000  0.6508444  3
    556    555    567    569     1  0.0000000  0.6508444  3
    557    555    551    558     1  0.0000000  1.2552000  3
    557    555    567    573     1  0.0000000  0.6508444  3
    557    555    567    568     1  0.0000000  0.6508444  3
    557    555    567    569     1  0.0000000  0.6508444  3
    558    561    570    571     1  0.0000000  0.6508444  3
    558    561    570    572     1  0.0000000  0.6508444  3
    559    558    561    570     1  0.0000000  0.6508444  3
    559    558    561    562     1  0.0000000  0.6508444  3
    559    558    561    563     1  0.0000000  0.6508444  3
    560    558    561    570     1  0.0000000  0.6508444  3
    560    558    561    562     1  0.0000000  0.6508444  3
    560    558    561    563     1  0.0000000  0.6508444  3
    562    561    570    579     1  0.0000000  1.0460000  1
    562    561    570    579     1  0.0000000  0.0000000  3
    562    561    570    571     1  0.0000000  0.6508444  3
    562    561    570    572     1  0.0000000  0.6508444  3
    563    561    570    579     1  0.0000000  1.0460000  1
    563    561    570    579     1  0.0000000  0.0000000  3
    563    561    570    571     1  0.0000000  0.6508444  3
    563    561    570    572     1  0.0000000  0.6508444  3
    565    564    576   1217     1  0.0000000  1.0460000  1
    565    564    576   1217     1  0.0000000  0.0000000  3
    565    564    576    577     1  0.0000000  0.6508444  3
    565    564    576    578     1  0.0000000  0.6508444  3
    566    564    576   1217     1  0.0000000  1.0460000  1
    566    564    576   1217     1  0.0000000  0.0000000  3
    566    564    576    577     1  0.0000000  0.6508444  3
    566    564    576    578     1  0.0000000  0.6508444  3
    568    567    573   1188     1  0.0000000  1.0460000  1
    568    567    573   1188     1  0.0000000  0.0000000  3
    568    567    573    574     1  0.0000000  0.6508444  3
    568    567    573    575     1  0.0000000  0.6508444  3
    569    567    573   1188     1  0.0000000  1.0460000  1
    569    567    573   1188     1  0.0000000  0.0000000  3
    569    567    573    574     1  0.0000000  0.6508444  3
    569    567    573    575     1  0.0000000  0.6508444  3
    573   1188   1160   1161     1  0.0000000  1.6038667  3
    573   1188   1160   1162     1  0.0000000  1.6038667  3
    574    573   1188   1160     1  0.0000000  1.6038667  3
    575    573   1188   1160     1  0.0000000  1.6038667  3
    576   1217   1189   1190     1  0.0000000  1.6038667  3
    576   1217   1189   1191     1  0.0000000  1.6038667  3
    577    576   1217   1189     1  0.0000000  1.6038667  3
    578    576   1217   1189     1  0.0000000  1.6038667  3
    580    581    593    594     1  0.0000000  0.6508444  3
    580    581    593    595     1  0.0000000  0.6508444  3
    580    584    596    597     1  0.0000000  0.6508444  3
    580    584    596    598     1  0.0000000  0.6508444  3
    580    587    590    591     1  0.0000000  0.6508444  3
    580    587    590    592     1  0.0000000  0.6508444  3
    581    580    584    585     1  0.0000000  1.2552000  3
    581    580    584    586     1  0.0000000  1.2552000  3
    581    580    587    588     1  0.0000000  1.2552000  3
    581    580    587    589     1  0.0000000  1.2552000  3
    581    593    605    606     1  0.0000000  0.6508444  3
    581    593    605    607     1  0.0000000  0.6508444  3
    582    581    580    584     1  0.0000000  1.2552000  3
    582    581    580    587     1  0.0000000  1.2552000  3
    582    581    593    605     1  0.0000000  0.6508444  3
    582    581    593    594     1  0.0000000  0.6508444  3
    582    581    593    595     1  0.0000000  0.6508444  3
    583    581    580    584     1  0.0000000  1.2552000  3
    583    581    580    587     1  0.0000000  1.2552000  3
    583    581    593    605     1  0.0000000  0.6508444  3
    583    581    593    594     1  0.0000000  0.6508444  3
    583    581    593    595     1  0.0000000  0.6508444  3
    584    580    587    588     1  0.0000000  1.2552000  3
    584    580    587    589     1  0.0000000  1.2552000  3
    584    596    602    603     1  0.0000000  0.6508444  3
    584    596    602    604     1  0.0000000  0.6508444  3
    585    584    580    587     1  0.0000000  1.2552000  3
    585    584    596    602     1  0.0000000  0.6508444  3
    585    584    596    597     1  0.0000000  0.6508444  3
    585    584    596    598     1  0.0000000  0.6508444  3
    586    584    580    587     1  0.0000000  1.2552000  3
    586    584    596    602     1  0.0000000  0.6508444  3
    586    584    596    597     1  0.0000000  0.6508444  3
    586    584    596    598     1  0.0000000  0.6508444  3
    587    590    599    600     1  0.0000000  0.6508444  3
    587    590    599    601     1  0.0000000  0.6508444  3
    588    587    590    599     1  0.0000000  0.6508444  3
    588    587    590    591     1  0.0000000  0.6508444  3
    588    587    590    592     1  0.0000000  0.6508444  3
    589    587    590    599     1  0.0000000  0.6508444  3
    589    587    590    591     1  0.0000000  0.6508444  3
    589    587    590    592     1  0.0000000  0.6508444  3
    591    590    599    608     1  0.0000000  1.0460000  1
    591    590    599    608     1  0.0000000  0.0000000  3
    591    590    599    600     1  0.0000000  0.6508444  3
    591    590    599    601     1  0.0000000  0.6508444  3
    592    590    599    608     1  0.0000000  1.0460000  1
    592    590    599    608     1  0.0000000  0.0000000  3
    592    590    599    600     1  0.0000000  0.6508444  3
    592    590    599    601     1  0.0000000  0.6508444  3
    594    593    605   1275     1  0.0000000  1.0460000  1
    594    593    605   1275     1  0.0000000  0.0000000  3
    594    593    605    606     1  0.0000000  0.6508444  3
    594    593    605    607     1  0.0000000  0.6508444  3
    595    593    605   1275     1  0.0000000  1.0460000  1
    595    593    605   1275     1  0.0000000  0.0000000  3
    595    593    605    606     1  0.0000000  0.6508444  3
    595    593    605    607     1  0.0000000  0.6508444  3
    597    596    602   1246     1  0.0000000  1.0460000  1
    597    596    602   1246     1  0.0000000  0.0000000  3
    597    596    602    603     1  0.0000000  0.6508444  3
    597    596    602    604     1  0.0000000  0.6508444  3
    598    596    602   1246     1  0.0000000  1.0460000  1
    598    596    602   1246     1  0.0000000  0.0000000  3
    598    596    602    603     1  0.0000000  0.6508444  3
    598    596    602    604     1  0.0000000  0.6508444  3
    602   1246   1218   1219     1  0.0000000  1.6038667  3
    602   1246   1218   1220     1  0.0000000  1.6038667  3
    603    602   1246   1218     1  0.0000000  1.6038667  3
    604    602   1246   1218     1  0.0000000  1.6038667  3
    605   1275   1247   1248     1  0.0000000  1.6038667  3
    605   1275   1247   1249     1  0.0000000  1.6038667  3
    606    605   1275   1247     1  0.0000000  1.6038667  3
    607    605   1275   1247     1  0.0000000  1.6038667  3
    609    610    622    623     1  0.0000000  0.6508444  3
    609    610    622    624     1  0.0000000  0.6508444  3
    609    613    625    626     1  0.0000000  0.6508444  3
    609    613    625    627     1  0.0000000  0.6508444  3
    609    616    619    620     1  0.0000000  0.6508444  3
    609    616    619    621     1  0.0000000  0.6508444  3
    610    609    613    614     1  0.0000000  1.2552000  3
    610    609    613    615     1  0.0000000  1.2552000  3
    610    609    616    617     1  0.0000000  1.2552000  3
    610    609    616    618     1  0.0000000  1.2552000  3
    610    622    634    635     1  0.0000000  0.6508444  3
    610    622    634    636     1  0.0000000  0.6508444  3
    611    610    609    613     1  0.0000000  1.2552000  3
    611    610    609    616     1  0.0000000  1.2552000  3
    611    610    622    634     1  0.0000000  0.6508444  3
    611    610    622    623     1  0.0000000  0.6508444  3
    611    610    622    624     1  0.0000000  0.6508444  3
    612    610    609    613     1  0.0000000  1.2552000  3
    612    610    609    616     1  0.0000000  1.2552000  3
    612    610    622    634     1  0.0000000  0.6508444  3
    612    610    622    623     1  0.0000000  0.6508444  3
    612    610    622    624     1  0.0000000  0.6508444  3
    613    609    616    617     1  0.0000000  1.2552000  3
    613    609    616    618     1  0.0000000  1.2552000  3
    613    625    631    632     1  0.0000000  0.6508444  3
    613    625    631    633     1  0.0000000  0.6508444  3
    614    613    609    616     1  0.0000000  1.2552000  3
    614    613    625    631     1  0.0000000  0.6508444  3
    614    613    625    626     1  0.0000000  0.6508444  3
    614    613    625    627     1  0.0000000  0.6508444  3
    615    613    609    616     1  0.0000000  1.2552000  3
    615    613    625    631     1  0.0000000  0.6508444  3
    615    613    625    626     1  0.0000000  0.6508444  3
    615    613    625    627     1  0.0000000  0.6508444  3
    616    619    628    629     1  0.0000000  0.6508444  3
    616    619    628    630     1  0.0000000  0.6508444  3
    617    616    619    628     1  0.0000000  0.6508444  3
    617    616    619    620     1  0.0000000  0.6508444  3
    617    616    619    621     1  0.0000000  0.6508444  3
    618    616    619    628     1  0.0000000  0.6508444  3
    618    616    619    620     1  0.0000000  0.6508444  3
    618    616    619    621     1  0.0000000  0.6508444  3
    620    619    628    637     1  0.0000000  1.0460000  1
    620    619    628    637     1  0.0000000  0.0000000  3
    620    619    628    629     1  0.0000000  0.6508444  3
    620    619    628    630     1  0.0000000  0.6508444  3
    621    619    628    637     1  0.0000000  1.0460000  1
    621    619    628    637     1  0.0000000  0.0000000  3
    621    619    628    629     1  0.0000000  0.6508444  3
    621    619    628    630     1  0.0000000  0.6508444  3
    623    622    634   1333     1  0.0000000  1.0460000  1
    623    622    634   1333     1  0.0000000  0.0000000  3
    623    622    634    635     1  0.0000000  0.6508444  3
    623    622    634    636     1  0.0000000  0.6508444  3
    624    622    634   1333     1  0.0000000  1.0460000  1
    624    622    634   1333     1  0.0000000  0.0000000  3
    624    622    634    635     1  0.0000000  0.6508444  3
    624    622    634    636     1  0.0000000  0.6508444  3
    626    625    631   1304     1  0.0000000  1.0460000  1
    626    625    631   1304     1  0.0000000  0.0000000  3
    626    625    631    632     1  0.0000000  0.6508444  3
    626    625    631    633     1  0.0000000  0.6508444  3
    627    625    631   1304     1  0.0000000  1.0460000  1
    627    625    631   1304     1  0.0000000  0.0000000  3
    627    625    631    632     1  0.0000000  0.6508444  3
    627    625    631    633     1  0.0000000  0.6508444  3
    631   1304   1276   1277     1  0.0000000  1.6038667  3
    631   1304   1276   1278     1  0.0000000  1.6038667  3
    632    631   1304   1276     1  0.0000000  1.6038667  3
    633    631   1304   1276     1  0.0000000  1.6038667  3
    634   1333   1305   1306     1  0.0000000  1.6038667  3
    634   1333   1305   1307     1  0.0000000  1.6038667  3
    635    634   1333   1305     1  0.0000000  1.6038667  3
    636    634   1333   1305     1  0.0000000  1.6038667  3
    638    639    651    652     1  0.0000000  0.6508444  3
    638    639    651    653     1  0.0000000  0.6508444  3
    638    642    654    655     1  0.0000000  0.6508444  3
    638    642    654    656     1  0.0000000  0.6508444  3
    638    645    648    649     1  0.0000000  0.6508444  3
    638    645    648    650     1  0.0000000  0.6508444  3
    639    638    642    643     1  0.0000000  1.2552000  3
    639    638    642    644     1  0.0000000  1.2552000  3
    639    638    645    646     1  0.0000000  1.2552000  3
    639    638    645    647     1  0.0000000  1.2552000  3
    639    651    663    664     1  0.0000000  0.6508444  3
    639    651    663    665     1  0.0000000  0.6508444  3
    640    639    638    642     1  0.0000000  1.2552000  3
    640    639    638    645     1  0.0000000  1.2552000  3
    640    639    651    663     1  0.0000000  0.6508444  3
    640    639    651    652     1  0.0000000  0.6508444  3
    640    639    651    653     1  0.0000000  0.6508444  3
    641    639    638    642     1  0.0000000  1.2552000  3
    641    639    638    645     1  0.0000000  1.2552000  3
    641    639    651    663     1  0.0000000  0.6508444  3
    641    639    651    652     1  0.0000000  0.6508444  3
    641    639    651    653     1  0.0000000  0.6508444  3
    642    638    645    646     1  0.0000000  1.2552000  3
    642    638    645    647     1  0.0000000  1.2552000  3
    642    654    660    661     1  0.0000000  0.6508444  3
    642    654    660    662     1  0.0000000  0.6508444  3
    643    642    638    645     1  0.0000000  1.2552000  3
    643    642    654    660     1  0.0000000  0.6508444  3
    643    642    654    655     1  0.0000000  0.6508444  3
    643    642    654    656     1  0.0000000  0.6508444  3
    644    642    638    645     1  0.0000000  1.2552000  3
    644    642    654    660     1  0.0000000  0.6508444  3
    644    642    654    655     1  0.0000000  0.6508444  3
    644    642    654    656     1  0.0000000  0.6508444  3
    645    648    657    658     1  0.0000000  0.6508444  3
    645    648    657    659     1  0.0000000  0.6508444  3
    646    645    648    657     1  0.0000000  0.6508444  3
    646    645    648    649     1  0.0000000  0.6508444  3
    646    645    648    650     1  0.0000000  0.6508444  3
    647    645    648    657     1  0.0000000  0.6508444  3
    647    645    648    649     1  0.0000000  0.6508444  3
    647    645    648    650     1  0.0000000  0.6508444  3
    649    648    657    666     1  0.0000000  1.0460000  1
    649    648    657    666     1  0.0000000  0.0000000  3
    649    648    657    658     1  0.0000000  0.6508444  3
    649    648    657    659     1  0.0000000  0.6508444  3
    650    648    657    666     1  0.0000000  1.0460000  1
    650    648    657    666     1  0.0000000  0.0000000  3
    650    648    657    658     1  0.0000000  0.6508444  3
    650    648    657    659     1  0.0000000  0.6508444  3
    652    651    663   1391     1  0.0000000  1.0460000  1
    652    651    663   1391     1  0.0000000  0.0000000  3
    652    651    663    664     1  0.0000000  0.6508444  3
    652    651    663    665     1  0.0000000  0.6508444  3
    653    651    663   1391     1  0.0000000  1.0460000  1
    653    651    663   1391     1  0.0000000  0.0000000  3
    653    651    663    664     1  0.0000000  0.6508444  3
    653    651    663    665     1  0.0000000  0.6508444  3
    655    654    660   1362     1  0.0000000  1.0460000  1
    655    654    660   1362     1  0.0000000  0.0000000  3
    655    654    660    661     1  0.0000000  0.6508444  3
    655    654    660    662     1  0.0000000  0.6508444  3
    656    654    660   1362     1  0.0000000  1.0460000  1
    656    654    660   1362     1  0.0000000  0.0000000  3
    656    654    660    661     1  0.0000000  0.6508444  3
    656    654    660    662     1  0.0000000  0.6508444  3
    660   1362   1334   1335     1  0.0000000  1.6038667  3
    660   1362   1334   1336     1  0.0000000  1.6038667  3
    661    660   1362   1334     1  0.0000000  1.6038667  3
    662    660   1362   1334     1  0.0000000  1.6038667  3
    663   1391   1363   1364     1  0.0000000  1.6038667  3
    663   1391   1363   1365     1  0.0000000  1.6038667  3
    664    663   1391   1363     1  0.0000000  1.6038667  3
    665    663   1391   1363     1  0.0000000  1.6038667  3
    667    668    680    681     1  0.0000000  0.6508444  3
    667    668    680    682     1  0.0000000  0.6508444  3
    667    671    683    684     1  0.0000000  0.6508444  3
    667    671    683    685     1  0.0000000  0.6508444  3
    667    674    677    678     1  0.0000000  0.6508444  3
    667    674    677    679     1  0.0000000  0.6508444  3
    668    667    671    672     1  0.0000000  1.2552000  3
    668    667    671    673     1  0.0000000  1.2552000  3
    668    667    674    675     1  0.0000000  1.2552000  3
    668    667    674    676     1  0.0000000  1.2552000  3
    668    680    692    693     1  0.0000000  0.6508444  3
    668    680    692    694     1  0.0000000  0.6508444  3
    669    668    667    671     1  0.0000000  1.2552000  3
    669    668    667    674     1  0.0000000  1.2552000  3
    669    668    680    692     1  0.0000000  0.6508444  3
    669    668    680    681     1  0.0000000  0.6508444  3
    669    668    680    682     1  0.0000000  0.6508444  3
    670    668    667    671     1  0.0000000  1.2552000  3
    670    668    667    674     1  0.0000000  1.2552000  3
    670    668    680    692     1  0.0000000  0.6508444  3
    670    668    680    681     1  0.0000000  0.6508444  3
    670    668    680    682     1  0.0000000  0.6508444  3
    671    667    674    675     1  0.0000000  1.2552000  3
    671    667    674    676     1  0.0000000  1.2552000  3
    671    683    689    690     1  0.0000000  0.6508444  3
    671    683    689    691     1  0.0000000  0.6508444  3
    672    671    667    674     1  0.0000000  1.2552000  3
    672    671    683    689     1  0.0000000  0.6508444  3
    672    671    683    684     1  0.0000000  0.6508444  3
    672    671    683    685     1  0.0000000  0.6508444  3
    673    671    667    674     1  0.0000000  1.2552000  3
    673    671    683    689     1  0.0000000  0.6508444  3
    673    671    683    684     1  0.0000000  0.6508444  3
    673    671    683    685     1  0.0000000  0.6508444  3
    674    677    686    687     1  0.0000000  0.6508444  3
    674    677    686    688     1  0.0000000  0.6508444  3
    675    674    677    686     1  0.0000000  0.6508444  3
    675    674    677    678     1  0.0000000  0.6508444  3
    675    674    677    679     1  0.0000000  0.6508444  3
    676    674    677    686     1  0.0000000  0.6508444  3
    676    674    677    678     1  0.0000000  0.6508444  3
    676    674    677    679     1  0.0000000  0.6508444  3
    678    677    686    695     1  0.0000000  1.0460000  1
    678    677    686    695     1  0.0000000  0.0000000  3
    678    677    686    687     1  0.0000000  0.6508444  3
    678    677    686    688     1  0.0000000  0.6508444  3
    679    677    686    695     1  0.0000000  1.0460000  1
    679    677    686    695     1  0.0000000  0.0000000  3
    679    677    686    687     1  0.0000000  0.6508444  3
    679    677    686    688     1  0.0000000  0.6508444  3
    681    680    692   1449     1  0.0000000  1.0460000  1
    681    680    692   1449     1  0.0000000  0.0000000  3
    681    680    692    693     1  0.0000000  0.6508444  3
    681    680    692    694     1  0.0000000  0.6508444  3
    682    680    692   1449     1  0.0000000  1.0460000  1
    682    680    692   1449     1  0.0000000  0.0000000  3
    682    680    692    693     1  0.0000000  0.6508444  3
    682    680    692    694     1  0.0000000  0.6508444  3
    684    683    689   1420     1  0.0000000  1.0460000  1
    684    683    689   1420     1  0.0000000  0.0000000  3
    684    683    689    690     1  0.0000000  0.6508444  3
    684    683    689    691     1  0.0000000  0.6508444  3
    685    683    689   1420     1  0.0000000  1.0460000  1
    685    683    689   1420     1  0.0000000  0.0000000  3
    685    683    689    690     1  0.0000000  0.6508444  3
    685    683    689    691     1  0.0000000  0.6508444  3
    689   1420   1392   1393     1  0.0000000  1.6038667  3
    689   1420   1392   1394     1  0.0000000  1.6038667  3
    690    689   1420   1392     1  0.0000000  1.6038667  3
    691    689   1420   1392     1  0.0000000  1.6038667  3
    692   1449   1421   1422     1  0.0000000  1.6038667  3
    692   1449   1421   1423     1  0.0000000  1.6038667  3
    693    692   1449   1421     1  0.0000000  1.6038667  3
    694    692   1449   1421     1  0.0000000  1.6038667  3
    696    697    709    710     1  0.0000000  0.6508444  3
    696    697    709    711     1  0.0000000  0.6508444  3
    696    700    712    713     1  0.0000000  0.6508444  3
    696    700    712    714     1  0.0000000  0.6508444  3
    696    703    706    707     1  0.0000000  0.6508444  3
    696    703    706    708     1  0.0000000  0.6508444  3
    697    696    700    701     1  0.0000000  1.2552000  3
    697    696    700    702     1  0.0000000  1.2552000  3
    697    696    703    704     1  0.0000000  1.2552000  3
    697    696    703    705     1  0.0000000  1.2552000  3
    697    709    721    722     1  0.0000000  0.6508444  3
    697    709    721    723     1  0.0000000  0.6508444  3
    698    697    696    700     1  0.0000000  1.2552000  3
    698    697    696    703     1  0.0000000  1.2552000  3
    698    697    709    721     1  0.0000000  0.6508444  3
    698    697    709    710     1  0.0000000  0.6508444  3
    698    697    709    711     1  0.0000000  0.6508444  3
    699    697    696    700     1  0.0000000  1.2552000  3
    699    697    696    703     1  0.0000000  1.2552000  3
    699    697    709    721     1  0.0000000  0.6508444  3
    699    697    709    710     1  0.0000000  0.6508444  3
    699    697    709    711     1  0.0000000  0.6508444  3
    700    696    703    704     1  0.0000000  1.2552000  3
    700    696    703    705     1  0.0000000  1.2552000  3
    700    712    718    719     1  0.0000000  0.6508444  3
    700    712    718    720     1  0.0000000  0.6508444  3
    701    700    696    703     1  0.0000000  1.2552000  3
    701    700    712    718     1  0.0000000  0.6508444  3
    701    700    712    713     1  0.0000000  0.6508444  3
    701    700    712    714     1  0.0000000  0.6508444  3
    702    700    696    703     1  0.0000000  1.2552000  3
    702    700    712    718     1  0.0000000  0.6508444  3
    702    700    712    713     1  0.0000000  0.6508444  3
    702    700    712    714     1  0.0000000  0.6508444  3
    703    706    715    716     1  0.0000000  0.6508444  3
    703    706    715    717     1  0.0000000  0.6508444  3
    704    703    706    715     1  0.0000000  0.6508444  3
    704    703    706    707     1  0.0000000  0.6508444  3
    704    703    706    708     1  0.0000000  0.6508444  3
    705    703    706    715     1  0.0000000  0.6508444  3
    705    703    706    707     1  0.0000000  0.6508444  3
    705    703    706    708     1  0.0000000  0.6508444  3
    707    706    715    724     1  0.0000000  1.0460000  1
    707    706    715    724     1  0.0000000  0.0000000  3
    707    706    715    716     1  0.0000000  0.6508444  3
    707    706    715    717     1  0.0000000  0.6508444  3
    708    706    715    724     1  0.0000000  1.0460000  1
    708    706    715    724     1  0.0000000  0.0000000  3
    708    706    715    716     1  0.0000000  0.6508444  3
    708    706    715    717     1  0.0000000  0.6508444  3
    710    709    721   1507     1  0.0000000  1.0460000  1
    710    709    721   1507     1  0.0000000  0.0000000  3
    710    709    721    722     1  0.0000000  0.6508444  3
    710    709    721    723     1  0.0000000  0.6508444  3
    711    709    721   1507     1  0.0000000  1.0460000  1
    711    709    721   1507     1  0.0000000  0.0000000  3
    711    709    721    722     1  0.0000000  0.6508444  3
    711    709    721    723     1  0.0000000  0.6508444  3
    713    712    718   1478     1  0.0000000  1.0460000  1
    713    712    718   1478     1  0.0000000  0.0000000  3
    713    712    718    719     1  0.0000000  0.6508444  3
    713    712    718    720     1  0.0000000  0.6508444  3
    714    712    718   1478     1  0.0000000  1.0460000  1
    714    712    718   1478     1  0.0000000  0.0000000  3
    714    712    718    719     1  0.0000000  0.6508444  3
    714    712    718    720     1  0.0000000  0.6508444  3
    718   1478   1450   1451     1  0.0000000  1.6038667  3
    718   1478   1450   1452     1  0.0000000  1.6038667  3
    719    718   1478   1450     1  0.0000000  1.6038667  3
    720    718   1478   1450     1  0.0000000  1.6038667  3
    721   1507   1479   1480     1  0.0000000  1.6038667  3
    721   1507   1479   1481     1  0.0000000  1.6038667  3
    722    721   1507   1479     1  0.0000000  1.6038667  3
    723    721   1507   1479     1  0.0000000  1.6038667  3
    725    726    738    739     1  0.0000000  0.6508444  3
    725    726    738    740     1  0.0000000  0.6508444  3
    725    729    741    742     1  0.0000000  0.6508444  3
    725    729    741    743     1  0.0000000  0.6508444  3
    725    732    735    736     1  0.0000000  0.6508444  3
    725    732    735    737     1  0.0000000  0.6508444  3
    726    725    729    730     1  0.0000000  1.2552000  3
    726    725    729    731     1  0.0000000  1.2552000  3
    726    725    732    733     1  0.0000000  1.2552000  3
    726    725    732    734     1  0.0000000  1.2552000  3
    726    738    750    751     1  0.0000000  0.6508444  3
    726    738    750    752     1  0.0000000  0.6508444  3
    727    726    725    729     1  0.0000000  1.2552000  3
    727    726    725    732     1  0.0000000  1.2552000  3
    727    726    738    750     1  0.0000000  0.6508444  3
    727    726    738    739     1  0.0000000  0.6508444  3
    727    726    738    740     1  0.0000000  0.6508444  3
    728    726    725    729     1  0.0000000  1.2552000  3
    728    726    725    732     1  0.0000000  1.2552000  3
    728    726    738    750     1  0.0000000  0.6508444  3
    728    726    738    739     1  0.0000000  0.6508444  3
    728    726    738    740     1  0.0000000  0.6508444  3
    729    725    732    733     1  0.0000000  1.2552000  3
    729    725    732    734     1  0.0000000  1.2552000  3
    729    741    747    748     1  0.0000000  0.6508444  3
    729    741    747    749     1  0.0000000  0.6508444  3
    730    729    725    732     1  0.0000000  1.2552000  3
    730    729    741    747     1  0.0000000  0.6508444  3
    730    729    741    742     1  0.0000000  0.6508444  3
    730    729    741    743     1  0.0000000  0.6508444  3
    731    729    725    732     1  0.0000000  1.2552000  3
    731    729    741    747     1  0.0000000  0.6508444  3
    731    729    741    742     1  0.0000000  0.6508444  3
    731    729    741    743     1  0.0000000  0.6508444  3
    732    735    744    745     1  0.0000000  0.6508444  3
    732    735    744    746     1  0.0000000  0.6508444  3
    733    732    735    744     1  0.0000000  0.6508444  3
    733    732    735    736     1  0.0000000  0.6508444  3
    733    732    735    737     1  0.0000000  0.6508444  3
    734    732    735    744     1  0.0000000  0.6508444  3
    734    732    735    736     1  0.0000000  0.6508444  3
    734    732    735    737     1  0.0000000  0.6508444  3
    736    735    744    753     1  0.0000000  1.0460000  1
    736    735    744    753     1  0.0000000  0.0000000  3
    736    735    744    745     1  0.0000000  0.6508444  3
    736    735    744    746     1  0.0000000  0.6508444  3
    737    735    744    753     1  0.0000000  1.0460000  1
    737    735    744    753     1  0.0000000  0.0000000  3
    737    735    744    745     1  0.0000000  0.6508444  3
    737    735    744    746     1  0.0000000  0.6508444  3
    739    738    750   1565     1  0.0000000  1.0460000  1
    739    738    750   1565     1  0.0000000  0.0000000  3
    739    738    750    751     1  0.0000000  0.6508444  3
    739    738    750    752     1  0.0000000  0.6508444  3
    740    738    750   1565     1  0.0000000  1.0460000  1
    740    738    750   1565     1  0.0000000  0.0000000  3
    740    738    750    751     1  0.0000000  0.6508444  3
    740    738    750    752     1  0.0000000  0.6508444  3
    742    741    747   1536     1  0.0000000  1.0460000  1
    742    741    747   1536     1  0.0000000  0.0000000  3
    742    741    747    748     1  0.0000000  0.6508444  3
    742    741    747    749     1  0.0000000  0.6508444  3
    743    741    747   1536     1  0.0000000  1.0460000  1
    743    741    747   1536     1  0.0000000  0.0000000  3
    743    741    747    748     1  0.0000000  0.6508444  3
    743    741    747    749     1  0.0000000  0.6508444  3
    747   1536   1508   1509     1  0.0000000  1.6038667  3
    747   1536   1508   1510     1  0.0000000  1.6038667  3
    748    747   1536   1508     1  0.0000000  1.6038667  3
    749    747   1536   1508     1  0.0000000  1.6038667  3
    750   1565   1537   1538     1  0.0000000  1.6038667  3
    750   1565   1537   1539     1  0.0000000  1.6038667  3
    751    750   1565   1537     1  0.0000000  1.6038667  3
    752    750   1565   1537     1  0.0000000  1.6038667  3
    754    755    767    768     1  0.0000000  0.6508444  3
    754    755    767    769     1  0.0000000  0.6508444  3
    754    758    770    771     1  0.0000000  0.6508444  3
    754    758    770    772     1  0.0000000  0.6508444  3
    754    761    764    765     1  0.0000000  0.6508444  3
    754    761    764    766     1  0.0000000  0.6508444  3
    755    754    758    759     1  0.0000000  1.2552000  3
    755    754    758    760     1  0.0000000  1.2552000  3
    755    754    761    762     1  0.0000000  1.2552000  3
    755    754    761    763     1  0.0000000  1.2552000  3
    755    767    779    780     1  0.0000000  0.6508444  3
    755    767    779    781     1  0.0000000  0.6508444  3
    756    755    754    758     1  0.0000000  1.2552000  3
    756    755    754    761     1  0.0000000  1.2552000  3
    756    755    767    779     1  0.0000000  0.6508444  3
    756    755    767    768     1  0.0000000  0.6508444  3
    756    755    767    769     1  0.0000000  0.6508444  3
    757    755    754    758     1  0.0000000  1.2552000  3
    757    755    754    761     1  0.0000000  1.2552000  3
    757    755    767    779     1  0.0000000  0.6508444  3
    757    755    767    768     1  0.0000000  0.6508444  3
    757    755    767    769     1  0.0000000  0.6508444  3
    758    754    761    762     1  0.0000000  1.2552000  3
    758    754    761    763     1  0.0000000  1.2552000  3
    758    770    776    777     1  0.0000000  0.6508444  3
    758    770    776    778     1  0.0000000  0.6508444  3
    759    758    754    761     1  0.0000000  1.2552000  3
    759    758    770    776     1  0.0000000  0.6508444  3
    759    758    770    771     1  0.0000000  0.6508444  3
    759    758    770    772     1  0.0000000  0.6508444  3
    760    758    754    761     1  0.0000000  1.2552000  3
    760    758    770    776     1  0.0000000  0.6508444  3
    760    758    770    771     1  0.0000000  0.6508444  3
    760    758    770    772     1  0.0000000  0.6508444  3
    761    764    773    774     1  0.0000000  0.6508444  3
    761    764    773    775     1  0.0000000  0.6508444  3
    762    761    764    773     1  0.0000000  0.6508444  3
    762    761    764    765     1  0.0000000  0.6508444  3
    762    761    764    766     1  0.0000000  0.6508444  3
    763    761    764    773     1  0.0000000  0.6508444  3
    763    761    764    765     1  0.0000000  0.6508444  3
    763    761    764    766     1  0.0000000  0.6508444  3
    765    764    773    782     1  0.0000000  1.0460000  1
    765    764    773    782     1  0.0000000  0.0000000  3
    765    764    773    774     1  0.0000000  0.6508444  3
    765    764    773    775     1  0.0000000  0.6508444  3
    766    764    773    782     1  0.0000000  1.0460000  1
    766    764    773    782     1  0.0000000  0.0000000  3
    766    764    773    774     1  0.0000000  0.6508444  3
    766    764    773    775     1  0.0000000  0.6508444  3
    768    767    779   1623     1  0.0000000  1.0460000  1
    768    767    779   1623     1  0.0000000  0.0000000  3
    768    767    779    780     1  0.0000000  0.6508444  3
    768    767    779    781     1  0.0000000  0.6508444  3
    769    767    779   1623     1  0.0000000  1.0460000  1
    769    767    779   1623     1  0.0000000  0.0000000  3
    769    767    779    780     1  0.0000000  0.6508444  3
    769    767    779    781     1  0.0000000  0.6508444  3
    771    770    776   1594     1  0.0000000  1.0460000  1
    771    770    776   1594     1  0.0000000  0.0000000  3
    771    770    776    777     1  0.0000000  0.6508444  3
    771    770    776    778     1  0.0000000  0.6508444  3
    772    770    776   1594     1  0.0000000  1.0460000  1
    772    770    776   1594     1  0.0000000  0.0000000  3
    772    770    776    777     1  0.0000000  0.6508444  3
    772    770    776    778     1  0.0000000  0.6508444  3
    776   1594   1566   1567     1  0.0000000  1.6038667  3
    776   1594   1566   1568     1  0.0000000  1.6038667  3
    777    776   1594   1566     1  0.0000000  1.6038667  3
    778    776   1594   1566     1  0.0000000  1.6038667  3
    779   1623   1595   1596     1  0.0000000  1.6038667  3
    779   1623   1595   1597     1  0.0000000  1.6038667  3
    780    779   1623   1595     1  0.0000000  1.6038667  3
    781    779   1623   1595     1  0.0000000  1.6038667  3
    783    784    796    797     1  0.0000000  0.6508444  3
    783    784    796    798     1  0.0000000  0.6508444  3
    783    787    799    800     1  0.0000000  0.6508444  3
    783    787    799    801     1  0.0000000  0.6508444  3
    783    790    793    794     1  0.0000000  0.6508444  3
    783    790    793    795     1  0.0000000  0.6508444  3
    784    783    787    788     1  0.0000000  1.2552000  3
    784    783    787    789     1  0.0000000  1.2552000  3
    784    783    790    791     1  0.0000000  1.2552000  3
    784    783    790    792     1  0.0000000  1.2552000  3
    784    796    808    809     1  0.0000000  0.6508444  3
    784    796    808    810     1  0.0000000  0.6508444  3
    785    784    783    787     1  0.0000000  1.2552000  3
    785    784    783    790     1  0.0000000  1.2552000  3
    785    784    796    808     1  0.0000000  0.6508444  3
    785    784    796    797     1  0.0000000  0.6508444  3
    785    784    796    798     1  0.0000000  0.6508444  3
    786    784    783    787     1  0.0000000  1.2552000  3
    786    784    783    790     1  0.0000000  1.2552000  3
    786    784    796    808     1  0.0000000  0.6508444  3
    786    784    796    797     1  0.0000000  0.6508444  3
    786    784    796    798     1  0.0000000  0.6508444  3
    787    783    790    791     1  0.0000000  1.2552000  3
    787    783    790    792     1  0.0000000  1.2552000  3
    787    799    805    806     1  0.0000000  0.6508444  3
    787    799    805    807     1  0.0000000  0.6508444  3
    788    787    783    790     1  0.0000000  1.2552000  3
    788    787    799    805     1  0.0000000  0.6508444  3
    788    787    799    800     1  0.0000000  0.6508444  3
    788    787    799    801     1  0.0000000  0.6508444  3
    789    787    783    790     1  0.0000000  1.2552000  3
    789    787    799    805     1  0.0000000  0.6508444  3
    789    787    799    800     1  0.0000000  0.6508444  3
    789    787    799    801     1  0.0000000  0.6508444  3
    790    793    802    803     1  0.0000000  0.6508444  3
    790    793    802    804     1  0.0000000  0.6508444  3
    791    790    793    802     1  0.0000000  0.6508444  3
    791    790    793    794     1  0.0000000  0.6508444  3
    791    790    793    795     1  0.0000000  0.6508444  3
    792    790    793    802     1  0.0000000  0.6508444  3
    792    790    793    794     1  0.0000000  0.6508444  3
    792    790    793    795     1  0.0000000  0.6508444  3
    794    793    802    811     1  0.0000000  1.0460000  1
    794    793    802    811     1  0.0000000  0.0000000  3
    794    793    802    803     1  0.0000000  0.6508444  3
    794    793    802    804     1  0.0000000  0.6508444  3
    795    793    802    811     1  0.0000000  1.0460000  1
    795    793    802    811     1  0.0000000  0.0000000  3
    795    793    802    803     1  0.0000000  0.6508444  3
    795    793    802    804     1  0.0000000  0.6508444  3
    797    796    808   1681     1  0.0000000  1.0460000  1
    797    796    808   1681     1  0.0000000  0.0000000  3
    797    796    808    809     1  0.0000000  0.6508444  3
    797    796    808    810     1  0.0000000  0.6508444  3
    798    796    808   1681     1  0.0000000  1.0460000  1
    798    796    808   1681     1  0.0000000  0.0000000  3
    798    796    808    809     1  0.0000000  0.6508444  3
    798    796    808    810     1  0.0000000  0.6508444  3
    800    799    805   1652     1  0.0000000  1.0460000  1
    800    799    805   1652     1  0.0000000  0.0000000  3
    800    799    805    806     1  0.0000000  0.6508444  3
    800    799    805    807     1  0.0000000  0.6508444  3
    801    799    805   1652     1  0.0000000  1.0460000  1
    801    799    805   1652     1  0.0000000  0.0000000  3
    801    799    805    806     1  0.0000000  0.6508444  3
    801    799    805    807     1  0.0000000  0.6508444  3
    805   1652   1624   1625     1  0.0000000  1.6038667  3
    805   1652   1624   1626     1  0.0000000  1.6038667  3
    806    805   1652   1624     1  0.0000000  1.6038667  3
    807    805   1652   1624     1  0.0000000  1.6038667  3
    808   1681   1653   1654     1  0.0000000  1.6038667  3
    808   1681   1653   1655     1  0.0000000  1.6038667  3
    809    808   1681   1653     1  0.0000000  1.6038667  3
    810    808   1681   1653     1  0.0000000  1.6038667  3
    812    813    825    826     1  0.0000000  0.6508444  3
    812    813    825    827     1  0.0000000  0.6508444  3
    812    816    828    829     1  0.0000000  0.6508444  3
    812    816    828    830     1  0.0000000  0.6508444  3
    812    819    822    823     1  0.0000000  0.6508444  3
    812    819    822    824     1  0.0000000  0.6508444  3
    813    812    816    817     1  0.0000000  1.2552000  3
    813    812    816    818     1  0.0000000  1.2552000  3
    813    812    819    820     1  0.0000000  1.2552000  3
    813    812    819    821     1  0.0000000  1.2552000  3
    813    825    837    838     1  0.0000000  0.6508444  3
    813    825    837    839     1  0.0000000  0.6508444  3
    814    813    812    816     1  0.0000000  1.2552000  3
    814    813    812    819     1  0.0000000  1.2552000  3
    814    813    825    837     1  0.0000000  0.6508444  3
    814    813    825    826     1  0.0000000  0.6508444  3
    814    813    825    827     1  0.0000000  0.6508444  3
    815    813    812    816     1  0.0000000  1.2552000  3
    815    813    812    819     1  0.0000000  1.2552000  3
    815    813    825    837     1  0.0000000  0.6508444  3
    815    813    825    826     1  0.0000000  0.6508444  3
    815    813    825    827     1  0.0000000  0.6508444  3
    816    812    819    820     1  0.0000000  1.2552000  3
    816    812    819    821     1  0.0000000  1.2552000  3
    816    828    834    835     1  0.0000000  0.6508444  3
    816    828    834    836     1  0.0000000  0.6508444  3
    817    816    812    819     1  0.0000000  1.2552000  3
    817    816    828    834     1  0.0000000  0.6508444  3
    817    816    828    829     1  0.0000000  0.6508444  3
    817    816    828    830     1  0.0000000  0.6508444  3
    818    816    812    819     1  0.0000000  1.2552000  3
    818    816    828    834     1  0.0000000  0.6508444  3
    818    816    828    829     1  0.0000000  0.6508444  3
    818    816    828    830     1  0.0000000  0.6508444  3
    819    822    831    832     1  0.0000000  0.6508444  3
    819    822    831    833     1  0.0000000  0.6508444  3
    820    819    822    831     1  0.0000000  0.6508444  3
    820    819    822    823     1  0.0000000  0.6508444  3
    820    819    822    824     1  0.0000000  0.6508444  3
    821    819    822    831     1  0.0000000  0.6508444  3
    821    819    822    823     1  0.0000000  0.6508444  3
    821    819    822    824     1  0.0000000  0.6508444  3
    823    822    831    840     1  0.0000000  1.0460000  1
    823    822    831    840     1  0.0000000  0.0000000  3
    823    822    831    832     1  0.0000000  0.6508444  3
    823    822    831    833     1  0.0000000  0.6508444  3
    824    822    831    840     1  0.0000000  1.0460000  1
    824    822    831    840     1  0.0000000  0.0000000  3
    824    822    831    832     1  0.0000000  0.6508444  3
    824    822    831    833     1  0.0000000  0.6508444  3
    826    825    837   1739     1  0.0000000  1.0460000  1
    826    825    837   1739     1  0.0000000  0.0000000  3
    826    825    837    838     1  0.0000000  0.6508444  3
    826    825    837    839     1  0.0000000  0.6508444  3
    827    825    837   1739     1  0.0000000  1.0460000  1
    827    825    837   1739     1  0.0000000  0.0000000  3
    827    825    837    838     1  0.0000000  0.6508444  3
    827    825    837    839     1  0.0000000  0.6508444  3
    829    828    834   1710     1  0.0000000  1.0460000  1
    829    828    834   1710     1  0.0000000  0.0000000  3
    829    828    834    835     1  0.0000000  0.6508444  3
    829    828    834    836     1  0.0000000  0.6508444  3
    830    828    834   1710     1  0.0000000  1.0460000  1
    830    828    834   1710     1  0.0000000  0.0000000  3
    830    828    834    835     1  0.0000000  0.6508444  3
    830    828    834    836     1  0.0000000  0.6508444  3
    834   1710   1682   1683     1  0.0000000  1.6038667  3
    834   1710   1682   1684     1  0.0000000  1.6038667  3
    835    834   1710   1682     1  0.0000000  1.6038667  3
    836    834   1710   1682     1  0.0000000  1.6038667  3
    837   1739   1711   1712     1  0.0000000  1.6038667  3
    837   1739   1711   1713     1  0.0000000  1.6038667  3
    838    837   1739   1711     1  0.0000000  1.6038667  3
    839    837   1739   1711     1  0.0000000  1.6038667  3
    841    842    854    855     1  0.0000000  0.6508444  3
    841    842    854    856     1  0.0000000  0.6508444  3
    841    845    857    858     1  0.0000000  0.6508444  3
    841    845    857    859     1  0.0000000  0.6508444  3
    841    848    851    852     1  0.0000000  0.6508444  3
    841    848    851    853     1  0.0000000  0.6508444  3
    842    841    845    846     1  0.0000000  1.2552000  3
    842    841    845    847     1  0.0000000  1.2552000  3
    842    841    848    849     1  0.0000000  1.2552000  3
    842    841    848    850     1  0.0000000  1.2552000  3
    842    854    866    867     1  0.0000000  0.6508444  3
    842    854    866    868     1  0.0000000  0.6508444  3
    843    842    841    845     1  0.0000000  1.2552000  3
    843    842    841    848     1  0.0000000  1.2552000  3
    843    842    854    866     1  0.0000000  0.6508444  3
    843    842    854    855     1  0.0000000  0.6508444  3
    843    842    854    856     1  0.0000000  0.6508444  3
    844    842    841    845     1  0.0000000  1.2552000  3
    844    842    841    848     1  0.0000000  1.2552000  3
    844    842    854    866     1  0.0000000  0.6508444  3
    844    842    854    855     1  0.0000000  0.6508444  3
    844    842    854    856     1  0.0000000  0.6508444  3
    845    841    848    849     1  0.0000000  1.2552000  3
    845    841    848    850     1  0.0000000  1.2552000  3
    845    857    863    864     1  0.0000000  0.6508444  3
    845    857    863    865     1  0.0000000  0.6508444  3
    846    845    841    848     1  0.0000000  1.2552000  3
    846    845    857    863     1  0.0000000  0.6508444  3
    846    845    857    858     1  0.0000000  0.6508444  3
    846    845    857    859     1  0.0000000  0.6508444  3
    847    845    841    848     1  0.0000000  1.2552000  3
    847    845    857    863     1  0.0000000  0.6508444  3
    847    845    857    858     1  0.0000000  0.6508444  3
    847    845    857    859     1  0.0000000  0.6508444  3
    848    851    860    861     1  0.0000000  0.6508444  3
    848    851    860    862     1  0.0000000  0.6508444  3
    849    848    851    860     1  0.0000000  0.6508444  3
    849    848    851    852     1  0.0000000  0.6508444  3
    849    848    851    853     1  0.0000000  0.6508444  3
    850    848    851    860     1  0.0000000  0.6508444  3
    850    848    851    852     1  0.0000000  0.6508444  3
    850    848    851    853     1  0.0000000  0.6508444  3
    852    851    860    869     1  0.0000000  1.0460000  1
    852    851    860    869     1  0.0000000  0.0000000  3
    852    851    860    861     1  0.0000000  0.6508444  3
    852    851    860    862     1  0.0000000  0.6508444  3
    853    851    860    869     1  0.0000000  1.0460000  1
    853    851    860    869     1  0.0000000  0.0000000  3
    853    851    860    861     1  0.0000000  0.6508444  3
    853    851    860    862     1  0.0000000  0.6508444  3
    855    854    866   1797     1  0.0000000  1.0460000  1
    855    854    866   1797     1  0.0000000  0.0000000  3
    855    854    866    867     1  0.0000000  0.6508444  3
    855    854    866    868     1  0.0000000  0.6508444  3
    856    854    866   1797     1  0.0000000  1.0460000  1
    856    854    866   1797     1  0.0000000  0.0000000  3
    856    854    866    867     1  0.0000000  0.6508444  3
    856    854    866    868     1  0.0000000  0.6508444  3
    858    857    863   1768     1  0.0000000  1.0460000  1
    858    857    863   1768     1  0.0000000  0.0000000  3
    858    857    863    864     1  0.0000000  0.6508444  3
    858    857    863    865     1  0.0000000  0.6508444  3
    859    857    863   1768     1  0.0000000  1.0460000  1
    859    857    863   1768     1  0.0000000  0.0000000  3
    859    857    863    864     1  0.0000000  0.6508444  3
    859    857    863    865     1  0.0000000  0.6508444  3
    863   1768   1740   1741     1  0.0000000  1.6038667  3
    863   1768   1740   1742     1  0.0000000  1.6038667  3
    864    863   1768   1740     1  0.0000000  1.6038667  3
    865    863   1768   1740     1  0.0000000  1.6038667  3
    866   1797   1769   1770     1  0.0000000  1.6038667  3
    866   1797   1769   1771     1  0.0000000  1.6038667  3
    867    866   1797   1769     1  0.0000000  1.6038667  3
    868    866   1797   1769     1  0.0000000  1.6038667  3
    870    873    876    877     1  0.0000000  0.6508444  3
    870    873    876    878     1  0.0000000  0.6508444  3
    871    870    873    876     1  0.0000000  0.6508444  3
    871    870    873    874     1  0.0000000  0.6508444  3
    871    870    873    875     1  0.0000000  0.6508444  3
    872    870    873    876     1  0.0000000  0.6508444  3
    872    870    873    874     1  0.0000000  0.6508444  3
    872    870    873    875     1  0.0000000  0.6508444  3
    874    873    870    898     1  0.0000000  1.0460000  1
    874    873    870    898     1  0.0000000  0.0000000  3
    874    873    876    879     1  0.0000000  0.6508444  3
    874    873    876    877     1  0.0000000  0.6508444  3
    874    873    876    878     1  0.0000000  0.6508444  3
    875    873    870    898     1  0.0000000  1.0460000  1
    875    873    870    898     1  0.0000000  0.0000000  3
    875    873    876    879     1  0.0000000  0.6508444  3
    875    873    876    877     1  0.0000000  0.6508444  3
    875    873    876    878     1  0.0000000  0.6508444  3
    876    879    880    881     1  0.0000000  1.2552000  3
    876    879    880    882     1  0.0000000  1.2552000  3
    876    879    889    890     1  0.0000000  1.2552000  3
    876    879    889    891     1  0.0000000  1.2552000  3
    877    876    879    880     1  0.0000000  1.2552000  3
    877    876    879    889     1  0.0000000  1.2552000  3
    878    876    879    880     1  0.0000000  1.2552000  3
    878    876    879    889     1  0.0000000  1.2552000  3
    879    880    883    884     1  0.0000000  0.6508444  3
    879    880    883    885     1  0.0000000  0.6508444  3
    879    889    892    893     1  0.0000000  0.6508444  3
    879    889    892    894     1  0.0000000  0.6508444  3
    880    879    889    890     1  0.0000000  1.2552000  3
    880    879    889    891     1  0.0000000  1.2552000  3
    881    880    879    889     1  0.0000000  1.2552000  3
    881    880    883    886     1  0.0000000  0.6508444  3
    881    880    883    884     1  0.0000000  0.6508444  3
    881    880    883    885     1  0.0000000  0.6508444  3
    882    880    879    889     1  0.0000000  1.2552000  3
    882    880    883    886     1  0.0000000  0.6508444  3
    882    880    883    884     1  0.0000000  0.6508444  3
    882    880    883    885     1  0.0000000  0.6508444  3
    884    883    886    887     1  0.0000000  3.3472000  1
    884    883    886    887     1  0.0000000  0.0000000  2
    884    883    886    887     1  180.0000771  0.3347200  3
    884    883    886    888     1  0.0000000  3.3472000  1
    884    883    886    888     1  0.0000000  0.0000000  2
    884    883    886    888     1  180.0000771  0.3347200  3
    885    883    886    887     1  0.0000000  3.3472000  1
    885    883    886    887     1  0.0000000  0.0000000  2
    885    883    886    887     1  180.0000771  0.3347200  3
    885    883    886    888     1  0.0000000  3.3472000  1
    885    883    886    888     1  0.0000000  0.0000000  2
    885    883    886    888     1  180.0000771  0.3347200  3
    890    889    892    895     1  0.0000000  0.6508444  3
    890    889    892    893     1  0.0000000  0.6508444  3
    890    889    892    894     1  0.0000000  0.6508444  3
    891    889    892    895     1  0.0000000  0.6508444  3
    891    889    892    893     1  0.0000000  0.6508444  3
    891    889    892    894     1  0.0000000  0.6508444  3
    893    892    895    896     1  0.0000000  3.3472000  1
    893    892    895    896     1  0.0000000  0.0000000  2
    893    892    895    896     1  180.0000771  0.3347200  3
    893    892    895    897     1  0.0000000  3.3472000  1
    893    892    895    897     1  0.0000000  0.0000000  2
    893    892    895    897     1  180.0000771  0.3347200  3
    894    892    895    896     1  0.0000000  3.3472000  1
    894    892    895    896     1  0.0000000  0.0000000  2
    894    892    895    896     1  180.0000771  0.3347200  3
    894    892    895    897     1  0.0000000  3.3472000  1
    894    892    895    897     1  0.0000000  0.0000000  2
    894    892    895    897     1  180.0000771  0.3347200  3
    899    902    905    906     1  0.0000000  0.6508444  3
    899    902    905    907     1  0.0000000  0.6508444  3
    900    899    902    905     1  0.0000000  0.6508444  3
    900    899    902    903     1  0.0000000  0.6508444  3
    900    899    902    904     1  0.0000000  0.6508444  3
    901    899    902    905     1  0.0000000  0.6508444  3
    901    899    902    903     1  0.0000000  0.6508444  3
    901    899    902    904     1  0.0000000  0.6508444  3
    903    902    905    908     1  0.0000000  0.6508444  3
    903    902    905    906     1  0.0000000  0.6508444  3
    903    902    905    907     1  0.0000000  0.6508444  3
    903    902    899    927     1  0.0000000  1.0460000  1
    903    902    899    927     1  0.0000000  0.0000000  3
    904    902    905    908     1  0.0000000  0.6508444  3
    904    902    905    906     1  0.0000000  0.6508444  3
    904    902    905    907     1  0.0000000  0.6508444  3
    904    902    899    927     1  0.0000000  1.0460000  1
    904    902    899    927     1  0.0000000  0.0000000  3
    905    908    909    910     1  0.0000000  1.2552000  3
    905    908    909    911     1  0.0000000  1.2552000  3
    905    908    918    919     1  0.0000000  1.2552000  3
    905    908    918    920     1  0.0000000  1.2552000  3
    906    905    908    909     1  0.0000000  1.2552000  3
    906    905    908    918     1  0.0000000  1.2552000  3
    907    905    908    909     1  0.0000000  1.2552000  3
    907    905    908    918     1  0.0000000  1.2552000  3
    908    909    912    913     1  0.0000000  0.6508444  3
    908    909    912    914     1  0.0000000  0.6508444  3
    908    918    921    922     1  0.0000000  0.6508444  3
    908    918    921    923     1  0.0000000  0.6508444  3
    909    908    918    919     1  0.0000000  1.2552000  3
    909    908    918    920     1  0.0000000  1.2552000  3
    910    909    912    915     1  0.0000000  0.6508444  3
    910    909    912    913     1  0.0000000  0.6508444  3
    910    909    912    914     1  0.0000000  0.6508444  3
    910    909    908    918     1  0.0000000  1.2552000  3
    911    909    912    915     1  0.0000000  0.6508444  3
    911    909    912    913     1  0.0000000  0.6508444  3
    911    909    912    914     1  0.0000000  0.6508444  3
    911    909    908    918     1  0.0000000  1.2552000  3
    913    912    915    916     1  0.0000000  3.3472000  1
    913    912    915    916     1  0.0000000  0.0000000  2
    913    912    915    916     1  180.0000771  0.3347200  3
    913    912    915    917     1  0.0000000  3.3472000  1
    913    912    915    917     1  0.0000000  0.0000000  2
    913    912    915    917     1  180.0000771  0.3347200  3
    914    912    915    916     1  0.0000000  3.3472000  1
    914    912    915    916     1  0.0000000  0.0000000  2
    914    912    915    916     1  180.0000771  0.3347200  3
    914    912    915    917     1  0.0000000  3.3472000  1
    914    912    915    917     1  0.0000000  0.0000000  2
    914    912    915    917     1  180.0000771  0.3347200  3
    919    918    921    924     1  0.0000000  0.6508444  3
    919    918    921    922     1  0.0000000  0.6508444  3
    919    918    921    923     1  0.0000000  0.6508444  3
    920    918    921    924     1  0.0000000  0.6508444  3
    920    918    921    922     1  0.0000000  0.6508444  3
    920    918    921    923     1  0.0000000  0.6508444  3
    922    921    924    925     1  0.0000000  3.3472000  1
    922    921    924    925     1  0.0000000  0.0000000  2
    922    921    924    925     1  180.0000771  0.3347200  3
    922    921    924    926     1  0.0000000  3.3472000  1
    922    921    924    926     1  0.0000000  0.0000000  2
    922    921    924    926     1  180.0000771  0.3347200  3
    923    921    924    925     1  0.0000000  3.3472000  1
    923    921    924    925     1  0.0000000  0.0000000  2
    923    921    924    925     1  180.0000771  0.3347200  3
    923    921    924    926     1  0.0000000  3.3472000  1
    923    921    924    926     1  0.0000000  0.0000000  2
    923    921    924    926     1  180.0000771  0.3347200  3
    928    931    934    935     1  0.0000000  0.6508444  3
    928    931    934    936     1  0.0000000  0.6508444  3
    929    928    931    934     1  0.0000000  0.6508444  3
    929    928    931    932     1  0.0000000  0.6508444  3
    929    928    931    933     1  0.0000000  0.6508444  3
    930    928    931    934     1  0.0000000  0.6508444  3
    930    928    931    932     1  0.0000000  0.6508444  3
    930    928    931    933     1  0.0000000  0.6508444  3
    932    931    928    956     1  0.0000000  1.0460000  1
    932    931    928    956     1  0.0000000  0.0000000  3
    932    931    934    937     1  0.0000000  0.6508444  3
    932    931    934    935     1  0.0000000  0.6508444  3
    932    931    934    936     1  0.0000000  0.6508444  3
    933    931    928    956     1  0.0000000  1.0460000  1
    933    931    928    956     1  0.0000000  0.0000000  3
    933    931    934    937     1  0.0000000  0.6508444  3
    933    931    934    935     1  0.0000000  0.6508444  3
    933    931    934    936     1  0.0000000  0.6508444  3
    934    937    938    939     1  0.0000000  1.2552000  3
    934    937    938    940     1  0.0000000  1.2552000  3
    934    937    947    948     1  0.0000000  1.2552000  3
    934    937    947    949     1  0.0000000  1.2552000  3
    935    934    937    938     1  0.0000000  1.2552000  3
    935    934    937    947     1  0.0000000  1.2552000  3
    936    934    937    938     1  0.0000000  1.2552000  3
    936    934    937    947     1  0.0000000  1.2552000  3
    937    938    941    942     1  0.0000000  0.6508444  3
    937    938    941    943     1  0.0000000  0.6508444  3
    937    947    950    951     1  0.0000000  0.6508444  3
    937    947    950    952     1  0.0000000  0.6508444  3
    938    937    947    948     1  0.0000000  1.2552000  3
    938    937    947    949     1  0.0000000  1.2552000  3
    939    938    937    947     1  0.0000000  1.2552000  3
    939    938    941    944     1  0.0000000  0.6508444  3
    939    938    941    942     1  0.0000000  0.6508444  3
    939    938    941    943     1  0.0000000  0.6508444  3
    940    938    937    947     1  0.0000000  1.2552000  3
    940    938    941    944     1  0.0000000  0.6508444  3
    940    938    941    942     1  0.0000000  0.6508444  3
    940    938    941    943     1  0.0000000  0.6508444  3
    942    941    944    945     1  0.0000000  3.3472000  1
    942    941    944    945     1  0.0000000  0.0000000  2
    942    941    944    945     1  180.0000771  0.3347200  3
    942    941    944    946     1  0.0000000  3.3472000  1
    942    941    944    946     1  0.0000000  0.0000000  2
    942    941    944    946     1  180.0000771  0.3347200  3
    943    941    944    945     1  0.0000000  3.3472000  1
    943    941    944    945     1  0.0000000  0.0000000  2
    943    941    944    945     1  180.0000771  0.3347200  3
    943    941    944    946     1  0.0000000  3.3472000  1
    943    941    944    946     1  0.0000000  0.0000000  2
    943    941    944    946     1  180.0000771  0.3347200  3
    948    947    950    953     1  0.0000000  0.6508444  3
    948    947    950    951     1  0.0000000  0.6508444  3
    948    947    950    952     1  0.0000000  0.6508444  3
    949    947    950    953     1  0.0000000  0.6508444  3
    949    947    950    951     1  0.0000000  0.6508444  3
    949    947    950    952     1  0.0000000  0.6508444  3
    951    950    953    954     1  0.0000000  3.3472000  1
    951    950    953    954     1  0.0000000  0.0000000  2
    951    950    953    954     1  180.0000771  0.3347200  3
    951    950    953    955     1  0.0000000  3.3472000  1
    951    950    953    955     1  0.0000000  0.0000000  2
    951    950    953    955     1  180.0000771  0.3347200  3
    952    950    953    954     1  0.0000000  3.3472000  1
    952    950    953    954     1  0.0000000  0.0000000  2
    952    950    953    954     1  180.0000771  0.3347200  3
    952    950    953    955     1  0.0000000  3.3472000  1
    952    950    953    955     1  0.0000000  0.0000000  2
    952    950    953    955     1  180.0000771  0.3347200  3
    957    960    963    964     1  0.0000000  0.6508444  3
    957    960    963    965     1  0.0000000  0.6508444  3
    958    957    960    963     1  0.0000000  0.6508444  3
    958    957    960    961     1  0.0000000  0.6508444  3
    958    957    960    962     1  0.0000000  0.6508444  3
    959    957    960    963     1  0.0000000  0.6508444  3
    959    957    960    961     1  0.0000000  0.6508444  3
    959    957    960    962     1  0.0000000  0.6508444  3
    961    960    963    966     1  0.0000000  0.6508444  3
    961    960    963    964     1  0.0000000  0.6508444  3
    961    960    963    965     1  0.0000000  0.6508444  3
    961    960    957    985     1  0.0000000  1.0460000  1
    961    960    957    985     1  0.0000000  0.0000000  3
    962    960    963    966     1  0.0000000  0.6508444  3
    962    960    963    964     1  0.0000000  0.6508444  3
    962    960    963    965     1  0.0000000  0.6508444  3
    962    960    957    985     1  0.0000000  1.0460000  1
    962    960    957    985     1  0.0000000  0.0000000  3
    963    966    967    968     1  0.0000000  1.2552000  3
    963    966    967    969     1  0.0000000  1.2552000  3
    963    966    976    977     1  0.0000000  1.2552000  3
    963    966    976    978     1  0.0000000  1.2552000  3
    964    963    966    967     1  0.0000000  1.2552000  3
    964    963    966    976     1  0.0000000  1.2552000  3
    965    963    966    967     1  0.0000000  1.2552000  3
    965    963    966    976     1  0.0000000  1.2552000  3
    966    967    970    971     1  0.0000000  0.6508444  3
    966    967    970    972     1  0.0000000  0.6508444  3
    966    976    979    980     1  0.0000000  0.6508444  3
    966    976    979    981     1  0.0000000  0.6508444  3
    967    966    976    977     1  0.0000000  1.2552000  3
    967    966    976    978     1  0.0000000  1.2552000  3
    968    967    970    973     1  0.0000000  0.6508444  3
    968    967    970    971     1  0.0000000  0.6508444  3
    968    967    970    972     1  0.0000000  0.6508444  3
    968    967    966    976     1  0.0000000  1.2552000  3
    969    967    970    973     1  0.0000000  0.6508444  3
    969    967    970    971     1  0.0000000  0.6508444  3
    969    967    970    972     1  0.0000000  0.6508444  3
    969    967    966    976     1  0.0000000  1.2552000  3
    971    970    973    974     1  0.0000000  3.3472000  1
    971    970    973    974     1  0.0000000  0.0000000  2
    971    970    973    974     1  180.0000771  0.3347200  3
    971    970    973    975     1  0.0000000  3.3472000  1
    971    970    973    975     1  0.0000000  0.0000000  2
    971    970    973    975     1  180.0000771  0.3347200  3
    972    970    973    974     1  0.0000000  3.3472000  1
    972    970    973    974     1  0.0000000  0.0000000  2
    972    970    973    974     1  180.0000771  0.3347200  3
    972    970    973    975     1  0.0000000  3.3472000  1
    972    970    973    975     1  0.0000000  0.0000000  2
    972    970    973    975     1  180.0000771  0.3347200  3
    977    976    979    982     1  0.0000000  0.6508444  3
    977    976    979    980     1  0.0000000  0.6508444  3
    977    976    979    981     1  0.0000000  0.6508444  3
    978    976    979    982     1  0.0000000  0.6508444  3
    978    976    979    980     1  0.0000000  0.6508444  3
    978    976    979    981     1  0.0000000  0.6508444  3
    980    979    982    983     1  0.0000000  3.3472000  1
    980    979    982    983     1  0.0000000  0.0000000  2
    980    979    982    983     1  180.0000771  0.3347200  3
    980    979    982    984     1  0.0000000  3.3472000  1
    980    979    982    984     1  0.0000000  0.0000000  2
    980    979    982    984     1  180.0000771  0.3347200  3
    981    979    982    983     1  0.0000000  3.3472000  1
    981    979    982    983     1  0.0000000  0.0000000  2
    981    979    982    983     1  180.0000771  0.3347200  3
    981    979    982    984     1  0.0000000  3.3472000  1
    981    979    982    984     1  0.0000000  0.0000000  2
    981    979    982    984     1  180.0000771  0.3347200  3
    986    989    992    993     1  0.0000000  0.6508444  3
    986    989    992    994     1  0.0000000  0.6508444  3
    987    986    989    992     1  0.0000000  0.6508444  3
    987    986    989    990     1  0.0000000  0.6508444  3
    987    986    989    991     1  0.0000000  0.6508444  3
    988    986    989    992     1  0.0000000  0.6508444  3
    988    986    989    990     1  0.0000000  0.6508444  3
    988    986    989    991     1  0.0000000  0.6508444  3
    990    989    986   1014     1  0.0000000  1.0460000  1
    990    989    986   1014     1  0.0000000  0.0000000  3
    990    989    992    995     1  0.0000000  0.6508444  3
    990    989    992    993     1  0.0000000  0.6508444  3
    990    989    992    994     1  0.0000000  0.6508444  3
    991    989    986   1014     1  0.0000000  1.0460000  1
    991    989    986   1014     1  0.0000000  0.0000000  3
    991    989    992    995     1  0.0000000  0.6508444  3
    991    989    992    993     1  0.0000000  0.6508444  3
    991    989    992    994     1  0.0000000  0.6508444  3
    992    995    996    997     1  0.0000000  1.2552000  3
    992    995    996    998     1  0.0000000  1.2552000  3
    992    995   1005   1006     1  0.0000000  1.2552000  3
    992    995   1005   1007     1  0.0000000  1.2552000  3
    993    992    995    996     1  0.0000000  1.2552000  3
    993    992    995   1005     1  0.0000000  1.2552000  3
    994    992    995    996     1  0.0000000  1.2552000  3
    994    992    995   1005     1  0.0000000  1.2552000  3
    995    996    999   1000     1  0.0000000  0.6508444  3
    995    996    999   1001     1  0.0000000  0.6508444  3
    995   1005   1008   1009     1  0.0000000  0.6508444  3
    995   1005   1008   1010     1  0.0000000  0.6508444  3
    996    995   1005   1006     1  0.0000000  1.2552000  3
    996    995   1005   1007     1  0.0000000  1.2552000  3
    997    996    995   1005     1  0.0000000  1.2552000  3
    997    996    999   1002     1  0.0000000  0.6508444  3
    997    996    999   1000     1  0.0000000  0.6508444  3
    997    996    999   1001     1  0.0000000  0.6508444  3
    998    996    995   1005     1  0.0000000  1.2552000  3
    998    996    999   1002     1  0.0000000  0.6508444  3
    998    996    999   1000     1  0.0000000  0.6508444  3
    998    996    999   1001     1  0.0000000  0.6508444  3
   1000    999   1002   1003     1  0.0000000  3.3472000  1
   1000    999   1002   1003     1  0.0000000  0.0000000  2
   1000    999   1002   1003     1  180.0000771  0.3347200  3
   1000    999   1002   1004     1  0.0000000  3.3472000  1
   1000    999   1002   1004     1  0.0000000  0.0000000  2
   1000    999   1002   1004     1  180.0000771  0.3347200  3
   1001    999   1002   1003     1  0.0000000  3.3472000  1
   1001    999   1002   1003     1  0.0000000  0.0000000  2
   1001    999   1002   1003     1  180.0000771  0.3347200  3
   1001    999   1002   1004     1  0.0000000  3.3472000  1
   1001    999   1002   1004     1  0.0000000  0.0000000  2
   1001    999   1002   1004     1  180.0000771  0.3347200  3
   1006   1005   1008   1011     1  0.0000000  0.6508444  3
   1006   1005   1008   1009     1  0.0000000  0.6508444  3
   1006   1005   1008   1010     1  0.0000000  0.6508444  3
   1007   1005   1008   1011     1  0.0000000  0.6508444  3
   1007   1005   1008   1009     1  0.0000000  0.6508444  3
   1007   1005   1008   1010     1  0.0000000  0.6508444  3
   1009   1008   1011   1012     1  0.0000000  3.3472000  1
   1009   1008   1011   1012     1  0.0000000  0.0000000  2
   1009   1008   1011   1012     1  180.0000771  0.3347200  3
   1009   1008   1011   1013     1  0.0000000  3.3472000  1
   1009   1008   1011   1013     1  0.0000000  0.0000000  2
   1009   1008   1011   1013     1  180.0000771  0.3347200  3
   1010   1008   1011   1012     1  0.0000000  3.3472000  1
   1010   1008   1011   1012     1  0.0000000  0.0000000  2
   1010   1008   1011   1012     1  180.0000771  0.3347200  3
   1010   1008   1011   1013     1  0.0000000  3.3472000  1
   1010   1008   1011   1013     1  0.0000000  0.0000000  2
   1010   1008   1011   1013     1  180.0000771  0.3347200  3
   1015   1018   1021   1022     1  0.0000000  0.6508444  3
   1015   1018   1021   1023     1  0.0000000  0.6508444  3
   1016   1015   1018   1021     1  0.0000000  0.6508444  3
   1016   1015   1018   1019     1  0.0000000  0.6508444  3
   1016   1015   1018   1020     1  0.0000000  0.6508444  3
   1017   1015   1018   1021     1  0.0000000  0.6508444  3
   1017   1015   1018   1019     1  0.0000000  0.6508444  3
   1017   1015   1018   1020     1  0.0000000  0.6508444  3
   1019   1018   1021   1024     1  0.0000000  0.6508444  3
   1019   1018   1021   1022     1  0.0000000  0.6508444  3
   1019   1018   1021   1023     1  0.0000000  0.6508444  3
   1019   1018   1015   1043     1  0.0000000  1.0460000  1
   1019   1018   1015   1043     1  0.0000000  0.0000000  3
   1020   1018   1021   1024     1  0.0000000  0.6508444  3
   1020   1018   1021   1022     1  0.0000000  0.6508444  3
   1020   1018   1021   1023     1  0.0000000  0.6508444  3
   1020   1018   1015   1043     1  0.0000000  1.0460000  1
   1020   1018   1015   1043     1  0.0000000  0.0000000  3
   1021   1024   1025   1026     1  0.0000000  1.2552000  3
   1021   1024   1025   1027     1  0.0000000  1.2552000  3
   1021   1024   1034   1035     1  0.0000000  1.2552000  3
   1021   1024   1034   1036     1  0.0000000  1.2552000  3
   1022   1021   1024   1025     1  0.0000000  1.2552000  3
   1022   1021   1024   1034     1  0.0000000  1.2552000  3
   1023   1021   1024   1025     1  0.0000000  1.2552000  3
   1023   1021   1024   1034     1  0.0000000  1.2552000  3
   1024   1025   1028   1029     1  0.0000000  0.6508444  3
   1024   1025   1028   1030     1  0.0000000  0.6508444  3
   1024   1034   1037   1038     1  0.0000000  0.6508444  3
   1024   1034   1037   1039     1  0.0000000  0.6508444  3
   1025   1024   1034   1035     1  0.0000000  1.2552000  3
   1025   1024   1034   1036     1  0.0000000  1.2552000  3
   1026   1025   1028   1031     1  0.0000000  0.6508444  3
   1026   1025   1028   1029     1  0.0000000  0.6508444  3
   1026   1025   1028   1030     1  0.0000000  0.6508444  3
   1026   1025   1024   1034     1  0.0000000  1.2552000  3
   1027   1025   1028   1031     1  0.0000000  0.6508444  3
   1027   1025   1028   1029     1  0.0000000  0.6508444  3
   1027   1025   1028   1030     1  0.0000000  0.6508444  3
   1027   1025   1024   1034     1  0.0000000  1.2552000  3
   1029   1028   1031   1032     1  0.0000000  3.3472000  1
   1029   1028   1031   1032     1  0.0000000  0.0000000  2
   1029   1028   1031   1032     1  180.0000771  0.3347200  3
   1029   1028   1031   1033     1  0.0000000  3.3472000  1
   1029   1028   1031   1033     1  0.0000000  0.0000000  2
   1029   1028   1031   1033     1  180.0000771  0.3347200  3
   1030   1028   1031   1032     1  0.0000000  3.3472000  1
   1030   1028   1031   1032     1  0.0000000  0.0000000  2
   1030   1028   1031   1032     1  180.0000771  0.3347200  3
   1030   1028   1031   1033     1  0.0000000  3.3472000  1
   1030   1028   1031   1033     1  0.0000000  0.0000000  2
   1030   1028   1031   1033     1  180.0000771  0.3347200  3
   1035   1034   1037   1040     1  0.0000000  0.6508444  3
   1035   1034   1037   1038     1  0.0000000  0.6508444  3
   1035   1034   1037   1039     1  0.0000000  0.6508444  3
   1036   1034   1037   1040     1  0.0000000  0.6508444  3
   1036   1034   1037   1038     1  0.0000000  0.6508444  3
   1036   1034   1037   1039     1  0.0000000  0.6508444  3
   1038   1037   1040   1041     1  0.0000000  3.3472000  1
   1038   1037   1040   1041     1  0.0000000  0.0000000  2
   1038   1037   1040   1041     1  180.0000771  0.3347200  3
   1038   1037   1040   1042     1  0.0000000  3.3472000  1
   1038   1037   1040   1042     1  0.0000000  0.0000000  2
   1038   1037   1040   1042     1  180.0000771  0.3347200  3
   1039   1037   1040   1041     1  0.0000000  3.3472000  1
   1039   1037   1040   1041     1  0.0000000  0.0000000  2
   1039   1037   1040   1041     1  180.0000771  0.3347200  3
   1039   1037   1040   1042     1  0.0000000  3.3472000  1
   1039   1037   1040   1042     1  0.0000000  0.0000000  2
   1039   1037   1040   1042     1  180.0000771  0.3347200  3
   1044   1047   1050   1051     1  0.0000000  0.6508444  3
   1044   1047   1050   1052     1  0.0000000  0.6508444  3
   1045   1044   1047   1050     1  0.0000000  0.6508444  3
   1045   1044   1047   1048     1  0.0000000  0.6508444  3
   1045   1044   1047   1049     1  0.0000000  0.6508444  3
   1046   1044   1047   1050     1  0.0000000  0.6508444  3
   1046   1044   1047   1048     1  0.0000000  0.6508444  3
   1046   1044   1047   1049     1  0.0000000  0.6508444  3
   1048   1047   1044   1072     1  0.0000000  1.0460000  1
   1048   1047   1044   1072     1  0.0000000  0.0000000  3
   1048   1047   1050   1053     1  0.0000000  0.6508444  3
   1048   1047   1050   1051     1  0.0000000  0.6508444  3
   1048   1047   1050   1052     1  0.0000000  0.6508444  3
   1049   1047   1044   1072     1  0.0000000  1.0460000  1
   1049   1047   1044   1072     1  0.0000000  0.0000000  3
   1049   1047   1050   1053     1  0.0000000  0.6508444  3
   1049   1047   1050   1051     1  0.0000000  0.6508444  3
   1049   1047   1050   1052     1  0.0000000  0.6508444  3
   1050   1053   1054   1055     1  0.0000000  1.2552000  3
   1050   1053   1054   1056     1  0.0000000  1.2552000  3
   1050   1053   1063   1064     1  0.0000000  1.2552000  3
   1050   1053   1063   1065     1  0.0000000  1.2552000  3
   1051   1050   1053   1054     1  0.0000000  1.2552000  3
   1051   1050   1053   1063     1  0.0000000  1.2552000  3
   1052   1050   1053   1054     1  0.0000000  1.2552000  3
   1052   1050   1053   1063     1  0.0000000  1.2552000  3
   1053   1054   1057   1058     1  0.0000000  0.6508444  3
   1053   1054   1057   1059     1  0.0000000  0.6508444  3
   1053   1063   1066   1067     1  0.0000000  0.6508444  3
   1053   1063   1066   1068     1  0.0000000  0.6508444  3
   1054   1053   1063   1064     1  0.0000000  1.2552000  3
   1054   1053   1063   1065     1  0.0000000  1.2552000  3
   1055   1054   1053   1063     1  0.0000000  1.2552000  3
   1055   1054   1057   1060     1  0.0000000  0.6508444  3
   1055   1054   1057   1058     1  0.0000000  0.6508444  3
   1055   1054   1057   1059     1  0.0000000  0.6508444  3
   1056   1054   1053   1063     1  0.0000000  1.2552000  3
   1056   1054   1057   1060     1  0.0000000  0.6508444  3
   1056   1054   1057   1058     1  0.0000000  0.6508444  3
   1056   1054   1057   1059     1  0.0000000  0.6508444  3
   1058   1057   1060   1061     1  0.0000000  3.3472000  1
   1058   1057   1060   1061     1  0.0000000  0.0000000  2
   1058   1057   1060   1061     1  180.0000771  0.3347200  3
   1058   1057   1060   1062     1  0.0000000  3.3472000  1
   1058   1057   1060   1062     1  0.0000000  0.0000000  2
   1058   1057   1060   1062     1  180.0000771  0.3347200  3
   1059   1057   1060   1061     1  0.0000000  3.3472000  1
   1059   1057   1060   1061     1  0.0000000  0.0000000  2
   1059   1057   1060   1061     1  180.0000771  0.3347200  3
   1059   1057   1060   1062     1  0.0000000  3.3472000  1
   1059   1057   1060   1062     1  0.0000000  0.0000000  2
   1059   1057   1060   1062     1  180.0000771  0.3347200  3
   1064   1063   1066   1069     1  0.0000000  0.6508444  3
   1064   1063   1066   1067     1  0.0000000  0.6508444  3
   1064   1063   1066   1068     1  0.0000000  0.6508444  3
   1065   1063   1066   1069     1  0.0000000  0.6508444  3
   1065   1063   1066   1067     1  0.0000000  0.6508444  3
   1065   1063   1066   1068     1  0.0000000  0.6508444  3
   1067   1066   1069   1070     1  0.0000000  3.3472000  1
   1067   1066   1069   1070     1  0.0000000  0.0000000  2
   1067   1066   1069   1070     1  180.0000771  0.3347200  3
   1067   1066   1069   1071     1  0.0000000  3.3472000  1
   1067   1066   1069   1071     1  0.0000000  0.0000000  2
   1067   1066   1069   1071     1  180.0000771  0.3347200  3
   1068   1066   1069   1070     1  0.0000000  3.3472000  1
   1068   1066   1069   1070     1  0.0000000  0.0000000  2
   1068   1066   1069   1070     1  180.0000771  0.3347200  3
   1068   1066   1069   1071     1  0.0000000  3.3472000  1
   1068   1066   1069   1071     1  0.0000000  0.0000000  2
   1068   1066   1069   1071     1  180.0000771  0.3347200  3
   1073   1076   1079   1080     1  0.0000000  0.6508444  3
   1073   1076   1079   1081     1  0.0000000  0.6508444  3
   1074   1073   1076   1079     1  0.0000000  0.6508444  3
   1074   1073   1076   1077     1  0.0000000  0.6508444  3
   1074   1073   1076   1078     1  0.0000000  0.6508444  3
   1075   1073   1076   1079     1  0.0000000  0.6508444  3
   1075   1073   1076   1077     1  0.0000000  0.6508444  3
   1075   1073   1076   1078     1  0.0000000  0.6508444  3
   1077   1076   1079   1082     1  0.0000000  0.6508444  3
   1077   1076   1079   1080     1  0.0000000  0.6508444  3
   1077   1076   1079   1081     1  0.0000000  0.6508444  3
   1077   1076   1073   1101     1  0.0000000  1.0460000  1
   1077   1076   1073   1101     1  0.0000000  0.0000000  3
   1078   1076   1079   1082     1  0.0000000  0.6508444  3
   1078   1076   1079   1080     1  0.0000000  0.6508444  3
   1078   1076   1079   1081     1  0.0000000  0.6508444  3
   1078   1076   1073   1101     1  0.0000000  1.0460000  1
   1078   1076   1073   1101     1  0.0000000  0.0000000  3
   1079   1082   1083   1084     1  0.0000000  1.2552000  3
   1079   1082   1083   1085     1  0.0000000  1.2552000  3
   1079   1082   1092   1093     1  0.0000000  1.2552000  3
   1079   1082   1092   1094     1  0.0000000  1.2552000  3
   1080   1079   1082   1083     1  0.0000000  1.2552000  3
   1080   1079   1082   1092     1  0.0000000  1.2552000  3
   1081   1079   1082   1083     1  0.0000000  1.2552000  3
   1081   1079   1082   1092     1  0.0000000  1.2552000  3
   1082   1083   1086   1087     1  0.0000000  0.6508444  3
   1082   1083   1086   1088     1  0.0000000  0.6508444  3
   1082   1092   1095   1096     1  0.0000000  0.6508444  3
   1082   1092   1095   1097     1  0.0000000  0.6508444  3
   1083   1082   1092   1093     1  0.0000000  1.2552000  3
   1083   1082   1092   1094     1  0.0000000  1.2552000  3
   1084   1083   1086   1089     1  0.0000000  0.6508444  3
   1084   1083   1086   1087     1  0.0000000  0.6508444  3
   1084   1083   1086   1088     1  0.0000000  0.6508444  3
   1084   1083   1082   1092     1  0.0000000  1.2552000  3
   1085   1083   1086   1089     1  0.0000000  0.6508444  3
   1085   1083   1086   1087     1  0.0000000  0.6508444  3
   1085   1083   1086   1088     1  0.0000000  0.6508444  3
   1085   1083   1082   1092     1  0.0000000  1.2552000  3
   1087   1086   1089   1090     1  0.0000000  3.3472000  1
   1087   1086   1089   1090     1  0.0000000  0.0000000  2
   1087   1086   1089   1090     1  180.0000771  0.3347200  3
   1087   1086   1089   1091     1  0.0000000  3.3472000  1
   1087   1086   1089   1091     1  0.0000000  0.0000000  2
   1087   1086   1089   1091     1  180.0000771  0.3347200  3
   1088   1086   1089   1090     1  0.0000000  3.3472000  1
   1088   1086   1089   1090     1  0.0000000  0.0000000  2
   1088   1086   1089   1090     1  180.0000771  0.3347200  3
   1088   1086   1089   1091     1  0.0000000  3.3472000  1
   1088   1086   1089   1091     1  0.0000000  0.0000000  2
   1088   1086   1089   1091     1  180.0000771  0.3347200  3
   1093   1092   1095   1098     1  0.0000000  0.6508444  3
   1093   1092   1095   1096     1  0.0000000  0.6508444  3
   1093   1092   1095   1097     1  0.0000000  0.6508444  3
   1094   1092   1095   1098     1  0.0000000  0.6508444  3
   1094   1092   1095   1096     1  0.0000000  0.6508444  3
   1094   1092   1095   1097     1  0.0000000  0.6508444  3
   1096   1095   1098   1099     1  0.0000000  3.3472000  1
   1096   1095   1098   1099     1  0.0000000  0.0000000  2
   1096   1095   1098   1099     1  180.0000771  0.3347200  3
   1096   1095   1098   1100     1  0.0000000  3.3472000  1
   1096   1095   1098   1100     1  0.0000000  0.0000000  2
   1096   1095   1098   1100     1  180.0000771  0.3347200  3
   1097   1095   1098   1099     1  0.0000000  3.3472000  1
   1097   1095   1098   1099     1  0.0000000  0.0000000  2
   1097   1095   1098   1099     1  180.0000771  0.3347200  3
   1097   1095   1098   1100     1  0.0000000  3.3472000  1
   1097   1095   1098   1100     1  0.0000000  0.0000000  2
   1097   1095   1098   1100     1  180.0000771  0.3347200  3
   1102   1105   1108   1109     1  0.0000000  0.6508444  3
   1102   1105   1108   1110     1  0.0000000  0.6508444  3
   1103   1102   1105   1108     1  0.0000000  0.6508444  3
   1103   1102   1105   1106     1  0.0000000  0.6508444  3
   1103   1102   1105   1107     1  0.0000000  0.6508444  3
   1104   1102   1105   1108     1  0.0000000  0.6508444  3
   1104   1102   1105   1106     1  0.0000000  0.6508444  3
   1104   1102   1105   1107     1  0.0000000  0.6508444  3
   1106   1105   1102   1130     1  0.0000000  1.0460000  1
   1106   1105   1102   1130     1  0.0000000  0.0000000  3
   1106   1105   1108   1111     1  0.0000000  0.6508444  3
   1106   1105   1108   1109     1  0.0000000  0.6508444  3
   1106   1105   1108   1110     1  0.0000000  0.6508444  3
   1107   1105   1102   1130     1  0.0000000  1.0460000  1
   1107   1105   1102   1130     1  0.0000000  0.0000000  3
   1107   1105   1108   1111     1  0.0000000  0.6508444  3
   1107   1105   1108   1109     1  0.0000000  0.6508444  3
   1107   1105   1108   1110     1  0.0000000  0.6508444  3
   1108   1111   1112   1113     1  0.0000000  1.2552000  3
   1108   1111   1112   1114     1  0.0000000  1.2552000  3
   1108   1111   1121   1122     1  0.0000000  1.2552000  3
   1108   1111   1121   1123     1  0.0000000  1.2552000  3
   1109   1108   1111   1112     1  0.0000000  1.2552000  3
   1109   1108   1111   1121     1  0.0000000  1.2552000  3
   1110   1108   1111   1112     1  0.0000000  1.2552000  3
   1110   1108   1111   1121     1  0.0000000  1.2552000  3
   1111   1112   1115   1116     1  0.0000000  0.6508444  3
   1111   1112   1115   1117     1  0.0000000  0.6508444  3
   1111   1121   1124   1125     1  0.0000000  0.6508444  3
   1111   1121   1124   1126     1  0.0000000  0.6508444  3
   1112   1111   1121   1122     1  0.0000000  1.2552000  3
   1112   1111   1121   1123     1  0.0000000  1.2552000  3
   1113   1112   1111   1121     1  0.0000000  1.2552000  3
   1113   1112   1115   1118     1  0.0000000  0.6508444  3
   1113   1112   1115   1116     1  0.0000000  0.6508444  3
   1113   1112   1115   1117     1  0.0000000  0.6508444  3
   1114   1112   1111   1121     1  0.0000000  1.2552000  3
   1114   1112   1115   1118     1  0.0000000  0.6508444  3
   1114   1112   1115   1116     1  0.0000000  0.6508444  3
   1114   1112   1115   1117     1  0.0000000  0.6508444  3
   1116   1115   1118   1119     1  0.0000000  3.3472000  1
   1116   1115   1118   1119     1  0.0000000  0.0000000  2
   1116   1115   1118   1119     1  180.0000771  0.3347200  3
   1116   1115   1118   1120     1  0.0000000  3.3472000  1
   1116   1115   1118   1120     1  0.0000000  0.0000000  2
   1116   1115   1118   1120     1  180.0000771  0.3347200  3
   1117   1115   1118   1119     1  0.0000000  3.3472000  1
   1117   1115   1118   1119     1  0.0000000  0.0000000  2
   1117   1115   1118   1119     1  180.0000771  0.3347200  3
   1117   1115   1118   1120     1  0.0000000  3.3472000  1
   1117   1115   1118   1120     1  0.0000000  0.0000000  2
   1117   1115   1118   1120     1  180.0000771  0.3347200  3
   1122   1121   1124   1127     1  0.0000000  0.6508444  3
   1122   1121   1124   1125     1  0.0000000  0.6508444  3
   1122   1121   1124   1126     1  0.0000000  0.6508444  3
   1123   1121   1124   1127     1  0.0000000  0.6508444  3
   1123   1121   1124   1125     1  0.0000000  0.6508444  3
   1123   1121   1124   1126     1  0.0000000  0.6508444  3
   1125   1124   1127   1128     1  0.0000000  3.3472000  1
   1125   1124   1127   1128     1  0.0000000  0.0000000  2
   1125   1124   1127   1128     1  180.0000771  0.3347200  3
   1125   1124   1127   1129     1  0.0000000  3.3472000  1
   1125   1124   1127   1129     1  0.0000000  0.0000000  2
   1125   1124   1127   1129     1  180.0000771  0.3347200  3
   1126   1124   1127   1128     1  0.0000000  3.3472000  1
   1126   1124   1127   1128     1  0.0000000  0.0000000  2
   1126   1124   1127   1128     1  180.0000771  0.3347200  3
   1126   1124   1127   1129     1  0.0000000  3.3472000  1
   1126   1124   1127   1129     1  0.0000000  0.0000000  2
   1126   1124   1127   1129     1  180.0000771  0.3347200  3
   1131   1134   1137   1138     1  0.0000000  0.6508444  3
   1131   1134   1137   1139     1  0.0000000  0.6508444  3
   1132   1131   1134   1137     1  0.0000000  0.6508444  3
   1132   1131   1134   1135     1  0.0000000  0.6508444  3
   1132   1131   1134   1136     1  0.0000000  0.6508444  3
   1133   1131   1134   1137     1  0.0000000  0.6508444  3
   1133   1131   1134   1135     1  0.0000000  0.6508444  3
   1133   1131   1134   1136     1  0.0000000  0.6508444  3
   1135   1134   1137   1140     1  0.0000000  0.6508444  3
   1135   1134   1137   1138     1  0.0000000  0.6508444  3
   1135   1134   1137   1139     1  0.0000000  0.6508444  3
   1135   1134   1131   1159     1  0.0000000  1.0460000  1
   1135   1134   1131   1159     1  0.0000000  0.0000000  3
   1136   1134   1137   1140     1  0.0000000  0.6508444  3
   1136   1134   1137   1138     1  0.0000000  0.6508444  3
   1136   1134   1137   1139     1  0.0000000  0.6508444  3
   1136   1134   1131   1159     1  0.0000000  1.0460000  1
   1136   1134   1131   1159     1  0.0000000  0.0000000  3
   1137   1140   1141   1142     1  0.0000000  1.2552000  3
   1137   1140   1141   1143     1  0.0000000  1.2552000  3
   1137   1140   1150   1151     1  0.0000000  1.2552000  3
   1137   1140   1150   1152     1  0.0000000  1.2552000  3
   1138   1137   1140   1141     1  0.0000000  1.2552000  3
   1138   1137   1140   1150     1  0.0000000  1.2552000  3
   1139   1137   1140   1141     1  0.0000000  1.2552000  3
   1139   1137   1140   1150     1  0.0000000  1.2552000  3
   1140   1141   1144   1145     1  0.0000000  0.6508444  3
   1140   1141   1144   1146     1  0.0000000  0.6508444  3
   1140   1150   1153   1154     1  0.0000000  0.6508444  3
   1140   1150   1153   1155     1  0.0000000  0.6508444  3
   1141   1140   1150   1151     1  0.0000000  1.2552000  3
   1141   1140   1150   1152     1  0.0000000  1.2552000  3
   1142   1141   1144   1147     1  0.0000000  0.6508444  3
   1142   1141   1144   1145     1  0.0000000  0.6508444  3
   1142   1141   1144   1146     1  0.0000000  0.6508444  3
   1142   1141   1140   1150     1  0.0000000  1.2552000  3
   1143   1141   1144   1147     1  0.0000000  0.6508444  3
   1143   1141   1144   1145     1  0.0000000  0.6508444  3
   1143   1141   1144   1146     1  0.0000000  0.6508444  3
   1143   1141   1140   1150     1  0.0000000  1.2552000  3
   1145   1144   1147   1148     1  0.0000000  3.3472000  1
   1145   1144   1147   1148     1  0.0000000  0.0000000  2
   1145   1144   1147   1148     1  180.0000771  0.3347200  3
   1145   1144   1147   1149     1  0.0000000  3.3472000  1
   1145   1144   1147   1149     1  0.0000000  0.0000000  2
   1145   1144   1147   1149     1  180.0000771  0.3347200  3
   1146   1144   1147   1148     1  0.0000000  3.3472000  1
   1146   1144   1147   1148     1  0.0000000  0.0000000  2
   1146   1144   1147   1148     1  180.0000771  0.3347200  3
   1146   1144   1147   1149     1  0.0000000  3.3472000  1
   1146   1144   1147   1149     1  0.0000000  0.0000000  2
   1146   1144   1147   1149     1  180.0000771  0.3347200  3
   1151   1150   1153   1156     1  0.0000000  0.6508444  3
   1151   1150   1153   1154     1  0.0000000  0.6508444  3
   1151   1150   1153   1155     1  0.0000000  0.6508444  3
   1152   1150   1153   1156     1  0.0000000  0.6508444  3
   1152   1150   1153   1154     1  0.0000000  0.6508444  3
   1152   1150   1153   1155     1  0.0000000  0.6508444  3
   1154   1153   1156   1157     1  0.0000000  3.3472000  1
   1154   1153   1156   1157     1  0.0000000  0.0000000  2
   1154   1153   1156   1157     1  180.0000771  0.3347200  3
   1154   1153   1156   1158     1  0.0000000  3.3472000  1
   1154   1153   1156   1158     1  0.0000000  0.0000000  2
   1154   1153   1156   1158     1  180.0000771  0.3347200  3
   1155   1153   1156   1157     1  0.0000000  3.3472000  1
   1155   1153   1156   1157     1  0.0000000  0.0000000  2
   1155   1153   1156   1157     1  180.0000771  0.3347200  3
   1155   1153   1156   1158     1  0.0000000  3.3472000  1
   1155   1153   1156   1158     1  0.0000000  0.0000000  2
   1155   1153   1156   1158     1  180.0000771  0.3347200  3
   1160   1163   1166   1167     1  0.0000000  0.6508444  3
   1160   1163   1166   1168     1  0.0000000  0.6508444  3
   1161   1160   1163   1166     1  0.0000000  0.6508444  3
   1161   1160   1163   1164     1  0.0000000  0.6508444  3
   1161   1160   1163   1165     1  0.0000000  0.6508444  3
   1162   1160   1163   1166     1  0.0000000  0.6508444  3
   1162   1160   1163   1164     1  0.0000000  0.6508444  3
   1162   1160   1163   1165     1  0.0000000  0.6508444  3
   1164   1163   1160   1188     1  0.0000000  1.0460000  1
   1164   1163   1160   1188     1  0.0000000  0.0000000  3
   1164   1163   1166   1169     1  0.0000000  0.6508444  3
   1164   1163   1166   1167     1  0.0000000  0.6508444  3
   1164   1163   1166   1168     1  0.0000000  0.6508444  3
   1165   1163   1160   1188     1  0.0000000  1.0460000  1
   1165   1163   1160   1188     1  0.0000000  0.0000000  3
   1165   1163   1166   1169     1  0.0000000  0.6508444  3
   1165   1163   1166   1167     1  0.0000000  0.6508444  3
   1165   1163   1166   1168     1  0.0000000  0.6508444  3
   1166   1169   1170   1171     1  0.0000000  1.2552000  3
   1166   1169   1170   1172     1  0.0000000  1.2552000  3
   1166   1169   1179   1180     1  0.0000000  1.2552000  3
   1166   1169   1179   1181     1  0.0000000  1.2552000  3
   1167   1166   1169   1170     1  0.0000000  1.2552000  3
   1167   1166   1169   1179     1  0.0000000  1.2552000  3
   1168   1166   1169   1170     1  0.0000000  1.2552000  3
   1168   1166   1169   1179     1  0.0000000  1.2552000  3
   1169   1170   1173   1174     1  0.0000000  0.6508444  3
   1169   1170   1173   1175     1  0.0000000  0.6508444  3
   1169   1179   1182   1183     1  0.0000000  0.6508444  3
   1169   1179   1182   1184     1  0.0000000  0.6508444  3
   1170   1169   1179   1180     1  0.0000000  1.2552000  3
   1170   1169   1179   1181     1  0.0000000  1.2552000  3
   1171   1170   1169   1179     1  0.0000000  1.2552000  3
   1171   1170   1173   1176     1  0.0000000  0.6508444  3
   1171   1170   1173   1174     1  0.0000000  0.6508444  3
   1171   1170   1173   1175     1  0.0000000  0.6508444  3
   1172   1170   1169   1179     1  0.0000000  1.2552000  3
   1172   1170   1173   1176     1  0.0000000  0.6508444  3
   1172   1170   1173   1174     1  0.0000000  0.6508444  3
   1172   1170   1173   1175     1  0.0000000  0.6508444  3
   1174   1173   1176   1177     1  0.0000000  3.3472000  1
   1174   1173   1176   1177     1  0.0000000  0.0000000  2
   1174   1173   1176   1177     1  180.0000771  0.3347200  3
   1174   1173   1176   1178     1  0.0000000  3.3472000  1
   1174   1173   1176   1178     1  0.0000000  0.0000000  2
   1174   1173   1176   1178     1  180.0000771  0.3347200  3
   1175   1173   1176   1177     1  0.0000000  3.3472000  1
   1175   1173   1176   1177     1  0.0000000  0.0000000  2
   1175   1173   1176   1177     1  180.0000771  0.3347200  3
   1175   1173   1176   1178     1  0.0000000  3.3472000  1
   1175   1173   1176   1178     1  0.0000000  0.0000000  2
   1175   1173   1176   1178     1  180.0000771  0.3347200  3
   1180   1179   1182   1185     1  0.0000000  0.6508444  3
   1180   1179   1182   1183     1  0.0000000  0.6508444  3
   1180   1179   1182   1184     1  0.0000000  0.6508444  3
   1181   1179   1182   1185     1  0.0000000  0.6508444  3
   1181   1179   1182   1183     1  0.0000000  0.6508444  3
   1181   1179   1182   1184     1  0.0000000  0.6508444  3
   1183   1182   1185   1186     1  0.0000000  3.3472000  1
   1183   1182   1185   1186     1  0.0000000  0.0000000  2
   1183   1182   1185   1186     1  180.0000771  0.3347200  3
   1183   1182   1185   1187     1  0.0000000  3.3472000  1
   1183   1182   1185   1187     1  0.0000000  0.0000000  2
   1183   1182   1185   1187     1  180.0000771  0.3347200  3
   1184   1182   1185   1186     1  0.0000000  3.3472000  1
   1184   1182   1185   1186     1  0.0000000  0.0000000  2
   1184   1182   1185   1186     1  180.0000771  0.3347200  3
   1184   1182   1185   1187     1  0.0000000  3.3472000  1
   1184   1182   1185   1187     1  0.0000000  0.0000000  2
   1184   1182   1185   1187     1  180.0000771  0.3347200  3
   1189   1192   1195   1196     1  0.0000000  0.6508444  3
   1189   1192   1195   1197     1  0.0000000  0.6508444  3
   1190   1189   1192   1195     1  0.0000000  0.6508444  3
   1190   1189   1192   1193     1  0.0000000  0.6508444  3
   1190   1189   1192   1194     1  0.0000000  0.6508444  3
   1191   1189   1192   1195     1  0.0000000  0.6508444  3
   1191   1189   1192   1193     1  0.0000000  0.6508444  3
   1191   1189   1192   1194     1  0.0000000  0.6508444  3
   1193   1192   1195   1198     1  0.0000000  0.6508444  3
   1193   1192   1195   1196     1  0.0000000  0.6508444  3
   1193   1192   1195   1197     1  0.0000000  0.6508444  3
   1193   1192   1189   1217     1  0.0000000  1.0460000  1
   1193   1192   1189   1217     1  0.0000000  0.0000000  3
   1194   1192   1195   1198     1  0.0000000  0.6508444  3
   1194   1192   1195   1196     1  0.0000000  0.6508444  3
   1194   1192   1195   1197     1  0.0000000  0.6508444  3
   1194   1192   1189   1217     1  0.0000000  1.0460000  1
   1194   1192   1189   1217     1  0.0000000  0.0000000  3
   1195   1198   1199   1200     1  0.0000000  1.2552000  3
   1195   1198   1199   1201     1  0.0000000  1.2552000  3
   1195   1198   1208   1209     1  0.0000000  1.2552000  3
   1195   1198   1208   1210     1  0.0000000  1.2552000  3
   1196   1195   1198   1199     1  0.0000000  1.2552000  3
   1196   1195   1198   1208     1  0.0000000  1.2552000  3
   1197   1195   1198   1199     1  0.0000000  1.2552000  3
   1197   1195   1198   1208     1  0.0000000  1.2552000  3
   1198   1199   1202   1203     1  0.0000000  0.6508444  3
   1198   1199   1202   1204     1  0.0000000  0.6508444  3
   1198   1208   1211   1212     1  0.0000000  0.6508444  3
   1198   1208   1211   1213     1  0.0000000  0.6508444  3
   1199   1198   1208   1209     1  0.0000000  1.2552000  3
   1199   1198   1208   1210     1  0.0000000  1.2552000  3
   1200   1199   1202   1205     1  0.0000000  0.6508444  3
   1200   1199   1202   1203     1  0.0000000  0.6508444  3
   1200   1199   1202   1204     1  0.0000000  0.6508444  3
   1200   1199   1198   1208     1  0.0000000  1.2552000  3
   1201   1199   1202   1205     1  0.0000000  0.6508444  3
   1201   1199   1202   1203     1  0.0000000  0.6508444  3
   1201   1199   1202   1204     1  0.0000000  0.6508444  3
   1201   1199   1198   1208     1  0.0000000  1.2552000  3
   1203   1202   1205   1206     1  0.0000000  3.3472000  1
   1203   1202   1205   1206     1  0.0000000  0.0000000  2
   1203   1202   1205   1206     1  180.0000771  0.3347200  3
   1203   1202   1205   1207     1  0.0000000  3.3472000  1
   1203   1202   1205   1207     1  0.0000000  0.0000000  2
   1203   1202   1205   1207     1  180.0000771  0.3347200  3
   1204   1202   1205   1206     1  0.0000000  3.3472000  1
   1204   1202   1205   1206     1  0.0000000  0.0000000  2
   1204   1202   1205   1206     1  180.0000771  0.3347200  3
   1204   1202   1205   1207     1  0.0000000  3.3472000  1
   1204   1202   1205   1207     1  0.0000000  0.0000000  2
   1204   1202   1205   1207     1  180.0000771  0.3347200  3
   1209   1208   1211   1214     1  0.0000000  0.6508444  3
   1209   1208   1211   1212     1  0.0000000  0.6508444  3
   1209   1208   1211   1213     1  0.0000000  0.6508444  3
   1210   1208   1211   1214     1  0.0000000  0.6508444  3
   1210   1208   1211   1212     1  0.0000000  0.6508444  3
   1210   1208   1211   1213     1  0.0000000  0.6508444  3
   1212   1211   1214   1215     1  0.0000000  3.3472000  1
   1212   1211   1214   1215     1  0.0000000  0.0000000  2
   1212   1211   1214   1215     1  180.0000771  0.3347200  3
   1212   1211   1214   1216     1  0.0000000  3.3472000  1
   1212   1211   1214   1216     1  0.0000000  0.0000000  2
   1212   1211   1214   1216     1  180.0000771  0.3347200  3
   1213   1211   1214   1215     1  0.0000000  3.3472000  1
   1213   1211   1214   1215     1  0.0000000  0.0000000  2
   1213   1211   1214   1215     1  180.0000771  0.3347200  3
   1213   1211   1214   1216     1  0.0000000  3.3472000  1
   1213   1211   1214   1216     1  0.0000000  0.0000000  2
   1213   1211   1214   1216     1  180.0000771  0.3347200  3
   1218   1221   1224   1225     1  0.0000000  0.6508444  3
   1218   1221   1224   1226     1  0.0000000  0.6508444  3
   1219   1218   1221   1224     1  0.0000000  0.6508444  3
   1219   1218   1221   1222     1  0.0000000  0.6508444  3
   1219   1218   1221   1223     1  0.0000000  0.6508444  3
   1220   1218   1221   1224     1  0.0000000  0.6508444  3
   1220   1218   1221   1222     1  0.0000000  0.6508444  3
   1220   1218   1221   1223     1  0.0000000  0.6508444  3
   1222   1221   1218   1246     1  0.0000000  1.0460000  1
   1222   1221   1218   1246     1  0.0000000  0.0000000  3
   1222   1221   1224   1227     1  0.0000000  0.6508444  3
   1222   1221   1224   1225     1  0.0000000  0.6508444  3
   1222   1221   1224   1226     1  0.0000000  0.6508444  3
   1223   1221   1218   1246     1  0.0000000  1.0460000  1
   1223   1221   1218   1246     1  0.0000000  0.0000000  3
   1223   1221   1224   1227     1  0.0000000  0.6508444  3
   1223   1221   1224   1225     1  0.0000000  0.6508444  3
   1223   1221   1224   1226     1  0.0000000  0.6508444  3
   1224   1227   1228   1229     1  0.0000000  1.2552000  3
   1224   1227   1228   1230     1  0.0000000  1.2552000  3
   1224   1227   1237   1238     1  0.0000000  1.2552000  3
   1224   1227   1237   1239     1  0.0000000  1.2552000  3
   1225   1224   1227   1228     1  0.0000000  1.2552000  3
   1225   1224   1227   1237     1  0.0000000  1.2552000  3
   1226   1224   1227   1228     1  0.0000000  1.2552000  3
   1226   1224   1227   1237     1  0.0000000  1.2552000  3
   1227   1228   1231   1232     1  0.0000000  0.6508444  3
   1227   1228   1231   1233     1  0.0000000  0.6508444  3
   1227   1237   1240   1241     1  0.0000000  0.6508444  3
   1227   1237   1240   1242     1  0.0000000  0.6508444  3
   1228   1227   1237   1238     1  0.0000000  1.2552000  3
   1228   1227   1237   1239     1  0.0000000  1.2552000  3
   1229   1228   1227   1237     1  0.0000000  1.2552000  3
   1229   1228   1231   1234     1  0.0000000  0.6508444  3
   1229   1228   1231   1232     1  0.0000000  0.6508444  3
   1229   1228   1231   1233     1  0.0000000  0.6508444  3
   1230   1228   1227   1237     1  0.0000000  1.2552000  3
   1230   1228   1231   1234     1  0.0000000  0.6508444  3
   1230   1228   1231   1232     1  0.0000000  0.6508444  3
   1230   1228   1231   1233     1  0.0000000  0.6508444  3
   1232   1231   1234   1235     1  0.0000000  3.3472000  1
   1232   1231   1234   1235     1  0.0000000  0.0000000  2
   1232   1231   1234   1235     1  180.0000771  0.3347200  3
   1232   1231   1234   1236     1  0.0000000  3.3472000  1
   1232   1231   1234   1236     1  0.0000000  0.0000000  2
   1232   1231   1234   1236     1  180.0000771  0.3347200  3
   1233   1231   1234   1235     1  0.0000000  3.3472000  1
   1233   1231   1234   1235     1  0.0000000  0.0000000  2
   1233   1231   1234   1235     1  180.0000771  0.3347200  3
   1233   1231   1234   1236     1  0.0000000  3.3472000  1
   1233   1231   1234   1236     1  0.0000000  0.0000000  2
   1233   1231   1234   1236     1  180.0000771  0.3347200  3
   1238   1237   1240   1243     1  0.0000000  0.6508444  3
   1238   1237   1240   1241     1  0.0000000  0.6508444  3
   1238   1237   1240   1242     1  0.0000000  0.6508444  3
   1239   1237   1240   1243     1  0.0000000  0.6508444  3
   1239   1237   1240   1241     1  0.0000000  0.6508444  3
   1239   1237   1240   1242     1  0.0000000  0.6508444  3
   1241   1240   1243   1244     1  0.0000000  3.3472000  1
   1241   1240   1243   1244     1  0.0000000  0.0000000  2
   1241   1240   1243   1244     1  180.0000771  0.3347200  3
   1241   1240   1243   1245     1  0.0000000  3.3472000  1
   1241   1240   1243   1245     1  0.0000000  0.0000000  2
   1241   1240   1243   1245     1  180.0000771  0.3347200  3
   1242   1240   1243   1244     1  0.0000000  3.3472000  1
   1242   1240   1243   1244     1  0.0000000  0.0000000  2
   1242   1240   1243   1244     1  180.0000771  0.3347200  3
   1242   1240   1243   1245     1  0.0000000  3.3472000  1
   1242   1240   1243   1245     1  0.0000000  0.0000000  2
   1242   1240   1243   1245     1  180.0000771  0.3347200  3
   1247   1250   1253   1254     1  0.0000000  0.6508444  3
   1247   1250   1253   1255     1  0.0000000  0.6508444  3
   1248   1247   1250   1253     1  0.0000000  0.6508444  3
   1248   1247   1250   1251     1  0.0000000  0.6508444  3
   1248   1247   1250   1252     1  0.0000000  0.6508444  3
   1249   1247   1250   1253     1  0.0000000  0.6508444  3
   1249   1247   1250   1251     1  0.0000000  0.6508444  3
   1249   1247   1250   1252     1  0.0000000  0.6508444  3
   1251   1250   1253   1256     1  0.0000000  0.6508444  3
   1251   1250   1253   1254     1  0.0000000  0.6508444  3
   1251   1250   1253   1255     1  0.0000000  0.6508444  3
   1251   1250   1247   1275     1  0.0000000  1.0460000  1
   1251   1250   1247   1275     1  0.0000000  0.0000000  3
   1252   1250   1253   1256     1  0.0000000  0.6508444  3
   1252   1250   1253   1254     1  0.0000000  0.6508444  3
   1252   1250   1253   1255     1  0.0000000  0.6508444  3
   1252   1250   1247   1275     1  0.0000000  1.0460000  1
   1252   1250   1247   1275     1  0.0000000  0.0000000  3
   1253   1256   1257   1258     1  0.0000000  1.2552000  3
   1253   1256   1257   1259     1  0.0000000  1.2552000  3
   1253   1256   1266   1267     1  0.0000000  1.2552000  3
   1253   1256   1266   1268     1  0.0000000  1.2552000  3
   1254   1253   1256   1257     1  0.0000000  1.2552000  3
   1254   1253   1256   1266     1  0.0000000  1.2552000  3
   1255   1253   1256   1257     1  0.0000000  1.2552000  3
   1255   1253   1256   1266     1  0.0000000  1.2552000  3
   1256   1257   1260   1261     1  0.0000000  0.6508444  3
   1256   1257   1260   1262     1  0.0000000  0.6508444  3
   1256   1266   1269   1270     1  0.0000000  0.6508444  3
   1256   1266   1269   1271     1  0.0000000  0.6508444  3
   1257   1256   1266   1267     1  0.0000000  1.2552000  3
   1257   1256   1266   1268     1  0.0000000  1.2552000  3
   1258   1257   1260   1263     1  0.0000000  0.6508444  3
   1258   1257   1260   1261     1  0.0000000  0.6508444  3
   1258   1257   1260   1262     1  0.0000000  0.6508444  3
   1258   1257   1256   1266     1  0.0000000  1.2552000  3
   1259   1257   1260   1263     1  0.0000000  0.6508444  3
   1259   1257   1260   1261     1  0.0000000  0.6508444  3
   1259   1257   1260   1262     1  0.0000000  0.6508444  3
   1259   1257   1256   1266     1  0.0000000  1.2552000  3
   1261   1260   1263   1264     1  0.0000000  3.3472000  1
   1261   1260   1263   1264     1  0.0000000  0.0000000  2
   1261   1260   1263   1264     1  180.0000771  0.3347200  3
   1261   1260   1263   1265     1  0.0000000  3.3472000  1
   1261   1260   1263   1265     1  0.0000000  0.0000000  2
   1261   1260   1263   1265     1  180.0000771  0.3347200  3
   1262   1260   1263   1264     1  0.0000000  3.3472000  1
   1262   1260   1263   1264     1  0.0000000  0.0000000  2
   1262   1260   1263   1264     1  180.0000771  0.3347200  3
   1262   1260   1263   1265     1  0.0000000  3.3472000  1
   1262   1260   1263   1265     1  0.0000000  0.0000000  2
   1262   1260   1263   1265     1  180.0000771  0.3347200  3
   1267   1266   1269   1272     1  0.0000000  0.6508444  3
   1267   1266   1269   1270     1  0.0000000  0.6508444  3
   1267   1266   1269   1271     1  0.0000000  0.6508444  3
   1268   1266   1269   1272     1  0.0000000  0.6508444  3
   1268   1266   1269   1270     1  0.0000000  0.6508444  3
   1268   1266   1269   1271     1  0.0000000  0.6508444  3
   1270   1269   1272   1273     1  0.0000000  3.3472000  1
   1270   1269   1272   1273     1  0.0000000  0.0000000  2
   1270   1269   1272   1273     1  180.0000771  0.3347200  3
   1270   1269   1272   1274     1  0.0000000  3.3472000  1
   1270   1269   1272   1274     1  0.0000000  0.0000000  2
   1270   1269   1272   1274     1  180.0000771  0.3347200  3
   1271   1269   1272   1273     1  0.0000000  3.3472000  1
   1271   1269   1272   1273     1  0.0000000  0.0000000  2
   1271   1269   1272   1273     1  180.0000771  0.3347200  3
   1271   1269   1272   1274     1  0.0000000  3.3472000  1
   1271   1269   1272   1274     1  0.0000000  0.0000000  2
   1271   1269   1272   1274     1  180.0000771  0.3347200  3
   1276   1279   1282   1283     1  0.0000000  0.6508444  3
   1276   1279   1282   1284     1  0.0000000  0.6508444  3
   1277   1276   1279   1282     1  0.0000000  0.6508444  3
   1277   1276   1279   1280     1  0.0000000  0.6508444  3
   1277   1276   1279   1281     1  0.0000000  0.6508444  3
   1278   1276   1279   1282     1  0.0000000  0.6508444  3
   1278   1276   1279   1280     1  0.0000000  0.6508444  3
   1278   1276   1279   1281     1  0.0000000  0.6508444  3
   1280   1279   1276   1304     1  0.0000000  1.0460000  1
   1280   1279   1276   1304     1  0.0000000  0.0000000  3
   1280   1279   1282   1285     1  0.0000000  0.6508444  3
   1280   1279   1282   1283     1  0.0000000  0.6508444  3
   1280   1279   1282   1284     1  0.0000000  0.6508444  3
   1281   1279   1276   1304     1  0.0000000  1.0460000  1
   1281   1279   1276   1304     1  0.0000000  0.0000000  3
   1281   1279   1282   1285     1  0.0000000  0.6508444  3
   1281   1279   1282   1283     1  0.0000000  0.6508444  3
   1281   1279   1282   1284     1  0.0000000  0.6508444  3
   1282   1285   1286   1287     1  0.0000000  1.2552000  3
   1282   1285   1286   1288     1  0.0000000  1.2552000  3
   1282   1285   1295   1296     1  0.0000000  1.2552000  3
   1282   1285   1295   1297     1  0.0000000  1.2552000  3
   1283   1282   1285   1286     1  0.0000000  1.2552000  3
   1283   1282   1285   1295     1  0.0000000  1.2552000  3
   1284   1282   1285   1286     1  0.0000000  1.2552000  3
   1284   1282   1285   1295     1  0.0000000  1.2552000  3
   1285   1286   1289   1290     1  0.0000000  0.6508444  3
   1285   1286   1289   1291     1  0.0000000  0.6508444  3
   1285   1295   1298   1299     1  0.0000000  0.6508444  3
   1285   1295   1298   1300     1  0.0000000  0.6508444  3
   1286   1285   1295   1296     1  0.0000000  1.2552000  3
   1286   1285   1295   1297     1  0.0000000  1.2552000  3
   1287   1286   1285   1295     1  0.0000000  1.2552000  3
   1287   1286   1289   1292     1  0.0000000  0.6508444  3
   1287   1286   1289   1290     1  0.0000000  0.6508444  3
   1287   1286   1289   1291     1  0.0000000  0.6508444  3
   1288   1286   1285   1295     1  0.0000000  1.2552000  3
   1288   1286   1289   1292     1  0.0000000  0.6508444  3
   1288   1286   1289   1290     1  0.0000000  0.6508444  3
   1288   1286   1289   1291     1  0.0000000  0.6508444  3
   1290   1289   1292   1293     1  0.0000000  3.3472000  1
   1290   1289   1292   1293     1  0.0000000  0.0000000  2
   1290   1289   1292   1293     1  180.0000771  0.3347200  3
   1290   1289   1292   1294     1  0.0000000  3.3472000  1
   1290   1289   1292   1294     1  0.0000000  0.0000000  2
   1290   1289   1292   1294     1  180.0000771  0.3347200  3
   1291   1289   1292   1293     1  0.0000000  3.3472000  1
   1291   1289   1292   1293     1  0.0000000  0.0000000  2
   1291   1289   1292   1293     1  180.0000771  0.3347200  3
   1291   1289   1292   1294     1  0.0000000  3.3472000  1
   1291   1289   1292   1294     1  0.0000000  0.0000000  2
   1291   1289   1292   1294     1  180.0000771  0.3347200  3
   1296   1295   1298   1301     1  0.0000000  0.6508444  3
   1296   1295   1298   1299     1  0.0000000  0.6508444  3
   1296   1295   1298   1300     1  0.0000000  0.6508444  3
   1297   1295   1298   1301     1  0.0000000  0.6508444  3
   1297   1295   1298   1299     1  0.0000000  0.6508444  3
   1297   1295   1298   1300     1  0.0000000  0.6508444  3
   1299   1298   1301   1302     1  0.0000000  3.3472000  1
   1299   1298   1301   1302     1  0.0000000  0.0000000  2
   1299   1298   1301   1302     1  180.0000771  0.3347200  3
   1299   1298   1301   1303     1  0.0000000  3.3472000  1
   1299   1298   1301   1303     1  0.0000000  0.0000000  2
   1299   1298   1301   1303     1  180.0000771  0.3347200  3
   1300   1298   1301   1302     1  0.0000000  3.3472000  1
   1300   1298   1301   1302     1  0.0000000  0.0000000  2
   1300   1298   1301   1302     1  180.0000771  0.3347200  3
   1300   1298   1301   1303     1  0.0000000  3.3472000  1
   1300   1298   1301   1303     1  0.0000000  0.0000000  2
   1300   1298   1301   1303     1  180.0000771  0.3347200  3
   1305   1308   1311   1312     1  0.0000000  0.6508444  3
   1305   1308   1311   1313     1  0.0000000  0.6508444  3
   1306   1305   1308   1311     1  0.0000000  0.6508444  3
   1306   1305   1308   1309     1  0.0000000  0.6508444  3
   1306   1305   1308   1310     1  0.0000000  0.6508444  3
   1307   1305   1308   1311     1  0.0000000  0.6508444  3
   1307   1305   1308   1309     1  0.0000000  0.6508444  3
   1307   1305   1308   1310     1  0.0000000  0.6508444  3
   1309   1308   1311   1314     1  0.0000000  0.6508444  3
   1309   1308   1311   1312     1  0.0000000  0.6508444  3
   1309   1308   1311   1313     1  0.0000000  0.6508444  3
   1309   1308   1305   1333     1  0.0000000  1.0460000  1
   1309   1308   1305   1333     1  0.0000000  0.0000000  3
   1310   1308   1311   1314     1  0.0000000  0.6508444  3
   1310   1308   1311   1312     1  0.0000000  0.6508444  3
   1310   1308   1311   1313     1  0.0000000  0.6508444  3
   1310   1308   1305   1333     1  0.0000000  1.0460000  1
   1310   1308   1305   1333     1  0.0000000  0.0000000  3
   1311   1314   1315   1316     1  0.0000000  1.2552000  3
   1311   1314   1315   1317     1  0.0000000  1.2552000  3
   1311   1314   1324   1325     1  0.0000000  1.2552000  3
   1311   1314   1324   1326     1  0.0000000  1.2552000  3
   1312   1311   1314   1315     1  0.0000000  1.2552000  3
   1312   1311   1314   1324     1  0.0000000  1.2552000  3
   1313   1311   1314   1315     1  0.0000000  1.2552000  3
   1313   1311   1314   1324     1  0.0000000  1.2552000  3
   1314   1315   1318   1319     1  0.0000000  0.6508444  3
   1314   1315   1318   1320     1  0.0000000  0.6508444  3
   1314   1324   1327   1328     1  0.0000000  0.6508444  3
   1314   1324   1327   1329     1  0.0000000  0.6508444  3
   1315   1314   1324   1325     1  0.0000000  1.2552000  3
   1315   1314   1324   1326     1  0.0000000  1.2552000  3
   1316   1315   1318   1321     1  0.0000000  0.6508444  3
   1316   1315   1318   1319     1  0.0000000  0.6508444  3
   1316   1315   1318   1320     1  0.0000000  0.6508444  3
   1316   1315   1314   1324     1  0.0000000  1.2552000  3
   1317   1315   1318   1321     1  0.0000000  0.6508444  3
   1317   1315   1318   1319     1  0.0000000  0.6508444  3
   1317   1315   1318   1320     1  0.0000000  0.6508444  3
   1317   1315   1314   1324     1  0.0000000  1.2552000  3
   1319   1318   1321   1322     1  0.0000000  3.3472000  1
   1319   1318   1321   1322     1  0.0000000  0.0000000  2
   1319   1318   1321   1322     1  180.0000771  0.3347200  3
   1319   1318   1321   1323     1  0.0000000  3.3472000  1
   1319   1318   1321   1323     1  0.0000000  0.0000000  2
   1319   1318   1321   1323     1  180.0000771  0.3347200  3
   1320   1318   1321   1322     1  0.0000000  3.3472000  1
   1320   1318   1321   1322     1  0.0000000  0.0000000  2
   1320   1318   1321   1322     1  180.0000771  0.3347200  3
   1320   1318   1321   1323     1  0.0000000  3.3472000  1
   1320   1318   1321   1323     1  0.0000000  0.0000000  2
   1320   1318   1321   1323     1  180.0000771  0.3347200  3
   1325   1324   1327   1330     1  0.0000000  0.6508444  3
   1325   1324   1327   1328     1  0.0000000  0.6508444  3
   1325   1324   1327   1329     1  0.0000000  0.6508444  3
   1326   1324   1327   1330     1  0.0000000  0.6508444  3
   1326   1324   1327   1328     1  0.0000000  0.6508444  3
   1326   1324   1327   1329     1  0.0000000  0.6508444  3
   1328   1327   1330   1331     1  0.0000000  3.3472000  1
   1328   1327   1330   1331     1  0.0000000  0.0000000  2
   1328   1327   1330   1331     1  180.0000771  0.3347200  3
   1328   1327   1330   1332     1  0.0000000  3.3472000  1
   1328   1327   1330   1332     1  0.0000000  0.0000000  2
   1328   1327   1330   1332     1  180.0000771  0.3347200  3
   1329   1327   1330   1331     1  0.0000000  3.3472000  1
   1329   1327   1330   1331     1  0.0000000  0.0000000  2
   1329   1327   1330   1331     1  180.0000771  0.3347200  3
   1329   1327   1330   1332     1  0.0000000  3.3472000  1
   1329   1327   1330   1332     1  0.0000000  0.0000000  2
   1329   1327   1330   1332     1  180.0000771  0.3347200  3
   1334   1337   1340   1341     1  0.0000000  0.6508444  3
   1334   1337   1340   1342     1  0.0000000  0.6508444  3
   1335   1334   1337   1340     1  0.0000000  0.6508444  3
   1335   1334   1337   1338     1  0.0000000  0.6508444  3
   1335   1334   1337   1339     1  0.0000000  0.6508444  3
   1336   1334   1337   1340     1  0.0000000  0.6508444  3
   1336   1334   1337   1338     1  0.0000000  0.6508444  3
   1336   1334   1337   1339     1  0.0000000  0.6508444  3
   1338   1337   1334   1362     1  0.0000000  1.0460000  1
   1338   1337   1334   1362     1  0.0000000  0.0000000  3
   1338   1337   1340   1343     1  0.0000000  0.6508444  3
   1338   1337   1340   1341     1  0.0000000  0.6508444  3
   1338   1337   1340   1342     1  0.0000000  0.6508444  3
   1339   1337   1334   1362     1  0.0000000  1.0460000  1
   1339   1337   1334   1362     1  0.0000000  0.0000000  3
   1339   1337   1340   1343     1  0.0000000  0.6508444  3
   1339   1337   1340   1341     1  0.0000000  0.6508444  3
   1339   1337   1340   1342     1  0.0000000  0.6508444  3
   1340   1343   1344   1345     1  0.0000000  1.2552000  3
   1340   1343   1344   1346     1  0.0000000  1.2552000  3
   1340   1343   1353   1354     1  0.0000000  1.2552000  3
   1340   1343   1353   1355     1  0.0000000  1.2552000  3
   1341   1340   1343   1344     1  0.0000000  1.2552000  3
   1341   1340   1343   1353     1  0.0000000  1.2552000  3
   1342   1340   1343   1344     1  0.0000000  1.2552000  3
   1342   1340   1343   1353     1  0.0000000  1.2552000  3
   1343   1344   1347   1348     1  0.0000000  0.6508444  3
   1343   1344   1347   1349     1  0.0000000  0.6508444  3
   1343   1353   1356   1357     1  0.0000000  0.6508444  3
   1343   1353   1356   1358     1  0.0000000  0.6508444  3
   1344   1343   1353   1354     1  0.0000000  1.2552000  3
   1344   1343   1353   1355     1  0.0000000  1.2552000  3
   1345   1344   1343   1353     1  0.0000000  1.2552000  3
   1345   1344   1347   1350     1  0.0000000  0.6508444  3
   1345   1344   1347   1348     1  0.0000000  0.6508444  3
   1345   1344   1347   1349     1  0.0000000  0.6508444  3
   1346   1344   1343   1353     1  0.0000000  1.2552000  3
   1346   1344   1347   1350     1  0.0000000  0.6508444  3
   1346   1344   1347   1348     1  0.0000000  0.6508444  3
   1346   1344   1347   1349     1  0.0000000  0.6508444  3
   1348   1347   1350   1351     1  0.0000000  3.3472000  1
   1348   1347   1350   1351     1  0.0000000  0.0000000  2
   1348   1347   1350   1351     1  180.0000771  0.3347200  3
   1348   1347   1350   1352     1  0.0000000  3.3472000  1
   1348   1347   1350   1352     1  0.0000000  0.0000000  2
   1348   1347   1350   1352     1  180.0000771  0.3347200  3
   1349   1347   1350   1351     1  0.0000000  3.3472000  1
   1349   1347   1350   1351     1  0.0000000  0.0000000  2
   1349   1347   1350   1351     1  180.0000771  0.3347200  3
   1349   1347   1350   1352     1  0.0000000  3.3472000  1
   1349   1347   1350   1352     1  0.0000000  0.0000000  2
   1349   1347   1350   1352     1  180.0000771  0.3347200  3
   1354   1353   1356   1359     1  0.0000000  0.6508444  3
   1354   1353   1356   1357     1  0.0000000  0.6508444  3
   1354   1353   1356   1358     1  0.0000000  0.6508444  3
   1355   1353   1356   1359     1  0.0000000  0.6508444  3
   1355   1353   1356   1357     1  0.0000000  0.6508444  3
   1355   1353   1356   1358     1  0.0000000  0.6508444  3
   1357   1356   1359   1360     1  0.0000000  3.3472000  1
   1357   1356   1359   1360     1  0.0000000  0.0000000  2
   1357   1356   1359   1360     1  180.0000771  0.3347200  3
   1357   1356   1359   1361     1  0.0000000  3.3472000  1
   1357   1356   1359   1361     1  0.0000000  0.0000000  2
   1357   1356   1359   1361     1  180.0000771  0.3347200  3
   1358   1356   1359   1360     1  0.0000000  3.3472000  1
   1358   1356   1359   1360     1  0.0000000  0.0000000  2
   1358   1356   1359   1360     1  180.0000771  0.3347200  3
   1358   1356   1359   1361     1  0.0000000  3.3472000  1
   1358   1356   1359   1361     1  0.0000000  0.0000000  2
   1358   1356   1359   1361     1  180.0000771  0.3347200  3
   1363   1366   1369   1370     1  0.0000000  0.6508444  3
   1363   1366   1369   1371     1  0.0000000  0.6508444  3
   1364   1363   1366   1369     1  0.0000000  0.6508444  3
   1364   1363   1366   1367     1  0.0000000  0.6508444  3
   1364   1363   1366   1368     1  0.0000000  0.6508444  3
   1365   1363   1366   1369     1  0.0000000  0.6508444  3
   1365   1363   1366   1367     1  0.0000000  0.6508444  3
   1365   1363   1366   1368     1  0.0000000  0.6508444  3
   1367   1366   1369   1372     1  0.0000000  0.6508444  3
   1367   1366   1369   1370     1  0.0000000  0.6508444  3
   1367   1366   1369   1371     1  0.0000000  0.6508444  3
   1367   1366   1363   1391     1  0.0000000  1.0460000  1
   1367   1366   1363   1391     1  0.0000000  0.0000000  3
   1368   1366   1369   1372     1  0.0000000  0.6508444  3
   1368   1366   1369   1370     1  0.0000000  0.6508444  3
   1368   1366   1369   1371     1  0.0000000  0.6508444  3
   1368   1366   1363   1391     1  0.0000000  1.0460000  1
   1368   1366   1363   1391     1  0.0000000  0.0000000  3
   1369   1372   1373   1374     1  0.0000000  1.2552000  3
   1369   1372   1373   1375     1  0.0000000  1.2552000  3
   1369   1372   1382   1383     1  0.0000000  1.2552000  3
   1369   1372   1382   1384     1  0.0000000  1.2552000  3
   1370   1369   1372   1373     1  0.0000000  1.2552000  3
   1370   1369   1372   1382     1  0.0000000  1.2552000  3
   1371   1369   1372   1373     1  0.0000000  1.2552000  3
   1371   1369   1372   1382     1  0.0000000  1.2552000  3
   1372   1373   1376   1377     1  0.0000000  0.6508444  3
   1372   1373   1376   1378     1  0.0000000  0.6508444  3
   1372   1382   1385   1386     1  0.0000000  0.6508444  3
   1372   1382   1385   1387     1  0.0000000  0.6508444  3
   1373   1372   1382   1383     1  0.0000000  1.2552000  3
   1373   1372   1382   1384     1  0.0000000  1.2552000  3
   1374   1373   1376   1379     1  0.0000000  0.6508444  3
   1374   1373   1376   1377     1  0.0000000  0.6508444  3
   1374   1373   1376   1378     1  0.0000000  0.6508444  3
   1374   1373   1372   1382     1  0.0000000  1.2552000  3
   1375   1373   1376   1379     1  0.0000000  0.6508444  3
   1375   1373   1376   1377     1  0.0000000  0.6508444  3
   1375   1373   1376   1378     1  0.0000000  0.6508444  3
   1375   1373   1372   1382     1  0.0000000  1.2552000  3
   1377   1376   1379   1380     1  0.0000000  3.3472000  1
   1377   1376   1379   1380     1  0.0000000  0.0000000  2
   1377   1376   1379   1380     1  180.0000771  0.3347200  3
   1377   1376   1379   1381     1  0.0000000  3.3472000  1
   1377   1376   1379   1381     1  0.0000000  0.0000000  2
   1377   1376   1379   1381     1  180.0000771  0.3347200  3
   1378   1376   1379   1380     1  0.0000000  3.3472000  1
   1378   1376   1379   1380     1  0.0000000  0.0000000  2
   1378   1376   1379   1380     1  180.0000771  0.3347200  3
   1378   1376   1379   1381     1  0.0000000  3.3472000  1
   1378   1376   1379   1381     1  0.0000000  0.0000000  2
   1378   1376   1379   1381     1  180.0000771  0.3347200  3
   1383   1382   1385   1388     1  0.0000000  0.6508444  3
   1383   1382   1385   1386     1  0.0000000  0.6508444  3
   1383   1382   1385   1387     1  0.0000000  0.6508444  3
   1384   1382   1385   1388     1  0.0000000  0.6508444  3
   1384   1382   1385   1386     1  0.0000000  0.6508444  3
   1384   1382   1385   1387     1  0.0000000  0.6508444  3
   1386   1385   1388   1389     1  0.0000000  3.3472000  1
   1386   1385   1388   1389     1  0.0000000  0.0000000  2
   1386   1385   1388   1389     1  180.0000771  0.3347200  3
   1386   1385   1388   1390     1  0.0000000  3.3472000  1
   1386   1385   1388   1390     1  0.0000000  0.0000000  2
   1386   1385   1388   1390     1  180.0000771  0.3347200  3
   1387   1385   1388   1389     1  0.0000000  3.3472000  1
   1387   1385   1388   1389     1  0.0000000  0.0000000  2
   1387   1385   1388   1389     1  180.0000771  0.3347200  3
   1387   1385   1388   1390     1  0.0000000  3.3472000  1
   1387   1385   1388   1390     1  0.0000000  0.0000000  2
   1387   1385   1388   1390     1  180.0000771  0.3347200  3
   1392   1395   1398   1399     1  0.0000000  0.6508444  3
   1392   1395   1398   1400     1  0.0000000  0.6508444  3
   1393   1392   1395   1398     1  0.0000000  0.6508444  3
   1393   1392   1395   1396     1  0.0000000  0.6508444  3
   1393   1392   1395   1397     1  0.0000000  0.6508444  3
   1394   1392   1395   1398     1  0.0000000  0.6508444  3
   1394   1392   1395   1396     1  0.0000000  0.6508444  3
   1394   1392   1395   1397     1  0.0000000  0.6508444  3
   1396   1395   1392   1420     1  0.0000000  1.0460000  1
   1396   1395   1392   1420     1  0.0000000  0.0000000  3
   1396   1395   1398   1401     1  0.0000000  0.6508444  3
   1396   1395   1398   1399     1  0.0000000  0.6508444  3
   1396   1395   1398   1400     1  0.0000000  0.6508444  3
   1397   1395   1392   1420     1  0.0000000  1.0460000  1
   1397   1395   1392   1420     1  0.0000000  0.0000000  3
   1397   1395   1398   1401     1  0.0000000  0.6508444  3
   1397   1395   1398   1399     1  0.0000000  0.6508444  3
   1397   1395   1398   1400     1  0.0000000  0.6508444  3
   1398   1401   1402   1403     1  0.0000000  1.2552000  3
   1398   1401   1402   1404     1  0.0000000  1.2552000  3
   1398   1401   1411   1412     1  0.0000000  1.2552000  3
   1398   1401   1411   1413     1  0.0000000  1.2552000  3
   1399   1398   1401   1402     1  0.0000000  1.2552000  3
   1399   1398   1401   1411     1  0.0000000  1.2552000  3
   1400   1398   1401   1402     1  0.0000000  1.2552000  3
   1400   1398   1401   1411     1  0.0000000  1.2552000  3
   1401   1402   1405   1406     1  0.0000000  0.6508444  3
   1401   1402   1405   1407     1  0.0000000  0.6508444  3
   1401   1411   1414   1415     1  0.0000000  0.6508444  3
   1401   1411   1414   1416     1  0.0000000  0.6508444  3
   1402   1401   1411   1412     1  0.0000000  1.2552000  3
   1402   1401   1411   1413     1  0.0000000  1.2552000  3
   1403   1402   1401   1411     1  0.0000000  1.2552000  3
   1403   1402   1405   1408     1  0.0000000  0.6508444  3
   1403   1402   1405   1406     1  0.0000000  0.6508444  3
   1403   1402   1405   1407     1  0.0000000  0.6508444  3
   1404   1402   1401   1411     1  0.0000000  1.2552000  3
   1404   1402   1405   1408     1  0.0000000  0.6508444  3
   1404   1402   1405   1406     1  0.0000000  0.6508444  3
   1404   1402   1405   1407     1  0.0000000  0.6508444  3
   1406   1405   1408   1409     1  0.0000000  3.3472000  1
   1406   1405   1408   1409     1  0.0000000  0.0000000  2
   1406   1405   1408   1409     1  180.0000771  0.3347200  3
   1406   1405   1408   1410     1  0.0000000  3.3472000  1
   1406   1405   1408   1410     1  0.0000000  0.0000000  2
   1406   1405   1408   1410     1  180.0000771  0.3347200  3
   1407   1405   1408   1409     1  0.0000000  3.3472000  1
   1407   1405   1408   1409     1  0.0000000  0.0000000  2
   1407   1405   1408   1409     1  180.0000771  0.3347200  3
   1407   1405   1408   1410     1  0.0000000  3.3472000  1
   1407   1405   1408   1410     1  0.0000000  0.0000000  2
   1407   1405   1408   1410     1  180.0000771  0.3347200  3
   1412   1411   1414   1417     1  0.0000000  0.6508444  3
   1412   1411   1414   1415     1  0.0000000  0.6508444  3
   1412   1411   1414   1416     1  0.0000000  0.6508444  3
   1413   1411   1414   1417     1  0.0000000  0.6508444  3
   1413   1411   1414   1415     1  0.0000000  0.6508444  3
   1413   1411   1414   1416     1  0.0000000  0.6508444  3
   1415   1414   1417   1418     1  0.0000000  3.3472000  1
   1415   1414   1417   1418     1  0.0000000  0.0000000  2
   1415   1414   1417   1418     1  180.0000771  0.3347200  3
   1415   1414   1417   1419     1  0.0000000  3.3472000  1
   1415   1414   1417   1419     1  0.0000000  0.0000000  2
   1415   1414   1417   1419     1  180.0000771  0.3347200  3
   1416   1414   1417   1418     1  0.0000000  3.3472000  1
   1416   1414   1417   1418     1  0.0000000  0.0000000  2
   1416   1414   1417   1418     1  180.0000771  0.3347200  3
   1416   1414   1417   1419     1  0.0000000  3.3472000  1
   1416   1414   1417   1419     1  0.0000000  0.0000000  2
   1416   1414   1417   1419     1  180.0000771  0.3347200  3
   1421   1424   1427   1428     1  0.0000000  0.6508444  3
   1421   1424   1427   1429     1  0.0000000  0.6508444  3
   1422   1421   1424   1427     1  0.0000000  0.6508444  3
   1422   1421   1424   1425     1  0.0000000  0.6508444  3
   1422   1421   1424   1426     1  0.0000000  0.6508444  3
   1423   1421   1424   1427     1  0.0000000  0.6508444  3
   1423   1421   1424   1425     1  0.0000000  0.6508444  3
   1423   1421   1424   1426     1  0.0000000  0.6508444  3
   1425   1424   1427   1430     1  0.0000000  0.6508444  3
   1425   1424   1427   1428     1  0.0000000  0.6508444  3
   1425   1424   1427   1429     1  0.0000000  0.6508444  3
   1425   1424   1421   1449     1  0.0000000  1.0460000  1
   1425   1424   1421   1449     1  0.0000000  0.0000000  3
   1426   1424   1427   1430     1  0.0000000  0.6508444  3
   1426   1424   1427   1428     1  0.0000000  0.6508444  3
   1426   1424   1427   1429     1  0.0000000  0.6508444  3
   1426   1424   1421   1449     1  0.0000000  1.0460000  1
   1426   1424   1421   1449     1  0.0000000  0.0000000  3
   1427   1430   1431   1432     1  0.0000000  1.2552000  3
   1427   1430   1431   1433     1  0.0000000  1.2552000  3
   1427   1430   1440   1441     1  0.0000000  1.2552000  3
   1427   1430   1440   1442     1  0.0000000  1.2552000  3
   1428   1427   1430   1431     1  0.0000000  1.2552000  3
   1428   1427   1430   1440     1  0.0000000  1.2552000  3
   1429   1427   1430   1431     1  0.0000000  1.2552000  3
   1429   1427   1430   1440     1  0.0000000  1.2552000  3
   1430   1431   1434   1435     1  0.0000000  0.6508444  3
   1430   1431   1434   1436     1  0.0000000  0.6508444  3
   1430   1440   1443   1444     1  0.0000000  0.6508444  3
   1430   1440   1443   1445     1  0.0000000  0.6508444  3
   1431   1430   1440   1441     1  0.0000000  1.2552000  3
   1431   1430   1440   1442     1  0.0000000  1.2552000  3
   1432   1431   1434   1437     1  0.0000000  0.6508444  3
   1432   1431   1434   1435     1  0.0000000  0.6508444  3
   1432   1431   1434   1436     1  0.0000000  0.6508444  3
   1432   1431   1430   1440     1  0.0000000  1.2552000  3
   1433   1431   1434   1437     1  0.0000000  0.6508444  3
   1433   1431   1434   1435     1  0.0000000  0.6508444  3
   1433   1431   1434   1436     1  0.0000000  0.6508444  3
   1433   1431   1430   1440     1  0.0000000  1.2552000  3
   1435   1434   1437   1438     1  0.0000000  3.3472000  1
   1435   1434   1437   1438     1  0.0000000  0.0000000  2
   1435   1434   1437   1438     1  180.0000771  0.3347200  3
   1435   1434   1437   1439     1  0.0000000  3.3472000  1
   1435   1434   1437   1439     1  0.0000000  0.0000000  2
   1435   1434   1437   1439     1  180.0000771  0.3347200  3
   1436   1434   1437   1438     1  0.0000000  3.3472000  1
   1436   1434   1437   1438     1  0.0000000  0.0000000  2
   1436   1434   1437   1438     1  180.0000771  0.3347200  3
   1436   1434   1437   1439     1  0.0000000  3.3472000  1
   1436   1434   1437   1439     1  0.0000000  0.0000000  2
   1436   1434   1437   1439     1  180.0000771  0.3347200  3
   1441   1440   1443   1446     1  0.0000000  0.6508444  3
   1441   1440   1443   1444     1  0.0000000  0.6508444  3
   1441   1440   1443   1445     1  0.0000000  0.6508444  3
   1442   1440   1443   1446     1  0.0000000  0.6508444  3
   1442   1440   1443   1444     1  0.0000000  0.6508444  3
   1442   1440   1443   1445     1  0.0000000  0.6508444  3
   1444   1443   1446   1447     1  0.0000000  3.3472000  1
   1444   1443   1446   1447     1  0.0000000  0.0000000  2
   1444   1443   1446   1447     1  180.0000771  0.3347200  3
   1444   1443   1446   1448     1  0.0000000  3.3472000  1
   1444   1443   1446   1448     1  0.0000000  0.0000000  2
   1444   1443   1446   1448     1  180.0000771  0.3347200  3
   1445   1443   1446   1447     1  0.0000000  3.3472000  1
   1445   1443   1446   1447     1  0.0000000  0.0000000  2
   1445   1443   1446   1447     1  180.0000771  0.3347200  3
   1445   1443   1446   1448     1  0.0000000  3.3472000  1
   1445   1443   1446   1448     1  0.0000000  0.0000000  2
   1445   1443   1446   1448     1  180.0000771  0.3347200  3
   1450   1453   1456   1457     1  0.0000000  0.6508444  3
   1450   1453   1456   1458     1  0.0000000  0.6508444  3
   1451   1450   1453   1456     1  0.0000000  0.6508444  3
   1451   1450   1453   1454     1  0.0000000  0.6508444  3
   1451   1450   1453   1455     1  0.0000000  0.6508444  3
   1452   1450   1453   1456     1  0.0000000  0.6508444  3
   1452   1450   1453   1454     1  0.0000000  0.6508444  3
   1452   1450   1453   1455     1  0.0000000  0.6508444  3
   1454   1453   1450   1478     1  0.0000000  1.0460000  1
   1454   1453   1450   1478     1  0.0000000  0.0000000  3
   1454   1453   1456   1459     1  0.0000000  0.6508444  3
   1454   1453   1456   1457     1  0.0000000  0.6508444  3
   1454   1453   1456   1458     1  0.0000000  0.6508444  3
   1455   1453   1450   1478     1  0.0000000  1.0460000  1
   1455   1453   1450   1478     1  0.0000000  0.0000000  3
   1455   1453   1456   1459     1  0.0000000  0.6508444  3
   1455   1453   1456   1457     1  0.0000000  0.6508444  3
   1455   1453   1456   1458     1  0.0000000  0.6508444  3
   1456   1459   1460   1461     1  0.0000000  1.2552000  3
   1456   1459   1460   1462     1  0.0000000  1.2552000  3
   1456   1459   1469   1470     1  0.0000000  1.2552000  3
   1456   1459   1469   1471     1  0.0000000  1.2552000  3
   1457   1456   1459   1460     1  0.0000000  1.2552000  3
   1457   1456   1459   1469     1  0.0000000  1.2552000  3
   1458   1456   1459   1460     1  0.0000000  1.2552000  3
   1458   1456   1459   1469     1  0.0000000  1.2552000  3
   1459   1460   1463   1464     1  0.0000000  0.6508444  3
   1459   1460   1463   1465     1  0.0000000  0.6508444  3
   1459   1469   1472   1473     1  0.0000000  0.6508444  3
   1459   1469   1472   1474     1  0.0000000  0.6508444  3
   1460   1459   1469   1470     1  0.0000000  1.2552000  3
   1460   1459   1469   1471     1  0.0000000  1.2552000  3
   1461   1460   1459   1469     1  0.0000000  1.2552000  3
   1461   1460   1463   1466     1  0.0000000  0.6508444  3
   1461   1460   1463   1464     1  0.0000000  0.6508444  3
   1461   1460   1463   1465     1  0.0000000  0.6508444  3
   1462   1460   1459   1469     1  0.0000000  1.2552000  3
   1462   1460   1463   1466     1  0.0000000  0.6508444  3
   1462   1460   1463   1464     1  0.0000000  0.6508444  3
   1462   1460   1463   1465     1  0.0000000  0.6508444  3
   1464   1463   1466   1467     1  0.0000000  3.3472000  1
   1464   1463   1466   1467     1  0.0000000  0.0000000  2
   1464   1463   1466   1467     1  180.0000771  0.3347200  3
   1464   1463   1466   1468     1  0.0000000  3.3472000  1
   1464   1463   1466   1468     1  0.0000000  0.0000000  2
   1464   1463   1466   1468     1  180.0000771  0.3347200  3
   1465   1463   1466   1467     1  0.0000000  3.3472000  1
   1465   1463   1466   1467     1  0.0000000  0.0000000  2
   1465   1463   1466   1467     1  180.0000771  0.3347200  3
   1465   1463   1466   1468     1  0.0000000  3.3472000  1
   1465   1463   1466   1468     1  0.0000000  0.0000000  2
   1465   1463   1466   1468     1  180.0000771  0.3347200  3
   1470   1469   1472   1475     1  0.0000000  0.6508444  3
   1470   1469   1472   1473     1  0.0000000  0.6508444  3
   1470   1469   1472   1474     1  0.0000000  0.6508444  3
   1471   1469   1472   1475     1  0.0000000  0.6508444  3
   1471   1469   1472   1473     1  0.0000000  0.6508444  3
   1471   1469   1472   1474     1  0.0000000  0.6508444  3
   1473   1472   1475   1476     1  0.0000000  3.3472000  1
   1473   1472   1475   1476     1  0.0000000  0.0000000  2
   1473   1472   1475   1476     1  180.0000771  0.3347200  3
   1473   1472   1475   1477     1  0.0000000  3.3472000  1
   1473   1472   1475   1477     1  0.0000000  0.0000000  2
   1473   1472   1475   1477     1  180.0000771  0.3347200  3
   1474   1472   1475   1476     1  0.0000000  3.3472000  1
   1474   1472   1475   1476     1  0.0000000  0.0000000  2
   1474   1472   1475   1476     1  180.0000771  0.3347200  3
   1474   1472   1475   1477     1  0.0000000  3.3472000  1
   1474   1472   1475   1477     1  0.0000000  0.0000000  2
   1474   1472   1475   1477     1  180.0000771  0.3347200  3
   1479   1482   1485   1486     1  0.0000000  0.6508444  3
   1479   1482   1485   1487     1  0.0000000  0.6508444  3
   1480   1479   1482   1485     1  0.0000000  0.6508444  3
   1480   1479   1482   1483     1  0.0000000  0.6508444  3
   1480   1479   1482   1484     1  0.0000000  0.6508444  3
   1481   1479   1482   1485     1  0.0000000  0.6508444  3
   1481   1479   1482   1483     1  0.0000000  0.6508444  3
   1481   1479   1482   1484     1  0.0000000  0.6508444  3
   1483   1482   1485   1488     1  0.0000000  0.6508444  3
   1483   1482   1485   1486     1  0.0000000  0.6508444  3
   1483   1482   1485   1487     1  0.0000000  0.6508444  3
   1483   1482   1479   1507     1  0.0000000  1.0460000  1
   1483   1482   1479   1507     1  0.0000000  0.0000000  3
   1484   1482   1485   1488     1  0.0000000  0.6508444  3
   1484   1482   1485   1486     1  0.0000000  0.6508444  3
   1484   1482   1485   1487     1  0.0000000  0.6508444  3
   1484   1482   1479   1507     1  0.0000000  1.0460000  1
   1484   1482   1479   1507     1  0.0000000  0.0000000  3
   1485   1488   1489   1490     1  0.0000000  1.2552000  3
   1485   1488   1489   1491     1  0.0000000  1.2552000  3
   1485   1488   1498   1499     1  0.0000000  1.2552000  3
   1485   1488   1498   1500     1  0.0000000  1.2552000  3
   1486   1485   1488   1489     1  0.0000000  1.2552000  3
   1486   1485   1488   1498     1  0.0000000  1.2552000  3
   1487   1485   1488   1489     1  0.0000000  1.2552000  3
   1487   1485   1488   1498     1  0.0000000  1.2552000  3
   1488   1489   1492   1493     1  0.0000000  0.6508444  3
   1488   1489   1492   1494     1  0.0000000  0.6508444  3
   1488   1498   1501   1502     1  0.0000000  0.6508444  3
   1488   1498   1501   1503     1  0.0000000  0.6508444  3
   1489   1488   1498   1499     1  0.0000000  1.2552000  3
   1489   1488   1498   1500     1  0.0000000  1.2552000  3
   1490   1489   1492   1495     1  0.0000000  0.6508444  3
   1490   1489   1492   1493     1  0.0000000  0.6508444  3
   1490   1489   1492   1494     1  0.0000000  0.6508444  3
   1490   1489   1488   1498     1  0.0000000  1.2552000  3
   1491   1489   1492   1495     1  0.0000000  0.6508444  3
   1491   1489   1492   1493     1  0.0000000  0.6508444  3
   1491   1489   1492   1494     1  0.0000000  0.6508444  3
   1491   1489   1488   1498     1  0.0000000  1.2552000  3
   1493   1492   1495   1496     1  0.0000000  3.3472000  1
   1493   1492   1495   1496     1  0.0000000  0.0000000  2
   1493   1492   1495   1496     1  180.0000771  0.3347200  3
   1493   1492   1495   1497     1  0.0000000  3.3472000  1
   1493   1492   1495   1497     1  0.0000000  0.0000000  2
   1493   1492   1495   1497     1  180.0000771  0.3347200  3
   1494   1492   1495   1496     1  0.0000000  3.3472000  1
   1494   1492   1495   1496     1  0.0000000  0.0000000  2
   1494   1492   1495   1496     1  180.0000771  0.3347200  3
   1494   1492   1495   1497     1  0.0000000  3.3472000  1
   1494   1492   1495   1497     1  0.0000000  0.0000000  2
   1494   1492   1495   1497     1  180.0000771  0.3347200  3
   1499   1498   1501   1504     1  0.0000000  0.6508444  3
   1499   1498   1501   1502     1  0.0000000  0.6508444  3
   1499   1498   1501   1503     1  0.0000000  0.6508444  3
   1500   1498   1501   1504     1  0.0000000  0.6508444  3
   1500   1498   1501   1502     1  0.0000000  0.6508444  3
   1500   1498   1501   1503     1  0.0000000  0.6508444  3
   1502   1501   1504   1505     1  0.0000000  3.3472000  1
   1502   1501   1504   1505     1  0.0000000  0.0000000  2
   1502   1501   1504   1505     1  180.0000771  0.3347200  3
   1502   1501   1504   1506     1  0.0000000  3.3472000  1
   1502   1501   1504   1506     1  0.0000000  0.0000000  2
   1502   1501   1504   1506     1  180.0000771  0.3347200  3
   1503   1501   1504   1505     1  0.0000000  3.3472000  1
   1503   1501   1504   1505     1  0.0000000  0.0000000  2
   1503   1501   1504   1505     1  180.0000771  0.3347200  3
   1503   1501   1504   1506     1  0.0000000  3.3472000  1
   1503   1501   1504   1506     1  0.0000000  0.0000000  2
   1503   1501   1504   1506     1  180.0000771  0.3347200  3
   1508   1511   1514   1515     1  0.0000000  0.6508444  3
   1508   1511   1514   1516     1  0.0000000  0.6508444  3
   1509   1508   1511   1514     1  0.0000000  0.6508444  3
   1509   1508   1511   1512     1  0.0000000  0.6508444  3
   1509   1508   1511   1513     1  0.0000000  0.6508444  3
   1510   1508   1511   1514     1  0.0000000  0.6508444  3
   1510   1508   1511   1512     1  0.0000000  0.6508444  3
   1510   1508   1511   1513     1  0.0000000  0.6508444  3
   1512   1511   1508   1536     1  0.0000000  1.0460000  1
   1512   1511   1508   1536     1  0.0000000  0.0000000  3
   1512   1511   1514   1517     1  0.0000000  0.6508444  3
   1512   1511   1514   1515     1  0.0000000  0.6508444  3
   1512   1511   1514   1516     1  0.0000000  0.6508444  3
   1513   1511   1508   1536     1  0.0000000  1.0460000  1
   1513   1511   1508   1536     1  0.0000000  0.0000000  3
   1513   1511   1514   1517     1  0.0000000  0.6508444  3
   1513   1511   1514   1515     1  0.0000000  0.6508444  3
   1513   1511   1514   1516     1  0.0000000  0.6508444  3
   1514   1517   1518   1519     1  0.0000000  1.2552000  3
   1514   1517   1518   1520     1  0.0000000  1.2552000  3
   1514   1517   1527   1528     1  0.0000000  1.2552000  3
   1514   1517   1527   1529     1  0.0000000  1.2552000  3
   1515   1514   1517   1518     1  0.0000000  1.2552000  3
   1515   1514   1517   1527     1  0.0000000  1.2552000  3
   1516   1514   1517   1518     1  0.0000000  1.2552000  3
   1516   1514   1517   1527     1  0.0000000  1.2552000  3
   1517   1518   1521   1522     1  0.0000000  0.6508444  3
   1517   1518   1521   1523     1  0.0000000  0.6508444  3
   1517   1527   1530   1531     1  0.0000000  0.6508444  3
   1517   1527   1530   1532     1  0.0000000  0.6508444  3
   1518   1517   1527   1528     1  0.0000000  1.2552000  3
   1518   1517   1527   1529     1  0.0000000  1.2552000  3
   1519   1518   1517   1527     1  0.0000000  1.2552000  3
   1519   1518   1521   1524     1  0.0000000  0.6508444  3
   1519   1518   1521   1522     1  0.0000000  0.6508444  3
   1519   1518   1521   1523     1  0.0000000  0.6508444  3
   1520   1518   1517   1527     1  0.0000000  1.2552000  3
   1520   1518   1521   1524     1  0.0000000  0.6508444  3
   1520   1518   1521   1522     1  0.0000000  0.6508444  3
   1520   1518   1521   1523     1  0.0000000  0.6508444  3
   1522   1521   1524   1525     1  0.0000000  3.3472000  1
   1522   1521   1524   1525     1  0.0000000  0.0000000  2
   1522   1521   1524   1525     1  180.0000771  0.3347200  3
   1522   1521   1524   1526     1  0.0000000  3.3472000  1
   1522   1521   1524   1526     1  0.0000000  0.0000000  2
   1522   1521   1524   1526     1  180.0000771  0.3347200  3
   1523   1521   1524   1525     1  0.0000000  3.3472000  1
   1523   1521   1524   1525     1  0.0000000  0.0000000  2
   1523   1521   1524   1525     1  180.0000771  0.3347200  3
   1523   1521   1524   1526     1  0.0000000  3.3472000  1
   1523   1521   1524   1526     1  0.0000000  0.0000000  2
   1523   1521   1524   1526     1  180.0000771  0.3347200  3
   1528   1527   1530   1533     1  0.0000000  0.6508444  3
   1528   1527   1530   1531     1  0.0000000  0.6508444  3
   1528   1527   1530   1532     1  0.0000000  0.6508444  3
   1529   1527   1530   1533     1  0.0000000  0.6508444  3
   1529   1527   1530   1531     1  0.0000000  0.6508444  3
   1529   1527   1530   1532     1  0.0000000  0.6508444  3
   1531   1530   1533   1534     1  0.0000000  3.3472000  1
   1531   1530   1533   1534     1  0.0000000  0.0000000  2
   1531   1530   1533   1534     1  180.0000771  0.3347200  3
   1531   1530   1533   1535     1  0.0000000  3.3472000  1
   1531   1530   1533   1535     1  0.0000000  0.0000000  2
   1531   1530   1533   1535     1  180.0000771  0.3347200  3
   1532   1530   1533   1534     1  0.0000000  3.3472000  1
   1532   1530   1533   1534     1  0.0000000  0.0000000  2
   1532   1530   1533   1534     1  180.0000771  0.3347200  3
   1532   1530   1533   1535     1  0.0000000  3.3472000  1
   1532   1530   1533   1535     1  0.0000000  0.0000000  2
   1532   1530   1533   1535     1  180.0000771  0.3347200  3
   1537   1540   1543   1544     1  0.0000000  0.6508444  3
   1537   1540   1543   1545     1  0.0000000  0.6508444  3
   1538   1537   1540   1543     1  0.0000000  0.6508444  3
   1538   1537   1540   1541     1  0.0000000  0.6508444  3
   1538   1537   1540   1542     1  0.0000000  0.6508444  3
   1539   1537   1540   1543     1  0.0000000  0.6508444  3
   1539   1537   1540   1541     1  0.0000000  0.6508444  3
   1539   1537   1540   1542     1  0.0000000  0.6508444  3
   1541   1540   1543   1546     1  0.0000000  0.6508444  3
   1541   1540   1543   1544     1  0.0000000  0.6508444  3
   1541   1540   1543   1545     1  0.0000000  0.6508444  3
   1541   1540   1537   1565     1  0.0000000  1.0460000  1
   1541   1540   1537   1565     1  0.0000000  0.0000000  3
   1542   1540   1543   1546     1  0.0000000  0.6508444  3
   1542   1540   1543   1544     1  0.0000000  0.6508444  3
   1542   1540   1543   1545     1  0.0000000  0.6508444  3
   1542   1540   1537   1565     1  0.0000000  1.0460000  1
   1542   1540   1537   1565     1  0.0000000  0.0000000  3
   1543   1546   1547   1548     1  0.0000000  1.2552000  3
   1543   1546   1547   1549     1  0.0000000  1.2552000  3
   1543   1546   1556   1557     1  0.0000000  1.2552000  3
   1543   1546   1556   1558     1  0.0000000  1.2552000  3
   1544   1543   1546   1547     1  0.0000000  1.2552000  3
   1544   1543   1546   1556     1  0.0000000  1.2552000  3
   1545   1543   1546   1547     1  0.0000000  1.2552000  3
   1545   1543   1546   1556     1  0.0000000  1.2552000  3
   1546   1547   1550   1551     1  0.0000000  0.6508444  3
   1546   1547   1550   1552     1  0.0000000  0.6508444  3
   1546   1556   1559   1560     1  0.0000000  0.6508444  3
   1546   1556   1559   1561     1  0.0000000  0.6508444  3
   1547   1546   1556   1557     1  0.0000000  1.2552000  3
   1547   1546   1556   1558     1  0.0000000  1.2552000  3
   1548   1547   1550   1553     1  0.0000000  0.6508444  3
   1548   1547   1550   1551     1  0.0000000  0.6508444  3
   1548   1547   1550   1552     1  0.0000000  0.6508444  3
   1548   1547   1546   1556     1  0.0000000  1.2552000  3
   1549   1547   1550   1553     1  0.0000000  0.6508444  3
   1549   1547   1550   1551     1  0.0000000  0.6508444  3
   1549   1547   1550   1552     1  0.0000000  0.6508444  3
   1549   1547   1546   1556     1  0.0000000  1.2552000  3
   1551   1550   1553   1554     1  0.0000000  3.3472000  1
   1551   1550   1553   1554     1  0.0000000  0.0000000  2
   1551   1550   1553   1554     1  180.0000771  0.3347200  3
   1551   1550   1553   1555     1  0.0000000  3.3472000  1
   1551   1550   1553   1555     1  0.0000000  0.0000000  2
   1551   1550   1553   1555     1  180.0000771  0.3347200  3
   1552   1550   1553   1554     1  0.0000000  3.3472000  1
   1552   1550   1553   1554     1  0.0000000  0.0000000  2
   1552   1550   1553   1554     1  180.0000771  0.3347200  3
   1552   1550   1553   1555     1  0.0000000  3.3472000  1
   1552   1550   1553   1555     1  0.0000000  0.0000000  2
   1552   1550   1553   1555     1  180.0000771  0.3347200  3
   1557   1556   1559   1562     1  0.0000000  0.6508444  3
   1557   1556   1559   1560     1  0.0000000  0.6508444  3
   1557   1556   1559   1561     1  0.0000000  0.6508444  3
   1558   1556   1559   1562     1  0.0000000  0.6508444  3
   1558   1556   1559   1560     1  0.0000000  0.6508444  3
   1558   1556   1559   1561     1  0.0000000  0.6508444  3
   1560   1559   1562   1563     1  0.0000000  3.3472000  1
   1560   1559   1562   1563     1  0.0000000  0.0000000  2
   1560   1559   1562   1563     1  180.0000771  0.3347200  3
   1560   1559   1562   1564     1  0.0000000  3.3472000  1
   1560   1559   1562   1564     1  0.0000000  0.0000000  2
   1560   1559   1562   1564     1  180.0000771  0.3347200  3
   1561   1559   1562   1563     1  0.0000000  3.3472000  1
   1561   1559   1562   1563     1  0.0000000  0.0000000  2
   1561   1559   1562   1563     1  180.0000771  0.3347200  3
   1561   1559   1562   1564     1  0.0000000  3.3472000  1
   1561   1559   1562   1564     1  0.0000000  0.0000000  2
   1561   1559   1562   1564     1  180.0000771  0.3347200  3
   1566   1569   1572   1573     1  0.0000000  0.6508444  3
   1566   1569   1572   1574     1  0.0000000  0.6508444  3
   1567   1566   1569   1572     1  0.0000000  0.6508444  3
   1567   1566   1569   1570     1  0.0000000  0.6508444  3
   1567   1566   1569   1571     1  0.0000000  0.6508444  3
   1568   1566   1569   1572     1  0.0000000  0.6508444  3
   1568   1566   1569   1570     1  0.0000000  0.6508444  3
   1568   1566   1569   1571     1  0.0000000  0.6508444  3
   1570   1569   1566   1594     1  0.0000000  1.0460000  1
   1570   1569   1566   1594     1  0.0000000  0.0000000  3
   1570   1569   1572   1575     1  0.0000000  0.6508444  3
   1570   1569   1572   1573     1  0.0000000  0.6508444  3
   1570   1569   1572   1574     1  0.0000000  0.6508444  3
   1571   1569   1566   1594     1  0.0000000  1.0460000  1
   1571   1569   1566   1594     1  0.0000000  0.0000000  3
   1571   1569   1572   1575     1  0.0000000  0.6508444  3
   1571   1569   1572   1573     1  0.0000000  0.6508444  3
   1571   1569   1572   1574     1  0.0000000  0.6508444  3
   1572   1575   1576   1577     1  0.0000000  1.2552000  3
   1572   1575   1576   1578     1  0.0000000  1.2552000  3
   1572   1575   1585   1586     1  0.0000000  1.2552000  3
   1572   1575   1585   1587     1  0.0000000  1.2552000  3
   1573   1572   1575   1576     1  0.0000000  1.2552000  3
   1573   1572   1575   1585     1  0.0000000  1.2552000  3
   1574   1572   1575   1576     1  0.0000000  1.2552000  3
   1574   1572   1575   1585     1  0.0000000  1.2552000  3
   1575   1576   1579   1580     1  0.0000000  0.6508444  3
   1575   1576   1579   1581     1  0.0000000  0.6508444  3
   1575   1585   1588   1589     1  0.0000000  0.6508444  3
   1575   1585   1588   1590     1  0.0000000  0.6508444  3
   1576   1575   1585   1586     1  0.0000000  1.2552000  3
   1576   1575   1585   1587     1  0.0000000  1.2552000  3
   1577   1576   1575   1585     1  0.0000000  1.2552000  3
   1577   1576   1579   1582     1  0.0000000  0.6508444  3
   1577   1576   1579   1580     1  0.0000000  0.6508444  3
   1577   1576   1579   1581     1  0.0000000  0.6508444  3
   1578   1576   1575   1585     1  0.0000000  1.2552000  3
   1578   1576   1579   1582     1  0.0000000  0.6508444  3
   1578   1576   1579   1580     1  0.0000000  0.6508444  3
   1578   1576   1579   1581     1  0.0000000  0.6508444  3
   1580   1579   1582   1583     1  0.0000000  3.3472000  1
   1580   1579   1582   1583     1  0.0000000  0.0000000  2
   1580   1579   1582   1583     1  180.0000771  0.3347200  3
   1580   1579   1582   1584     1  0.0000000  3.3472000  1
   1580   1579   1582   1584     1  0.0000000  0.0000000  2
   1580   1579   1582   1584     1  180.0000771  0.3347200  3
   1581   1579   1582   1583     1  0.0000000  3.3472000  1
   1581   1579   1582   1583     1  0.0000000  0.0000000  2
   1581   1579   1582   1583     1  180.0000771  0.3347200  3
   1581   1579   1582   1584     1  0.0000000  3.3472000  1
   1581   1579   1582   1584     1  0.0000000  0.0000000  2
   1581   1579   1582   1584     1  180.0000771  0.3347200  3
   1586   1585   1588   1591     1  0.0000000  0.6508444  3
   1586   1585   1588   1589     1  0.0000000  0.6508444  3
   1586   1585   1588   1590     1  0.0000000  0.6508444  3
   1587   1585   1588   1591     1  0.0000000  0.6508444  3
   1587   1585   1588   1589     1  0.0000000  0.6508444  3
   1587   1585   1588   1590     1  0.0000000  0.6508444  3
   1589   1588   1591   1592     1  0.0000000  3.3472000  1
   1589   1588   1591   1592     1  0.0000000  0.0000000  2
   1589   1588   1591   1592     1  180.0000771  0.3347200  3
   1589   1588   1591   1593     1  0.0000000  3.3472000  1
   1589   1588   1591   1593     1  0.0000000  0.0000000  2
   1589   1588   1591   1593     1  180.0000771  0.3347200  3
   1590   1588   1591   1592     1  0.0000000  3.3472000  1
   1590   1588   1591   1592     1  0.0000000  0.0000000  2
   1590   1588   1591   1592     1  180.0000771  0.3347200  3
   1590   1588   1591   1593     1  0.0000000  3.3472000  1
   1590   1588   1591   1593     1  0.0000000  0.0000000  2
   1590   1588   1591   1593     1  180.0000771  0.3347200  3
   1595   1598   1601   1602     1  0.0000000  0.6508444  3
   1595   1598   1601   1603     1  0.0000000  0.6508444  3
   1596   1595   1598   1601     1  0.0000000  0.6508444  3
   1596   1595   1598   1599     1  0.0000000  0.6508444  3
   1596   1595   1598   1600     1  0.0000000  0.6508444  3
   1597   1595   1598   1601     1  0.0000000  0.6508444  3
   1597   1595   1598   1599     1  0.0000000  0.6508444  3
   1597   1595   1598   1600     1  0.0000000  0.6508444  3
   1599   1598   1601   1604     1  0.0000000  0.6508444  3
   1599   1598   1601   1602     1  0.0000000  0.6508444  3
   1599   1598   1601   1603     1  0.0000000  0.6508444  3
   1599   1598   1595   1623     1  0.0000000  1.0460000  1
   1599   1598   1595   1623     1  0.0000000  0.0000000  3
   1600   1598   1601   1604     1  0.0000000  0.6508444  3
   1600   1598   1601   1602     1  0.0000000  0.6508444  3
   1600   1598   1601   1603     1  0.0000000  0.6508444  3
   1600   1598   1595   1623     1  0.0000000  1.0460000  1
   1600   1598   1595   1623     1  0.0000000  0.0000000  3
   1601   1604   1605   1606     1  0.0000000  1.2552000  3
   1601   1604   1605   1607     1  0.0000000  1.2552000  3
   1601   1604   1614   1615     1  0.0000000  1.2552000  3
   1601   1604   1614   1616     1  0.0000000  1.2552000  3
   1602   1601   1604   1605     1  0.0000000  1.2552000  3
   1602   1601   1604   1614     1  0.0000000  1.2552000  3
   1603   1601   1604   1605     1  0.0000000  1.2552000  3
   1603   1601   1604   1614     1  0.0000000  1.2552000  3
   1604   1605   1608   1609     1  0.0000000  0.6508444  3
   1604   1605   1608   1610     1  0.0000000  0.6508444  3
   1604   1614   1617   1618     1  0.0000000  0.6508444  3
   1604   1614   1617   1619     1  0.0000000  0.6508444  3
   1605   1604   1614   1615     1  0.0000000  1.2552000  3
   1605   1604   1614   1616     1  0.0000000  1.2552000  3
   1606   1605   1608   1611     1  0.0000000  0.6508444  3
   1606   1605   1608   1609     1  0.0000000  0.6508444  3
   1606   1605   1608   1610     1  0.0000000  0.6508444  3
   1606   1605   1604   1614     1  0.0000000  1.2552000  3
   1607   1605   1608   1611     1  0.0000000  0.6508444  3
   1607   1605   1608   1609     1  0.0000000  0.6508444  3
   1607   1605   1608   1610     1  0.0000000  0.6508444  3
   1607   1605   1604   1614     1  0.0000000  1.2552000  3
   1609   1608   1611   1612     1  0.0000000  3.3472000  1
   1609   1608   1611   1612     1  0.0000000  0.0000000  2
   1609   1608   1611   1612     1  180.0000771  0.3347200  3
   1609   1608   1611   1613     1  0.0000000  3.3472000  1
   1609   1608   1611   1613     1  0.0000000  0.0000000  2
   1609   1608   1611   1613     1  180.0000771  0.3347200  3
   1610   1608   1611   1612     1  0.0000000  3.3472000  1
   1610   1608   1611   1612     1  0.0000000  0.0000000  2
   1610   1608   1611   1612     1  180.0000771  0.3347200  3
   1610   1608   1611   1613     1  0.0000000  3.3472000  1
   1610   1608   1611   1613     1  0.0000000  0.0000000  2
   1610   1608   1611   1613     1  180.0000771  0.3347200  3
   1615   1614   1617   1620     1  0.0000000  0.6508444  3
   1615   1614   1617   1618     1  0.0000000  0.6508444  3
   1615   1614   1617   1619     1  0.0000000  0.6508444  3
   1616   1614   1617   1620     1  0.0000000  0.6508444  3
   1616   1614   1617   1618     1  0.0000000  0.6508444  3
   1616   1614   1617   1619     1  0.0000000  0.6508444  3
   1618   1617   1620   1621     1  0.0000000  3.3472000  1
   1618   1617   1620   1621     1  0.0000000  0.0000000  2
   1618   1617   1620   1621     1  180.0000771  0.3347200  3
   1618   1617   1620   1622     1  0.0000000  3.3472000  1
   1618   1617   1620   1622     1  0.0000000  0.0000000  2
   1618   1617   1620   1622     1  180.0000771  0.3347200  3
   1619   1617   1620   1621     1  0.0000000  3.3472000  1
   1619   1617   1620   1621     1  0.0000000  0.0000000  2
   1619   1617   1620   1621     1  180.0000771  0.3347200  3
   1619   1617   1620   1622     1  0.0000000  3.3472000  1
   1619   1617   1620   1622     1  0.0000000  0.0000000  2
   1619   1617   1620   1622     1  180.0000771  0.3347200  3
   1624   1627   1630   1631     1  0.0000000  0.6508444  3
   1624   1627   1630   1632     1  0.0000000  0.6508444  3
   1625   1624   1627   1630     1  0.0000000  0.6508444  3
   1625   1624   1627   1628     1  0.0000000  0.6508444  3
   1625   1624   1627   1629     1  0.0000000  0.6508444  3
   1626   1624   1627   1630     1  0.0000000  0.6508444  3
   1626   1624   1627   1628     1  0.0000000  0.6508444  3
   1626   1624   1627   1629     1  0.0000000  0.6508444  3
   1628   1627   1624   1652     1  0.0000000  1.0460000  1
   1628   1627   1624   1652     1  0.0000000  0.0000000  3
   1628   1627   1630   1633     1  0.0000000  0.6508444  3
   1628   1627   1630   1631     1  0.0000000  0.6508444  3
   1628   1627   1630   1632     1  0.0000000  0.6508444  3
   1629   1627   1624   1652     1  0.0000000  1.0460000  1
   1629   1627   1624   1652     1  0.0000000  0.0000000  3
   1629   1627   1630   1633     1  0.0000000  0.6508444  3
   1629   1627   1630   1631     1  0.0000000  0.6508444  3
   1629   1627   1630   1632     1  0.0000000  0.6508444  3
   1630   1633   1634   1635     1  0.0000000  1.2552000  3
   1630   1633   1634   1636     1  0.0000000  1.2552000  3
   1630   1633   1643   1644     1  0.0000000  1.2552000  3
   1630   1633   1643   1645     1  0.0000000  1.2552000  3
   1631   1630   1633   1634     1  0.0000000  1.2552000  3
   1631   1630   1633   1643     1  0.0000000  1.2552000  3
   1632   1630   1633   1634     1  0.0000000  1.2552000  3
   1632   1630   1633   1643     1  0.0000000  1.2552000  3
   1633   1634   1637   1638     1  0.0000000  0.6508444  3
   1633   1634   1637   1639     1  0.0000000  0.6508444  3
   1633   1643   1646   1647     1  0.0000000  0.6508444  3
   1633   1643   1646   1648     1  0.0000000  0.6508444  3
   1634   1633   1643   1644     1  0.0000000  1.2552000  3
   1634   1633   1643   1645     1  0.0000000  1.2552000  3
   1635   1634   1633   1643     1  0.0000000  1.2552000  3
   1635   1634   1637   1640     1  0.0000000  0.6508444  3
   1635   1634   1637   1638     1  0.0000000  0.6508444  3
   1635   1634   1637   1639     1  0.0000000  0.6508444  3
   1636   1634   1633   1643     1  0.0000000  1.2552000  3
   1636   1634   1637   1640     1  0.0000000  0.6508444  3
   1636   1634   1637   1638     1  0.0000000  0.6508444  3
   1636   1634   1637   1639     1  0.0000000  0.6508444  3
   1638   1637   1640   1641     1  0.0000000  3.3472000  1
   1638   1637   1640   1641     1  0.0000000  0.0000000  2
   1638   1637   1640   1641     1  180.0000771  0.3347200  3
   1638   1637   1640   1642     1  0.0000000  3.3472000  1
   1638   1637   1640   1642     1  0.0000000  0.0000000  2
   1638   1637   1640   1642     1  180.0000771  0.3347200  3
   1639   1637   1640   1641     1  0.0000000  3.3472000  1
   1639   1637   1640   1641     1  0.0000000  0.0000000  2
   1639   1637   1640   1641     1  180.0000771  0.3347200  3
   1639   1637   1640   1642     1  0.0000000  3.3472000  1
   1639   1637   1640   1642     1  0.0000000  0.0000000  2
   1639   1637   1640   1642     1  180.0000771  0.3347200  3
   1644   1643   1646   1649     1  0.0000000  0.6508444  3
   1644   1643   1646   1647     1  0.0000000  0.6508444  3
   1644   1643   1646   1648     1  0.0000000  0.6508444  3
   1645   1643   1646   1649     1  0.0000000  0.6508444  3
   1645   1643   1646   1647     1  0.0000000  0.6508444  3
   1645   1643   1646   1648     1  0.0000000  0.6508444  3
   1647   1646   1649   1650     1  0.0000000  3.3472000  1
   1647   1646   1649   1650     1  0.0000000  0.0000000  2
   1647   1646   1649   1650     1  180.0000771  0.3347200  3
   1647   1646   1649   1651     1  0.0000000  3.3472000  1
   1647   1646   1649   1651     1  0.0000000  0.0000000  2
   1647   1646   1649   1651     1  180.0000771  0.3347200  3
   1648   1646   1649   1650     1  0.0000000  3.3472000  1
   1648   1646   1649   1650     1  0.0000000  0.0000000  2
   1648   1646   1649   1650     1  180.0000771  0.3347200  3
   1648   1646   1649   1651     1  0.0000000  3.3472000  1
   1648   1646   1649   1651     1  0.0000000  0.0000000  2
   1648   1646   1649   1651     1  180.0000771  0.3347200  3
   1653   1656   1659   1660     1  0.0000000  0.6508444  3
   1653   1656   1659   1661     1  0.0000000  0.6508444  3
   1654   1653   1656   1659     1  0.0000000  0.6508444  3
   1654   1653   1656   1657     1  0.0000000  0.6508444  3
   1654   1653   1656   1658     1  0.0000000  0.6508444  3
   1655   1653   1656   1659     1  0.0000000  0.6508444  3
   1655   1653   1656   1657     1  0.0000000  0.6508444  3
   1655   1653   1656   1658     1  0.0000000  0.6508444  3
   1657   1656   1659   1662     1  0.0000000  0.6508444  3
   1657   1656   1659   1660     1  0.0000000  0.6508444  3
   1657   1656   1659   1661     1  0.0000000  0.6508444  3
   1657   1656   1653   1681     1  0.0000000  1.0460000  1
   1657   1656   1653   1681     1  0.0000000  0.0000000  3
   1658   1656   1659   1662     1  0.0000000  0.6508444  3
   1658   1656   1659   1660     1  0.0000000  0.6508444  3
   1658   1656   1659   1661     1  0.0000000  0.6508444  3
   1658   1656   1653   1681     1  0.0000000  1.0460000  1
   1658   1656   1653   1681     1  0.0000000  0.0000000  3
   1659   1662   1663   1664     1  0.0000000  1.2552000  3
   1659   1662   1663   1665     1  0.0000000  1.2552000  3
   1659   1662   1672   1673     1  0.0000000  1.2552000  3
   1659   1662   1672   1674     1  0.0000000  1.2552000  3
   1660   1659   1662   1663     1  0.0000000  1.2552000  3
   1660   1659   1662   1672     1  0.0000000  1.2552000  3
   1661   1659   1662   1663     1  0.0000000  1.2552000  3
   1661   1659   1662   1672     1  0.0000000  1.2552000  3
   1662   1663   1666   1667     1  0.0000000  0.6508444  3
   1662   1663   1666   1668     1  0.0000000  0.6508444  3
   1662   1672   1675   1676     1  0.0000000  0.6508444  3
   1662   1672   1675   1677     1  0.0000000  0.6508444  3
   1663   1662   1672   1673     1  0.0000000  1.2552000  3
   1663   1662   1672   1674     1  0.0000000  1.2552000  3
   1664   1663   1666   1669     1  0.0000000  0.6508444  3
   1664   1663   1666   1667     1  0.0000000  0.6508444  3
   1664   1663   1666   1668     1  0.0000000  0.6508444  3
   1664   1663   1662   1672     1  0.0000000  1.2552000  3
   1665   1663   1666   1669     1  0.0000000  0.6508444  3
   1665   1663   1666   1667     1  0.0000000  0.6508444  3
   1665   1663   1666   1668     1  0.0000000  0.6508444  3
   1665   1663   1662   1672     1  0.0000000  1.2552000  3
   1667   1666   1669   1670     1  0.0000000  3.3472000  1
   1667   1666   1669   1670     1  0.0000000  0.0000000  2
   1667   1666   1669   1670     1  180.0000771  0.3347200  3
   1667   1666   1669   1671     1  0.0000000  3.3472000  1
   1667   1666   1669   1671     1  0.0000000  0.0000000  2
   1667   1666   1669   1671     1  180.0000771  0.3347200  3
   1668   1666   1669   1670     1  0.0000000  3.3472000  1
   1668   1666   1669   1670     1  0.0000000  0.0000000  2
   1668   1666   1669   1670     1  180.0000771  0.3347200  3
   1668   1666   1669   1671     1  0.0000000  3.3472000  1
   1668   1666   1669   1671     1  0.0000000  0.0000000  2
   1668   1666   1669   1671     1  180.0000771  0.3347200  3
   1673   1672   1675   1678     1  0.0000000  0.6508444  3
   1673   1672   1675   1676     1  0.0000000  0.6508444  3
   1673   1672   1675   1677     1  0.0000000  0.6508444  3
   1674   1672   1675   1678     1  0.0000000  0.6508444  3
   1674   1672   1675   1676     1  0.0000000  0.6508444  3
   1674   1672   1675   1677     1  0.0000000  0.6508444  3
   1676   1675   1678   1679     1  0.0000000  3.3472000  1
   1676   1675   1678   1679     1  0.0000000  0.0000000  2
   1676   1675   1678   1679     1  180.0000771  0.3347200  3
   1676   1675   1678   1680     1  0.0000000  3.3472000  1
   1676   1675   1678   1680     1  0.0000000  0.0000000  2
   1676   1675   1678   1680     1  180.0000771  0.3347200  3
   1677   1675   1678   1679     1  0.0000000  3.3472000  1
   1677   1675   1678   1679     1  0.0000000  0.0000000  2
   1677   1675   1678   1679     1  180.0000771  0.3347200  3
   1677   1675   1678   1680     1  0.0000000  3.3472000  1
   1677   1675   1678   1680     1  0.0000000  0.0000000  2
   1677   1675   1678   1680     1  180.0000771  0.3347200  3
   1682   1685   1688   1689     1  0.0000000  0.6508444  3
   1682   1685   1688   1690     1  0.0000000  0.6508444  3
   1683   1682   1685   1688     1  0.0000000  0.6508444  3
   1683   1682   1685   1686     1  0.0000000  0.6508444  3
   1683   1682   1685   1687     1  0.0000000  0.6508444  3
   1684   1682   1685   1688     1  0.0000000  0.6508444  3
   1684   1682   1685   1686     1  0.0000000  0.6508444  3
   1684   1682   1685   1687     1  0.0000000  0.6508444  3
   1686   1685   1682   1710     1  0.0000000  1.0460000  1
   1686   1685   1682   1710     1  0.0000000  0.0000000  3
   1686   1685   1688   1691     1  0.0000000  0.6508444  3
   1686   1685   1688   1689     1  0.0000000  0.6508444  3
   1686   1685   1688   1690     1  0.0000000  0.6508444  3
   1687   1685   1682   1710     1  0.0000000  1.0460000  1
   1687   1685   1682   1710     1  0.0000000  0.0000000  3
   1687   1685   1688   1691     1  0.0000000  0.6508444  3
   1687   1685   1688   1689     1  0.0000000  0.6508444  3
   1687   1685   1688   1690     1  0.0000000  0.6508444  3
   1688   1691   1692   1693     1  0.0000000  1.2552000  3
   1688   1691   1692   1694     1  0.0000000  1.2552000  3
   1688   1691   1701   1702     1  0.0000000  1.2552000  3
   1688   1691   1701   1703     1  0.0000000  1.2552000  3
   1689   1688   1691   1692     1  0.0000000  1.2552000  3
   1689   1688   1691   1701     1  0.0000000  1.2552000  3
   1690   1688   1691   1692     1  0.0000000  1.2552000  3
   1690   1688   1691   1701     1  0.0000000  1.2552000  3
   1691   1692   1695   1696     1  0.0000000  0.6508444  3
   1691   1692   1695   1697     1  0.0000000  0.6508444  3
   1691   1701   1704   1705     1  0.0000000  0.6508444  3
   1691   1701   1704   1706     1  0.0000000  0.6508444  3
   1692   1691   1701   1702     1  0.0000000  1.2552000  3
   1692   1691   1701   1703     1  0.0000000  1.2552000  3
   1693   1692   1691   1701     1  0.0000000  1.2552000  3
   1693   1692   1695   1698     1  0.0000000  0.6508444  3
   1693   1692   1695   1696     1  0.0000000  0.6508444  3
   1693   1692   1695   1697     1  0.0000000  0.6508444  3
   1694   1692   1691   1701     1  0.0000000  1.2552000  3
   1694   1692   1695   1698     1  0.0000000  0.6508444  3
   1694   1692   1695   1696     1  0.0000000  0.6508444  3
   1694   1692   1695   1697     1  0.0000000  0.6508444  3
   1696   1695   1698   1699     1  0.0000000  3.3472000  1
   1696   1695   1698   1699     1  0.0000000  0.0000000  2
   1696   1695   1698   1699     1  180.0000771  0.3347200  3
   1696   1695   1698   1700     1  0.0000000  3.3472000  1
   1696   1695   1698   1700     1  0.0000000  0.0000000  2
   1696   1695   1698   1700     1  180.0000771  0.3347200  3
   1697   1695   1698   1699     1  0.0000000  3.3472000  1
   1697   1695   1698   1699     1  0.0000000  0.0000000  2
   1697   1695   1698   1699     1  180.0000771  0.3347200  3
   1697   1695   1698   1700     1  0.0000000  3.3472000  1
   1697   1695   1698   1700     1  0.0000000  0.0000000  2
   1697   1695   1698   1700     1  180.0000771  0.3347200  3
   1702   1701   1704   1707     1  0.0000000  0.6508444  3
   1702   1701   1704   1705     1  0.0000000  0.6508444  3
   1702   1701   1704   1706     1  0.0000000  0.6508444  3
   1703   1701   1704   1707     1  0.0000000  0.6508444  3
   1703   1701   1704   1705     1  0.0000000  0.6508444  3
   1703   1701   1704   1706     1  0.0000000  0.6508444  3
   1705   1704   1707   1708     1  0.0000000  3.3472000  1
   1705   1704   1707   1708     1  0.0000000  0.0000000  2
   1705   1704   1707   1708     1  180.0000771  0.3347200  3
   1705   1704   1707   1709     1  0.0000000  3.3472000  1
   1705   1704   1707   1709     1  0.0000000  0.0000000  2
   1705   1704   1707   1709     1  180.0000771  0.3347200  3
   1706   1704   1707   1708     1  0.0000000  3.3472000  1
   1706   1704   1707   1708     1  0.0000000  0.0000000  2
   1706   1704   1707   1708     1  180.0000771  0.3347200  3
   1706   1704   1707   1709     1  0.0000000  3.3472000  1
   1706   1704   1707   1709     1  0.0000000  0.0000000  2
   1706   1704   1707   1709     1  180.0000771  0.3347200  3
   1711   1714   1717   1718     1  0.0000000  0.6508444  3
   1711   1714   1717   1719     1  0.0000000  0.6508444  3
   1712   1711   1714   1717     1  0.0000000  0.6508444  3
   1712   1711   1714   1715     1  0.0000000  0.6508444  3
   1712   1711   1714   1716     1  0.0000000  0.6508444  3
   1713   1711   1714   1717     1  0.0000000  0.6508444  3
   1713   1711   1714   1715     1  0.0000000  0.6508444  3
   1713   1711   1714   1716     1  0.0000000  0.6508444  3
   1715   1714   1717   1720     1  0.0000000  0.6508444  3
   1715   1714   1717   1718     1  0.0000000  0.6508444  3
   1715   1714   1717   1719     1  0.0000000  0.6508444  3
   1715   1714   1711   1739     1  0.0000000  1.0460000  1
   1715   1714   1711   1739     1  0.0000000  0.0000000  3
   1716   1714   1717   1720     1  0.0000000  0.6508444  3
   1716   1714   1717   1718     1  0.0000000  0.6508444  3
   1716   1714   1717   1719     1  0.0000000  0.6508444  3
   1716   1714   1711   1739     1  0.0000000  1.0460000  1
   1716   1714   1711   1739     1  0.0000000  0.0000000  3
   1717   1720   1721   1722     1  0.0000000  1.2552000  3
   1717   1720   1721   1723     1  0.0000000  1.2552000  3
   1717   1720   1730   1731     1  0.0000000  1.2552000  3
   1717   1720   1730   1732     1  0.0000000  1.2552000  3
   1718   1717   1720   1721     1  0.0000000  1.2552000  3
   1718   1717   1720   1730     1  0.0000000  1.2552000  3
   1719   1717   1720   1721     1  0.0000000  1.2552000  3
   1719   1717   1720   1730     1  0.0000000  1.2552000  3
   1720   1721   1724   1725     1  0.0000000  0.6508444  3
   1720   1721   1724   1726     1  0.0000000  0.6508444  3
   1720   1730   1733   1734     1  0.0000000  0.6508444  3
   1720   1730   1733   1735     1  0.0000000  0.6508444  3
   1721   1720   1730   1731     1  0.0000000  1.2552000  3
   1721   1720   1730   1732     1  0.0000000  1.2552000  3
   1722   1721   1724   1727     1  0.0000000  0.6508444  3
   1722   1721   1724   1725     1  0.0000000  0.6508444  3
   1722   1721   1724   1726     1  0.0000000  0.6508444  3
   1722   1721   1720   1730     1  0.0000000  1.2552000  3
   1723   1721   1724   1727     1  0.0000000  0.6508444  3
   1723   1721   1724   1725     1  0.0000000  0.6508444  3
   1723   1721   1724   1726     1  0.0000000  0.6508444  3
   1723   1721   1720   1730     1  0.0000000  1.2552000  3
   1725   1724   1727   1728     1  0.0000000  3.3472000  1
   1725   1724   1727   1728     1  0.0000000  0.0000000  2
   1725   1724   1727   1728     1  180.0000771  0.3347200  3
   1725   1724   1727   1729     1  0.0000000  3.3472000  1
   1725   1724   1727   1729     1  0.0000000  0.0000000  2
   1725   1724   1727   1729     1  180.0000771  0.3347200  3
   1726   1724   1727   1728     1  0.0000000  3.3472000  1
   1726   1724   1727   1728     1  0.0000000  0.0000000  2
   1726   1724   1727   1728     1  180.0000771  0.3347200  3
   1726   1724   1727   1729     1  0.0000000  3.3472000  1
   1726   1724   1727   1729     1  0.0000000  0.0000000  2
   1726   1724   1727   1729     1  180.0000771  0.3347200  3
   1731   1730   1733   1736     1  0.0000000  0.6508444  3
   1731   1730   1733   1734     1  0.0000000  0.6508444  3
   1731   1730   1733   1735     1  0.0000000  0.6508444  3
   1732   1730   1733   1736     1  0.0000000  0.6508444  3
   1732   1730   1733   1734     1  0.0000000  0.6508444  3
   1732   1730   1733   1735     1  0.0000000  0.6508444  3
   1734   1733   1736   1737     1  0.0000000  3.3472000  1
   1734   1733   1736   1737     1  0.0000000  0.0000000  2
   1734   1733   1736   1737     1  180.0000771  0.3347200  3
   1734   1733   1736   1738     1  0.0000000  3.3472000  1
   1734   1733   1736   1738     1  0.0000000  0.0000000  2
   1734   1733   1736   1738     1  180.0000771  0.3347200  3
   1735   1733   1736   1737     1  0.0000000  3.3472000  1
   1735   1733   1736   1737     1  0.0000000  0.0000000  2
   1735   1733   1736   1737     1  180.0000771  0.3347200  3
   1735   1733   1736   1738     1  0.0000000  3.3472000  1
   1735   1733   1736   1738     1  0.0000000  0.0000000  2
   1735   1733   1736   1738     1  180.0000771  0.3347200  3
   1740   1743   1746   1747     1  0.0000000  0.6508444  3
   1740   1743   1746   1748     1  0.0000000  0.6508444  3
   1741   1740   1743   1746     1  0.0000000  0.6508444  3
   1741   1740   1743   1744     1  0.0000000  0.6508444  3
   1741   1740   1743   1745     1  0.0000000  0.6508444  3
   1742   1740   1743   1746     1  0.0000000  0.6508444  3
   1742   1740   1743   1744     1  0.0000000  0.6508444  3
   1742   1740   1743   1745     1  0.0000000  0.6508444  3
   1744   1743   1740   1768     1  0.0000000  1.0460000  1
   1744   1743   1740   1768     1  0.0000000  0.0000000  3
   1744   1743   1746   1749     1  0.0000000  0.6508444  3
   1744   1743   1746   1747     1  0.0000000  0.6508444  3
   1744   1743   1746   1748     1  0.0000000  0.6508444  3
   1745   1743   1740   1768     1  0.0000000  1.0460000  1
   1745   1743   1740   1768     1  0.0000000  0.0000000  3
   1745   1743   1746   1749     1  0.0000000  0.6508444  3
   1745   1743   1746   1747     1  0.0000000  0.6508444  3
   1745   1743   1746   1748     1  0.0000000  0.6508444  3
   1746   1749   1750   1751     1  0.0000000  1.2552000  3
   1746   1749   1750   1752     1  0.0000000  1.2552000  3
   1746   1749   1759   1760     1  0.0000000  1.2552000  3
   1746   1749   1759   1761     1  0.0000000  1.2552000  3
   1747   1746   1749   1750     1  0.0000000  1.2552000  3
   1747   1746   1749   1759     1  0.0000000  1.2552000  3
   1748   1746   1749   1750     1  0.0000000  1.2552000  3
   1748   1746   1749   1759     1  0.0000000  1.2552000  3
   1749   1750   1753   1754     1  0.0000000  0.6508444  3
   1749   1750   1753   1755     1  0.0000000  0.6508444  3
   1749   1759   1762   1763     1  0.0000000  0.6508444  3
   1749   1759   1762   1764     1  0.0000000  0.6508444  3
   1750   1749   1759   1760     1  0.0000000  1.2552000  3
   1750   1749   1759   1761     1  0.0000000  1.2552000  3
   1751   1750   1749   1759     1  0.0000000  1.2552000  3
   1751   1750   1753   1756     1  0.0000000  0.6508444  3
   1751   1750   1753   1754     1  0.0000000  0.6508444  3
   1751   1750   1753   1755     1  0.0000000  0.6508444  3
   1752   1750   1749   1759     1  0.0000000  1.2552000  3
   1752   1750   1753   1756     1  0.0000000  0.6508444  3
   1752   1750   1753   1754     1  0.0000000  0.6508444  3
   1752   1750   1753   1755     1  0.0000000  0.6508444  3
   1754   1753   1756   1757     1  0.0000000  3.3472000  1
   1754   1753   1756   1757     1  0.0000000  0.0000000  2
   1754   1753   1756   1757     1  180.0000771  0.3347200  3
   1754   1753   1756   1758     1  0.0000000  3.3472000  1
   1754   1753   1756   1758     1  0.0000000  0.0000000  2
   1754   1753   1756   1758     1  180.0000771  0.3347200  3
   1755   1753   1756   1757     1  0.0000000  3.3472000  1
   1755   1753   1756   1757     1  0.0000000  0.0000000  2
   1755   1753   1756   1757     1  180.0000771  0.3347200  3
   1755   1753   1756   1758     1  0.0000000  3.3472000  1
   1755   1753   1756   1758     1  0.0000000  0.0000000  2
   1755   1753   1756   1758     1  180.0000771  0.3347200  3
   1760   1759   1762   1765     1  0.0000000  0.6508444  3
   1760   1759   1762   1763     1  0.0000000  0.6508444  3
   1760   1759   1762   1764     1  0.0000000  0.6508444  3
   1761   1759   1762   1765     1  0.0000000  0.6508444  3
   1761   1759   1762   1763     1  0.0000000  0.6508444  3
   1761   1759   1762   1764     1  0.0000000  0.6508444  3
   1763   1762   1765   1766     1  0.0000000  3.3472000  1
   1763   1762   1765   1766     1  0.0000000  0.0000000  2
   1763   1762   1765   1766     1  180.0000771  0.3347200  3
   1763   1762   1765   1767     1  0.0000000  3.3472000  1
   1763   1762   1765   1767     1  0.0000000  0.0000000  2
   1763   1762   1765   1767     1  180.0000771  0.3347200  3
   1764   1762   1765   1766     1  0.0000000  3.3472000  1
   1764   1762   1765   1766     1  0.0000000  0.0000000  2
   1764   1762   1765   1766     1  180.0000771  0.3347200  3
   1764   1762   1765   1767     1  0.0000000  3.3472000  1
   1764   1762   1765   1767     1  0.0000000  0.0000000  2
   1764   1762   1765   1767     1  180.0000771  0.3347200  3
   1769   1772   1775   1776     1  0.0000000  0.6508444  3
   1769   1772   1775   1777     1  0.0000000  0.6508444  3
   1770   1769   1772   1775     1  0.0000000  0.6508444  3
   1770   1769   1772   1773     1  0.0000000  0.6508444  3
   1770   1769   1772   1774     1  0.0000000  0.6508444  3
   1771   1769   1772   1775     1  0.0000000  0.6508444  3
   1771   1769   1772   1773     1  0.0000000  0.6508444  3
   1771   1769   1772   1774     1  0.0000000  0.6508444  3
   1773   1772   1775   1778     1  0.0000000  0.6508444  3
   1773   1772   1775   1776     1  0.0000000  0.6508444  3
   1773   1772   1775   1777     1  0.0000000  0.6508444  3
   1773   1772   1769   1797     1  0.0000000  1.0460000  1
   1773   1772   1769   1797     1  0.0000000  0.0000000  3
   1774   1772   1775   1778     1  0.0000000  0.6508444  3
   1774   1772   1775   1776     1  0.0000000  0.6508444  3
   1774   1772   1775   1777     1  0.0000000  0.6508444  3
   1774   1772   1769   1797     1  0.0000000  1.0460000  1
   1774   1772   1769   1797     1  0.0000000  0.0000000  3
   1775   1778   1779   1780     1  0.0000000  1.2552000  3
   1775   1778   1779   1781     1  0.0000000  1.2552000  3
   1775   1778   1788   1789     1  0.0000000  1.2552000  3
   1775   1778   1788   1790     1  0.0000000  1.2552000  3
   1776   1775   1778   1779     1  0.0000000  1.2552000  3
   1776   1775   1778   1788     1  0.0000000  1.2552000  3
   1777   1775   1778   1779     1  0.0000000  1.2552000  3
   1777   1775   1778   1788     1  0.0000000  1.2552000  3
   1778   1779   1782   1783     1  0.0000000  0.6508444  3
   1778   1779   1782   1784     1  0.0000000  0.6508444  3
   1778   1788   1791   1792     1  0.0000000  0.6508444  3
   1778   1788   1791   1793     1  0.0000000  0.6508444  3
   1779   1778   1788   1789     1  0.0000000  1.2552000  3
   1779   1778   1788   1790     1  0.0000000  1.2552000  3
   1780   1779   1782   1785     1  0.0000000  0.6508444  3
   1780   1779   1782   1783     1  0.0000000  0.6508444  3
   1780   1779   1782   1784     1  0.0000000  0.6508444  3
   1780   1779   1778   1788     1  0.0000000  1.2552000  3
   1781   1779   1782   1785     1  0.0000000  0.6508444  3
   1781   1779   1782   1783     1  0.0000000  0.6508444  3
   1781   1779   1782   1784     1  0.0000000  0.6508444  3
   1781   1779   1778   1788     1  0.0000000  1.2552000  3
   1783   1782   1785   1786     1  0.0000000  3.3472000  1
   1783   1782   1785   1786     1  0.0000000  0.0000000  2
   1783   1782   1785   1786     1  180.0000771  0.3347200  3
   1783   1782   1785   1787     1  0.0000000  3.3472000  1
   1783   1782   1785   1787     1  0.0000000  0.0000000  2
   1783   1782   1785   1787     1  180.0000771  0.3347200  3
   1784   1782   1785   1786     1  0.0000000  3.3472000  1
   1784   1782   1785   1786     1  0.0000000  0.0000000  2
   1784   1782   1785   1786     1  180.0000771  0.3347200  3
   1784   1782   1785   1787     1  0.0000000  3.3472000  1
   1784   1782   1785   1787     1  0.0000000  0.0000000  2
   1784   1782   1785   1787     1  180.0000771  0.3347200  3
   1789   1788   1791   1794     1  0.0000000  0.6508444  3
   1789   1788   1791   1792     1  0.0000000  0.6508444  3
   1789   1788   1791   1793     1  0.0000000  0.6508444  3
   1790   1788   1791   1794     1  0.0000000  0.6508444  3
   1790   1788   1791   1792     1  0.0000000  0.6508444  3
   1790   1788   1791   1793     1  0.0000000  0.6508444  3
   1792   1791   1794   1795     1  0.0000000  3.3472000  1
   1792   1791   1794   1795     1  0.0000000  0.0000000  2
   1792   1791   1794   1795     1  180.0000771  0.3347200  3
   1792   1791   1794   1796     1  0.0000000  3.3472000  1
   1792   1791   1794   1796     1  0.0000000  0.0000000  2
   1792   1791   1794   1796     1  180.0000771  0.3347200  3
   1793   1791   1794   1795     1  0.0000000  3.3472000  1
   1793   1791   1794   1795     1  0.0000000  0.0000000  2
   1793   1791   1794   1795     1  180.0000771  0.3347200  3
   1793   1791   1794   1796     1  0.0000000  3.3472000  1
   1793   1791   1794   1796     1  0.0000000  0.0000000  2
   1793   1791   1794   1796     1  180.0000771  0.3347200  3

;[ system ]
;; Name
;Generic title
;
;[ molecules ]
;; Compound       #mols
;g4.5ocore_petim    1
