G4.5Ocore-PETIM in water
94702
    1aaa     O1    1   1.420   2.918   1.002  0.1994  0.2672 -0.3028
    1aaa     C1    2   1.535   2.988   0.939  1.0431 -0.2538  0.1432
    1aaa     H1    3   1.537   3.093   0.971 -1.4172  0.2694 -1.1370
    1aaa     H2    4   1.518   2.981   0.830  1.8613 -1.2189  0.0693
    1aaa     C2    5   1.291   2.973   0.979  0.3594  0.0690 -0.2273
    1aaa     H3    6   1.220   2.894   1.005  0.7142 -0.3053 -0.3929
    1aaa     H4    7   1.280   2.981   0.871  0.9503  1.1819 -0.2238
    1aaa     C3    8   1.673   2.916   0.973  0.7762 -0.4090  0.1762
    1aaa     H5    9   1.652   2.810   0.987  1.4198 -0.5303  0.2962
    1aaa     H6   10   1.705   2.957   1.070 -0.8748  2.3945 -0.3574
    1aaa     C4   11   1.269   3.112   1.046  0.1987 -0.1311  1.0257
    1aaa     H7   12   1.349   3.184   1.026  1.2345 -0.7688  2.7222
    1aaa     H8   13   1.261   3.091   1.153  1.7996 -2.2402  0.7873
    1aaa     C5   14   1.793   2.948   0.881  0.0718 -0.7567  0.3721
    1aaa     H9   15   1.810   3.056   0.883 -1.0667 -0.1449 -5.6211
    1aaa    H10   16   1.886   2.895   0.905 -0.1247 -1.9278 -1.2798
    1aaa     C6   17   1.135   3.160   0.990  0.3383  0.0313  0.3837
    1aaa    H11   18   1.097   3.244   1.049  0.1846  0.6003 -0.5006
    1aaa    H12   19   1.069   3.074   1.004  2.2346 -1.4240  0.7566
    1aaa     N1   20   1.763   2.922   0.742  0.4004  0.6765  0.4037
    1aaa     N2   21   1.147   3.202   0.848  0.5218  0.0962 -0.4128
    1aaa     C7   22   1.012   3.202   0.773 -0.6826 -0.4841 -0.8767
    1aaa    H13   23   0.949   3.248   0.850  1.5649 -0.3361  0.9900
    1aaa    H14   24   1.012   3.260   0.680 -1.3090 -0.8395 -1.1080
    1aaa     C8   25   1.214   3.333   0.831  0.1575 -0.9544  0.5760
    1aaa    H15   26   1.137   3.411   0.834 -1.1333 -2.1829  0.4200
    1aaa    H16   27   1.287   3.359   0.909 -0.8997  1.2709  0.9041
    1aaa     C9   28   1.848   3.002   0.654 -0.1853 -0.3543  0.0437
    1aaa    H17   29   1.818   2.993   0.549  1.0499 -0.9217 -0.2731
    1aaa    H18   30   1.843   3.108   0.682 -0.5795 -0.4233  0.2425
    1aaa    C10   31   1.748   2.779   0.702 -0.0070 -0.0590 -0.0391
    1aaa    H19   32   1.835   2.726   0.743  1.0798  2.3216  0.9333
    1aaa    H20   33   1.667   2.731   0.757  1.9767 -1.7465  1.5661
    1aaa    C11   34   0.980   3.055   0.740  1.0110  0.2864  0.6205
    1aaa    H21   35   1.066   3.015   0.685  0.9615  0.5923  0.3150
    1aaa    H22   36   0.964   2.994   0.830 -0.7770  0.5504  0.5194
    1aaa    C12   37   1.282   3.352   0.697 -0.0405  0.2382 -0.6288
    1aaa    H23   38   1.210   3.344   0.615 -1.9310  0.5283  0.9293
    1aaa    H24   39   1.331   3.450   0.698 -0.1389  0.2846 -0.1889
    1aaa    C13   40   2.004   2.968   0.661  0.1066 -0.0012 -0.1755
    1aaa    H25   41   2.036   2.956   0.764 -2.2611  2.7107  1.0340
    1aaa    H26   42   2.010   2.873   0.606  2.0961  0.2447 -0.4430
    1aaa    C14   43   1.727   2.747   0.551  0.3863  0.3509  0.2679
    1aaa    H27   44   1.818   2.775   0.498  0.1374 -1.2138 -1.0638
    1aaa    H28   45   1.718   2.638   0.538 -0.2877  0.5800 -1.5427
    1aaa    C15   46   1.604   2.821   0.490  0.7296 -0.3500  0.2171
    1aaa    H29   47   1.602   2.929   0.510 -1.6486 -0.4670  0.9780
    1aaa    H30   48   1.616   2.822   0.381 -2.0479 -1.1243 -0.1865
    1aaa    C16   49   2.096   3.069   0.595  0.0609 -0.6247  0.8409
    1aaa    H31   50   2.038   3.154   0.559  2.4756  0.0861 -1.7363
    1aaa    H32   51   2.166   3.113   0.667 -0.2373 -0.4704  1.0384
    1aaa    C17   52   1.394   3.250   0.667 -0.3461  0.1747 -0.5230
    1aaa    H33   53   1.461   3.232   0.753  0.3792 -2.7385 -1.5999
    1aaa    H34   54   1.359   3.149   0.644  1.1519 -0.2255 -1.1555
    1aaa    C18   55   0.851   3.048   0.657 -0.3246  0.1516 -0.5031
    1aaa    H35   56   0.854   3.113   0.569  2.7913  2.2265  0.9463
    1aaa    H36   57   0.836   2.943   0.630 -1.2455 -0.2696  1.5144
    2bbb     N1   58   1.435   2.551   0.795 -0.4102  0.1146  0.2132
    2bbb     C1   59   1.524   2.432   0.774  0.7835  0.4241 -0.2719
    2bbb     H1   60   1.572   2.434   0.675 -0.6958  0.5935 -1.0184
    2bbb     H2   61   1.466   2.339   0.779  2.6578 -0.9553 -2.3794
    2bbb     C2   62   1.385   2.579   0.931 -0.1249 -0.4314 -0.3188
    2bbb     H3   63   1.348   2.682   0.930  1.6597  0.2625  0.3939
    2bbb     H4   64   1.474   2.578   0.995  0.0297 -0.4935 -0.5327
    2bbb     C3   65   1.331   2.561   0.693  1.0179 -0.5225  0.5128
    2bbb     H5   66   1.244   2.502   0.721  1.1803 -1.0660 -0.1028
    2bbb     H6   67   1.359   2.508   0.601 -1.7582 -0.5858 -0.3749
    2bbb     C4   68   1.291   2.697   0.648 -0.4218 -0.8729  0.7580
    2bbb     H7   69   1.238   2.752   0.727 -1.0245  1.4994 -1.1857
    2bbb     H8   70   1.227   2.695   0.560 -2.0014  0.5654  1.8129
    2bbb     C5   71   1.622   2.415   0.881 -0.6492  0.0142  0.5973
    2bbb     H9   72   1.570   2.382   0.972  1.2885 -1.5351  1.2199
    2bbb    H10   73   1.664   2.515   0.900 -0.6290  0.1554 -0.1723
    2bbb     C6   74   1.284   2.481   0.989 -0.7637 -0.0621  0.3601
    2bbb    H11   75   1.333   2.383   0.979  1.4586  0.9713  0.3230
    2bbb    H12   76   1.195   2.466   0.928 -2.7742  1.2238  2.8106
    2bbb     C7   77   1.406   2.800   0.627  0.4087  0.0455  0.6057
    2bbb    H13   78   1.472   2.813   0.713  0.5213 -2.8364  1.0653
    2bbb    H14   79   1.371   2.900   0.599 -0.2221  0.4909  2.8316
    2bbb     C8   80   1.245   2.515   1.134  0.1388  0.1751 -0.2753
    2bbb    H15   81   1.319   2.496   1.212 -1.9292 -1.4016  1.4426
    2bbb    H16   82   1.162   2.445   1.152 -1.6650  2.2826  0.0181
    2bbb     C9   83   1.728   2.297   0.865  0.0870  0.5751  0.1941
    2bbb    H17   84   1.658   2.212   0.864  0.6729  0.0118  2.4187
    2bbb    H18   85   1.787   2.291   0.957 -1.8261 -1.5206  1.3987
    2bbb     O1   86   1.485   2.748   0.517  0.1116 -0.1749  0.0156
    3bbb     N1   87   2.315   2.802   0.183 -0.1640  0.0883  0.3410
    3bbb     C1   88   2.289   2.936   0.117 -0.2513  0.5385 -0.0032
    3bbb     H1   89   2.378   2.999   0.126  0.2944 -0.1076 -0.6535
    3bbb     H2   90   2.210   2.997   0.163 -0.1919 -1.1439  2.5379
    3bbb     C2   91   2.444   2.738   0.140 -0.3901  0.2917  0.6794
    3bbb     H3   92   2.517   2.796   0.199 -0.7217 -0.0023  1.3866
    3bbb     H4   93   2.468   2.756   0.034  2.0268  0.6362  1.2174
    3bbb     C3   94   2.282   2.794   0.327 -0.0597 -0.1113  0.1755
    3bbb     H5   95   2.270   2.689   0.357 -1.8530 -0.2351 -0.8001
    3bbb     H6   96   2.175   2.814   0.340 -0.6333 -3.0316  0.8118
    3bbb     C4   97   2.374   2.888   0.408  0.9575  0.5740  0.2172
    3bbb     H7   98   2.393   2.980   0.351  1.2368  1.1864  1.2736
    3bbb     H8   99   2.472   2.843   0.429  0.2281 -0.3875  1.7382
    3bbb     C5  100   2.243   2.918  -0.035 -0.0998 -0.2076  0.5377
    3bbb     H9  101   2.141   2.880  -0.038 -0.2349  0.1989 -0.4172
    3bbb    H10  102   2.313   2.849  -0.082 -2.2647 -0.4876 -2.4972
    3bbb     C6  103   2.452   2.582   0.174  0.5697  0.9541  0.4425
    3bbb    H11  104   2.362   2.533   0.134  1.3634  0.4568 -0.8138
    3bbb    H12  105   2.449   2.560   0.281 -0.0180 -1.7561 -0.0386
    3bbb     C7  106   2.303   2.942   0.538 -0.0420  0.2105 -0.2060
    3bbb    H13  107   2.370   3.013   0.586  0.5324  0.4589 -1.3444
    3bbb    H14  108   2.278   2.853   0.597  0.6242 -0.8957 -1.5198
    3bbb     C8  109   2.582   2.516   0.121  0.3206  0.2899 -0.1094
    3bbb    H15  110   2.669   2.575   0.151  1.4208 -0.8818 -0.8993
    3bbb    H16  111   2.581   2.522   0.012  4.1772 -0.0671 -0.2990
    3bbb     C9  112   2.242   3.048  -0.128 -0.6494  0.5071  0.0509
    3bbb    H17  113   2.163   3.116  -0.096  0.9609  3.3162 -1.5134
    3bbb    H18  114   2.218   3.022  -0.232 -3.0409  2.8466 -0.0851
    3bbb     O1  115   2.182   3.008   0.492  0.0599 -0.0722  0.5197
    4bbb     N1  116   1.681   3.141   0.296 -0.2687 -0.3887  0.4149
    4bbb     C1  117   1.826   3.134   0.335  0.3072  0.0025 -0.1867
    4bbb     H1  118   1.855   3.029   0.345  1.9397  0.4772  0.2695
    4bbb     H2  119   1.844   3.177   0.434 -1.2558 -0.5433  0.3609
    4bbb     C2  120   1.646   3.055   0.177 -0.2108  0.7014  0.5851
    4bbb     H3  121   1.687   2.955   0.192  1.8601  1.3331 -0.4420
    4bbb     H4  122   1.703   3.084   0.088 -2.1109  1.0388 -0.5707
    4bbb     C3  123   1.611   3.274   0.290 -0.2114  0.1148  0.2633
    4bbb     H5  124   1.502   3.268   0.281 -0.0658 -0.9760 -1.3007
    4bbb     H6  125   1.657   3.325   0.204  1.1328  1.2312  1.5921
    4bbb     C4  126   1.645   3.365   0.409  0.1202  0.2022  0.1893
    4bbb     H7  127   1.602   3.465   0.394 -3.0621 -1.0006  0.4092
    4bbb     H8  128   1.752   3.387   0.401 -0.2335  1.2585 -2.9987
    4bbb     C5  129   1.922   3.204   0.236  0.4102 -0.3487  0.2337
    4bbb     H9  130   1.880   3.298   0.197  0.4845  0.2448  1.5269
    4bbb    H10  131   1.950   3.141   0.151  4.1386  2.5134 -0.9445
    4bbb     C6  132   1.497   3.055   0.139  0.2265  0.5280  0.0244
    4bbb    H11  133   1.476   2.982   0.060  1.1797  1.0572 -0.7517
    4bbb    H12  134   1.470   3.154   0.098  1.5727  0.9851  0.1841
    4bbb     C7  135   1.606   3.293   0.540  0.0949 -0.4030 -0.3050
    4bbb    H13  136   1.648   3.351   0.623 -0.6837  1.5869 -1.2508
    4bbb    H14  137   1.643   3.190   0.552 -0.0207 -0.4838 -0.6309
    4bbb     C8  138   1.407   3.006   0.256 -0.3380  0.1709  0.2089
    4bbb    H15  139   1.425   3.072   0.342 -0.6429  0.6524 -0.0971
    4bbb    H16  140   1.440   2.904   0.282 -0.0010  0.0849 -0.5374
    4bbb     C9  141   2.059   3.245   0.296  0.1215  0.6133  0.1674
    4bbb    H17  142   2.118   3.159   0.331 -0.1099  0.2195 -0.3885
    4bbb    H18  143   2.034   3.310   0.381  0.3502  1.0452 -0.0971
    4bbb     O1  144   1.465   3.296   0.547  0.7343 -0.3615 -0.0832
    5bbb     N1  145   0.331   3.061   0.653 -0.1040 -0.8411  0.0231
    5bbb     C1  146   0.230   2.974   0.591 -0.2057  0.3441  0.0384
    5bbb     H1  147   0.185   3.010   0.498 -0.3667 -0.7431 -0.3165
    5bbb     H2  148   0.141   2.972   0.656  0.1786 -1.6652  0.5853
    5bbb     C2  149   0.315   3.205   0.622 -0.1730 -0.3861  0.4514
    5bbb     H3  150   0.308   3.225   0.514  1.6949 -2.6785 -0.1840
    5bbb     H4  151   0.406   3.259   0.651  0.0843 -0.3889 -0.3157
    5bbb     C3  152   0.379   3.026   0.787  0.0152  0.0645  0.2277
    5bbb     H5  153   0.366   2.918   0.801 -3.5488  0.2798 -0.4453
    5bbb     H6  154   0.314   3.058   0.870 -0.9113 -1.8128  0.2644
    5bbb     C4  155   0.519   3.073   0.813  0.1698 -0.2787 -0.6456
    5bbb     H7  156   0.552   3.016   0.901  2.6904  0.0129 -1.3172
    5bbb     H8  157   0.513   3.180   0.837  1.3849 -0.6036  1.4082
    5bbb     C5  158   0.265   2.829   0.570  0.1136 -0.0594 -0.3961
    5bbb     H9  159   0.184   2.782   0.513 -0.0554 -0.0638 -0.1541
    5bbb    H10  160   0.256   2.784   0.670 -3.2212  2.3609  0.5681
    5bbb     C6  161   0.192   3.263   0.698 -0.3229 -0.3127 -0.2511
    5bbb    H11  162   0.195   3.235   0.804 -3.2156  1.0152  0.2759
    5bbb    H12  163   0.099   3.235   0.647 -1.0824  1.3494  0.1555
    5bbb     C7  164   0.621   3.037   0.707 -0.4852 -0.8550  0.1879
    5bbb    H13  165   0.587   3.094   0.619 -0.7623  0.3585  1.0477
    5bbb    H14  166   0.618   2.930   0.683  1.3391 -1.1063  0.8960
    5bbb     C8  167   0.191   3.418   0.696  0.3500 -0.7888 -0.9121
    5bbb    H15  168   0.096   3.460   0.730  0.9342  0.8443 -1.2018
    5bbb    H16  169   0.196   3.444   0.589  3.8450 -1.7379 -1.1298
    5bbb     C9  170   0.408   2.799   0.510  0.1802 -0.4242 -0.2820
    5bbb    H17  171   0.424   2.690   0.510  2.0232 -0.1925  0.9036
    5bbb    H18  172   0.486   2.845   0.573 -0.5195 -0.2728  0.4882
    5bbb     O1  173   0.749   3.090   0.749 -0.2698 -0.2711 -0.0457
    6bbb     N1  174   0.839   2.750   1.124  0.2588  0.1281  0.6088
    6bbb     C1  175   0.801   2.750   0.984 -0.5979 -0.0424 -0.0851
    6bbb     H1  176   0.789   2.857   0.960  0.6444 -0.8330 -5.4082
    6bbb     H2  177   0.703   2.702   0.971 -1.8025  1.3050  2.9371
    6bbb     C2  178   0.721   2.790   1.207  0.4201 -0.7911  0.0159
    6bbb     H3  179   0.670   2.880   1.170  0.3601 -0.8637 -0.0805
    6bbb     H4  180   0.756   2.812   1.308 -1.8655  0.2123  0.6328
    6bbb     C3  181   0.958   2.826   1.146 -0.2544 -0.4761 -0.0990
    6bbb     H5  182   0.923   2.929   1.157 -0.1171 -0.5921  1.8169
    6bbb     H6  183   1.030   2.816   1.064  1.1647 -2.0620  1.2459
    6bbb     C4  184   1.034   2.787   1.274 -0.1229 -0.3027 -0.1842
    6bbb     H7  185   0.958   2.790   1.353 -0.2807  1.8612 -0.3441
    6bbb     H8  186   1.112   2.860   1.299 -0.8011 -0.1830  1.7504
    6bbb     C5  187   0.916   2.676   0.903  0.5686 -0.4826 -0.0284
    6bbb     H9  188   0.974   2.602   0.959 -0.1333 -0.1645  1.1375
    6bbb    H10  189   0.985   2.752   0.865 -1.8320  2.0057  0.2928
    6bbb     C6  190   0.619   2.677   1.230  0.1665 -0.2889 -0.4646
    6bbb    H11  191   0.579   2.644   1.133 -2.3424  1.3011 -0.0797
    6bbb    H12  192   0.534   2.715   1.289 -0.9640 -1.5731 -1.1924
    6bbb     C7  193   1.105   2.651   1.266 -0.4402  0.5092 -0.3452
    6bbb    H13  194   1.029   2.572   1.265 -0.3936  0.4375 -2.4238
    6bbb    H14  195   1.167   2.631   1.355  1.3465  0.7318 -1.4802
    6bbb     C8  196   0.675   2.550   1.295  0.5408  0.9812  0.5058
    6bbb    H15  197   0.723   2.573   1.391 -1.1658 -0.7840  1.8618
    6bbb    H16  198   0.757   2.517   1.230  0.2878 -2.4496  1.7210
    6bbb     C9  199   0.851   2.593   0.785  1.0481  0.7026  0.8224
    6bbb    H17  200   0.914   2.513   0.746  2.2407  2.3983 -0.9295
    6bbb    H18  201   0.836   2.656   0.696  1.2905  0.4322  0.5907
    6bbb     O1  202   1.183   2.642   1.148  0.5482  0.1678 -0.0775
    7bbb     N1  203   2.224   2.525   0.836  0.2190  0.6169 -0.4630
    7bbb     C1  204   2.297   2.645   0.795 -0.0104  0.0032 -0.6213
    7bbb     H1  205   2.222   2.720   0.766 -0.8713 -0.2307  0.9100
    7bbb     H2  206   2.353   2.617   0.705 -2.8415 -1.9560 -1.8949
    7bbb     C2  207   2.305   2.395   0.865 -0.6020  0.1774  0.0846
    7bbb     H3  208   2.400   2.386   0.811  0.1055  1.5007  1.0428
    7bbb     H4  209   2.243   2.314   0.827 -0.8334 -0.1880  1.2022
    7bbb     C3  210   2.122   2.490   0.736 -0.6668 -0.1693 -0.2307
    7bbb     H5  211   2.165   2.426   0.658 -0.5100 -2.2999  1.4943
    7bbb     H6  212   2.100   2.577   0.673 -0.6575  2.0308  2.5857
    7bbb     C4  213   1.995   2.427   0.796 -0.1222 -0.7297 -0.0579
    7bbb     H7  214   1.959   2.497   0.873  1.2940 -0.7333  0.6517
    7bbb     H8  215   2.024   2.332   0.845  0.2468  0.0859  1.3624
    7bbb     C5  216   2.390   2.702   0.910 -0.6540 -0.3920 -0.2960
    7bbb     H9  217   2.480   2.750   0.869 -0.6141 -0.5196 -0.3594
    7bbb    H10  218   2.431   2.626   0.978  0.4056  0.7445  0.3756
    7bbb     C6  219   2.313   2.352   1.014 -0.3837  0.3519  0.2097
    7bbb    H11  220   2.224   2.382   1.070 -0.8098 -0.2776 -0.1244
    7bbb    H12  221   2.395   2.412   1.056  0.0975 -0.0020 -0.2143
    7bbb     C7  222   1.883   2.410   0.695  0.4973  0.5361 -0.2169
    7bbb    H13  223   1.932   2.388   0.599 -0.2961 -2.9084  0.0076
    7bbb    H14  224   1.822   2.500   0.689 -0.7529 -0.3679 -2.8731
    7bbb     C8  225   2.334   2.202   1.037 -0.4238  0.5503  0.2833
    7bbb    H15  226   2.254   2.140   0.996  1.0756 -0.5626 -1.0936
    7bbb    H16  227   2.327   2.180   1.144  2.5173  0.9284  0.6536
    7bbb     C9  228   2.323   2.822   0.984 -0.2689  0.2218  0.3377
    7bbb    H17  229   2.311   2.911   0.921 -0.2588  0.4359  0.6372
    7bbb    H18  230   2.389   2.839   1.069 -2.1085  0.4442  1.7882
    7bbb     O1  231   1.794   2.302   0.735  0.1842  0.2370  0.5744
    8bbb     N1  232   2.743   2.127   0.459 -0.5707  1.0908 -0.0302
    8bbb     C1  233   2.836   2.017   0.453  0.2415  0.0966  0.6056
    8bbb     H1  234   2.888   2.006   0.358  1.7477  0.9443  1.2993
    8bbb     H2  235   2.773   1.927   0.456  1.0106 -0.4937 -0.5067
    8bbb     C2  236   2.595   2.095   0.490 -0.4540  0.2038  0.3747
    8bbb     H3  237   2.594   2.038   0.584 -0.8032  1.4027  1.1281
    8bbb     H4  238   2.560   2.031   0.409 -1.2907 -0.6791  1.4014
    8bbb     C3  239   2.765   2.234   0.359 -0.1421  0.4741 -0.4068
    8bbb     H5  240   2.872   2.256   0.357  0.0142 -0.1372  0.5778
    8bbb     H6  241   2.709   2.324   0.386 -0.1806  0.4576 -0.4310
    8bbb     C4  242   2.720   2.186   0.219  0.5927  0.3755  0.5534
    8bbb     H7  243   2.633   2.119   0.223 -0.1040  1.1361 -1.0041
    8bbb     H8  244   2.788   2.114   0.172  0.6441  0.0832  1.0629
    8bbb     C5  245   2.941   2.033   0.565  0.0516 -0.4938  0.3669
    8bbb     H9  246   2.985   2.131   0.543  1.2629 -0.7371  1.5752
    8bbb    H10  247   3.018   1.957   0.547  1.0250  0.9800 -2.2255
    8bbb     C6  248   2.499   2.214   0.517 -0.3272  0.6336  0.3531
    8bbb    H11  249   2.508   2.290   0.439  1.3073  0.8826  0.7450
    8bbb    H12  250   2.540   2.271   0.601 -0.1415  1.2916 -0.1725
    8bbb     C7  251   2.703   2.306   0.130  0.9064 -0.2681 -0.0312
    8bbb    H13  252   2.695   2.279   0.025  0.0992  2.1000 -0.6496
    8bbb    H14  253   2.790   2.373   0.132 -0.3262  1.4251 -0.7901
    8bbb     C8  254   2.353   2.171   0.552 -0.2287  0.2379  0.1980
    8bbb    H15  255   2.285   2.258   0.550 -2.0069 -1.0903  0.2860
    8bbb    H16  256   2.349   2.129   0.653  1.0472 -2.4918 -0.7969
    8bbb     C9  257   2.889   2.018   0.709 -0.0745  0.3155  0.1961
    8bbb    H17  258   2.860   1.915   0.733 -0.3960  0.3217 -0.1507
    8bbb    H18  259   2.803   2.086   0.713 -1.2322 -1.1495  1.9318
    8bbb     O1  260   2.585   2.379   0.166  0.1718  0.0136 -0.0076
    9bbb     N1  261   2.787   3.044   0.025  0.2622 -0.1166  0.3964
    9bbb     C1  262   2.844   2.931   0.101  0.0777 -0.6980 -0.0221
    9bbb     H1  263   2.775   2.902   0.181  0.2387  0.0413  0.3909
    9bbb     H2  264   2.939   2.967   0.142  0.5385 -3.8929  2.1034
    9bbb     C2  265   2.783   3.167   0.109  0.0809  0.1498  0.6455
    9bbb     H3  266   2.771   3.252   0.041  0.8844  0.0172  0.3386
    9bbb     H4  267   2.874   3.185   0.168  0.4177 -0.5573  0.3460
    9bbb     C3  268   2.671   2.997  -0.056 -0.4513 -0.7124 -0.1998
    9bbb     H5  269   2.593   2.956   0.010 -0.3431 -1.4940 -0.5465
    9bbb     H6  270   2.703   2.917  -0.123  1.7963 -0.9529  1.0696
    9bbb     C4  271   2.612   3.110  -0.147  0.2682 -0.2710 -0.2477
    9bbb     H7  272   2.677   3.122  -0.235  1.8840 -2.6292  0.5357
    9bbb     H8  273   2.610   3.208  -0.098  3.0300  0.4198 -1.3155
    9bbb     C5  274   2.884   2.807   0.017  0.5001 -0.6035 -0.2789
    9bbb     H9  275   2.945   2.835  -0.070  1.8296 -1.9827  0.1622
    9bbb    H10  276   2.790   2.761  -0.017 -0.4628  0.5665  0.7322
    9bbb     C6  277   2.676   3.161   0.215  0.2924  0.0454 -0.1476
    9bbb    H11  278   2.704   3.074   0.277  0.1510 -0.0816 -0.2608
    9bbb    H12  279   2.576   3.140   0.177 -0.6970 -0.1282  2.3470
    9bbb     C7  280   2.474   3.078  -0.206  0.5349  0.3783  0.0044
    9bbb    H13  281   2.475   2.970  -0.228 -1.7566 -0.1953  2.1996
    9bbb    H14  282   2.455   3.127  -0.302 -2.5915 -0.9722 -0.1848
    9bbb     C8  283   2.669   3.283   0.301 -0.4056 -0.4099 -0.5508
    9bbb    H15  284   2.655   3.366   0.231  2.1008 -0.2300 -0.9301
    9bbb    H16  285   2.771   3.299   0.338 -0.1397  0.1465 -1.4767
    9bbb     C9  286   2.956   2.707   0.109 -0.2052 -0.7065  0.0462
    9bbb    H17  287   3.058   2.740   0.133  0.3312 -0.3958 -2.4121
    9bbb    H18  288   2.968   2.609   0.062 -2.2466 -1.7054  1.4996
    9bbb     O1  289   2.372   3.114  -0.109  0.0515  0.0714  0.4821
   10bbb     N1  290   0.960   3.313   0.379  0.0596  0.2879  0.2512
   10bbb     C1  291   1.059   3.429   0.390  0.4533  0.3265  0.3686
   10bbb     H1  292   1.161   3.394   0.372  0.3878 -0.5580  1.5705
   10bbb     H2  293   1.064   3.454   0.497  1.4864  0.0418  0.3983
   10bbb     C2  294   0.811   3.327   0.384 -0.1943 -0.6367  0.4430
   10bbb     H3  295   0.769   3.227   0.399  1.0620 -1.5110 -1.4397
   10bbb     H4  296   0.778   3.360   0.284  1.1043  0.0513  0.2113
   10bbb     C3  297   1.007   3.186   0.318  0.1836 -0.1426 -0.3152
   10bbb     H5  298   1.011   3.210   0.211  1.5739  0.9141 -0.0436
   10bbb     H6  299   0.930   3.108   0.327  0.0061 -0.0977 -1.3236
   10bbb     C4  300   1.136   3.133   0.380  0.5688  0.2646 -0.1346
   10bbb     H7  301   1.133   3.138   0.490  3.3246 -0.3728  0.0505
   10bbb     H8  302   1.225   3.190   0.352  1.1056 -1.7181 -2.9752
   10bbb     C5  303   1.025   3.546   0.301 -0.3063  0.0740 -0.1121
   10bbb     H9  304   0.921   3.579   0.311  0.2169  1.5844  0.6714
   10bbb    H10  305   1.033   3.501   0.201  0.2968 -0.8214  0.3308
   10bbb     C6  306   0.763   3.424   0.490 -0.3170 -0.8795  0.0283
   10bbb    H11  307   0.795   3.525   0.464 -2.3757  0.0883  0.9968
   10bbb    H12  308   0.815   3.401   0.584  1.2202  2.8122  0.2574
   10bbb     C7  309   1.180   2.997   0.331 -0.0185  0.1821  0.1603
   10bbb    H13  310   1.092   2.944   0.294 -0.2929  0.4556  0.4216
   10bbb    H14  311   1.237   2.934   0.400  3.6736  1.2904 -1.5963
   10bbb     C8  312   0.612   3.425   0.507  0.2667  0.1593 -0.5466
   10bbb    H15  313   0.591   3.479   0.600 -0.9467  1.9469 -1.7870
   10bbb    H16  314   0.576   3.322   0.521  0.0443  0.4571  1.3955
   10bbb     C9  315   1.125   3.666   0.319  0.6024  1.0049  0.2353
   10bbb    H17  316   1.123   3.700   0.424 -1.6392  1.4546  0.0794
   10bbb    H18  317   1.090   3.755   0.266 -0.0683 -0.3950 -1.7727
   10bbb     O1  318   1.268   3.018   0.220 -0.5277 -0.1414 -0.0721
   11bbb     N1  319   2.343   3.607  -0.051  0.0562 -0.3469 -0.5352
   11bbb     C1  320   2.268   3.676  -0.156 -0.2615  0.0370  0.0103
   11bbb     H1  321   2.248   3.776  -0.115  0.7710 -0.0239  0.6891
   11bbb     H2  322   2.172   3.624  -0.171 -0.5115  0.0867  1.3391
   11bbb     C2  323   2.480   3.673  -0.023 -0.3750  0.1298  0.7470
   11bbb     H3  324   2.541   3.655  -0.113 -1.2325 -1.1412  0.3890
   11bbb     H4  325   2.537   3.619   0.054  2.0839  0.3913 -0.7543
   11bbb     C3  326   2.269   3.552   0.064  1.0898  0.7514 -0.1577
   11bbb     H5  327   2.172   3.511   0.033  1.8196 -0.9141 -0.3984
   11bbb     H6  328   2.253   3.622   0.147 -1.8848 -0.1800  0.1829
   11bbb     C4  329   2.340   3.437   0.129 -0.0192 -0.3278 -1.2208
   11bbb     H7  330   2.426   3.473   0.188 -0.6320 -0.0546 -0.4787
   11bbb     H8  331   2.367   3.359   0.056  0.9950 -1.9650  0.7826
   11bbb     C5  332   2.340   3.686  -0.294  0.0791 -0.6477  0.4262
   11bbb     H9  333   2.379   3.590  -0.329 -0.0483 -0.4843 -0.1724
   11bbb    H10  334   2.427   3.751  -0.282 -1.0523  0.8929  0.5392
   11bbb     C6  335   2.489   3.823   0.029 -0.6106 -0.1428 -0.0116
   11bbb    H11  336   2.451   3.886  -0.052  0.5735 -1.1406 -1.4190
   11bbb    H12  337   2.594   3.849   0.046 -0.7554  1.7254 -1.6633
   11bbb     C7  338   2.263   3.362   0.238 -0.3277  0.5137 -0.9772
   11bbb    H13  339   2.244   3.431   0.321  0.0103 -0.6383  0.0840
   11bbb    H14  340   2.319   3.279   0.284 -1.7255  0.7525  1.3185
   11bbb     C8  341   2.407   3.846   0.159 -0.4535 -0.2234  0.7716
   11bbb    H15  342   2.443   3.938   0.207  1.4261 -1.6481  2.2990
   11bbb    H16  343   2.410   3.758   0.225 -1.0838  0.4188  1.6878
   11bbb     C9  344   2.238   3.743  -0.398  0.5671  0.2929 -0.1224
   11bbb    H17  345   2.285   3.772  -0.493 -0.0981  0.7178 -0.3204
   11bbb    H18  346   2.197   3.837  -0.359  1.9594  0.2373  1.6426
   11bbb     O1  347   2.137   3.312   0.197  0.1806 -0.6212  0.3486
   12bbb     N1  348   0.648   3.503   1.024 -0.2686 -0.0260  0.0985
   12bbb     C1  349   0.725   3.618   0.965  0.1415 -0.2154 -0.2409
   12bbb     H1  350   0.816   3.630   1.025 -0.2192 -0.9166  0.4645
   12bbb     H2  351   0.673   3.715   0.967  0.1316 -0.2189 -0.3301
   12bbb     C2  352   0.733   3.381   1.062 -0.1767 -0.4740 -0.1277
   12bbb     H3  353   0.826   3.420   1.105 -0.7314 -0.6302  1.2657
   12bbb     H4  354   0.762   3.325   0.972  0.4620 -0.8590  0.3065
   12bbb     C3  355   0.516   3.471   0.953 -0.7713  0.6178  0.1252
   12bbb     H5  356   0.461   3.389   1.002 -1.8446  0.1610 -1.7469
   12bbb     H6  357   0.534   3.444   0.848  1.4020  1.5885  0.1920
   12bbb     C4  358   0.414   3.589   0.942  1.2024  0.7402  0.1849
   12bbb     H7  359   0.460   3.663   0.875  0.4294  0.5318 -0.6042
   12bbb     H8  360   0.402   3.629   1.043 -0.3730  0.6421  0.0573
   12bbb     C5  361   0.773   3.592   0.822  0.3490 -0.2641  1.1139
   12bbb     H9  362   0.690   3.605   0.752 -0.8033 -0.7441  2.3526
   12bbb    H10  363   0.813   3.490   0.814  1.7497  0.3511 -0.3843
   12bbb     C6  364   0.673   3.280   1.160 -0.3960 -0.4278  0.7177
   12bbb    H11  365   0.591   3.221   1.117 -1.0230 -1.0987  2.7118
   12bbb    H12  366   0.635   3.333   1.248  0.1624  0.0549  0.6759
   12bbb     C7  367   0.283   3.528   0.889  0.4641 -0.4840  0.1562
   12bbb    H13  368   0.205   3.605   0.880  0.7226 -0.4786 -2.6830
   12bbb    H14  369   0.242   3.445   0.948 -1.2296 -0.2536 -0.6422
   12bbb     C8  370   0.770   3.171   1.200 -0.1710 -0.0546 -0.4712
   12bbb    H15  371   0.812   3.125   1.110 -2.4808 -2.6137 -0.3507
   12bbb    H16  372   0.728   3.094   1.266  0.8149 -0.7824 -0.6644
   12bbb     C9  373   0.888   3.676   0.773 -0.5560  0.2865 -0.0998
   12bbb    H17  374   0.861   3.782   0.771 -2.9456 -0.2111  1.4234
   12bbb    H18  375   0.920   3.643   0.673  2.1926 -1.5502  1.2274
   12bbb     O1  376   0.307   3.477   0.758 -0.2703  0.1734  0.2785
   13bbb     N1  377   0.461   3.166   0.069 -0.2739 -0.4606  0.5061
   13bbb     C1  378   0.311   3.172   0.061  0.1795 -0.5787  0.1765
   13bbb     H1  379   0.272   3.253   0.124  2.1751  0.0177  0.6938
   13bbb     H2  380   0.271   3.074   0.092 -0.9893 -0.7262 -1.6271
   13bbb     C2  381   0.526   3.293   0.037 -0.1419 -0.0454  0.4905
   13bbb     H3  382   0.531   3.362   0.122 -2.2707  1.1482 -0.2923
   13bbb     H4  383   0.471   3.341  -0.045  1.3738  1.0715  0.0776
   13bbb     C3  384   0.504   3.113   0.199 -0.0350 -0.2628 -0.4089
   13bbb     H5  385   0.420   3.131   0.268  0.2251  0.1667 -0.1956
   13bbb     H6  386   0.598   3.154   0.237  0.7921 -1.9709 -0.5470
   13bbb     C4  387   0.529   2.966   0.191  0.5445 -0.2164  0.3241
   13bbb     H7  388   0.614   2.944   0.126  1.9249  1.6921  1.3930
   13bbb     H8  389   0.438   2.923   0.147 -1.5544  3.1579  1.0459
   13bbb     C5  390   0.250   3.203  -0.077 -0.1420 -0.5907  0.6092
   13bbb     H9  391   0.279   3.302  -0.114  0.4712 -0.8621  0.3427
   13bbb    H10  392   0.143   3.204  -0.055 -0.5862 -0.9106 -1.4163
   13bbb     C6  393   0.675   3.288   0.003 -0.1953  1.0726 -0.2826
   13bbb    H11  394   0.686   3.210  -0.073 -2.0007  0.5528 -0.0501
   13bbb    H12  395   0.734   3.254   0.089 -1.9966 -1.7682 -0.0716
   13bbb     C7  396   0.537   2.881   0.322 -0.9290 -0.0468 -0.0787
   13bbb    H13  397   0.612   2.917   0.394 -0.3112  0.2248 -0.8425
   13bbb    H14  398   0.576   2.784   0.291  3.6970  0.7001  2.5356
   13bbb     C8  399   0.723   3.415  -0.069 -0.3038  0.5114  0.7350
   13bbb    H15  400   0.830   3.397  -0.085 -0.4902 -1.6789  1.6769
   13bbb    H16  401   0.710   3.494   0.006  3.3897 -0.2912  2.4273
   13bbb     C9  402   0.290   3.110  -0.195  0.4588 -0.4993  0.0308
   13bbb    H17  403   0.260   3.012  -0.157 -0.9149 -0.1015  0.0241
   13bbb    H18  404   0.399   3.107  -0.212  0.5061  0.3623  0.1100
   13bbb     O1  405   0.411   2.857   0.380 -0.5033 -0.4871  0.3398
   14bbb     N1  406   0.847   2.132   1.176  0.1644 -0.1061  0.0912
   14bbb     C1  407   0.918   2.203   1.286  0.1877 -0.2974 -0.0398
   14bbb     H1  408   0.868   2.199   1.383  0.9620 -3.3357  0.3387
   14bbb     H2  409   0.925   2.308   1.254 -3.0095 -0.6931 -2.4259
   14bbb     C2  410   0.922   2.102   1.053  0.1132  0.0072  0.0459
   14bbb     H3  411   0.864   2.030   0.994 -0.4778  0.7405 -0.2928
   14bbb     H4  412   1.011   2.046   1.084  0.2405 -0.4516 -1.1130
   14bbb     C3  413   0.713   2.197   1.150  0.3221 -0.0135  0.5079
   14bbb     H5  414   0.658   2.139   1.074 -2.8165  1.5453  1.4133
   14bbb     H6  415   0.734   2.297   1.109 -1.3116 -0.1289 -0.7145
   14bbb     C4  416   0.618   2.219   1.267  0.4094  0.8668 -0.8158
   14bbb     H7  417   0.615   2.128   1.328 -1.5133  1.9597  0.8779
   14bbb     H8  418   0.516   2.232   1.226  0.6444  0.7394 -1.4513
   14bbb     C5  419   1.059   2.152   1.311 -0.0040 -0.1755  0.0564
   14bbb     H9  420   1.121   2.148   1.221  2.1095  0.5255  1.4010
   14bbb    H10  421   1.045   2.053   1.356 -1.1604  0.8760  2.1669
   14bbb     C6  422   0.951   2.228   0.963  0.0947  0.0511  0.4762
   14bbb    H11  423   0.975   2.317   1.023  0.7599  0.7014 -0.7086
   14bbb    H12  424   0.852   2.253   0.923  0.3644  0.6380  0.1525
   14bbb     C7  425   0.642   2.326   1.371  1.0023 -0.8930 -0.6792
   14bbb    H13  426   0.749   2.346   1.389  0.2599  2.5117  0.7767
   14bbb    H14  427   0.585   2.298   1.461 -0.1081 -1.7278 -1.6126
   14bbb     C8  428   1.052   2.195   0.848  0.4442  0.3908 -0.1292
   14bbb    H15  429   1.047   2.087   0.831  3.7065  0.0074  0.6110
   14bbb    H16  430   1.155   2.210   0.884  0.6930  0.1174 -0.7193
   14bbb     C9  431   1.131   2.235   1.426  0.1064  0.3863  0.1046
   14bbb    H17  432   1.159   2.331   1.382 -0.0706  0.6973  0.6581
   14bbb    H18  433   1.211   2.179   1.476 -0.9437 -0.1306  1.2985
   14bbb     O1  434   0.581   2.445   1.313 -0.0490  0.1568 -0.0422
   15bbb     N1  435   0.316   2.459   0.882 -0.2589  1.1321  0.0525
   15bbb     C1  436   0.332   2.381   1.011 -0.0995 -0.1785  0.0371
   15bbb     H1  437   0.371   2.451   1.086 -0.3177  0.8667 -0.7906
   15bbb     H2  438   0.400   2.296   1.010  2.2079  1.5744 -0.8788
   15bbb     C2  439   0.214   2.561   0.878  0.4386 -0.3279 -0.0020
   15bbb     H3  440   0.118   2.521   0.914  0.3356  0.9824  1.2756
   15bbb     H4  441   0.199   2.602   0.778  0.9673  1.3597  0.5755
   15bbb     C3  442   0.447   2.507   0.841 -0.4585  0.7038  0.5109
   15bbb     H5  443   0.491   2.569   0.920 -1.2354  0.3715  1.2132
   15bbb     H6  444   0.423   2.566   0.752 -0.3465  0.4223  0.2918
   15bbb     C4  445   0.540   2.393   0.794 -0.4796  0.4097 -0.8885
   15bbb     H7  446   0.496   2.323   0.722 -0.3297 -0.1811 -0.4165
   15bbb     H8  447   0.573   2.329   0.877 -2.8439 -0.2651 -0.3871
   15bbb     C5  448   0.202   2.320   1.061  0.3369  0.2838 -0.4461
   15bbb     H9  449   0.175   2.253   0.978  0.1994  0.5110 -0.5838
   15bbb    H10  450   0.124   2.395   1.077 -1.5772 -2.0442  2.2479
   15bbb     C6  451   0.260   2.686   0.952 -0.1668  0.2613  0.1404
   15bbb    H11  452   0.350   2.732   0.910 -1.0351  0.4160 -1.6593
   15bbb    H12  453   0.286   2.661   1.055 -0.3092  2.5895  0.7871
   15bbb     C7  454   0.667   2.449   0.731 -0.1286  0.2216  0.0656
   15bbb    H13  455   0.643   2.517   0.648  1.7315 -0.3967 -1.0416
   15bbb    H14  456   0.722   2.363   0.690  0.4076  0.4984  0.2034
   15bbb     C8  457   0.146   2.797   0.957 -0.0936 -1.0448  0.3336
   15bbb    H15  458   0.054   2.745   0.985 -0.4242 -2.7561 -3.3531
   15bbb    H16  459   0.125   2.850   0.863  1.1086 -0.2480  0.4774
   15bbb     C9  460   0.211   2.231   1.186 -0.1569  0.2031 -0.4931
   15bbb    H17  461   0.280   2.148   1.168  0.6939  1.0519 -1.2463
   15bbb    H18  462   0.114   2.189   1.218  1.0369 -0.3908  2.7248
   15bbb     O1  463   0.733   2.520   0.832 -0.3920  0.4824 -0.1982
   16bbb     N1  464   2.631   1.759   1.025 -0.1248 -0.0038  0.1353
   16bbb     C1  465   2.591   1.679   0.912  0.1313  0.3380  0.8560
   16bbb     H1  466   2.523   1.741   0.854  1.2153 -0.3138 -1.2225
   16bbb     H2  467   2.525   1.594   0.934 -0.3220 -0.2489 -2.2892
   16bbb     C2  468   2.686   1.679   1.135  0.9932  0.2209  0.2137
   16bbb     H3  469   2.720   1.742   1.218  1.0640 -1.1711  1.2760
   16bbb     H4  470   2.783   1.648   1.095  0.9784  2.1792 -1.5803
   16bbb     C3  471   2.717   1.871   0.998 -0.1562 -0.1633  0.0129
   16bbb     H5  472   2.810   1.855   0.942  0.6983  4.0221 -0.1304
   16bbb     H6  473   2.751   1.904   1.097 -1.0167  0.4850  0.1017
   16bbb     C4  474   2.634   1.994   0.936 -0.5459  0.2571  0.0331
   16bbb     H7  475   2.628   1.982   0.827 -0.9022  0.4165  0.0360
   16bbb     H8  476   2.706   2.077   0.936 -0.5336  0.4703  4.2379
   16bbb     C5  477   2.705   1.624   0.823 -0.4182 -0.6251 -0.3793
   16bbb     H9  478   2.807   1.630   0.862  0.0081 -0.2855 -1.4839
   16bbb    H10  479   2.704   1.684   0.731 -1.5218  2.0528  1.2618
   16bbb     C6  480   2.610   1.562   1.197  0.3706 -0.3572  0.7448
   16bbb    H11  481   2.556   1.504   1.122  3.6971 -1.7589 -0.7755
   16bbb    H12  482   2.538   1.612   1.264 -0.2278  1.4257 -1.1230
   16bbb     C7  483   2.508   2.038   1.015  0.0823  0.1929 -0.4471
   16bbb    H13  484   2.530   2.040   1.122  0.3523  0.3525 -0.5051
   16bbb    H14  485   2.431   1.960   1.002 -0.3292 -0.0506  2.7686
   16bbb     C8  486   2.702   1.465   1.268 -0.1254  0.4284  0.0555
   16bbb    H15  487   2.757   1.511   1.351 -1.7134  0.8076  0.9260
   16bbb    H16  488   2.777   1.422   1.200  0.5541 -3.0314  2.7072
   16bbb     C9  489   2.688   1.476   0.777 -0.2084 -0.0645 -0.2877
   16bbb    H17  490   2.754   1.439   0.698 -1.5000 -0.4362 -1.2310
   16bbb    H18  491   2.586   1.473   0.737 -0.3256 -2.7141  0.0800
   16bbb     O1  492   2.460   2.168   0.981  0.5152 -0.4483  0.5789
   17bbb     N1  493   1.953   2.565   1.416  0.1215 -0.1126 -0.2918
   17bbb     C1  494   1.833   2.518   1.346  0.1597  0.2714  0.2678
   17bbb     H1  495   1.857   2.420   1.303 -1.1412  0.1007 -0.1139
   17bbb     H2  496   1.814   2.596   1.270  1.3150  0.2202 -0.0849
   17bbb     C2  497   1.985   2.499   1.550  0.3312 -0.3036 -0.4949
   17bbb     H3  498   1.898   2.525   1.611 -0.0801  1.9497 -1.9063
   17bbb     H4  499   2.068   2.549   1.599  0.4777 -1.2907  0.3107
   17bbb     C3  500   2.073   2.575   1.328  0.3623  0.2383  0.0254
   17bbb     H5  501   2.128   2.483   1.304  0.4181 -0.3986  2.3622
   17bbb     H6  502   2.152   2.632   1.380  1.2909 -0.5684 -0.4562
   17bbb     C4  503   2.064   2.648   1.190  0.7811  0.2316 -0.6987
   17bbb     H7  504   1.995   2.733   1.195 -1.3831 -1.4728  0.3174
   17bbb     H8  505   2.023   2.577   1.117 -0.2198 -0.9074  0.9149
   17bbb     C5  506   1.705   2.500   1.434  0.2041  0.3060 -0.0777
   17bbb     H9  507   1.680   2.591   1.489 -0.9509 -0.6978  1.1197
   17bbb    H10  508   1.718   2.408   1.492 -0.6597 -2.6801 -4.1584
   17bbb     C6  509   2.018   2.343   1.547 -0.7538  0.0808  0.8461
   17bbb    H11  510   2.107   2.333   1.483 -0.7826  4.2287 -0.0981
   17bbb    H12  511   1.941   2.287   1.492  1.4054 -1.8680 -0.3658
   17bbb     C7  512   2.197   2.703   1.154 -0.0860 -0.0051 -0.2049
   17bbb    H13  513   2.264   2.617   1.149 -0.3034 -0.2399  0.7582
   17bbb    H14  514   2.225   2.770   1.237  1.6236 -0.0879 -0.6683
   17bbb     C8  515   2.049   2.280   1.681 -0.3173  0.3065 -0.4804
   17bbb    H15  516   2.064   2.358   1.757 -5.1231  0.8686  0.1812
   17bbb    H16  517   2.140   2.218   1.676  1.1423  1.9481  2.7732
   17bbb     C9  518   1.578   2.464   1.349 -0.3063  0.1369 -0.5885
   17bbb    H17  519   1.568   2.542   1.272  2.4692  0.3222 -0.8834
   17bbb    H18  520   1.502   2.464   1.428  0.7194 -2.2275  0.4947
   17bbb     O1  521   2.194   2.770   1.027 -0.2165  0.1260  0.6907
   18bbb     N1  522   2.252   1.668   0.302  0.0962  1.3433 -0.3087
   18bbb     C1  523   2.117   1.604   0.304 -0.0940 -0.0800 -0.2476
   18bbb     H1  524   2.101   1.523   0.232 -1.3754  0.8283 -1.0323
   18bbb     H2  525   2.038   1.674   0.273  0.1893  0.3033 -0.1036
   18bbb     C2  526   2.375   1.588   0.308 -0.5987  0.2202 -0.2324
   18bbb     H3  527   2.406   1.564   0.411 -3.2746 -0.0325  0.5690
   18bbb     H4  528   2.456   1.656   0.279 -0.7428  1.6802  2.4033
   18bbb     C3  529   2.266   1.794   0.392  0.2186  0.8438  0.1306
   18bbb     H5  530   2.358   1.847   0.363  2.7239 -2.0432  2.1553
   18bbb     H6  531   2.277   1.763   0.496 -2.1778  2.2497  0.8864
   18bbb     C4  532   2.155   1.892   0.388 -0.0238  0.0561  0.1627
   18bbb     H7  533   2.063   1.843   0.420 -1.4259  1.2098 -1.8631
   18bbb     H8  534   2.143   1.930   0.285 -0.2965 -1.2479 -0.3088
   18bbb     C5  535   2.079   1.547   0.445  0.4395  0.5607 -0.4140
   18bbb     H9  536   2.086   1.629   0.518  2.6866  0.1401 -0.1084
   18bbb    H10  537   2.153   1.470   0.469  0.9225  0.8527 -0.9446
   18bbb     C6  538   2.384   1.461   0.221 -0.4819 -0.5885  0.1791
   18bbb    H11  539   2.399   1.496   0.118 -0.4468 -0.9143  0.0722
   18bbb    H12  540   2.295   1.396   0.227  0.2766 -1.7119 -0.3435
   18bbb     C7  541   2.179   2.015   0.481 -0.2363  0.4968 -0.3568
   18bbb    H13  542   2.175   1.990   0.587 -1.5564  1.6236 -0.1305
   18bbb    H14  543   2.098   2.086   0.463  1.3366  2.7057  0.9058
   18bbb     C8  544   2.507   1.365   0.247  0.2567 -0.2533 -0.4585
   18bbb    H15  545   2.590   1.432   0.224  0.9103 -1.5777 -2.2136
   18bbb    H16  546   2.508   1.290   0.166 -0.2099 -0.8494  0.0796
   18bbb     C9  547   1.932   1.485   0.441  0.1699 -1.0304  0.2735
   18bbb    H17  548   1.932   1.410   0.361  0.0870 -1.7225  0.9016
   18bbb    H18  549   1.861   1.563   0.413 -0.9369 -2.6362 -1.6899
   18bbb     O1  550   2.309   2.069   0.463  0.1463  0.2167  0.4913
   19bbb     N1  551   3.094   2.120   1.212  0.0532  0.8514 -0.4375
   19bbb     C1  552   3.126   2.003   1.302  0.6244  0.3490 -0.2192
   19bbb     H1  553   3.180   2.040   1.390  0.6235 -0.4568  0.1261
   19bbb     H2  554   3.200   1.941   1.250 -1.1340 -0.3732 -2.0135
   19bbb     C2  555   3.194   2.226   1.199 -0.2298  0.3131  0.4271
   19bbb     H3  556   3.151   2.303   1.134 -0.8602  1.5576  2.2467
   19bbb     H4  557   3.289   2.189   1.159 -1.0031  0.9777 -2.2122
   19bbb     C3  558   3.038   2.096   1.080  0.0948  0.2834  0.2829
   19bbb     H5  559   3.000   2.185   1.028  0.4889  0.3895  0.1746
   19bbb     H6  560   2.955   2.024   1.078  0.4529 -0.1249 -1.5920
   19bbb     C4  561   3.142   2.039   0.986  0.0933  0.0546 -0.0064
   19bbb     H7  562   3.206   1.965   1.036  0.0640  0.0399  0.0095
   19bbb     H8  563   3.208   2.122   0.956 -1.2982  1.4247  0.5787
   19bbb     C5  564   3.002   1.911   1.340  0.2975  0.3113 -0.4374
   19bbb     H9  565   3.025   1.846   1.425 -1.8928 -0.9044 -0.7175
   19bbb    H10  566   2.970   1.843   1.260 -1.7208  1.0244 -0.2895
   19bbb     C6  567   3.234   2.303   1.323  0.0138 -1.0843  0.4779
   19bbb    H11  568   3.310   2.381   1.305 -0.7172 -0.3362  0.5534
   19bbb    H12  569   3.291   2.236   1.389 -0.0545 -3.5495 -1.8346
   19bbb     C7  570   3.076   1.971   0.864  0.2754  0.3073 -0.5534
   19bbb    H13  571   3.026   1.883   0.905  3.0352 -1.1953 -0.1597
   19bbb    H14  572   3.161   1.936   0.804 -0.1330  0.0817 -1.0047
   19bbb     C8  573   3.111   2.350   1.404 -0.6680  0.4363 -0.5936
   19bbb    H15  574   3.065   2.259   1.446 -0.3822  0.2372 -0.7047
   19bbb    H16  575   3.037   2.401   1.341  1.5963  1.5413 -2.5336
   19bbb     C9  576   2.878   1.997   1.383 -0.0906  0.3305 -0.5601
   19bbb    H17  577   2.843   2.056   1.298  1.1426  0.0430 -1.2907
   19bbb    H18  578   2.905   2.066   1.464 -1.4957 -1.2765  1.3798
   19bbb     O1  579   2.990   2.070   0.802 -0.0775  0.1152 -0.0575
   20bbb     N1  580   2.238   3.475   0.711  0.4469  0.2272  0.3649
   20bbb     C1  581   2.213   3.553   0.841 -0.3388  0.5083 -0.5652
   20bbb     H1  582   2.263   3.501   0.924 -0.4712  0.8279 -0.2824
   20bbb     H2  583   2.107   3.557   0.868 -0.3001  1.4591 -0.5017
   20bbb     C2  584   2.145   3.524   0.607  0.0109 -0.0989  0.3405
   20bbb     H3  585   2.156   3.458   0.520  1.3731 -0.4241  0.7491
   20bbb     H4  586   2.176   3.627   0.585 -1.7882  1.0256  2.6906
   20bbb     C3  587   2.376   3.475   0.648  0.3821 -0.1439 -0.2456
   20bbb     H5  588   2.450   3.481   0.729 -0.3183 -3.9621  0.9084
   20bbb     H6  589   2.386   3.567   0.591 -0.6335 -0.2930 -0.6866
   20bbb     C4  590   2.405   3.348   0.568 -0.0757  0.2338  0.3143
   20bbb     H7  591   2.314   3.333   0.507 -0.3061 -0.8423  0.8962
   20bbb     H8  592   2.410   3.259   0.631  1.7114 -1.6628 -2.3067
   20bbb     C5  593   2.269   3.696   0.846  0.0468  0.0981  0.2715
   20bbb     H9  594   2.219   3.744   0.761  0.8420 -1.3245 -1.0650
   20bbb    H10  595   2.377   3.702   0.827  0.6101 -2.7108  2.0151
   20bbb     C6  596   1.991   3.539   0.642 -0.4207  0.7948 -0.5212
   20bbb    H11  597   1.947   3.556   0.543  1.4257 -0.6232 -1.6537
   20bbb    H12  598   1.979   3.626   0.708 -2.0925 -0.3236  0.7607
   20bbb     C7  599   2.540   3.367   0.490  0.4456 -0.4971  0.0445
   20bbb    H13  600   2.618   3.376   0.566  0.2530  1.3750  0.0608
   20bbb    H14  601   2.526   3.456   0.427  0.3417 -1.1785 -0.9225
   20bbb     C8  602   1.928   3.411   0.716  0.3244  0.2233  0.0552
   20bbb    H15  603   2.007   3.364   0.776 -0.6103 -0.1532  1.0297
   20bbb    H16  604   1.888   3.347   0.636  1.6802 -0.6066  0.0052
   20bbb     C9  605   2.252   3.764   0.984 -0.5196  0.0890 -0.6630
   20bbb    H17  606   2.345   3.753   1.041 -0.9736  0.5327  0.1771
   20bbb    H18  607   2.171   3.726   1.047 -0.5951  0.4896 -0.5140
   20bbb     O1  608   2.569   3.259   0.403 -0.1761 -0.3160 -0.0374
   21bbb     N1  609   2.876   2.494   0.689 -0.0036 -0.0061 -0.1199
   21bbb     C1  610   2.845   2.632   0.753 -0.7548 -0.0498  0.0710
   21bbb     H1  611   2.790   2.607   0.845 -1.1597 -1.4764 -0.5298
   21bbb     H2  612   2.771   2.687   0.695 -2.5552 -3.7094 -1.4162
   21bbb     C2  613   2.762   2.396   0.684 -0.0135  0.0275 -0.6449
   21bbb     H3  614   2.783   2.294   0.649  1.9649 -0.2935  1.2872
   21bbb     H4  615   2.680   2.434   0.621  0.7725  0.4106 -1.4718
   21bbb     C3  616   2.943   2.497   0.555  0.8185  0.1351 -0.8992
   21bbb     H5  617   2.957   2.397   0.512 -0.1094  0.2548 -1.4966
   21bbb     H6  618   3.045   2.535   0.570  0.2603  1.1633  0.4632
   21bbb     C4  619   2.862   2.586   0.456 -0.1788 -0.0679  0.0681
   21bbb     H7  620   2.853   2.689   0.494 -3.0854 -0.1655 -0.1288
   21bbb     H8  621   2.760   2.548   0.449  0.5653 -2.1745 -0.0777
   21bbb     C5  622   2.978   2.705   0.795  0.1537  0.1237  0.0799
   21bbb     H9  623   2.960   2.813   0.788 -0.6541 -0.1078 -3.8941
   21bbb    H10  624   3.056   2.685   0.721  0.2999  0.4098  0.1553
   21bbb     C6  625   2.696   2.372   0.827  0.1177  0.0720  0.4295
   21bbb    H11  626   2.619   2.297   0.806 -0.2887  1.2225 -2.8303
   21bbb    H12  627   2.640   2.461   0.857  0.4115 -0.2347  1.9351
   21bbb     C7  628   2.939   2.590   0.322  0.2454  0.1101 -0.2621
   21bbb    H13  629   2.957   2.485   0.297  1.9378  0.2255  0.3587
   21bbb    H14  630   3.041   2.624   0.343 -0.2673  1.0418  0.8124
   21bbb     C8  631   2.784   2.345   0.946 -0.8361 -0.6208  0.2337
   21bbb    H15  632   2.859   2.425   0.951 -2.2634  0.8599 -1.1111
   21bbb    H16  633   2.836   2.248   0.945 -1.9131 -1.2187  0.4120
   21bbb     C9  634   3.024   2.671   0.942  0.1857 -0.3827 -0.8481
   21bbb    H17  635   3.125   2.707   0.966 -0.8717  1.4260  1.2633
   21bbb    H18  636   3.025   2.561   0.948  0.1716 -0.4439 -1.8382
   21bbb     O1  637   2.881   2.682   0.224 -0.1983  0.5480 -0.0674
   22bbb     N1  638   0.132   3.587   0.328 -0.0383  0.3946 -0.1744
   22bbb     C1  639   0.012   3.536   0.258 -0.3224  0.6057  0.6786
   22bbb     H1  640   0.031   3.472   0.170  0.7686 -0.7755  1.8722
   22bbb     H2  641  -0.052   3.619   0.227 -0.9254 -0.3367 -0.7422
   22bbb     C2  642   0.115   3.684   0.444  0.0454  0.1021  0.1843
   22bbb     H3  643   0.213   3.705   0.489  1.2827 -1.8223 -1.4585
   22bbb     H4  644   0.071   3.635   0.532  2.0839  0.5596  1.5250
   22bbb     C3  645   0.243   3.612   0.236  0.0197 -1.3994  0.2100
   22bbb     H5  646   0.229   3.709   0.186  0.5544  1.3919  4.8444
   22bbb     H6  647   0.247   3.534   0.160 -0.8459 -1.4420  0.2029
   22bbb     C4  648   0.384   3.624   0.289  0.2883  0.6300 -0.2802
   22bbb     H7  649   0.395   3.720   0.340  0.5474  0.8216 -0.6999
   22bbb     H8  650   0.460   3.627   0.210 -0.9777  0.9322 -1.5164
   22bbb     C5  651  -0.084   3.446   0.339  1.0304 -0.0113  0.5330
   22bbb     H9  652  -0.173   3.431   0.276  0.7313 -1.4000  1.2288
   22bbb    H10  653  -0.120   3.500   0.427 -0.4108  0.7631 -0.4888
   22bbb     C6  654   0.047   3.816   0.407  0.2581  0.3577  0.7552
   22bbb    H11  655  -0.052   3.795   0.364  0.7346 -1.3610  0.4416
   22bbb    H12  656   0.100   3.874   0.330 -0.5740  1.0305  0.6771
   22bbb     C7  657   0.418   3.507   0.383 -0.2497  0.0817  0.1905
   22bbb    H13  658   0.386   3.411   0.340 -0.3069 -0.1828  0.8255
   22bbb    H14  659   0.372   3.525   0.480  0.7652  0.6954  0.5701
   22bbb     C8  660   0.024   3.906   0.535  0.3708 -0.2722  0.1449
   22bbb    H15  661   0.000   3.844   0.622 -0.4883 -0.6079 -0.3250
   22bbb    H16  662  -0.062   3.973   0.526 -0.0688 -0.8746 -0.1916
   22bbb     C9  663  -0.035   3.309   0.385 -0.0614 -0.0235 -0.1629
   22bbb    H17  664  -0.085   3.285   0.479 -0.3576  1.8845  0.2130
   22bbb    H18  665   0.072   3.322   0.404 -0.1475 -1.7776  1.7995
   22bbb     O1  666   0.563   3.494   0.395  0.1408  0.1835 -0.4141
   23bbb     N1  667   1.523   3.970   0.536 -0.1466 -0.2001 -0.4373
   23bbb     C1  668   1.502   3.902   0.663  0.5240  0.0339  0.1715
   23bbb     H1  669   1.398   3.869   0.671  0.5925 -0.9530 -2.2723
   23bbb     H2  670   1.506   3.980   0.740  0.4055  0.1421  0.0678
   23bbb     C2  671   1.653   4.049   0.529  0.2024  0.0036 -0.1760
   23bbb     H3  672   1.642   4.115   0.442  0.3133  0.5729  0.2394
   23bbb     H4  673   1.737   3.982   0.505  1.1275  1.6359 -1.7546
   23bbb     C3  674   1.493   3.890   0.412 -0.2606 -0.1941 -0.5059
   23bbb     H5  675   1.566   3.814   0.380 -1.9040 -0.8926 -2.8929
   23bbb     H6  676   1.503   3.961   0.329  0.9843 -0.6706 -0.7777
   23bbb     C4  677   1.357   3.820   0.409  0.1483 -0.1682  0.6748
   23bbb     H7  678   1.276   3.893   0.415  1.6414  1.6614 -0.1309
   23bbb     H8  679   1.345   3.759   0.499 -2.7632 -0.1380  0.3801
   23bbb     C5  680   1.604   3.789   0.694 -0.0414 -0.0834  0.0299
   23bbb     H9  681   1.700   3.805   0.644 -0.7805  1.8466 -0.8335
   23bbb    H10  682   1.553   3.700   0.656 -0.4613  0.8077 -1.5712
   23bbb     C6  683   1.684   4.138   0.658  1.0724  0.2547  0.0986
   23bbb    H11  684   1.774   4.193   0.626  0.0592  1.9495  0.0813
   23bbb    H12  685   1.720   4.070   0.737 -1.3114 -0.0202  1.0299
   23bbb     C7  686   1.350   3.735   0.279 -0.8395  0.2740 -0.0863
   23bbb    H13  687   1.452   3.702   0.255 -1.2021  0.5594 -2.2402
   23bbb    H14  688   1.334   3.806   0.197  0.0340  3.7047  2.5057
   23bbb     C8  689   1.571   4.232   0.702 -0.3369 -0.0248  0.0606
   23bbb    H15  690   1.483   4.177   0.736 -0.4822 -0.1509 -0.5100
   23bbb    H16  691   1.552   4.289   0.611  2.8905 -0.4694 -1.0407
   23bbb     C9  692   1.627   3.756   0.844 -0.0837 -0.4450  0.1881
   23bbb    H17  693   1.721   3.700   0.856 -0.2850 -0.7362  0.4053
   23bbb    H18  694   1.540   3.710   0.891  0.6597 -0.0548  2.0138
   23bbb     O1  695   1.258   3.631   0.284 -0.3811  0.4104 -0.2127
   24bbb     N1  696   1.886   4.091   0.034 -0.5124  0.2206  0.1732
   24bbb     C1  697   1.829   4.169   0.152  0.1274 -0.2265 -0.1861
   24bbb     H1  698   1.836   4.110   0.245 -0.8714  0.7822  0.5651
   24bbb     H2  699   1.722   4.177   0.132  0.3557 -1.7093 -2.3169
   24bbb     C2  700   1.838   4.133  -0.101  0.4492 -0.0443  0.4203
   24bbb     H3  701   1.875   4.233  -0.128 -0.3630 -0.5449 -3.1407
   24bbb     H4  702   1.731   4.153  -0.089  0.6690  0.2389  2.0893
   24bbb     C3  703   2.026   4.048   0.051  0.2595  0.2666  0.2974
   24bbb     H5  704   2.081   4.135   0.088  2.4066 -1.2104  0.7579
   24bbb     H6  705   2.069   4.033  -0.048  0.2104  0.1988  0.2863
   24bbb     C4  706   2.041   3.927   0.144  0.0148 -0.6707  0.1033
   24bbb     H7  707   2.034   3.831   0.091  0.3668 -0.7971  0.2763
   24bbb     H8  708   1.962   3.933   0.220 -0.1472  0.3383 -0.1302
   24bbb     C5  709   1.896   4.314   0.169  0.4552  0.0419 -0.5456
   24bbb     H9  710   1.855   4.382   0.094 -0.6080  0.3144  0.2572
   24bbb    H10  711   2.005   4.309   0.154  0.5287 -0.3977  0.0885
   24bbb     C6  712   1.855   4.036  -0.218  0.5029 -0.0748  0.5742
   24bbb    H11  713   1.824   3.939  -0.175 -0.0168 -0.0905  0.1766
   24bbb    H12  714   1.960   4.014  -0.238  0.5739  0.2522  0.5818
   24bbb     C7  715   2.182   3.919   0.206 -0.5814  0.2136 -0.8580
   24bbb    H13  716   2.189   3.850   0.291 -0.6410 -0.4791 -1.4080
   24bbb    H14  717   2.217   4.015   0.246  0.2325 -0.5619  0.3579
   24bbb     C8  718   1.769   4.061  -0.347  0.1275  0.2653 -0.4238
   24bbb    H15  719   1.758   4.170  -0.353  0.1547  0.3701  1.0280
   24bbb    H16  720   1.669   4.018  -0.335 -0.0339  0.7409  0.0044
   24bbb     C9  721   1.859   4.376   0.308  0.1707  0.2428  0.7108
   24bbb    H17  722   1.901   4.478   0.312  0.6110  0.2122 -1.9290
   24bbb    H18  723   1.905   4.322   0.392 -0.0828 -1.8189 -0.4163
   24bbb     O1  724   2.278   3.877   0.111 -0.4072 -0.0266  0.3731
   25bbb     N1  725   1.818   3.507  -0.195 -0.4862 -0.1952  0.1999
   25bbb     C1  726   1.726   3.532  -0.081 -0.2021 -0.0233  0.0513
   25bbb     H1  727   1.673   3.626  -0.096  0.0580 -0.0732 -1.3119
   25bbb     H2  728   1.790   3.537   0.009 -0.2732  0.8355  0.0593
   25bbb     C2  729   1.951   3.450  -0.162 -0.4703  0.4295 -0.0944
   25bbb     H3  730   2.000   3.519  -0.092 -1.0719  0.8221 -0.0542
   25bbb     H4  731   2.022   3.442  -0.246 -1.1624  0.1310 -0.6561
   25bbb     C3  732   1.845   3.625  -0.283  0.0998 -0.1373  0.4993
   25bbb     H5  733   1.922   3.687  -0.237 -0.1673  0.0403  0.7088
   25bbb     H6  734   1.748   3.675  -0.295 -0.5022 -1.6909 -1.9902
   25bbb     C4  735   1.888   3.589  -0.424 -0.3789 -0.0915 -0.2827
   25bbb     H7  736   1.802   3.599  -0.492 -1.7038  2.2858  1.5742
   25bbb     H8  737   1.920   3.484  -0.418 -1.6295 -0.4931 -0.3464
   25bbb     C5  738   1.621   3.421  -0.075 -0.0268  0.2180  0.2340
   25bbb     H9  739   1.669   3.328  -0.042  0.5574  0.5523  0.3467
   25bbb    H10  740   1.579   3.408  -0.175  0.6135 -1.9614  0.2022
   25bbb     C6  741   1.954   3.312  -0.091 -0.4310 -0.5689  0.4950
   25bbb    H11  742   1.885   3.316  -0.006 -1.3605 -4.5647  0.0884
   25bbb    H12  743   2.056   3.297  -0.055  0.6700  2.0606 -1.1675
   25bbb     C7  744   2.010   3.677  -0.471  0.4159  0.5553 -0.3332
   25bbb    H13  745   1.988   3.782  -0.448 -0.7900  0.0081  1.1902
   25bbb    H14  746   2.013   3.675  -0.581 -3.4321  1.9409 -0.6256
   25bbb     C8  747   1.918   3.205  -0.193  0.2514 -0.0816 -0.4225
   25bbb    H15  748   2.001   3.185  -0.261  0.8084  0.8345 -0.0244
   25bbb    H16  749   1.826   3.239  -0.243  0.0843 -0.8191 -0.6379
   25bbb     C9  750   1.505   3.450   0.025 -0.0987 -1.0273 -0.3956
   25bbb    H17  751   1.484   3.556   0.011  2.5244 -0.4697 -0.6226
   25bbb    H18  752   1.540   3.461   0.129 -0.4732  0.6040 -0.4240
   25bbb     O1  753   2.136   3.636  -0.411  0.1518 -0.3179 -0.2819
   26bbb     N1  754   1.159   3.078   1.593 -0.0959  0.1142 -0.8357
   26bbb     C1  755   1.090   3.165   1.693  0.2935  0.2008  0.6338
   26bbb     H1  756   1.075   3.113   1.788  0.7105  1.7064  1.5545
   26bbb     H2  757   0.990   3.193   1.657  0.6463  2.6978  1.4180
   26bbb     C2  758   1.255   2.982   1.651  0.1031 -0.1756 -0.0582
   26bbb     H3  759   1.214   2.937   1.743  1.1109 -3.8892 -1.2342
   26bbb     H4  760   1.342   3.042   1.680 -0.3547  0.7036 -0.4991
   26bbb     C3  761   1.207   3.145   1.469  0.0381  0.5020 -0.1678
   26bbb     H5  762   1.246   3.064   1.406 -0.6772 -0.4995  0.6491
   26bbb     H6  763   1.291   3.213   1.488  0.0946  0.3035  0.3043
   26bbb     C4  764   1.088   3.227   1.401  0.0134  0.1944  0.2942
   26bbb     H7  765   1.137   3.278   1.318 -2.0801 -1.9114 -2.4040
   26bbb     H8  766   1.049   3.307   1.466 -0.1646  0.5429 -0.2399
   26bbb     C5  767   1.153   3.299   1.734 -0.4824 -0.7614 -0.6214
   26bbb     H9  768   1.151   3.369   1.649 -1.7881  0.4244  0.3353
   26bbb    H10  769   1.255   3.281   1.768  0.4662  1.4248 -2.0536
   26bbb     C6  770   1.301   2.867   1.557  1.0299 -0.0115  0.6201
   26bbb    H11  771   1.368   2.912   1.483 -0.2315  0.8409 -0.0439
   26bbb    H12  772   1.217   2.828   1.498  2.6713 -0.6096 -1.4171
   26bbb     C7  773   0.970   3.142   1.340 -0.1584  0.2137  0.3295
   26bbb    H13  774   0.908   3.102   1.421 -0.5581  1.7372  0.8043
   26bbb    H14  775   1.002   3.059   1.276  2.0026  2.6218 -1.9983
   26bbb     C8  776   1.367   2.748   1.632 -0.0922  0.0367 -0.2293
   26bbb    H15  777   1.402   2.674   1.558 -2.3229  0.8535 -2.2269
   26bbb    H16  778   1.291   2.695   1.691 -0.3229 -0.5315 -1.0207
   26bbb     C9  779   1.071   3.363   1.852 -0.0594 -0.3245  0.0862
   26bbb    H17  780   1.064   3.296   1.938  1.5212 -0.0476  0.4772
   26bbb    H18  781   0.968   3.379   1.819 -1.3979 -0.7081  3.7422
   26bbb     O1  782   0.883   3.232   1.264  0.2807 -0.1642 -0.0323
   27bbb     N1  783   1.342   3.607   1.133 -0.0435  0.4418  0.2605
   27bbb     C1  784   1.407   3.482   1.160  0.0184  0.0227 -1.1121
   27bbb     H1  785   1.490   3.461   1.092  0.7831  0.3403 -0.2976
   27bbb     H2  786   1.325   3.411   1.147 -0.5577  0.4634 -0.0592
   27bbb     C2  787   1.279   3.663   1.254 -0.0572  0.3466  0.4766
   27bbb     H3  788   1.241   3.765   1.242  0.1303  0.3912  0.2450
   27bbb     H4  789   1.353   3.675   1.334  1.5575  1.1153 -1.0549
   27bbb     C3  790   1.264   3.613   1.009  0.5666  0.1532 -0.0676
   27bbb     H5  791   1.182   3.541   1.015  0.3454  0.4717  0.9726
   27bbb     H6  792   1.317   3.570   0.924  2.0834  0.8293  0.5088
   27bbb     C4  793   1.209   3.754   0.970 -0.0251  0.2258  0.8441
   27bbb     H7  794   1.287   3.831   0.960 -1.2944  1.5558  0.6869
   27bbb     H8  795   1.137   3.796   1.042 -0.9834 -3.2359  2.0874
   27bbb     C5  796   1.466   3.450   1.301  0.2840  0.0307 -0.3274
   27bbb     H9  797   1.385   3.458   1.374  0.5198  1.7525 -0.2075
   27bbb    H10  798   1.539   3.523   1.338  2.8611 -2.2881 -0.4970
   27bbb     C6  799   1.155   3.584   1.296 -0.2925  0.2553  0.5301
   27bbb    H11  800   1.178   3.477   1.304  0.1343  0.4840  3.0558
   27bbb    H12  801   1.075   3.594   1.221  0.7739  1.1806 -0.5309
   27bbb     C7  802   1.118   3.752   0.843  0.0069 -0.4286 -0.1790
   27bbb    H13  803   1.174   3.721   0.753  0.0065 -0.3494 -0.2065
   27bbb    H14  804   1.083   3.855   0.831  2.2407  0.8529  2.8433
   27bbb     C8  805   1.110   3.630   1.434  0.3594 -0.6338 -0.3097
   27bbb    H15  806   1.109   3.738   1.453  2.0418 -0.6822  0.2286
   27bbb    H16  807   1.192   3.602   1.502 -0.3465 -2.5795 -0.1779
   27bbb     C9  808   1.520   3.300   1.291  0.7477 -0.5464 -0.2537
   27bbb    H17  809   1.582   3.292   1.201 -0.2452 -3.8516 -0.7875
   27bbb    H18  810   1.440   3.225   1.291  0.2671 -0.0683  0.9893
   27bbb     O1  811   1.002   3.664   0.864 -0.6366 -0.7330  0.3491
   28bbb     N1  812   0.333   3.798  -0.153  0.9359 -0.1091 -0.3653
   28bbb     C1  813   0.211   3.710  -0.139 -0.1825  0.5116  0.2052
   28bbb     H1  814   0.128   3.778  -0.118  1.2776  2.7524 -0.8906
   28bbb     H2  815   0.226   3.642  -0.053  1.4479  1.5176  0.7732
   28bbb     C2  816   0.376   3.879  -0.026  0.5967  0.1699 -0.0268
   28bbb     H3  817   0.461   3.946  -0.047  0.4248  1.0496  1.9080
   28bbb     H4  818   0.396   3.803   0.050  0.8890  0.7792  0.5195
   28bbb     C3  819   0.447   3.732  -0.221 -0.2766 -0.1602 -0.7565
   28bbb     H5  820   0.529   3.803  -0.237  0.0495 -0.1901  0.6200
   28bbb     H6  821   0.412   3.702  -0.320  3.2145 -1.2057 -1.7927
   28bbb     C4  822   0.496   3.608  -0.147  0.4461  0.1170 -0.1438
   28bbb     H7  823   0.417   3.531  -0.143  0.3120  0.2749  2.8361
   28bbb     H8  824   0.519   3.631  -0.042 -1.3256  0.4347  0.2119
   28bbb     C5  825   0.168   3.620  -0.257 -0.0981 -0.2608  0.3325
   28bbb     H9  826   0.246   3.546  -0.279  1.2991  1.6544 -1.5482
   28bbb    H10  827   0.162   3.681  -0.348 -0.7382 -0.9363 -0.0882
   28bbb     C6  828   0.269   3.973   0.029 -0.5072 -0.0259 -0.1136
   28bbb    H11  829   0.181   3.914   0.056  0.5712 -2.4095 -1.5511
   28bbb    H12  830   0.239   4.039  -0.053 -0.8442 -0.9042 -0.7077
   28bbb     C7  831   0.615   3.549  -0.233  1.2031 -0.0368 -0.1624
   28bbb    H13  832   0.702   3.617  -0.237  0.4944  1.0574  1.6457
   28bbb    H14  833   0.584   3.541  -0.337 -0.1332  2.9843 -0.0964
   28bbb     C8  834   0.329   4.048   0.151  0.2793  0.6336 -0.2502
   28bbb    H15  835   0.243   4.107   0.187  0.1476  1.0732 -1.2489
   28bbb    H16  836   0.409   4.113   0.113  1.7232 -2.0554 -2.1016
   28bbb     C9  837   0.033   3.557  -0.237 -0.2337  0.3143 -0.0418
   28bbb    H17  838   0.018   3.499  -0.329 -2.5865  1.3427 -0.3748
   28bbb    H18  839  -0.039   3.638  -0.248  2.2121  2.5392 -0.7987
   28bbb     O1  840   0.654   3.423  -0.186  0.1798 -0.0069  0.3942
   29bbb     N1  841   0.357   3.450  -0.578 -0.0495  0.1166  0.0771
   29bbb     C1  842   0.381   3.591  -0.625 -0.3588 -0.1998  0.1495
   29bbb     H1  843   0.468   3.632  -0.572 -1.8075  1.4325  1.3846
   29bbb     H2  844   0.304   3.663  -0.597  1.3721  1.5424  0.6494
   29bbb     C2  845   0.454   3.353  -0.628  0.2124 -0.0321 -0.1491
   29bbb     H3  846   0.444   3.340  -0.736 -0.3867  2.6357 -0.4915
   29bbb     H4  847   0.430   3.257  -0.580 -1.9846 -0.5495 -2.0909
   29bbb     C3  848   0.219   3.401  -0.589 -0.0452 -0.0369 -0.4948
   29bbb     H5  849   0.180   3.386  -0.690 -1.5149 -1.2243  0.2195
   29bbb     H6  850   0.145   3.476  -0.561  0.6307  1.0863 -1.6034
   29bbb     C4  851   0.184   3.273  -0.511 -0.5976 -0.3331  0.1868
   29bbb     H7  852   0.229   3.188  -0.564 -1.3630  0.3883 -1.7120
   29bbb     H8  853   0.078   3.246  -0.512 -0.5246 -0.6917 -1.9514
   29bbb     C5  854   0.400   3.599  -0.784  0.0603 -0.3347  0.6939
   29bbb     H9  855   0.338   3.527  -0.838 -0.3649  0.1601  0.5183
   29bbb    H10  856   0.499   3.563  -0.816 -0.1092  0.9428 -1.4355
   29bbb     C6  857   0.607   3.388  -0.602 -0.9930 -0.4967 -0.1826
   29bbb    H11  858   0.634   3.398  -0.497 -1.0054 -2.5084  0.0317
   29bbb    H12  859   0.638   3.479  -0.655  2.6299 -0.9979  0.8248
   29bbb     C7  860   0.238   3.275  -0.366  0.3196 -0.2560 -0.5969
   29bbb    H13  861   0.178   3.357  -0.325  0.7973  1.3217 -2.8269
   29bbb    H14  862   0.345   3.296  -0.378  0.0873  0.9571 -0.6845
   29bbb     C8  863   0.701   3.274  -0.650  1.1424  0.2010  0.2771
   29bbb    H15  864   0.801   3.284  -0.606  1.6743 -2.9336  0.0065
   29bbb    H16  865   0.708   3.280  -0.760 -0.7933 -0.4547  0.0846
   29bbb     C9  866   0.368   3.748  -0.830  0.1295 -0.0575  0.7821
   29bbb    H17  867   0.262   3.775  -0.819  0.3026  0.8308  0.3920
   29bbb    H18  868   0.396   3.750  -0.936 -2.6147 -1.3149 -0.0588
   29bbb     O1  869   0.203   3.141  -0.305  0.1428 -0.5462 -0.6138
   30ccc     C3  870   1.110   2.246   0.632  0.3060  0.3396 -0.0344
   30ccc     H5  871   1.210   2.271   0.670  0.5464  2.6829 -1.9851
   30ccc     H6  872   1.108   2.147   0.586  0.0358  1.7451 -3.3079
   30ccc     C2  873   1.070   2.340   0.515  0.3141 -0.3063 -0.3151
   30ccc     H3  874   1.151   2.330   0.442  0.0617  1.7385 -0.9289
   30ccc     H4  875   1.071   2.442   0.556 -1.7529 -0.0893 -0.7140
   30ccc     C1  876   0.931   2.308   0.454  0.3295 -0.5500 -0.1268
   30ccc     H1  877   0.850   2.292   0.526  0.7440 -0.1224  0.4429
   30ccc     H2  878   0.951   2.210   0.410  0.8148 -1.8649  2.8021
   30ccc     N1  879   0.871   2.398   0.357  0.0700  0.0069  0.8639
   30ccc     C4  880   0.958   2.455   0.254 -0.3282  0.8079 -0.3843
   30ccc     H7  881   1.045   2.496   0.308 -1.4602  2.9716 -0.1096
   30ccc     H8  882   0.919   2.542   0.200  0.4465  0.2887 -1.8470
   30ccc     C5  883   1.008   2.362   0.145  0.6420  0.6294 -0.2452
   30ccc     H9  884   1.072   2.281   0.182 -1.1729 -1.1879 -0.9345
   30ccc    H10  885   0.925   2.319   0.089  1.7299 -0.4055 -1.1243
   30ccc     C6  886   1.100   2.440   0.055  0.6611  0.2756  0.3021
   30ccc     O2  887   1.054   2.531  -0.016 -0.3679 -0.3235  0.4963
   30ccc     O3  888   1.211   2.401   0.026  0.4525  0.3828 -0.4589
   30ccc     C7  889   0.736   2.363   0.315 -0.0525 -0.2559  0.7601
   30ccc    H11  890   0.738   2.277   0.246  1.6191  0.7174 -0.4778
   30ccc    H12  891   0.675   2.336   0.402 -2.0449 -0.9816 -0.7918
   30ccc     C8  892   0.670   2.488   0.258 -0.4719 -0.3581 -0.2881
   30ccc    H13  893   0.566   2.472   0.287 -0.8172 -0.3802 -1.4896
   30ccc    H14  894   0.713   2.581   0.298 -1.2392 -1.1139  2.5146
   30ccc     C9  895   0.673   2.491   0.107  0.2764  0.7274 -0.3271
   30ccc     O4  896   0.623   2.395   0.057 -0.4369  0.7251 -0.3914
   30ccc     O5  897   0.729   2.584   0.045  0.0544 -0.0088 -0.0626
   30ccc     O1  898   1.018   2.268   0.737 -0.9686  0.3973 -0.2993
   31ccc     C3  899   1.010   2.163   1.632  0.2333 -0.3254  0.0415
   31ccc     H5  900   0.909   2.128   1.611 -0.6124  1.5235  0.8160
   31ccc     H6  901   1.080   2.078   1.639  0.7220  0.1877  3.8927
   31ccc     C2  902   1.029   2.237   1.770 -0.0429  0.4251  0.0260
   31ccc     H3  903   1.137   2.255   1.776 -0.0797  0.4561  0.6504
   31ccc     H4  904   1.002   2.163   1.846  2.4624 -0.0779  0.5189
   31ccc     C1  905   0.948   2.365   1.777  0.3050 -0.4474 -0.2419
   31ccc     H1  906   0.983   2.433   1.699  0.9675  0.1656  0.5637
   31ccc     H2  907   0.969   2.412   1.874  0.3044  1.4099 -1.0977
   31ccc     N1  908   0.806   2.353   1.758  0.5339  0.4114 -0.0861
   31ccc     C4  909   0.740   2.480   1.716 -0.4523  0.4095  0.2732
   31ccc     H7  910   0.636   2.451   1.697 -0.7518  2.3373 -1.3674
   31ccc     H8  911   0.791   2.518   1.626 -0.0845  0.5657  0.5419
   31ccc     C5  912   0.760   2.589   1.820  0.0561  0.3461  0.1800
   31ccc     H9  913   0.768   2.539   1.918  1.4295 -1.5229 -0.8082
   31ccc    H10  914   0.854   2.644   1.810 -0.0748  0.8690  1.5523
   31ccc     C6  915   0.643   2.684   1.825  0.3758  0.0927 -0.0369
   31ccc     O2  916   0.626   2.758   1.735 -0.0031 -0.4466  0.4432
   31ccc     O3  917   0.592   2.728   1.926  0.3591  0.1322 -0.1012
   31ccc     C7  918   0.741   2.285   1.873 -1.0158 -0.1981 -0.0117
   31ccc    H11  919   0.780   2.182   1.868 -0.2484  0.0747  0.1999
   31ccc    H12  920   0.767   2.336   1.967  0.8277  1.8502 -1.5650
   31ccc     C8  921   0.584   2.275   1.850 -0.8575  0.6385  0.4153
   31ccc    H13  922   0.546   2.377   1.866 -1.0839  0.4625  1.0248
   31ccc    H14  923   0.552   2.229   1.756  0.6242  1.2020 -0.4124
   31ccc     C9  924   0.532   2.193   1.966  0.3711 -0.7479 -0.1944
   31ccc     O4  925   0.503   2.074   1.954  0.1237 -0.7364  0.3371
   31ccc     O5  926   0.530   2.243   2.076 -0.2555 -0.8962 -0.4246
   31ccc     O1  927   1.037   2.259   1.529  0.2421  0.3704 -0.2855
   32ccc     C3  928   0.097   3.011   1.060 -0.1427  0.7375 -0.0242
   32ccc     H5  929   0.097   3.059   0.961 -1.6463  0.7195 -0.0613
   32ccc     H6  930  -0.007   2.989   1.087 -0.3173  0.3226 -0.9841
   32ccc     C2  931   0.150   3.102   1.173  0.5433 -0.3450  0.6108
   32ccc     H3  932   0.158   3.031   1.257  2.9755 -0.8014  0.0664
   32ccc     H4  933   0.084   3.182   1.207  1.0055  0.4913 -0.3971
   32ccc     C1  934   0.294   3.157   1.130  0.1348 -0.1744  0.3846
   32ccc     H1  935   0.278   3.212   1.037 -3.7150 -2.3743 -0.4513
   32ccc     H2  936   0.368   3.081   1.101  0.1968 -0.3955  1.1013
   32ccc     N1  937   0.354   3.243   1.235 -0.2484  0.2487 -0.4148
   32ccc     C4  938   0.273   3.371   1.254 -0.4217  0.0303 -0.2861
   32ccc     H7  939   0.175   3.353   1.300  0.0805  1.1284  1.2856
   32ccc     H8  940   0.261   3.426   1.160  2.7118  0.9484 -0.2659
   32ccc     C5  941   0.358   3.469   1.339  0.2328  0.3112 -0.0844
   32ccc     H9  942   0.364   3.438   1.444 -0.0261 -0.1264 -0.1950
   32ccc    H10  943   0.458   3.469   1.293  0.7206  0.2484  0.9366
   32ccc     C6  944   0.296   3.609   1.330  0.2897  0.1295 -0.2057
   32ccc     O2  945   0.374   3.698   1.301  0.3032 -0.2922  0.0684
   32ccc     O3  946   0.189   3.637   1.384  0.2941  0.3205  0.8094
   32ccc     C7  947   0.401   3.175   1.351 -0.6159 -0.1018 -0.1122
   32ccc    H11  948   0.479   3.235   1.401 -1.6937  1.6878 -0.4775
   32ccc    H12  949   0.321   3.171   1.426 -0.6503  0.4524 -0.1136
   32ccc     C8  950   0.447   3.026   1.332  0.4749 -0.4746  0.1496
   32ccc    H13  951   0.376   2.960   1.280 -1.2466 -0.1403  1.9686
   32ccc    H14  952   0.544   3.022   1.280  0.9801  1.7595  0.8029
   32ccc     C9  953   0.463   2.964   1.471  0.5393 -0.8891 -0.2641
   32ccc     O4  954   0.563   2.902   1.496 -0.0012 -0.0497 -0.0976
   32ccc     O5  955   0.363   2.930   1.525  0.7364 -0.4747 -0.6422
   32ccc     O1  956   0.180   2.895   1.057  0.4440  0.6000 -0.3778
   33ccc     C3  957   0.257   2.212   1.423 -0.0436  0.0928  0.4690
   33ccc     H5  958   0.163   2.158   1.440  0.1156 -1.1119 -2.1382
   33ccc     H6  959   0.340   2.141   1.417 -0.5690 -0.5748  0.8925
   33ccc     C2  960   0.268   2.299   1.552  0.9823 -0.0481 -0.0006
   33ccc     H3  961   0.349   2.371   1.563 -1.3479  2.4440  2.5744
   33ccc     H4  962   0.295   2.226   1.630  0.2685  1.6080  1.8651
   33ccc     C1  963   0.125   2.351   1.593  0.3618  0.1183  0.5224
   33ccc     H1  964   0.049   2.273   1.602  0.3188 -0.2681 -2.4356
   33ccc     H2  965   0.081   2.404   1.508 -0.5134 -1.0135  0.2525
   33ccc     N1  966   0.118   2.432   1.719 -0.5288  0.6197 -0.7166
   33ccc     C4  967   0.185   2.564   1.705  0.1390 -0.1900  0.7740
   33ccc     H7  968   0.156   2.606   1.608  0.6708 -1.0183  0.2414
   33ccc     H8  969   0.293   2.557   1.690 -0.1176  0.4218 -1.9653
   33ccc     C5  970   0.153   2.665   1.815 -0.4750  0.0966 -0.3012
   33ccc     H9  971   0.045   2.682   1.818 -0.5596  0.0310 -1.8069
   33ccc    H10  972   0.186   2.635   1.915 -1.2968  0.4481  0.0836
   33ccc     C6  973   0.218   2.794   1.790  0.7209  0.4649 -0.1322
   33ccc     O2  974   0.154   2.898   1.764  0.1316 -0.3249  0.4567
   33ccc     O3  975   0.337   2.806   1.784  0.2694 -0.2005  0.3551
   33ccc     C7  976   0.168   2.353   1.835 -0.4773 -0.5642 -0.1405
   33ccc    H11  977   0.274   2.337   1.811  0.1832 -0.2949  2.2879
   33ccc    H12  978   0.166   2.411   1.928 -0.1678 -0.0300 -0.4654
   33ccc     C8  979   0.094   2.222   1.870  0.1979 -0.2399  0.3752
   33ccc    H13  980  -0.012   2.244   1.889  0.3926  1.1582 -0.0222
   33ccc    H14  981   0.099   2.143   1.795  1.4418  0.2543 -0.0766
   33ccc     C9  982   0.151   2.159   1.999 -0.3166 -0.7335 -0.5075
   33ccc     O4  983   0.250   2.200   2.054  0.5442  0.3635  0.3438
   33ccc     O5  984   0.135   2.040   2.017  0.3174 -0.0142  0.0808
   33ccc     O1  985   0.244   2.302   1.307  0.4682 -0.0205  1.0287
   34ccc     C3  986   2.703   1.276   1.414 -0.5148  0.5020 -0.3890
   34ccc     H5  987   2.790   1.227   1.369 -0.7437  0.2168 -0.5222
   34ccc     H6  988   2.742   1.338   1.495 -0.5545  0.1346 -0.0850
   34ccc     C2  989   2.615   1.176   1.488  0.0710 -0.2427  0.0599
   34ccc     H3  990   2.685   1.103   1.530  0.2389 -0.0931  0.0410
   34ccc     H4  991   2.559   1.126   1.407 -1.1393 -0.0643  0.7658
   34ccc     C1  992   2.520   1.243   1.591  0.2038  0.2052 -0.8247
   34ccc     H1  993   2.452   1.305   1.532  0.4857 -0.3613 -1.7591
   34ccc     H2  994   2.582   1.313   1.648  0.8029 -0.5364 -0.5456
   34ccc     N1  995   2.441   1.156   1.679  0.6119  0.8630  0.5119
   34ccc     C4  996   2.414   1.226   1.809 -0.4138 -0.0837 -0.6858
   34ccc     H7  997   2.350   1.309   1.778 -0.7414 -0.1466 -0.1920
   34ccc     H8  998   2.508   1.266   1.849 -0.8079 -0.7897  1.0306
   34ccc     C5  999   2.358   1.135   1.920  0.0804 -0.2658  0.3058
   34ccc     H9 1000   2.273   1.077   1.883 -0.2242  1.7619 -2.5322
   34ccc    H10 1001   2.428   1.056   1.949  1.7781  1.5234  1.2789
   34ccc     C6 1002   2.309   1.207   2.043 -0.1954  0.4357 -0.5167
   34ccc     O2 1003   2.384   1.269   2.117 -0.4828 -0.5475 -0.0595
   34ccc     O3 1004   2.196   1.239   2.051  0.2977  0.0028  0.2139
   34ccc     C7 1005   2.331   1.090   1.615 -0.0682 -0.4662 -0.1165
   34ccc    H11 1006   2.349   1.055   1.513  0.9647  0.7429 -0.3848
   34ccc    H12 1007   2.307   1.003   1.677  0.4469 -0.4667  0.0867
   34ccc     C8 1008   2.208   1.185   1.611  0.6119 -1.0344  0.6723
   34ccc    H13 1009   2.173   1.193   1.715 -0.6148  1.9626  0.1512
   34ccc    H14 1010   2.228   1.290   1.584  2.0080 -1.3962  0.2359
   34ccc     C9 1011   2.104   1.136   1.510 -0.6147 -0.6316 -0.4456
   34ccc     O4 1012   2.080   1.024   1.516 -0.2794  0.0654  0.4066
   34ccc     O5 1013   2.053   1.206   1.425  0.2016 -0.4240  0.0667
   34ccc     O1 1014   2.625   1.359   1.326 -0.6373 -0.1353 -0.1875
   35ccc     C3 1015   2.645   1.254   0.872 -0.2769 -0.1168  0.1486
   35ccc     H5 1016   2.554   1.234   0.813 -2.1970  0.4167  2.7399
   35ccc     H6 1017   2.730   1.201   0.828 -0.4183 -0.9547  0.8666
   35ccc     C2 1018   2.613   1.177   1.008  0.5907  0.4625  0.2646
   35ccc     H3 1019   2.525   1.231   1.043  1.6338  3.0340 -0.7894
   35ccc     H4 1020   2.699   1.189   1.075 -0.1217 -1.3180  1.5675
   35ccc     C1 1021   2.592   1.024   0.990  0.0594  0.0668  0.0584
   35ccc     H1 1022   2.675   0.978   0.936 -0.4416 -0.7181 -0.0689
   35ccc     H2 1023   2.507   1.023   0.920  1.3906  2.6718 -1.7517
   35ccc     N1 1024   2.572   0.955   1.115 -0.0046 -0.0003 -0.2774
   35ccc     C4 1025   2.443   0.995   1.176  0.1597  0.1462  0.5516
   35ccc     H7 1026   2.435   1.104   1.189  3.7539  1.1851 -3.5059
   35ccc     H8 1027   2.438   0.956   1.278  0.0747  1.0403  0.8986
   35ccc     C5 1028   2.314   0.948   1.102 -0.2496 -0.3508  0.4952
   35ccc     H9 1029   2.310   0.974   0.996  0.5290 -0.0845  0.5197
   35ccc    H10 1030   2.313   0.838   1.106 -0.7981 -0.3946 -0.6440
   35ccc     C6 1031   2.195   0.995   1.186 -0.6576 -0.2220  0.0949
   35ccc     O2 1032   2.160   1.110   1.182  0.0032  0.1728 -0.3835
   35ccc     O3 1033   2.133   0.924   1.256 -0.0234  0.1106 -0.7530
   35ccc     C7 1034   2.604   0.815   1.105  0.7455  0.2451 -0.4249
   35ccc    H11 1035   2.530   0.778   1.034 -0.7208  1.8971  0.1482
   35ccc    H12 1036   2.706   0.814   1.064  1.1982  0.4611  0.6443
   35ccc     C8 1037   2.580   0.729   1.232  0.5118  0.2386  0.3657
   35ccc    H13 1038   2.633   0.774   1.318 -1.0332 -1.4447  2.3000
   35ccc    H14 1039   2.477   0.732   1.269  0.8757  0.4158  1.4111
   35ccc     C9 1040   2.621   0.593   1.211 -0.0263  0.1112  0.0473
   35ccc     O4 1041   2.738   0.563   1.196 -0.0170  0.1812 -0.3705
   35ccc     O5 1042   2.537   0.503   1.216 -0.1369 -0.8744  0.3177
   35ccc     O1 1043   2.668   1.396   0.890 -0.1987  0.6614 -0.3198
   36ccc     C3 1044   1.945   2.151   1.852 -0.1906  0.8725  0.2186
   36ccc     H5 1045   2.031   2.083   1.852  0.6929  1.9700  1.1255
   36ccc     H6 1046   1.986   2.225   1.922  3.3418  1.2104 -1.9850
   36ccc     C2 1047   1.809   2.089   1.894  0.6275  0.2187 -0.5388
   36ccc     H3 1048   1.729   2.155   1.861 -0.2692 -2.2061 -3.7259
   36ccc     H4 1049   1.790   2.081   2.002 -0.7408  0.1833 -0.7684
   36ccc     C1 1050   1.783   1.958   1.823 -0.5149  0.4793  0.7372
   36ccc     H1 1051   1.759   1.979   1.718  1.0812 -2.4547 -0.3438
   36ccc     H2 1052   1.707   1.889   1.862  0.3930 -0.4198  0.9616
   36ccc     N1 1053   1.902   1.871   1.824  0.4449  0.1833 -0.1702
   36ccc     C4 1054   1.921   1.802   1.953  0.0485 -0.5284 -0.7153
   36ccc     H7 1055   1.853   1.716   1.956  1.2636 -1.4871  0.5797
   36ccc     H8 1056   1.894   1.874   2.032  2.6224 -0.2729  0.0344
   36ccc     C5 1057   2.060   1.747   1.981 -0.6012  0.2595  0.4832
   36ccc     H9 1058   2.094   1.671   1.910  0.7450  0.4156  0.9353
   36ccc    H10 1059   2.136   1.826   1.982  3.8011 -3.5432  0.3494
   36ccc     C6 1060   2.052   1.677   2.109  0.7416  0.9215 -0.2275
   36ccc     O2 1061   2.075   1.557   2.109  0.6783  0.2000  0.0133
   36ccc     O3 1062   2.033   1.728   2.219 -0.1471  0.3875  0.3569
   36ccc     C7 1063   1.935   1.804   1.699 -1.4197 -0.2105  0.0338
   36ccc    H11 1064   1.934   1.866   1.609  0.5166 -2.8470 -1.9556
   36ccc    H12 1065   2.037   1.771   1.718 -1.6404 -0.6688  0.4520
   36ccc     C8 1066   1.831   1.696   1.672  0.4232 -0.0886 -0.0576
   36ccc    H13 1067   1.844   1.616   1.746 -0.2230  0.2411  0.4227
   36ccc    H14 1068   1.730   1.733   1.696  0.3364 -0.5500  0.3179
   36ccc     C9 1069   1.823   1.639   1.532  0.1193  0.6438  0.1379
   36ccc     O4 1070   1.815   1.522   1.513 -0.2542  0.7865 -0.5468
   36ccc     O5 1071   1.805   1.716   1.438  0.0475  0.0061 -0.0890
   36ccc     O1 1072   1.937   2.203   1.720 -0.6233 -0.3263 -0.2777
   37ccc     C3 1073   1.501   2.255   1.249  0.3504  0.3905 -0.5152
   37ccc     H5 1074   1.445   2.225   1.339  0.3761 -0.4001 -0.7554
   37ccc     H6 1075   1.432   2.302   1.178 -1.0411  0.0427  0.5540
   37ccc     C2 1076   1.559   2.137   1.174  0.2356  0.6277  0.8451
   37ccc     H3 1077   1.645   2.093   1.225 -0.1294 -0.2669  0.7000
   37ccc     H4 1078   1.606   2.175   1.082 -1.2182  1.4017  0.3695
   37ccc     C1 1079   1.450   2.024   1.135 -0.2305  0.3019 -0.2849
   37ccc     H1 1080   1.372   2.088   1.091 -0.7354  1.7734  2.5560
   37ccc     H2 1081   1.407   1.993   1.230 -1.5823  1.0532 -0.6204
   37ccc     N1 1082   1.506   1.914   1.055 -0.4648 -0.7817  0.4294
   37ccc     C4 1083   1.602   1.829   1.117 -0.0659 -0.2425 -0.4142
   37ccc     H7 1084   1.550   1.749   1.172  2.0700 -2.0986 -0.9026
   37ccc     H8 1085   1.653   1.887   1.194  0.9760  1.1506 -2.0873
   37ccc     C5 1086   1.706   1.783   1.012  0.0652  0.1237  0.2278
   37ccc     H9 1087   1.666   1.696   0.959 -0.0018 -0.0094  0.4956
   37ccc    H10 1088   1.750   1.860   0.947  2.3927 -0.8645  0.5163
   37ccc     C6 1089   1.821   1.728   1.085 -0.4553  0.4004 -0.1879
   37ccc     O2 1090   1.915   1.802   1.106  0.5713  0.1212 -0.2595
   37ccc     O3 1091   1.809   1.639   1.160  0.0367 -0.0437 -0.2739
   37ccc     C7 1092   1.426   1.851   0.953  0.0353  0.7216  0.1497
   37ccc    H11 1093   1.488   1.812   0.871  1.6249  0.2611  1.5251
   37ccc    H12 1094   1.381   1.766   1.005 -0.3749  1.7671  1.5657
   37ccc     C8 1095   1.325   1.939   0.890  0.4032  0.4592  0.3200
   37ccc    H13 1096   1.239   1.959   0.955 -1.7398 -1.8737 -1.5713
   37ccc    H14 1097   1.366   2.020   0.829 -0.2164  1.6094  1.3958
   37ccc     C9 1098   1.264   1.849   0.786  0.1738 -0.7099 -0.1365
   37ccc     O4 1099   1.323   1.828   0.684 -0.3116  0.9271 -0.6829
   37ccc     O5 1100   1.155   1.800   0.799 -0.4367 -0.7309  0.0589
   37ccc     O1 1101   1.606   2.338   1.289  0.1662 -0.9432 -0.1141
   38ccc     C3 1102   2.434   1.189   0.412  0.3209  0.0466 -0.3301
   38ccc     H5 1103   2.334   1.186   0.367  0.6254  0.3799 -1.0517
   38ccc     H6 1104   2.487   1.108   0.359 -3.0386 -0.6022 -3.0803
   38ccc     C2 1105   2.414   1.167   0.564 -0.1888 -0.4601  0.0516
   38ccc     H3 1106   2.512   1.171   0.614 -0.4861 -0.0691  0.6058
   38ccc     H4 1107   2.363   1.074   0.590 -0.7770 -0.1884 -0.1107
   38ccc     C1 1108   2.341   1.297   0.617 -0.9145  0.0011 -0.3528
   38ccc     H1 1109   2.259   1.317   0.547 -0.6907  1.5244 -0.2209
   38ccc     H2 1110   2.408   1.384   0.608 -1.4408  0.4460 -0.0142
   38ccc     N1 1111   2.303   1.279   0.758 -0.4001  0.4416  0.0064
   38ccc     C4 1112   2.212   1.165   0.805  0.3558 -0.0926  0.3304
   38ccc     H7 1113   2.193   1.173   0.913  2.2913 -1.0021  0.7913
   38ccc     H8 1114   2.267   1.071   0.793 -1.9550 -1.3969 -0.7904
   38ccc     C5 1115   2.080   1.166   0.718  0.8326  0.2088 -0.4040
   38ccc     H9 1116   2.035   1.265   0.735 -0.5974 -0.6352  0.9946
   38ccc    H10 1117   2.088   1.151   0.610 -1.5888  2.4111 -0.9892
   38ccc     C6 1118   1.991   1.066   0.774 -0.0145 -0.4346  0.3826
   38ccc     O2 1119   1.971   1.062   0.894 -0.1737 -0.7313 -0.2976
   38ccc     O3 1120   1.928   0.998   0.698  0.0236 -0.1231 -0.6012
   38ccc     C7 1121   2.267   1.411   0.819 -0.2672  0.0777 -0.7435
   38ccc    H11 1122   2.338   1.486   0.783 -0.2611 -0.2323 -1.3859
   38ccc    H12 1123   2.171   1.441   0.776 -1.2110 -0.8500  0.6358
   38ccc     C8 1124   2.249   1.424   0.975 -0.5586 -0.5425 -0.4817
   38ccc    H13 1125   2.289   1.333   1.022 -1.1037  0.2074  1.5222
   38ccc    H14 1126   2.304   1.506   1.023 -1.9265 -1.5460  3.1514
   38ccc     C9 1127   2.109   1.441   1.023 -0.0763  0.1517 -0.4652
   38ccc     O4 1128   2.058   1.549   1.023  0.9265  0.2218  0.3155
   38ccc     O5 1129   2.053   1.359   1.092  0.0091  0.2630  0.0944
   38ccc     O1 1130   2.507   1.312   0.387 -0.5949 -0.3572  0.0873
   39ccc     C3 1131   1.771   1.369   0.578 -0.4810  0.1113 -0.7532
   39ccc     H5 1132   1.693   1.445   0.562 -1.6715 -1.1140 -1.0156
   39ccc     H6 1133   1.749   1.284   0.511 -1.6789 -2.2171  2.3517
   39ccc     C2 1134   1.740   1.326   0.726 -0.3852  1.0906  0.5232
   39ccc     H3 1135   1.836   1.338   0.778  1.4285 -1.9601 -1.7722
   39ccc     H4 1136   1.705   1.222   0.722 -1.6452  1.4586  1.3604
   39ccc     C1 1137   1.629   1.410   0.787  0.1793 -0.0927 -0.0718
   39ccc     H1 1138   1.543   1.413   0.720  0.4962  0.4187 -0.4606
   39ccc     H2 1139   1.664   1.513   0.803 -0.3860  0.2092 -0.7293
   39ccc     N1 1140   1.593   1.350   0.923  0.1382 -0.3205  0.3218
   39ccc     C4 1141   1.703   1.330   1.017  0.4366  1.1436  0.4348
   39ccc     H7 1142   1.737   1.430   1.044  0.7261  0.8049  1.3655
   39ccc     H8 1143   1.775   1.266   0.964 -2.3840 -1.8136 -0.2113
   39ccc     C5 1144   1.667   1.267   1.153 -0.1413  0.0544  0.7208
   39ccc     H9 1145   1.592   1.314   1.218  1.1347  0.0819  2.2240
   39ccc    H10 1146   1.641   1.161   1.145  0.3377 -0.1046  1.2019
   39ccc     C6 1147   1.789   1.256   1.237  0.0892 -0.2348 -0.0454
   39ccc     O2 1148   1.822   1.363   1.282  0.2984  0.1639  0.5458
   39ccc     O3 1149   1.856   1.161   1.219 -0.0698 -0.1555 -0.3971
   39ccc     C7 1150   1.477   1.422   0.977  0.0281 -0.9854 -0.2765
   39ccc    H11 1151   1.457   1.402   1.083 -0.0293  0.5208  0.0222
   39ccc    H12 1152   1.487   1.531   0.967 -0.0587 -0.9331  0.1990
   39ccc     C8 1153   1.341   1.367   0.914  0.0103 -0.2515 -0.2268
   39ccc    H13 1154   1.352   1.353   0.806  0.8585  1.7391 -0.4453
   39ccc    H14 1155   1.307   1.274   0.961  1.6275 -0.1731  1.2421
   39ccc     C9 1156   1.230   1.474   0.921  0.5927 -0.4100  1.0050
   39ccc     O4 1157   1.162   1.494   1.019 -0.5071 -0.2769 -0.3408
   39ccc     O5 1158   1.194   1.534   0.817  0.1569  0.4634 -0.5335
   39ccc     O1 1159   1.907   1.422   0.569 -0.1846  0.3119  0.2025
   40ccc     C3 1160   3.048   2.484   1.582 -0.5508 -1.1802  0.6897
   40ccc     H5 1161   3.014   2.572   1.527  0.5191 -1.9778 -1.3130
   40ccc     H6 1162   2.969   2.409   1.594 -1.2070 -1.0873 -2.3608
   40ccc     C2 1163   3.100   2.532   1.712  0.5970 -0.4725  0.2183
   40ccc     H3 1164   3.197   2.583   1.708  0.5589 -0.0769  2.6098
   40ccc     H4 1165   3.147   2.455   1.773  2.1388  0.8576  0.7884
   40ccc     C1 1166   2.991   2.596   1.805  0.0262 -0.0032 -0.0133
   40ccc     H1 1167   3.030   2.602   1.907 -0.4772  0.2012  0.1742
   40ccc     H2 1168   2.905   2.528   1.799 -1.3313  1.5871  0.5881
   40ccc     N1 1169   2.941   2.724   1.760  0.2158  0.6416 -0.5975
   40ccc     C4 1170   3.042   2.825   1.750  0.3482 -0.6758  0.5127
   40ccc     H7 1171   2.992   2.919   1.721  1.5797 -0.7008 -1.9452
   40ccc     H8 1172   3.093   2.802   1.656 -2.6583  0.1859 -1.4707
   40ccc     C5 1173   3.139   2.850   1.874 -0.2547 -0.1601  0.3217
   40ccc     H9 1174   3.080   2.892   1.956 -0.3742 -2.1096  1.2964
   40ccc    H10 1175   3.190   2.755   1.894 -0.4329 -0.9392 -2.5087
   40ccc     C6 1176   3.255   2.945   1.831  0.9983  0.0662  0.2629
   40ccc     O2 1177   3.240   3.063   1.850  0.6781  0.1511  0.4709
   40ccc     O3 1178   3.356   2.899   1.778  0.1837  0.2459  0.0811
   40ccc     C7 1179   2.829   2.766   1.856  0.5539 -0.0382  0.4008
   40ccc    H11 1180   2.841   2.717   1.953 -1.3732  0.9045  1.1607
   40ccc    H12 1181   2.842   2.875   1.866  3.4036 -0.3927  1.4209
   40ccc     C8 1182   2.699   2.736   1.785  0.0814  0.4352  0.0729
   40ccc    H13 1183   2.702   2.780   1.684 -1.4058 -2.1395 -1.1962
   40ccc    H14 1184   2.690   2.628   1.772  0.3575  0.3283  0.7497
   40ccc     C9 1185   2.587   2.789   1.866 -0.0472  0.1304 -0.1569
   40ccc     O4 1186   2.503   2.861   1.818 -0.0403 -0.0339 -0.3013
   40ccc     O5 1187   2.548   2.725   1.965 -0.3340 -0.3796  0.2105
   40ccc     O1 1188   3.152   2.427   1.516  0.3182 -0.0431  0.1241
   41ccc     C3 1189   2.653   1.985   1.453  0.6287 -0.0248 -0.2288
   41ccc     H5 1190   2.680   2.048   1.539  2.5925  2.8158 -2.7005
   41ccc     H6 1191   2.629   2.058   1.375  2.3900 -0.8656 -1.6353
   41ccc     C2 1192   2.530   1.898   1.463  0.1725 -0.5430  0.2767
   41ccc     H3 1193   2.508   1.872   1.359  0.1474  0.8533 -0.0831
   41ccc     H4 1194   2.442   1.957   1.491 -0.1457  0.0338 -1.7655
   41ccc     C1 1195   2.542   1.767   1.550 -0.7010 -0.3245 -0.0516
   41ccc     H1 1196   2.585   1.807   1.643 -2.0733 -1.8891  1.3293
   41ccc     H2 1197   2.610   1.694   1.506  0.6469  0.6753  0.3168
   41ccc     N1 1198   2.413   1.694   1.585 -0.1228  0.1802  0.1101
   41ccc     C4 1199   2.432   1.600   1.695  1.0478  0.0211 -0.0298
   41ccc     H7 1200   2.514   1.530   1.679 -0.1004 -2.3638  3.3179
   41ccc     H8 1201   2.337   1.545   1.706 -0.0965  1.7073 -1.0690
   41ccc     C5 1202   2.468   1.665   1.827  0.1750  0.1177 -0.2808
   41ccc     H9 1203   2.551   1.735   1.836 -0.3949  1.0097 -1.7588
   41ccc    H10 1204   2.384   1.729   1.856  1.5393  1.8661 -0.0326
   41ccc     C6 1205   2.479   1.554   1.922  0.1226 -0.5812  0.5591
   41ccc     O2 1206   2.588   1.514   1.955  0.6826  0.0852 -0.2853
   41ccc     O3 1207   2.387   1.519   1.989  0.3703  0.0112 -0.0614
   41ccc     C7 1208   2.353   1.633   1.463 -0.0083 -0.6193 -0.5762
   41ccc    H11 1209   2.380   1.679   1.367  0.4841 -2.3923 -1.3240
   41ccc    H12 1210   2.370   1.525   1.463  0.7989 -0.5164  0.7750
   41ccc     C8 1211   2.202   1.652   1.481  0.3032 -0.0206  0.7489
   41ccc    H13 1212   2.162   1.598   1.568  1.2143 -0.4634  0.9021
   41ccc    H14 1213   2.185   1.760   1.485 -0.1482  0.0205 -1.2343
   41ccc     C9 1214   2.128   1.594   1.365  0.1836 -0.0269  0.2908
   41ccc     O4 1215   2.083   1.480   1.365 -0.3252  0.0298 -0.0271
   41ccc     O5 1216   2.070   1.670   1.290 -0.3076 -0.3671  0.4367
   41ccc     O1 1217   2.767   1.907   1.413 -0.0804 -0.2638 -0.4866
   42ccc     C3 1218   1.771   3.353   0.891 -0.4926  0.2984 -0.3810
   42ccc     H5 1219   1.669   3.367   0.928 -0.2717  0.2435  0.2540
   42ccc     H6 1220   1.761   3.258   0.838 -0.6310  0.4515 -0.6303
   42ccc     C2 1221   1.863   3.354   1.011 -0.1648 -0.0792 -0.1919
   42ccc     H3 1222   1.959   3.315   0.977 -0.2557 -0.0920 -0.4405
   42ccc     H4 1223   1.834   3.277   1.084  1.6930  0.7519  1.5132
   42ccc     C1 1224   1.873   3.491   1.086  0.2649 -0.3970 -0.1129
   42ccc     H1 1225   1.777   3.534   1.116  0.9316  0.5498  0.7157
   42ccc     H2 1226   1.925   3.552   1.012  1.3267 -2.4032 -1.1175
   42ccc     N1 1227   1.963   3.468   1.203 -0.2512 -0.6435  0.2794
   42ccc     C4 1228   2.102   3.415   1.178 -0.0365 -0.3400 -0.4472
   42ccc     H7 1229   2.180   3.486   1.212 -0.4863  0.0862 -0.2959
   42ccc     H8 1230   2.118   3.384   1.074 -1.1874  3.6928 -2.0120
   42ccc     C5 1231   2.114   3.293   1.266 -0.5193  0.1763  0.2898
   42ccc     H9 1232   2.102   3.314   1.373 -2.8098 -0.3423  0.1938
   42ccc    H10 1233   2.036   3.218   1.244 -0.6290 -0.7913  3.4184
   42ccc     C6 1234   2.249   3.221   1.253 -0.3521 -0.2421  0.3619
   42ccc     O2 1235   2.304   3.208   1.147 -0.2047  0.1042 -0.0133
   42ccc     O3 1236   2.316   3.185   1.345 -0.0343  0.6812 -0.1124
   42ccc     C7 1237   1.966   3.585   1.294 -0.1207  0.7873  0.5633
   42ccc    H11 1238   2.058   3.566   1.352  0.5932 -1.1301 -1.1207
   42ccc    H12 1239   1.986   3.671   1.228 -1.4470 -0.4215 -1.5080
   42ccc     C8 1240   1.841   3.605   1.381 -0.4561 -0.2468 -0.6959
   42ccc    H13 1241   1.756   3.653   1.329 -1.8149 -1.7969  0.0079
   42ccc    H14 1242   1.804   3.509   1.419 -1.8332  1.1235  1.6852
   42ccc     C9 1243   1.869   3.701   1.493 -0.1276 -0.2361 -0.1038
   42ccc     O4 1244   1.778   3.728   1.568 -0.0571 -0.7636  0.2904
   42ccc     O5 1245   1.975   3.722   1.543 -0.0205  0.1952 -0.2107
   42ccc     O1 1246   1.815   3.454   0.797  0.0297  0.2067  0.5831
   43ccc     C3 1247   2.201   3.977   1.090  0.0060 -0.0076  0.4644
   43ccc     H5 1248   2.249   3.930   1.177 -1.7869 -0.2251  1.3994
   43ccc     H6 1249   2.234   4.080   1.075 -0.6273 -0.1058 -2.0250
   43ccc     C2 1250   2.053   3.970   1.129 -0.0334  0.3046  0.0566
   43ccc     H3 1251   2.012   3.871   1.107  1.7299 -0.5681  0.5058
   43ccc     H4 1252   2.002   4.053   1.078  1.0863  0.9128 -0.1222
   43ccc     C1 1253   2.040   3.985   1.280  0.2770 -0.2478 -0.1564
   43ccc     H1 1254   2.134   3.986   1.336 -0.3355  0.5209  0.8982
   43ccc     H2 1255   1.982   3.898   1.312  1.1842 -0.5025  0.8499
   43ccc     N1 1256   1.959   4.104   1.317  0.0730 -0.3591 -0.6121
   43ccc     C4 1257   2.011   4.242   1.283  0.4319  0.7200 -0.0299
   43ccc     H7 1258   2.054   4.246   1.182  1.9678 -1.3593  0.4624
   43ccc     H8 1259   2.103   4.259   1.340  1.2719 -0.3099 -1.0333
   43ccc     C5 1260   1.927   4.368   1.311  0.2441  0.7905 -0.1245
   43ccc     H9 1261   1.937   4.428   1.220 -0.4521  0.1525 -0.6416
   43ccc    H10 1262   1.823   4.334   1.324  0.7910 -1.4191 -1.0214
   43ccc     C6 1263   1.976   4.436   1.431  0.1752 -0.5477  0.5945
   43ccc     O2 1264   2.055   4.526   1.422 -0.3912 -0.0424  0.2140
   43ccc     O3 1265   1.904   4.424   1.529 -0.4294 -0.8770  0.0573
   43ccc     C7 1266   1.892   4.094   1.447  0.1202  0.6636 -0.6292
   43ccc    H11 1267   1.830   4.183   1.462 -0.0269  0.5535 -0.5791
   43ccc    H12 1268   1.829   4.005   1.439  3.0920 -2.0392  2.8393
   43ccc     C8 1269   2.000   4.065   1.551  0.4543 -0.5162 -0.4989
   43ccc    H13 1270   2.049   3.967   1.541 -0.1446 -0.8114 -0.5593
   43ccc    H14 1271   2.078   4.142   1.559  1.0195 -1.1002 -0.2728
   43ccc     C9 1272   1.939   4.066   1.687 -0.2737 -0.6236  0.2802
   43ccc     O4 1273   1.906   3.963   1.733 -0.2964  0.5393 -0.8358
   43ccc     O5 1274   1.874   4.162   1.729  0.2084  0.2593 -0.2188
   43ccc     O1 1275   2.231   3.904   0.966 -0.3511  0.3091 -0.3055
   44ccc     C3 1276   2.773   2.317   1.175 -0.3723 -0.0446 -0.6986
   44ccc     H5 1277   2.806   2.212   1.176  2.4703  0.7857 -1.1126
   44ccc     H6 1278   2.860   2.378   1.203 -0.1256 -0.8582  0.4014
   44ccc     C2 1279   2.668   2.323   1.287  0.5872  0.0934 -0.5847
   44ccc     H3 1280   2.715   2.276   1.375 -0.2345  1.4208  0.6006
   44ccc     H4 1281   2.585   2.256   1.262 -0.2122  0.9572 -0.2746
   44ccc     C1 1282   2.621   2.465   1.300 -0.6533  0.6839 -0.0650
   44ccc     H1 1283   2.593   2.505   1.202 -1.3960 -1.3771 -0.7573
   44ccc     H2 1284   2.707   2.519   1.341  0.6007 -0.4733 -1.0677
   44ccc     N1 1285   2.512   2.478   1.394 -0.0906 -0.1689  0.1690
   44ccc     C4 1286   2.448   2.609   1.391  0.4309  0.8802  0.4680
   44ccc     H7 1287   2.357   2.613   1.452 -0.8994 -0.4206 -1.2994
   44ccc     H8 1288   2.413   2.630   1.289  3.1087 -1.7614 -1.1622
   44ccc     C5 1289   2.534   2.725   1.431 -0.6605  0.3200 -0.0386
   44ccc     H9 1290   2.587   2.708   1.525 -0.6213 -3.0691 -0.5628
   44ccc    H10 1291   2.613   2.749   1.358  0.2737  0.6842  1.0542
   44ccc     C6 1292   2.461   2.859   1.448  0.6252  0.3279  0.0667
   44ccc     O2 1293   2.398   2.907   1.355 -0.4336 -0.1021 -0.0188
   44ccc     O3 1294   2.440   2.904   1.557 -0.1231  0.0757  0.1281
   44ccc     C7 1295   2.544   2.431   1.523 -0.8716  0.0653  0.1800
   44ccc    H11 1296   2.596   2.335   1.531  2.2811  1.4633 -1.8697
   44ccc    H12 1297   2.617   2.503   1.563  1.5532 -1.2682 -1.5974
   44ccc     C8 1298   2.415   2.413   1.610  0.8873  0.5956  0.9150
   44ccc    H13 1299   2.323   2.426   1.551  2.0300  0.3969 -0.9727
   44ccc    H14 1300   2.399   2.306   1.632 -0.9154  0.9004  1.2543
   44ccc     C9 1301   2.424   2.488   1.729  0.0999  0.3010 -0.7547
   44ccc     O4 1302   2.381   2.598   1.743  0.0590  0.2763 -0.0290
   44ccc     O5 1303   2.460   2.430   1.836 -0.2506  0.1821  0.6681
   44ccc     O1 1304   2.702   2.365   1.056 -0.6805  0.2976 -0.7448
   45ccc     C3 1305   2.941   2.672   1.172 -0.1932 -0.0788  0.2208
   45ccc     H5 1306   2.872   2.587   1.180 -0.8339  0.2111 -1.6075
   45ccc     H6 1307   3.044   2.639   1.192  0.2998  1.5499  0.5328
   45ccc     C2 1308   2.893   2.782   1.274 -0.2275 -1.4359 -0.3072
   45ccc     H3 1309   2.886   2.744   1.377 -2.5457  1.9460  0.9650
   45ccc     H4 1310   2.800   2.834   1.248  0.5737  0.2599  0.0803
   45ccc     C1 1311   2.998   2.898   1.292 -0.2118 -0.2413  0.5115
   45ccc     H1 1312   3.012   2.951   1.197 -2.7448  1.1495  0.8207
   45ccc     H2 1313   3.092   2.848   1.316  0.3367  0.4424 -0.1435
   45ccc     N1 1314   2.982   2.997   1.403 -0.6902 -0.4349  0.3311
   45ccc     C4 1315   2.868   3.089   1.379 -0.0828  0.1256  0.6587
   45ccc     H7 1316   2.839   3.070   1.275 -1.3864 -0.2079  1.0683
   45ccc     H8 1317   2.890   3.196   1.390 -1.2938  0.3245  1.3272
   45ccc     C5 1318   2.766   3.048   1.475  0.3591  0.0153  0.5435
   45ccc     H9 1319   2.726   2.948   1.454 -1.3015  1.1593 -2.2400
   45ccc    H10 1320   2.800   3.041   1.580 -1.2506 -2.6220  0.9877
   45ccc     C6 1321   2.654   3.140   1.477  0.0158 -0.1106 -0.5778
   45ccc     O2 1322   2.600   3.180   1.374 -0.1846  0.2422  0.2491
   45ccc     O3 1323   2.598   3.161   1.582  0.1747 -0.5883  0.2613
   45ccc     C7 1324   3.112   3.068   1.418 -0.1759  0.8712 -0.2051
   45ccc    H11 1325   3.199   3.002   1.433 -0.6999  0.1774 -0.1847
   45ccc    H12 1326   3.138   3.114   1.322  0.4853  1.6110  0.3124
   45ccc     C8 1327   3.115   3.186   1.525  0.6648  0.0288 -0.0858
   45ccc    H13 1328   3.034   3.259   1.514 -1.3710 -2.1293 -0.1858
   45ccc    H14 1329   3.098   3.146   1.625  1.3178 -0.2696 -0.0907
   45ccc     C9 1330   3.245   3.266   1.523 -0.1329  0.4315  0.4555
   45ccc     O4 1331   3.329   3.249   1.605  0.4961 -0.0653  0.2822
   45ccc     O5 1332   3.272   3.337   1.428  0.3187 -0.4926 -0.0413
   45ccc     O1 1333   2.928   2.721   1.040  0.0510 -0.1310 -0.5414
   46ccc     C3 1334   0.122   4.064   0.675  0.1692 -0.1571 -0.2074
   46ccc     H5 1335   0.049   4.136   0.636 -1.2633 -2.2967 -1.7386
   46ccc     H6 1336   0.075   4.012   0.759 -0.1403  0.1957 -0.1589
   46ccc     C2 1337   0.261   4.130   0.698  0.7604  0.4032 -0.1268
   46ccc     H3 1338   0.228   4.224   0.745 -2.3827 -0.2059 -0.8589
   46ccc     H4 1339   0.310   4.162   0.605 -0.5438  0.9132 -0.6689
   46ccc     C1 1340   0.363   4.047   0.784 -0.3354  0.4792  0.7810
   46ccc     H1 1341   0.419   3.976   0.723 -1.0002  2.2449 -2.0542
   46ccc     H2 1342   0.304   3.992   0.859 -0.7292  2.1612  1.7556
   46ccc     N1 1343   0.462   4.138   0.838  0.0461 -0.0837 -0.3657
   46ccc     C4 1344   0.536   4.078   0.948 -0.5077 -0.1062 -0.5348
   46ccc     H7 1345   0.639   4.115   0.952 -1.6387  3.2462  1.4282
   46ccc     H8 1346   0.529   3.970   0.934 -1.0537 -0.0196 -0.9923
   46ccc     C5 1347   0.463   4.109   1.082  0.4238 -0.1070 -0.0210
   46ccc     H9 1348   0.475   4.218   1.082 -1.1789  0.1004 -0.7109
   46ccc    H10 1349   0.354   4.097   1.091  0.4285  0.7494  1.5745
   46ccc     C6 1350   0.525   4.048   1.197 -0.1977 -0.0336 -0.6065
   46ccc     O2 1351   0.641   4.051   1.228 -0.6315  1.0212  0.4022
   46ccc     O3 1352   0.452   4.029   1.287  0.5068  0.4736 -0.6197
   46ccc     C7 1353   0.565   4.190   0.742  0.3378 -0.5385 -0.2346
   46ccc    H11 1354   0.656   4.129   0.737 -0.2955 -1.5680  0.3398
   46ccc    H12 1355   0.527   4.195   0.640 -0.0825  1.8931 -0.0106
   46ccc     C8 1356   0.598   4.333   0.793  0.2694 -0.4025 -0.4667
   46ccc    H13 1357   0.528   4.417   0.779  0.4628 -0.3227 -0.9433
   46ccc    H14 1358   0.638   4.331   0.896  0.1914  0.8981 -0.3860
   46ccc     C9 1359   0.724   4.368   0.721  0.5964 -0.5885  0.8067
   46ccc     O4 1360   0.729   4.384   0.599  0.1638 -0.3754 -0.0550
   46ccc     O5 1361   0.829   4.383   0.777  0.2518 -0.6265 -0.5695
   46ccc     O1 1362   0.138   3.977   0.565 -0.3567  0.1366  0.0709
   47ccc     C3 1363   0.032   3.098   0.291  0.1215 -0.8287  0.3538
   47ccc     H5 1364   0.138   3.125   0.297  0.0360 -0.4534  0.2202
   47ccc     H6 1365  -0.003   3.044   0.380  0.0022 -0.2001  0.6951
   47ccc     C2 1366   0.005   3.015   0.167 -0.0677 -0.6765  0.0717
   47ccc     H3 1367   0.019   3.082   0.081 -2.0387 -1.9616 -1.3474
   47ccc     H4 1368  -0.100   2.984   0.154 -0.6142  0.3629  1.6720
   47ccc     C1 1369   0.088   2.883   0.159  0.3688  0.0260  0.1227
   47ccc     H1 1370   0.041   2.803   0.218 -0.1414  0.7739  0.7622
   47ccc     H2 1371   0.193   2.899   0.184  0.9143 -2.6288 -0.2204
   47ccc     N1 1372   0.108   2.841   0.019  0.5733  0.2673  0.8709
   47ccc     C4 1373   0.194   2.728   0.013 -0.5043 -0.1645 -0.0623
   47ccc     H7 1374   0.148   2.635   0.048  1.5740 -0.6124  1.6947
   47ccc     H8 1375   0.278   2.742   0.081 -1.2378  0.8940  0.6576
   47ccc     C5 1376   0.247   2.700  -0.136  0.9173  0.4517  0.5524
   47ccc     H9 1377   0.174   2.659  -0.206  0.7175 -2.0281  2.0737
   47ccc    H10 1378   0.297   2.792  -0.169  0.7416  0.3160 -0.1025
   47ccc     C6 1379   0.360   2.602  -0.135 -0.8708  0.2336 -0.0341
   47ccc     O2 1380   0.470   2.637  -0.095 -0.0258 -0.1268  0.3177
   47ccc     O3 1381   0.355   2.484  -0.170  0.5006  0.3361 -0.0349
   47ccc     C7 1382  -0.012   2.822  -0.063  0.2840  0.6705  0.3863
   47ccc    H11 1383  -0.067   2.917  -0.061  1.7226  1.5913 -1.1582
   47ccc    H12 1384   0.010   2.811  -0.169 -0.2548  2.4834  0.0416
   47ccc     C8 1385  -0.103   2.705  -0.023 -0.0203  0.1935 -0.7227
   47ccc    H13 1386  -0.077   2.603  -0.055 -1.1771 -0.4517  0.3229
   47ccc    H14 1387  -0.133   2.698   0.082  0.0775  1.5191 -0.5979
   47ccc     C9 1388  -0.231   2.728  -0.102 -0.7548 -0.3412 -0.7827
   47ccc     O4 1389  -0.332   2.744  -0.033 -0.7037  0.5236  0.4178
   47ccc     O5 1390  -0.236   2.670  -0.208 -0.0490  0.0268 -0.1285
   47ccc     O1 1391  -0.050   3.213   0.276  0.2791 -0.0102  0.0434
   48ccc     C3 1392   1.652   4.266   0.924 -0.2109 -0.3981 -0.1466
   48ccc     H5 1393   1.571   4.204   0.965 -1.2140  1.9313  1.5851
   48ccc     H6 1394   1.743   4.205   0.919  0.0802 -0.0799  1.1006
   48ccc     C2 1395   1.711   4.378   1.019  0.3780  0.7106  0.2507
   48ccc     H3 1396   1.808   4.411   0.977  0.3875 -1.0230 -1.2098
   48ccc     H4 1397   1.753   4.331   1.109  0.3529  1.8556  0.8843
   48ccc     C1 1398   1.616   4.499   1.053  0.4932 -0.3762  0.2463
   48ccc     H1 1399   1.600   4.554   0.960  1.0228  0.6302  0.7429
   48ccc     H2 1400   1.666   4.572   1.118 -0.9175  0.4038  0.4987
   48ccc     N1 1401   1.482   4.475   1.114 -0.4103 -0.0516 -0.3292
   48ccc     C4 1402   1.379   4.437   1.015 -0.1160  0.6466 -0.3025
   48ccc     H7 1403   1.404   4.339   0.973  3.0616  0.7801  0.9940
   48ccc     H8 1404   1.404   4.506   0.934 -0.6415  0.0850 -0.9525
   48ccc     C5 1405   1.234   4.441   1.056 -0.2390 -0.3010  0.1124
   48ccc     H9 1406   1.208   4.352   1.115 -2.8560  1.0443  1.1571
   48ccc    H10 1407   1.219   4.529   1.121  0.9948  0.1490 -0.1680
   48ccc     C6 1408   1.152   4.450   0.934  0.0432  0.3978  0.4397
   48ccc     O2 1409   1.070   4.541   0.933 -0.2343  0.5385 -0.9489
   48ccc     O3 1410   1.147   4.362   0.852  0.7634  0.0325  0.0623
   48ccc     C7 1411   1.474   4.422   1.252  0.7406 -0.1423  0.6243
   48ccc    H11 1412   1.372   4.403   1.287 -0.5449  1.8029 -1.7209
   48ccc    H12 1413   1.526   4.325   1.251  0.9300 -0.0421  0.2918
   48ccc     C8 1414   1.551   4.513   1.347 -0.2122 -0.0584  0.1859
   48ccc    H13 1415   1.658   4.533   1.332 -0.5367  1.6924 -0.0350
   48ccc    H14 1416   1.505   4.612   1.336 -1.2528 -0.5443 -0.0343
   48ccc     C9 1417   1.530   4.461   1.487  0.1699 -0.7824  0.4325
   48ccc     O4 1418   1.630   4.449   1.569 -0.3447 -0.2248 -0.2646
   48ccc     O5 1419   1.420   4.449   1.538  0.1625 -0.0043  0.6536
   48ccc     O1 1420   1.625   4.321   0.798  0.0264  0.0298  0.6909
   49ccc     C3 1421   1.707   3.871   1.034 -0.0757  0.0598 -0.0436
   49ccc     H5 1422   1.765   3.778   1.039 -0.8155 -0.3760  0.6069
   49ccc     H6 1423   1.774   3.956   1.047  0.0311  0.0415 -0.4571
   49ccc     C2 1424   1.614   3.863   1.158  0.2683  0.2275 -0.1281
   49ccc     H3 1425   1.659   3.859   1.258 -4.6080 -0.7629  2.3740
   49ccc     H4 1426   1.560   3.767   1.151 -1.3299  1.0957 -0.3257
   49ccc     C1 1427   1.501   3.970   1.156  0.1933  0.0296 -0.8643
   49ccc     H1 1428   1.440   3.964   1.065  0.2491  2.0261 -1.0626
   49ccc     H2 1429   1.554   4.065   1.162  1.4026 -0.7003  1.8594
   49ccc     N1 1430   1.407   3.966   1.277 -0.4204 -0.2724  0.0466
   49ccc     C4 1431   1.294   4.057   1.259 -1.1074 -0.1491 -0.1396
   49ccc     H7 1432   1.250   4.048   1.159 -1.2980 -1.6025  0.0441
   49ccc     H8 1433   1.328   4.160   1.275  0.7873 -0.8618  0.7065
   49ccc     C5 1434   1.175   4.021   1.343  0.3752  0.1314 -0.2244
   49ccc     H9 1435   1.137   3.918   1.333 -0.6029  0.4572  0.0687
   49ccc    H10 1436   1.208   4.031   1.448  0.2655  1.1777 -0.2881
   49ccc     C6 1437   1.069   4.127   1.322 -0.0589  0.5345  0.7600
   49ccc     O2 1438   0.963   4.106   1.262 -0.3817  0.3860 -0.6609
   49ccc     O3 1439   1.097   4.235   1.364 -0.1855 -0.0938  0.5494
   49ccc     C7 1440   1.468   3.962   1.410 -0.5282 -0.3382  0.1660
   49ccc    H11 1441   1.392   3.931   1.483 -1.4822  0.3295 -0.5067
   49ccc    H12 1442   1.548   3.888   1.421  1.5198  1.9283  1.3960
   49ccc     C8 1443   1.526   4.094   1.465  0.4458 -0.2722 -0.3677
   49ccc    H13 1444   1.604   4.133   1.398 -0.7968 -0.3776 -1.9535
   49ccc    H14 1445   1.461   4.182   1.465  0.8349  0.1100  2.5221
   49ccc     C9 1446   1.579   4.078   1.602 -0.4607 -0.4818 -0.6647
   49ccc     O4 1447   1.603   3.972   1.660  0.2169 -0.2375  0.1099
   49ccc     O5 1448   1.609   4.182   1.659 -0.0489 -0.0953  0.6750
   49ccc     O1 1449   1.642   3.881   0.905 -0.1199 -0.0243  0.0883
   50ccc     C3 1450   1.749   4.008  -0.573 -0.5030  0.2986  0.5163
   50ccc     H5 1451   1.647   3.969  -0.556 -0.5745  0.1707 -0.2000
   50ccc     H6 1452   1.743   4.113  -0.606  0.8808  0.1176 -0.3638
   50ccc     C2 1453   1.820   3.923  -0.688  0.1444 -0.0736  0.1448
   50ccc     H3 1454   1.840   3.825  -0.644 -0.2365  0.0532  0.6143
   50ccc     H4 1455   1.916   3.971  -0.711 -1.7987  3.3092 -1.7338
   50ccc     C1 1456   1.741   3.914  -0.820  0.7460  0.4637 -0.1933
   50ccc     H1 1457   1.802   3.879  -0.905 -1.4874 -0.0893 -1.6488
   50ccc     H2 1458   1.720   4.017  -0.853 -0.3130  0.2535 -0.1788
   50ccc     N1 1459   1.617   3.840  -0.802  0.6437  0.2288 -0.8346
   50ccc     C4 1460   1.514   3.866  -0.901 -0.1244  0.1264 -0.4721
   50ccc     H7 1461   1.465   3.773  -0.932  1.0247 -0.4529 -0.5804
   50ccc     H8 1462   1.568   3.916  -0.982  2.1260  0.5531  1.2005
   50ccc     C5 1463   1.419   3.963  -0.845  0.2209 -0.1739 -0.0372
   50ccc     H9 1464   1.375   3.932  -0.749  1.0244  0.1947  0.4600
   50ccc    H10 1465   1.467   4.061  -0.837 -1.5752  0.8061 -0.6960
   50ccc     C6 1466   1.295   3.975  -0.937  0.4416  0.3130 -0.0972
   50ccc     O2 1467   1.210   3.885  -0.929  0.5678 -0.5127 -0.0845
   50ccc     O3 1468   1.280   4.056  -1.025  0.1585 -0.0388  0.2755
   50ccc     C7 1469   1.635   3.703  -0.763  0.1875  0.5029 -0.1862
   50ccc    H11 1470   1.716   3.662  -0.826  0.6598 -0.3450  0.9346
   50ccc    H12 1471   1.659   3.694  -0.657 -1.3325 -1.1580  0.0520
   50ccc     C8 1472   1.525   3.594  -0.778  0.2920  0.1864 -0.0331
   50ccc    H13 1473   1.486   3.585  -0.880  1.5583  0.7150 -0.5940
   50ccc    H14 1474   1.561   3.498  -0.738 -0.6321 -0.8506 -1.5789
   50ccc     C9 1475   1.403   3.630  -0.688  0.3553 -0.6764  0.1055
   50ccc     O4 1476   1.413   3.674  -0.575 -0.3107  0.4652  0.4741
   50ccc     O5 1477   1.292   3.602  -0.722 -0.2635 -0.2750  0.1035
   50ccc     O1 1478   1.832   4.000  -0.458 -0.3414  0.3195 -0.3930
   51ccc     C3 1479   1.654   4.492   0.247  0.1830 -0.8039 -0.4287
   51ccc     H5 1480   1.695   4.589   0.277  1.1510 -1.4528  0.4281
   51ccc     H6 1481   1.674   4.476   0.140  2.0300  0.4151 -0.3210
   51ccc     C2 1482   1.509   4.488   0.286 -0.0614  0.4924  0.1298
   51ccc     H3 1483   1.501   4.475   0.395  1.3111 -0.0554  0.1867
   51ccc     H4 1484   1.460   4.401   0.240  1.6915  0.9292 -2.7773
   51ccc     C1 1485   1.425   4.607   0.237 -0.2179  0.8028  0.1248
   51ccc     H1 1486   1.437   4.614   0.128  0.1893  2.0334  0.2314
   51ccc     H2 1487   1.456   4.706   0.274 -1.1396  0.8943  0.6861
   51ccc     N1 1488   1.280   4.606   0.259  0.4438  0.0832 -0.1779
   51ccc     C4 1489   1.246   4.581   0.397 -0.5596 -0.1771  0.0087
   51ccc     H7 1490   1.326   4.626   0.457 -0.7645  0.3645 -0.1234
   51ccc     H8 1491   1.238   4.472   0.408  0.3837 -0.1828  0.7978
   51ccc     C5 1492   1.116   4.644   0.451 -0.2404 -0.2482  0.3157
   51ccc     H9 1493   1.139   4.751   0.456  0.7878 -0.3043 -2.0754
   51ccc    H10 1494   1.028   4.624   0.388  0.2034  0.7044 -0.6329
   51ccc     C6 1495   1.086   4.605   0.591  0.9685 -0.2506 -0.2597
   51ccc     O2 1496   1.056   4.489   0.608  0.1222  0.2810  0.1046
   51ccc     O3 1497   1.029   4.685   0.664  0.7794 -0.0785 -0.1542
   51ccc     C7 1498   1.198   4.517   0.166  0.4981  0.4721 -0.3503
   51ccc    H11 1499   1.238   4.415   0.177  1.2926  0.8928  0.9132
   51ccc    H12 1500   1.095   4.527   0.203  1.4691 -0.1167  2.8327
   51ccc     C8 1501   1.217   4.542   0.018 -0.6276 -0.0442  0.1926
   51ccc    H13 1502   1.211   4.648  -0.008 -1.4274  0.0596  0.7761
   51ccc    H14 1503   1.311   4.504  -0.024 -1.1187  0.9678 -1.9821
   51ccc     C9 1504   1.107   4.477  -0.054  0.2795  0.5581  0.7541
   51ccc     O4 1505   0.998   4.531  -0.062  0.1882  0.6170 -0.7317
   51ccc     O5 1506   1.116   4.360  -0.093 -0.1650  0.8484  0.3874
   51ccc     O1 1507   1.715   4.390   0.332 -0.4074  0.2126 -0.2407
   52ccc     C3 1508   1.879   2.974  -0.196 -0.4308  0.9694  0.6561
   52ccc     H5 1509   1.913   2.988  -0.299 -0.2415  1.5799  0.7951
   52ccc     H6 1510   1.945   2.899  -0.150 -1.4122  0.1932  0.8158
   52ccc     C2 1511   1.733   2.918  -0.190 -0.2355 -0.0691 -0.9324
   52ccc     H3 1512   1.693   2.924  -0.088  0.5882  0.6312 -0.6456
   52ccc     H4 1513   1.729   2.818  -0.233 -1.6816 -0.8817  0.9228
   52ccc     C1 1514   1.635   3.013  -0.256 -0.4267  0.5274 -0.1554
   52ccc     H1 1515   1.694   3.064  -0.334 -0.1313  2.6327  1.3724
   52ccc     H2 1516   1.606   3.094  -0.189  1.0645  1.3793 -0.4826
   52ccc     N1 1517   1.524   2.953  -0.327  0.5141  0.0167  0.2532
   52ccc     C4 1518   1.442   3.063  -0.388 -0.3440 -0.3468 -0.1789
   52ccc     H7 1519   1.433   3.155  -0.330 -1.5655  0.8676 -2.1741
   52ccc     H8 1520   1.338   3.029  -0.396 -0.0719 -1.2267 -0.0694
   52ccc     C5 1521   1.480   3.110  -0.527  0.2916  0.4095 -0.2776
   52ccc     H9 1522   1.572   3.169  -0.533  0.9145 -0.4801  0.2856
   52ccc    H10 1523   1.494   3.025  -0.595  3.3823 -1.1691  2.0706
   52ccc     C6 1524   1.371   3.187  -0.584 -0.6330 -0.7950  0.5688
   52ccc     O2 1525   1.361   3.310  -0.574 -0.6022 -0.3449 -0.4696
   52ccc     O3 1526   1.300   3.134  -0.666  0.4900  0.4622 -0.1342
   52ccc     C7 1527   1.445   2.856  -0.241  0.5120 -0.1838 -0.4258
   52ccc    H11 1528   1.494   2.841  -0.144 -0.1341  0.6799  0.0503
   52ccc    H12 1529   1.346   2.896  -0.217  0.0316 -0.5912 -1.6867
   52ccc     C8 1530   1.443   2.726  -0.316  0.0187  0.8172  0.4969
   52ccc    H13 1531   1.384   2.736  -0.408 -1.9703 -0.7738  1.5299
   52ccc    H14 1532   1.545   2.693  -0.340  0.3503  1.2293  1.3185
   52ccc     C9 1533   1.372   2.619  -0.232 -0.1816  0.1733 -0.0481
   52ccc     O4 1534   1.432   2.524  -0.175 -0.1992 -0.9720  0.2570
   52ccc     O5 1535   1.253   2.621  -0.222 -0.0250  0.4120 -0.0024
   52ccc     O1 1536   1.885   3.094  -0.114  0.9356  0.7127  0.5714
   53ccc     C3 1537   1.278   3.390   0.068 -0.2489  0.1661  0.0848
   53ccc     H5 1538   1.285   3.365   0.174 -0.5556 -1.0824 -0.1746
   53ccc     H6 1539   1.247   3.495   0.066 -0.7131  0.0361  0.4898
   53ccc     C2 1540   1.167   3.301   0.003 -0.4658  0.0912 -0.1861
   53ccc     H3 1541   1.071   3.347   0.030  0.5188  1.9244  0.4295
   53ccc     H4 1542   1.166   3.202   0.050 -0.0302  0.0818 -0.1986
   53ccc     C1 1543   1.183   3.278  -0.149 -0.5648 -0.1165  0.2915
   53ccc     H1 1544   1.269   3.215  -0.175  0.1832  0.1366  1.9861
   53ccc     H2 1545   1.194   3.380  -0.188  0.1777 -0.7450 -1.2017
   53ccc     N1 1546   1.059   3.215  -0.198 -0.2627 -0.3698  0.0397
   53ccc     C4 1547   1.050   3.234  -0.346 -0.1569 -0.0441  0.3808
   53ccc     H7 1548   0.980   3.162  -0.390  0.0425  0.7684 -1.3106
   53ccc     H8 1549   1.146   3.214  -0.395 -1.5600 -0.3564 -2.4017
   53ccc     C5 1550   1.000   3.377  -0.370  0.4118 -0.3890 -0.1954
   53ccc     H9 1551   0.890   3.377  -0.365  0.3671  1.3573 -0.5251
   53ccc    H10 1552   1.031   3.448  -0.293 -2.0754 -1.2018  1.6811
   53ccc     C6 1553   1.066   3.426  -0.493  0.3096 -0.1786  0.8254
   53ccc     O2 1554   1.048   3.374  -0.599 -0.2159  0.1139 -0.1453
   53ccc     O3 1555   1.164   3.500  -0.487 -0.0335  0.0816 -0.3777
   53ccc     C7 1556   1.064   3.070  -0.175  0.9719 -0.2985  0.1673
   53ccc    H11 1557   1.146   3.032  -0.237  2.0861  2.2671 -0.0534
   53ccc    H12 1558   1.069   3.064  -0.065  2.5661 -1.1346  0.0790
   53ccc     C8 1559   0.931   3.005  -0.197  0.1572 -0.4425  0.0130
   53ccc    H13 1560   0.856   3.069  -0.149  0.3883  0.7015 -1.1157
   53ccc    H14 1561   0.913   2.991  -0.304  1.1477 -0.1980 -0.1876
   53ccc     C9 1562   0.935   2.873  -0.125  1.2182 -0.2832  0.2130
   53ccc     O4 1563   1.031   2.798  -0.133  0.3042 -0.4651 -0.3917
   53ccc     O5 1564   0.828   2.824  -0.082  0.1610 -0.3797  0.0178
   53ccc     O1 1565   1.397   3.362   0.006 -0.0657  0.4437  0.1905
   54ccc     C3 1566   1.511   2.714   1.822  0.1414  0.1942 -0.5365
   54ccc     H5 1567   1.423   2.693   1.884 -0.1262 -0.5344 -1.1530
   54ccc     H6 1568   1.549   2.617   1.787  2.1634  1.8010 -3.1364
   54ccc     C2 1569   1.608   2.789   1.912  0.5565  0.3512 -1.0406
   54ccc     H3 1570   1.644   2.718   1.987  2.2399 -1.0539 -3.0629
   54ccc     H4 1571   1.551   2.863   1.971 -0.0009 -0.9407  0.0974
   54ccc     C1 1572   1.727   2.844   1.834 -0.1703 -0.2572 -0.1922
   54ccc     H1 1573   1.689   2.903   1.750  0.2653  0.1424 -0.1113
   54ccc     H2 1574   1.779   2.756   1.793 -0.3920 -0.4293 -0.1023
   54ccc     N1 1575   1.817   2.911   1.928  0.1889  0.5665 -0.2244
   54ccc     C4 1576   1.958   2.898   1.892  0.5026  0.1325 -0.2002
   54ccc     H7 1577   2.021   2.978   1.933  0.4173  0.4640 -0.7060
   54ccc     H8 1578   1.970   2.888   1.783 -0.0952 -0.4983 -0.2130
   54ccc     C5 1579   2.011   2.776   1.955  0.3781 -0.6201  0.1296
   54ccc     H9 1580   1.996   2.799   2.061  1.4612  2.1067 -0.2320
   54ccc    H10 1581   1.946   2.695   1.919 -0.3184  0.5976 -1.4817
   54ccc     C6 1582   2.157   2.752   1.938 -0.3095  0.0561  0.3328
   54ccc     O2 1583   2.206   2.664   2.014  0.1296 -0.2532  0.4947
   54ccc     O3 1584   2.230   2.820   1.868 -0.1133 -0.2363 -0.6971
   54ccc     C7 1585   1.774   3.047   1.951  0.2565 -0.4706  0.1686
   54ccc    H11 1586   1.835   3.118   1.894  2.4078 -0.8410  1.8541
   54ccc    H12 1587   1.668   3.064   1.927  0.9956  0.0175 -3.2312
   54ccc     C8 1588   1.793   3.083   2.100  0.4685  0.0051 -0.0928
   54ccc    H13 1589   1.703   3.058   2.158 -0.1415  1.1007 -0.5317
   54ccc    H14 1590   1.889   3.054   2.144 -0.2925 -0.0385  1.6721
   54ccc     C9 1591   1.791   3.228   2.126 -0.3384 -0.3945  0.3390
   54ccc     O4 1592   1.693   3.289   2.104 -0.0507  0.0188 -0.1410
   54ccc     O5 1593   1.868   3.296   2.192 -0.7761  0.1114  0.2084
   54ccc     O1 1594   1.471   2.797   1.716  0.2172 -0.1567  0.2612
   55ccc     C3 1595   1.066   3.557   1.982  0.0244 -0.2256  0.4581
   55ccc     H5 1596   0.960   3.581   1.962  0.0243  0.3548  1.1423
   55ccc     H6 1597   1.068   3.487   2.066  0.1629  0.8178  1.3391
   55ccc     C2 1598   1.147   3.675   2.026  0.3754 -0.0032  0.5128
   55ccc     H3 1599   1.249   3.640   2.045  0.9002  0.6888 -0.9080
   55ccc     H4 1600   1.105   3.714   2.119 -0.7022  2.0414 -0.7605
   55ccc     C1 1601   1.150   3.776   1.911  0.0081 -0.3288 -0.4756
   55ccc     H1 1602   1.045   3.794   1.883 -0.3573  0.2265  1.1668
   55ccc     H2 1603   1.200   3.729   1.825 -2.0962 -1.9842 -0.9029
   55ccc     N1 1604   1.217   3.902   1.949  0.4656 -0.3218 -0.5605
   55ccc     C4 1605   1.218   3.987   1.830  0.7972  0.8228 -0.0553
   55ccc     H7 1606   1.127   3.973   1.770  0.1153 -0.4771  1.2078
   55ccc     H8 1607   1.300   3.961   1.762 -0.0618  3.7173 -2.4191
   55ccc     C5 1608   1.235   4.136   1.857  0.4247  0.1875  0.0094
   55ccc     H9 1609   1.163   4.173   1.931 -0.1478  0.6821 -0.7793
   55ccc    H10 1610   1.340   4.157   1.879  0.9997 -0.1500 -2.2047
   55ccc     C6 1611   1.209   4.217   1.731  0.7549  0.2893 -0.1863
   55ccc     O2 1612   1.303   4.239   1.656 -0.2084 -0.2137 -0.0524
   55ccc     O3 1613   1.099   4.266   1.695  0.0096  1.0809 -0.2294
   55ccc     C7 1614   1.350   3.889   2.015  0.3085  0.1784  0.3168
   55ccc    H11 1615   1.387   3.992   2.017  1.4237 -0.1688 -1.1031
   55ccc    H12 1616   1.337   3.849   2.116  0.3939 -0.3550  0.1179
   55ccc     C8 1617   1.449   3.811   1.938  0.3677 -0.1523 -0.2832
   55ccc    H13 1618   1.429   3.704   1.945 -0.9383  0.1169  0.2363
   55ccc    H14 1619   1.451   3.839   1.832 -2.9007 -0.8475 -0.6173
   55ccc     C9 1620   1.578   3.842   2.004  0.5897  0.2653 -0.4955
   55ccc     O4 1621   1.662   3.910   1.945 -0.0639 -0.2289 -0.2671
   55ccc     O5 1622   1.614   3.770   2.093 -0.0870  0.3414 -0.2993
   55ccc     O1 1623   1.136   3.493   1.876  0.4685  0.2224  0.1573
   56ccc     C3 1624   0.924   3.601   1.591 -0.9229  0.2711  0.0183
   56ccc     H5 1625   0.994   3.586   1.675 -0.1544 -1.2145 -0.8418
   56ccc     H6 1626   0.902   3.708   1.582 -1.0118  0.1806 -0.9049
   56ccc     C2 1627   0.801   3.501   1.606 -0.9453 -0.1244  0.0548
   56ccc     H3 1628   0.846   3.402   1.614 -1.1410 -0.2888 -0.7435
   56ccc     H4 1629   0.737   3.504   1.516 -0.3650 -1.7749 -0.4428
   56ccc     C1 1630   0.725   3.539   1.739 -0.1474  0.3198 -0.7148
   56ccc     H1 1631   0.737   3.643   1.771 -0.4737 -0.8365  3.9322
   56ccc     H2 1632   0.770   3.474   1.815 -0.8936 -0.5338 -0.9825
   56ccc     N1 1633   0.581   3.508   1.731 -0.1967  0.0079 -0.1387
   56ccc     C4 1634   0.553   3.370   1.683  0.4991  0.5202 -0.0281
   56ccc     H7 1635   0.594   3.348   1.584  0.9846  0.3958  0.1977
   56ccc     H8 1636   0.446   3.348   1.690  0.4373  0.2597 -1.4877
   56ccc     C5 1637   0.630   3.269   1.775  0.6919 -0.2922 -0.5409
   56ccc     H9 1638   0.732   3.249   1.739 -0.2354 -1.1229 -2.9301
   56ccc    H10 1639   0.623   3.304   1.879 -2.3701 -1.7086 -0.1653
   56ccc     C6 1640   0.567   3.128   1.770  0.5917 -0.0204  0.2481
   56ccc     O2 1641   0.448   3.107   1.785 -0.0466  0.2539  0.4646
   56ccc     O3 1642   0.640   3.031   1.771  0.4746 -0.2790  0.1933
   56ccc     C7 1643   0.509   3.609   1.655  0.1330  0.4588 -0.0133
   56ccc    H11 1644   0.562   3.620   1.559  0.2023  0.0182 -0.0275
   56ccc    H12 1645   0.409   3.575   1.626  1.4793 -1.7543 -2.5513
   56ccc     C8 1646   0.498   3.744   1.719  0.1132 -0.2055 -0.0610
   56ccc    H13 1647   0.446   3.750   1.816 -1.1847 -0.7355 -0.6986
   56ccc    H14 1648   0.593   3.788   1.751  0.1377  0.1359 -0.5949
   56ccc     C9 1649   0.429   3.836   1.615 -0.3323  0.2296  0.5369
   56ccc     O4 1650   0.311   3.827   1.580 -0.0346 -0.0061 -0.5701
   56ccc     O5 1651   0.506   3.906   1.550  0.0423 -0.3321 -0.3861
   56ccc     O1 1652   0.989   3.557   1.471  0.2886 -0.0609  0.2667
   57ccc     C3 1653   1.687   3.165   1.398  0.2554  0.5869 -0.4139
   57ccc     H5 1654   1.629   3.073   1.383  1.6313 -0.3516 -0.1773
   57ccc     H6 1655   1.750   3.177   1.309  1.4254  1.7972  0.5225
   57ccc     C2 1656   1.761   3.155   1.535  0.1474 -0.8224  0.1930
   57ccc     H3 1657   1.834   3.073   1.531 -0.6968 -1.5496 -2.3898
   57ccc     H4 1658   1.685   3.135   1.611  1.0271 -0.0235  1.3292
   57ccc     C1 1659   1.827   3.291   1.567 -0.2175  0.3517  0.5015
   57ccc     H1 1660   1.754   3.372   1.574  0.7952  1.4591 -1.0537
   57ccc     H2 1661   1.889   3.309   1.478 -1.1398  1.4988  0.0762
   57ccc     N1 1662   1.912   3.284   1.686 -0.4774  0.6354 -0.0138
   57ccc     C4 1663   2.042   3.241   1.647  0.0107  0.1770  0.0729
   57ccc     H7 1664   2.090   3.320   1.588  0.3043  1.1061  1.5147
   57ccc     H8 1665   2.035   3.149   1.586 -1.4921  0.7097 -0.6209
   57ccc     C5 1666   2.137   3.216   1.762  0.2083 -0.1969  0.4136
   57ccc     H9 1667   2.175   3.312   1.798  1.2969 -0.5066  0.1358
   57ccc    H10 1668   2.096   3.174   1.855 -1.0486  0.9141  0.3881
   57ccc     C6 1669   2.258   3.142   1.722 -0.3357  0.0676  0.1655
   57ccc     O2 1670   2.343   3.108   1.803 -0.3310  0.0425 -0.0374
   57ccc     O3 1671   2.299   3.142   1.608 -0.0446  0.2184  0.4806
   57ccc     C7 1672   1.921   3.410   1.757  0.3556  0.7237 -0.1862
   57ccc    H11 1673   1.984   3.392   1.845  0.4298 -1.3812 -0.6337
   57ccc    H12 1674   1.974   3.491   1.705 -2.0408  3.2310  1.0054
   57ccc     C8 1675   1.782   3.462   1.811 -0.7990  0.5019  0.3472
   57ccc    H13 1676   1.714   3.484   1.728 -0.8861 -1.0576 -0.0366
   57ccc    H14 1677   1.733   3.384   1.871 -1.2271  0.0002 -0.6344
   57ccc     C9 1678   1.823   3.580   1.894  0.2834  0.0815  0.2063
   57ccc     O4 1679   1.831   3.691   1.850 -0.4415  0.0492  0.0232
   57ccc     O5 1680   1.832   3.568   2.016 -0.1166  0.2489 -0.6021
   57ccc     O1 1681   1.596   3.273   1.407  0.1361  0.2545  0.4532
   58ccc     C3 1682   0.425   4.009   0.366 -0.3712  0.2898 -0.2182
   58ccc     H5 1683   0.367   4.097   0.399  0.9949  1.7404 -1.5264
   58ccc     H6 1684   0.405   3.939   0.448 -2.1612  0.0526 -0.8059
   58ccc     C2 1685   0.579   4.047   0.357  0.0740  0.3384  0.1441
   58ccc     H3 1686   0.607   4.111   0.441  1.8960 -0.6810  0.3626
   58ccc     H4 1687   0.594   4.103   0.264 -0.1136  0.4901  0.2039
   58ccc     C1 1688   0.666   3.920   0.358  0.2483 -0.6337 -0.0092
   58ccc     H1 1689   0.644   3.856   0.272 -0.5364 -2.5153  1.5148
   58ccc     H2 1690   0.633   3.860   0.445 -1.2773  0.5857  0.3093
   58ccc     N1 1691   0.813   3.943   0.375  0.1501 -0.3011 -0.0612
   58ccc     C4 1692   0.873   4.022   0.267 -0.2985  0.3725  0.0620
   58ccc     H7 1693   0.977   4.035   0.298  0.1388  2.5667 -2.0096
   58ccc     H8 1694   0.821   4.119   0.267 -3.0129 -0.9330  1.9223
   58ccc     C5 1695   0.865   3.955   0.129  0.1360 -0.1212 -0.4010
   58ccc     H9 1696   0.950   3.885   0.129  0.8219  0.6385  1.6834
   58ccc    H10 1697   0.774   3.895   0.117  1.2499 -2.2797  1.1798
   58ccc     C6 1698   0.882   4.045   0.013  0.1979 -0.6479  0.4821
   58ccc     O2 1699   0.970   4.032  -0.068  0.1768  0.1355 -0.4042
   58ccc     O3 1700   0.813   4.147   0.011  0.2852  0.4619 -0.2736
   58ccc     C7 1701   0.841   4.003   0.507  0.2656 -0.3038 -0.1055
   58ccc    H11 1702   0.834   4.110   0.484  0.8765 -0.4161 -0.8366
   58ccc    H12 1703   0.761   3.975   0.577  0.5487 -0.7427  0.0473
   58ccc     C8 1704   0.972   3.976   0.563  0.2085 -0.0461  0.0614
   58ccc    H13 1705   0.986   3.873   0.597 -1.1089  0.3694  2.1126
   58ccc    H14 1706   1.049   3.994   0.488  0.6728 -1.1890  0.2442
   58ccc     C9 1707   0.988   4.077   0.677 -0.5048  0.0221  0.5204
   58ccc     O4 1708   1.020   4.190   0.653  0.6467 -0.3492 -0.5619
   58ccc     O5 1709   0.953   4.059   0.792 -0.4117  0.3008 -0.1520
   58ccc     O1 1710   0.376   3.952   0.244 -0.0203 -0.0532 -0.3583
   59ccc     C3 1711  -0.105   3.438  -0.089  0.1622 -0.0808 -0.0499
   59ccc     H5 1712  -0.097   3.385   0.007  1.8746 -0.4474 -0.3623
   59ccc     H6 1713  -0.158   3.531  -0.064 -1.1872 -0.7097 -0.4716
   59ccc     C2 1714  -0.180   3.358  -0.196  0.0609 -0.1882  0.1666
   59ccc     H3 1715  -0.193   3.407  -0.294  1.4199  1.6278  0.8326
   59ccc     H4 1716  -0.280   3.332  -0.160  0.9702 -2.2564  1.3789
   59ccc     C1 1717  -0.111   3.217  -0.232  0.0162 -0.4619  1.0756
   59ccc     H1 1718  -0.069   3.163  -0.146  0.7263 -0.7595  0.5415
   59ccc     H2 1719  -0.027   3.244  -0.297 -1.3218 -1.4150 -1.1314
   59ccc     N1 1720  -0.197   3.128  -0.308 -0.2380  1.0476  0.0273
   59ccc     C4 1721  -0.316   3.085  -0.239 -0.4955  0.3961  0.2441
   59ccc     H7 1722  -0.324   3.132  -0.139 -0.1619  0.4313  0.2552
   59ccc     H8 1723  -0.315   2.978  -0.213 -0.0944  0.6290  1.2458
   59ccc     C5 1724  -0.440   3.124  -0.321 -0.6056  0.3301 -0.2395
   59ccc     H9 1725  -0.438   3.233  -0.325  1.7933  0.4746  1.8735
   59ccc    H10 1726  -0.442   3.082  -0.423  2.5236 -0.0002 -0.2710
   59ccc     C6 1727  -0.560   3.069  -0.249  0.2058 -0.4001  0.1994
   59ccc     O2 1728  -0.660   3.136  -0.245 -0.1326  0.1660  0.0409
   59ccc     O3 1729  -0.565   2.958  -0.198 -0.5516 -0.4268  0.1879
   59ccc     C7 1730  -0.109   3.020  -0.351  0.0592  0.5737  0.3579
   59ccc    H11 1731  -0.008   3.052  -0.379 -0.9786  3.5077 -0.3116
   59ccc    H12 1732  -0.094   2.954  -0.264  1.1282 -0.1507 -0.3572
   59ccc     C8 1733  -0.177   2.940  -0.463 -0.0945  0.5689  0.3462
   59ccc    H13 1734  -0.245   2.867  -0.419  1.5844  0.6006  3.2147
   59ccc    H14 1735  -0.226   3.003  -0.539  0.6902 -0.1632 -0.8048
   59ccc     C9 1736  -0.076   2.862  -0.543 -0.0713  0.6012  0.2577
   59ccc     O4 1737  -0.025   2.911  -0.640 -0.5712  0.0780 -0.0430
   59ccc     O5 1738  -0.043   2.751  -0.499  0.4161 -0.1288 -0.4777
   59ccc     O1 1739   0.030   3.474  -0.124 -0.0899 -0.0473 -0.4550
   60ccc     C3 1740   0.659   3.114  -0.469  0.3601 -0.3316  0.5486
   60ccc     H5 1741   0.764   3.113  -0.437  0.6273 -1.6262 -0.2870
   60ccc     H6 1742   0.590   3.189  -0.428  0.6497  0.0093  0.4173
   60ccc     C2 1743   0.603   2.977  -0.460 -0.2738  0.0524  0.2189
   60ccc     H3 1744   0.500   2.988  -0.497 -0.1583  1.4468  0.2622
   60ccc     H4 1745   0.598   2.954  -0.353 -0.8266  1.9133  0.6256
   60ccc     C1 1746   0.692   2.873  -0.532  0.1510 -0.2654  0.1697
   60ccc     H1 1747   0.794   2.910  -0.515  0.2313  0.1171 -1.0295
   60ccc     H2 1748   0.663   2.874  -0.638 -0.7269 -1.0373  0.3934
   60ccc     N1 1749   0.669   2.735  -0.488 -0.3474  0.1295 -0.3957
   60ccc     C4 1750   0.531   2.683  -0.472  0.2049  0.0593 -0.1385
   60ccc     H7 1751   0.465   2.745  -0.410 -1.0351 -1.5314  0.1937
   60ccc     H8 1752   0.533   2.588  -0.418  1.9858 -0.0540 -0.3607
   60ccc     C5 1753   0.456   2.660  -0.607 -0.7353 -0.0126  0.3578
   60ccc     H9 1754   0.439   2.756  -0.658 -1.6496  0.7538  2.0345
   60ccc    H10 1755   0.492   2.580  -0.673 -2.0491 -0.7901  0.5420
   60ccc     C6 1756   0.317   2.616  -0.569 -0.6543 -0.6402  0.3935
   60ccc     O2 1757   0.295   2.520  -0.500 -0.3799 -0.2681  0.4766
   60ccc     O3 1758   0.221   2.665  -0.624  0.3539 -0.6818 -0.2081
   60ccc     C7 1759   0.761   2.638  -0.538 -0.6110 -0.4440 -0.0077
   60ccc    H11 1760   0.733   2.615  -0.642  3.1760  1.2017 -1.5825
   60ccc    H12 1761   0.858   2.689  -0.543 -1.4640  1.4451  1.4265
   60ccc     C8 1762   0.773   2.515  -0.451  0.4361 -0.0319  0.1722
   60ccc    H13 1763   0.685   2.450  -0.449 -0.5124  1.2182  0.1185
   60ccc    H14 1764   0.861   2.454  -0.478 -0.0576 -0.0410 -1.5256
   60ccc     C9 1765   0.805   2.566  -0.317 -0.0175 -0.0853 -0.1712
   60ccc     O4 1766   0.721   2.583  -0.233 -0.0724  0.2813  0.5370
   60ccc     O5 1767   0.919   2.595  -0.288 -0.6888  0.2381 -0.6905
   60ccc     O1 1768   0.648   3.147  -0.612  0.4458 -0.1030  0.0186
   61ccc     C3 1769   0.418   3.959  -0.716  0.0650  0.0706  0.0565
   61ccc     H5 1770   0.377   4.024  -0.793  0.4874  1.1723  0.7379
   61ccc     H6 1771   0.345   3.951  -0.634  1.6032  2.0306  1.7272
   61ccc     C2 1772   0.538   4.031  -0.655  0.6619  0.3428  0.2933
   61ccc     H3 1773   0.512   4.133  -0.625 -1.1088 -0.0865  0.3320
   61ccc     H4 1774   0.613   4.047  -0.732 -0.3042 -1.5881 -1.1425
   61ccc     C1 1775   0.588   3.949  -0.531 -0.1612  0.1913  0.1984
   61ccc     H1 1776   0.573   3.841  -0.534  0.9827 -0.0113  1.0129
   61ccc     H2 1777   0.522   3.980  -0.450  1.9574  2.6080  1.1516
   61ccc     N1 1778   0.728   3.973  -0.493 -0.0435  0.1392  0.4701
   61ccc     C4 1779   0.761   4.109  -0.462 -0.0943 -0.6837  0.1221
   61ccc     H7 1780   0.730   4.181  -0.538  1.3669 -0.8908 -0.7083
   61ccc     H8 1781   0.870   4.116  -0.461 -0.1888  2.3544  0.3468
   61ccc     C5 1782   0.710   4.148  -0.319 -0.1332  0.6977 -0.4774
   61ccc     H9 1783   0.601   4.143  -0.307 -0.3751  1.9312 -1.8747
   61ccc    H10 1784   0.757   4.080  -0.247  0.2263  2.0744  0.6333
   61ccc     C6 1785   0.758   4.293  -0.288 -1.1669  0.9105 -0.5374
   61ccc     O2 1786   0.680   4.377  -0.261 -0.0340  0.0246 -0.0176
   61ccc     O3 1787   0.876   4.320  -0.260  0.1668 -0.5097 -0.0194
   61ccc     C7 1788   0.813   3.914  -0.589 -0.5284  0.2509  0.1222
   61ccc    H11 1789   0.790   3.949  -0.691 -1.2087 -1.2736 -0.2833
   61ccc    H12 1790   0.914   3.945  -0.561  0.4373 -1.2417 -1.4703
   61ccc     C8 1791   0.815   3.762  -0.588  0.0719 -0.2505 -0.1549
   61ccc    H13 1792   0.818   3.724  -0.485  0.1607  1.8317  0.6689
   61ccc    H14 1793   0.719   3.722  -0.624 -1.1209  2.5467 -0.3690
   61ccc     C9 1794   0.922   3.712  -0.676  0.1437  0.0620 -0.5741
   61ccc     O4 1795   0.904   3.682  -0.790 -0.0459 -0.0804  0.0508
   61ccc     O5 1796   1.038   3.718  -0.647 -0.2605 -0.5011 -0.8831
   61ccc     O1 1797   0.461   3.829  -0.760 -0.4515 -0.0559  0.0693
   62SOL     OW 1798   2.334   7.006   0.988 -0.2724 -0.2087 -0.2736
   62SOL    HW1 1799   2.315   7.023   1.081 -0.3686  1.1979 -0.5268
   62SOL    HW2 1800   2.386   7.082   0.960 -2.0270  0.4660 -1.9029
   63SOL     OW 1801   7.659   9.791   0.866  0.1389  0.2613 -0.1526
   63SOL    HW1 1802   7.638   9.714   0.813 -0.4094 -0.0821  0.5540
   63SOL    HW2 1803   7.751   9.779   0.890  0.9175  1.2210 -2.3404
   64SOL     OW 1804   2.997   0.728   8.093 -0.4652  0.0989  0.5249
   64SOL    HW1 1805   3.071   0.781   8.122 -0.1475  0.7308 -1.2995
   64SOL    HW2 1806   3.024   0.638   8.111  0.2325  0.3779  0.9608
   65SOL     OW 1807   9.805   5.333   8.121 -0.3269  0.2553 -0.0307
   65SOL    HW1 1808   9.884   5.376   8.087 -0.4797  1.9510  1.6152
   65SOL    HW2 1809   9.822   5.239   8.111  0.0523  0.5623 -3.7197
   66SOL     OW 1810   2.891   9.265   7.413  0.5252 -0.5298 -0.0187
   66SOL    HW1 1811   2.955   9.316   7.364 -0.6760  1.2095  0.1547
   66SOL    HW2 1812   2.839   9.330   7.460 -1.4013 -1.8680 -0.1880
   67SOL     OW 1813   3.645   5.816   7.866  0.6040  0.7448 -0.1534
   67SOL    HW1 1814   3.667   5.855   7.950  2.0242 -0.3391  0.0060
   67SOL    HW2 1815   3.594   5.883   7.821  1.2786  1.9973  0.8986
   68SOL     OW 1816   6.202   8.463   6.636 -0.1207 -0.6851 -0.3534
   68SOL    HW1 1817   6.274   8.525   6.636  0.9057 -1.7708  1.6790
   68SOL    HW2 1818   6.189   8.441   6.728 -1.7982 -1.9456 -0.8332
   69SOL     OW 1819   0.788   3.780   4.157 -0.3341 -0.1645 -0.2359
   69SOL    HW1 1820   0.770   3.707   4.097 -2.3907 -0.0918  0.2129
   69SOL    HW2 1821   0.742   3.854   4.118 -0.0286  0.3731  0.4173
   70SOL     OW 1822   8.228   7.543   4.700 -0.1218  0.6164  0.0007
   70SOL    HW1 1823   8.160   7.547   4.634  0.8526  0.9790 -1.0124
   70SOL    HW2 1824   8.280   7.467   4.677 -0.9209 -0.4406  1.5425
   71SOL     OW 1825   5.188   0.971   6.194 -0.0457 -0.5342 -0.2545
   71SOL    HW1 1826   5.140   0.891   6.172 -1.2857  0.3147 -0.7818
   71SOL    HW2 1827   5.204   1.013   6.110  1.7100 -0.8150 -0.0873
   72SOL     OW 1828   6.124   3.745   6.788  1.0518  0.8451 -0.3406
   72SOL    HW1 1829   6.102   3.787   6.871  1.4205  1.9449 -0.7825
   72SOL    HW2 1830   6.073   3.792   6.722  0.4394 -0.2916 -0.7015
   73SOL     OW 1831   9.428   6.906   8.784 -0.5013 -0.3691  0.4916
   73SOL    HW1 1832   9.349   6.862   8.816 -1.1862  1.6239  1.7008
   73SOL    HW2 1833   9.501   6.853   8.817 -1.2858 -0.2755  2.5019
   74SOL     OW 1834   9.025   1.806   4.888 -0.5476  0.2874  0.4019
   74SOL    HW1 1835   8.953   1.748   4.910  1.1660 -2.1752 -0.0842
   74SOL    HW2 1836   9.094   1.748   4.855  1.6044  2.5197  0.6628
   75SOL     OW 1837   8.752   5.665   9.225 -0.3095  0.1763  0.5001
   75SOL    HW1 1838   8.671   5.645   9.271  0.3795 -0.2506  1.5610
   75SOL    HW2 1839   8.821   5.627   9.280  0.6773  1.3285  0.0932
   76SOL     OW 1840   3.897   1.230   6.956  0.6799 -0.4185  0.1717
   76SOL    HW1 1841   3.837   1.199   7.024 -0.7760 -1.1894 -1.3933
   76SOL    HW2 1842   3.936   1.150   6.921 -0.4065 -0.2863 -1.4775
   77SOL     OW 1843   9.264   2.207   5.735  0.1780 -0.0289  0.2575
   77SOL    HW1 1844   9.340   2.206   5.793  0.2824 -4.9237  0.4547
   77SOL    HW2 1845   9.301   2.204   5.647  0.1539  0.0314  0.2453
   78SOL     OW 1846   1.419   2.929   7.475  0.6709  0.2355  0.0153
   78SOL    HW1 1847   1.409   2.980   7.395 -1.4672  1.8012  1.1883
   78SOL    HW2 1848   1.442   2.993   7.542 -0.4367 -0.5506  1.2082
   79SOL     OW 1849   5.223   9.011   6.811 -0.4199 -0.4435  0.1321
   79SOL    HW1 1850   5.145   9.066   6.824  0.2977  1.0569 -1.4756
   79SOL    HW2 1851   5.192   8.939   6.755 -0.8244 -0.3188  0.1898
   80SOL     OW 1852   9.141   7.647   4.746 -0.2721 -0.5665  0.4287
   80SOL    HW1 1853   9.164   7.609   4.661  0.0299 -0.6471  0.5442
   80SOL    HW2 1854   9.050   7.673   4.737 -0.3774 -0.9999  0.2287
   81SOL     OW 1855   0.794   1.866   3.929  0.6431  0.1514 -0.8252
   81SOL    HW1 1856   0.815   1.856   3.836 -1.6271 -2.1838 -1.1881
   81SOL    HW2 1857   0.761   1.781   3.956  0.9809  0.8410  2.1084
   82SOL     OW 1858   3.868   8.732   0.774  0.1587  0.1350 -0.2290
   82SOL    HW1 1859   3.904   8.655   0.730  1.7701 -0.1934  1.5487
   82SOL    HW2 1860   3.773   8.720   0.770  0.3212 -0.8785 -1.7699
   83SOL     OW 1861   9.652   7.005   9.270  0.0789  0.3916 -0.0647
   83SOL    HW1 1862   9.612   6.926   9.234  1.7298  0.0460 -1.2572
   83SOL    HW2 1863   9.580   7.066   9.282 -0.9293 -0.5583 -1.1403
   84SOL     OW 1864   7.156   9.120   6.284  0.0257 -0.4304  0.6847
   84SOL    HW1 1865   7.220   9.060   6.323  0.4068 -0.8684 -0.5539
   84SOL    HW2 1866   7.209   9.177   6.227 -0.5277  0.0497  0.6452
   85SOL     OW 1867   1.237   5.271   6.891 -0.3738 -0.1021  0.0498
   85SOL    HW1 1868   1.241   5.364   6.870  0.5303  0.3680  2.0820
   85SOL    HW2 1869   1.293   5.261   6.969  0.1417 -2.4730 -0.5467
   86SOL     OW 1870   1.100   0.356   1.891 -0.3891  0.4483 -0.0166
   86SOL    HW1 1871   1.047   0.415   1.837 -1.3350 -0.3924 -0.0515
   86SOL    HW2 1872   1.082   0.269   1.855 -0.3354 -0.0299  1.0775
   87SOL     OW 1873   7.241   1.221   2.173  0.3765 -0.1503  0.1361
   87SOL    HW1 1874   7.153   1.185   2.165  0.9085 -1.6752  0.9160
   87SOL    HW2 1875   7.260   1.256   2.085 -0.6310 -0.6526 -0.2991
   88SOL     OW 1876   0.897   9.655   7.574 -0.2300  0.4175 -0.3527
   88SOL    HW1 1877   0.859   9.727   7.623 -1.5907 -0.3742 -0.1789
   88SOL    HW2 1878   0.920   9.692   7.489 -3.6613  0.4859 -1.3849
   89SOL     OW 1879   8.235   8.325   4.411  0.2579  0.3544 -0.1854
   89SOL    HW1 1880   8.247   8.231   4.417 -1.7041  0.1469  1.7200
   89SOL    HW2 1881   8.141   8.338   4.424  0.6091  2.6160  0.4956
   90SOL     OW 1882   3.563   4.150   6.762 -0.0520  0.5987  0.2264
   90SOL    HW1 1883   3.586   4.061   6.734  0.5147  1.0908 -0.9429
   90SOL    HW2 1884   3.490   4.137   6.823  0.9090 -0.7458  1.1679
   91SOL     OW 1885   1.961   4.451   4.695 -0.3229  0.0187 -0.1518
   91SOL    HW1 1886   1.908   4.484   4.623 -0.2179  0.1380 -0.1753
   91SOL    HW2 1887   2.022   4.389   4.655 -1.2580 -1.0624  0.0500
   92SOL     OW 1888   4.822   9.156   0.037  0.0142  0.3123  0.0208
   92SOL    HW1 1889   4.847   9.084   0.096  0.5422  0.9544  0.5916
   92SOL    HW2 1890   4.861   9.234   0.076  1.3182  0.6195 -1.7534
   93SOL     OW 1891   0.941   3.338   7.466  0.2510 -0.7634  0.4725
   93SOL    HW1 1892   0.879   3.282   7.419  0.9058 -2.3011  1.3530
   93SOL    HW2 1893   1.002   3.277   7.507  1.0060  0.6152  1.4982
   94SOL     OW 1894   6.510   6.339   0.639  0.2763 -0.6494  0.6501
   94SOL    HW1 1895   6.590   6.345   0.691  1.0014  0.6632 -0.5389
   94SOL    HW2 1896   6.507   6.421   0.591 -0.8354 -1.4436 -0.7067
   95SOL     OW 1897   7.351   1.390   5.593 -0.5794 -0.2339  0.3727
   95SOL    HW1 1898   7.289   1.395   5.666 -2.8742 -0.6835 -1.4107
   95SOL    HW2 1899   7.334   1.305   5.553  0.6268 -0.0107 -0.6738
   96SOL     OW 1900   2.512   5.888   1.142 -0.3477 -0.4376 -0.2904
   96SOL    HW1 1901   2.505   5.932   1.058 -1.0691 -0.1243 -0.0709
   96SOL    HW2 1902   2.593   5.922   1.180 -0.0376 -0.5515 -0.8297
   97SOL     OW 1903   6.343   7.938   8.711  0.0123  0.4401 -0.0839
   97SOL    HW1 1904   6.411   7.939   8.778  0.1745 -0.0456 -0.2370
   97SOL    HW2 1905   6.341   8.027   8.677  1.2753  0.2323 -0.7708
   98SOL     OW 1906   5.860   6.918   6.769 -0.1223  0.1313 -0.0094
   98SOL    HW1 1907   5.937   6.918   6.825  0.1919 -2.3793 -0.3424
   98SOL    HW2 1908   5.786   6.928   6.830  0.3432 -0.0210  0.5843
   99SOL     OW 1909   7.491   1.067   2.299 -0.1685  0.3799 -0.5936
   99SOL    HW1 1910   7.428   1.082   2.228 -1.0663  1.3735  0.3727
   99SOL    HW2 1911   7.448   1.003   2.355  0.1366  0.2844 -0.4702
  100SOL     OW 1912   3.096   4.803   3.865  0.3424  0.2727  0.2272
  100SOL    HW1 1913   3.011   4.758   3.860  0.4606  0.1626 -2.2834
  100SOL    HW2 1914   3.161   4.733   3.856  0.6665  0.4803  0.9400
  101SOL     OW 1915   3.654   9.386   9.802 -0.1983  0.0895  0.0724
  101SOL    HW1 1916   3.627   9.453   9.865 -2.1038 -0.4444 -0.1229
  101SOL    HW2 1917   3.647   9.428   9.717 -0.6834 -0.1356  0.0012
  102SOL     OW 1918   1.586   6.155   5.684  0.3643 -0.5575 -0.5822
  102SOL    HW1 1919   1.608   6.184   5.596  1.4091 -0.1825 -0.2206
  102SOL    HW2 1920   1.661   6.183   5.738  0.0513 -1.3542  0.3025
  103SOL     OW 1921   3.602   9.560   3.446 -0.2160 -0.6029 -0.1875
  103SOL    HW1 1922   3.603   9.635   3.387 -0.3085 -0.1407  0.3960
  103SOL    HW2 1923   3.589   9.484   3.388  1.8893 -0.4036 -1.0317
  104SOL     OW 1924   5.038   9.503   2.590  0.7313 -0.5375  0.6219
  104SOL    HW1 1925   5.086   9.474   2.513  1.3185 -0.7083  1.0418
  104SOL    HW2 1926   5.026   9.597   2.577  0.6631 -0.5990  0.2361
  105SOL     OW 1927   6.227   8.067   4.444 -0.1257 -0.1579 -0.0188
  105SOL    HW1 1928   6.223   8.163   4.438  0.6283 -0.1863 -1.3368
  105SOL    HW2 1929   6.152   8.044   4.499 -0.5175  1.1675  0.0506
  106SOL     OW 1930   3.856   7.924   7.830 -0.3428  0.1798 -0.6630
  106SOL    HW1 1931   3.898   7.846   7.795 -2.2117 -1.8526  1.2712
  106SOL    HW2 1932   3.927   7.971   7.874  0.6715 -0.8929 -1.0807
  107SOL     OW 1933   1.859   4.048   6.465  0.1368 -0.2865  0.4656
  107SOL    HW1 1934   1.821   3.988   6.529  0.3065  0.7186  1.5581
  107SOL    HW2 1935   1.822   4.021   6.381 -0.0035 -1.7188  0.9625
  108SOL     OW 1936   1.106   5.632   0.316  0.3917  0.0779  0.3310
  108SOL    HW1 1937   1.047   5.596   0.382 -1.0881  0.5238 -0.6794
  108SOL    HW2 1938   1.144   5.556   0.272 -1.8082 -0.3338 -1.0084
  109SOL     OW 1939   7.860   7.366   4.286 -0.6404  0.3882  0.5622
  109SOL    HW1 1940   7.845   7.366   4.381  0.5475  0.3945  0.7625
  109SOL    HW2 1941   7.783   7.410   4.250 -0.8468  0.8887  1.5756
  110SOL     OW 1942   5.064   2.521   7.394  0.1790 -0.0166 -0.1078
  110SOL    HW1 1943   4.990   2.476   7.354  0.4606 -1.0759  0.5409
  110SOL    HW2 1944   5.141   2.475   7.360  0.4919  0.2844  0.1888
  111SOL     OW 1945   6.351   8.491   7.619  0.3391 -0.3604  0.2720
  111SOL    HW1 1946   6.269   8.492   7.571 -0.5976  1.2441  1.7749
  111SOL    HW2 1947   6.359   8.401   7.652 -0.0273 -0.9149 -1.0832
  112SOL     OW 1948   9.105   7.901   5.174  0.0866  0.6639  0.3373
  112SOL    HW1 1949   9.093   7.853   5.256  0.9976  2.1145  1.3817
  112SOL    HW2 1950   9.017   7.923   5.145 -0.3107 -1.0734  0.1454
  113SOL     OW 1951   1.939   1.908   7.754 -0.1220 -0.1183 -0.1992
  113SOL    HW1 1952   1.869   1.871   7.806 -0.3630  0.7288  0.1073
  113SOL    HW2 1953   1.896   1.971   7.696  0.5927  2.4499  1.8623
  114SOL     OW 1954   0.162   2.384   9.161 -0.2226 -0.3276 -0.3341
  114SOL    HW1 1955   0.206   2.317   9.109 -1.0133 -1.6584  0.6481
  114SOL    HW2 1956   0.233   2.425   9.211  0.1004 -1.5547  0.2644
  115SOL     OW 1957   5.331   8.297   7.650  0.0596  0.0934  0.3022
  115SOL    HW1 1958   5.343   8.311   7.744 -0.3415  0.6989  0.2687
  115SOL    HW2 1959   5.352   8.205   7.636  1.2024  0.2654  0.8056
  116SOL     OW 1960   9.639   4.499   4.619  0.2418 -0.1134 -0.1989
  116SOL    HW1 1961   9.691   4.574   4.592  1.0644 -0.7119 -0.3004
  116SOL    HW2 1962   9.692   4.423   4.597  0.7072 -0.6853  2.4887
  117SOL     OW 1963   5.886   6.878   4.932 -0.5858 -0.1341  0.3714
  117SOL    HW1 1964   5.834   6.883   4.852  0.8995  1.7486 -0.5750
  117SOL    HW2 1965   5.974   6.902   4.905 -0.1396  1.1451  2.6675
  118SOL     OW 1966   2.486   7.641   8.896 -0.0727 -0.2595 -0.4102
  118SOL    HW1 1967   2.460   7.663   8.806 -0.0290  0.0537 -0.3457
  118SOL    HW2 1968   2.515   7.724   8.934 -1.5467 -0.0765  0.3876
  119SOL     OW 1969   3.691   2.359   7.701 -0.8892  0.2085 -0.0065
  119SOL    HW1 1970   3.664   2.443   7.737  1.7394 -0.4751  4.3159
  119SOL    HW2 1971   3.779   2.375   7.666 -0.0039 -0.7739  1.6323
  120SOL     OW 1972   2.142   5.356   8.256 -0.6331  0.5249  0.3955
  120SOL    HW1 1973   2.217   5.341   8.314 -0.2383  1.4061  0.1239
  120SOL    HW2 1974   2.177   5.410   8.185 -1.1589 -0.3564 -0.5700
  121SOL     OW 1975   5.679   2.176   3.980 -0.2862  0.0545  0.4344
  121SOL    HW1 1976   5.624   2.250   3.955  0.4127  0.3932 -0.1581
  121SOL    HW2 1977   5.635   2.138   4.056 -0.9155  0.7867  0.4536
  122SOL     OW 1978   1.367   6.050   8.376 -0.5076  0.0015 -0.1188
  122SOL    HW1 1979   1.294   6.085   8.324 -0.6422  1.1261  0.7867
  122SOL    HW2 1980   1.438   6.038   8.313 -0.6115  1.4800 -0.5676
  123SOL     OW 1981   7.983   5.557   5.318 -0.5395  0.5855 -0.1218
  123SOL    HW1 1982   8.048   5.521   5.378 -1.1440 -0.4193 -0.0562
  123SOL    HW2 1983   7.909   5.497   5.322 -1.4058  1.5903 -0.3606
  124SOL     OW 1984   4.713   5.416   0.130 -0.1735  0.0634  0.1368
  124SOL    HW1 1985   4.634   5.442   0.084  0.3645 -1.4668 -1.7605
  124SOL    HW2 1986   4.688   5.415   0.223 -1.5683  2.2086 -0.1521
  125SOL     OW 1987   7.650   9.284   6.881 -0.3264 -0.3238  0.1188
  125SOL    HW1 1988   7.730   9.235   6.860 -0.7864 -0.2605 -2.0703
  125SOL    HW2 1989   7.663   9.370   6.840 -0.3659  0.7177  2.1860
  126SOL     OW 1990   5.479   7.523   3.541  0.1639 -0.2397  0.8811
  126SOL    HW1 1991   5.469   7.508   3.635  0.9485 -2.8294  0.6255
  126SOL    HW2 1992   5.536   7.452   3.512  0.3452  0.8023 -1.4841
  127SOL     OW 1993   6.906   7.131   5.620  0.4327 -0.0651  0.1292
  127SOL    HW1 1994   6.979   7.187   5.592 -1.0935  1.6716 -0.6793
  127SOL    HW2 1995   6.947   7.054   5.658  2.6744  1.1726  0.3965
  128SOL     OW 1996   4.847   1.398   0.825 -0.1834 -0.3218 -0.2946
  128SOL    HW1 1997   4.939   1.387   0.800 -1.1221 -0.7971 -4.0855
  128SOL    HW2 1998   4.828   1.323   0.880  1.2779 -1.1705 -0.8922
  129SOL     OW 1999   2.773   3.849   0.281  0.7681 -0.3131 -0.1954
  129SOL    HW1 2000   2.685   3.835   0.316  0.3469  2.6146  0.1024
  129SOL    HW2 2001   2.763   3.840   0.186  0.1628 -0.0543 -0.1582
  130SOL     OW 2002   4.607   0.369   9.642 -0.1658 -0.1159 -0.2479
  130SOL    HW1 2003   4.640   0.292   9.688 -1.6286 -0.8676 -0.4169
  130SOL    HW2 2004   4.686   0.418   9.618  0.8084 -1.6360 -0.2763
  131SOL     OW 2005   4.877   4.744   8.515  0.0654  0.5099 -0.0093
  131SOL    HW1 2006   4.934   4.673   8.488 -0.0025  0.0220  1.0726
  131SOL    HW2 2007   4.934   4.820   8.522  0.6785 -0.0517  1.4092
  132SOL     OW 2008   6.890   7.461   7.667  0.1752  0.4724 -0.0173
  132SOL    HW1 2009   6.862   7.383   7.715  1.4386 -0.7415 -1.1367
  132SOL    HW2 2010   6.913   7.524   7.734 -0.6920 -0.1774  0.9291
  133SOL     OW 2011   8.869   4.274   0.412  0.6550  0.3309  0.1475
  133SOL    HW1 2012   8.805   4.266   0.341  1.5919  2.4394 -1.0426
  133SOL    HW2 2013   8.819   4.313   0.484  0.0676 -0.2666  0.0709
  134SOL     OW 2014   8.728   4.698   7.761 -0.0966  0.2106 -0.3574
  134SOL    HW1 2015   8.707   4.742   7.844 -2.2823  0.4097 -0.9455
  134SOL    HW2 2016   8.792   4.631   7.785  1.4400  2.0748  0.9879
  135SOL     OW 2017   2.498   7.501   9.319  0.2783  0.2880 -0.1321
  135SOL    HW1 2018   2.435   7.567   9.347 -0.2879 -0.9025  1.6073
  135SOL    HW2 2019   2.459   7.462   9.241  1.1762  2.7211 -1.8893
  136SOL     OW 2020   1.158   7.451   3.505 -0.4394 -0.3326  0.4193
  136SOL    HW1 2021   1.129   7.494   3.586  0.6195 -0.3869  0.8519
  136SOL    HW2 2022   1.147   7.357   3.523  0.1192 -0.3587  0.6358
  137SOL     OW 2023   6.351   9.491   7.201 -0.4570 -0.3564  0.4615
  137SOL    HW1 2024   6.270   9.524   7.242 -0.3015  1.2093 -0.4059
  137SOL    HW2 2025   6.335   9.500   7.107  0.8180  0.2553  0.2822
  138SOL     OW 2026   0.482   0.267   4.910  0.6539 -0.0938 -0.2795
  138SOL    HW1 2027   0.481   0.172   4.923  0.1952  0.1265  1.4836
  138SOL    HW2 2028   0.514   0.302   4.993 -1.0227  1.3957 -0.2210
  139SOL     OW 2029   6.371   8.792   2.711  0.7229  0.1549  0.5359
  139SOL    HW1 2030   6.280   8.790   2.681  0.4155  1.3996  1.2979
  139SOL    HW2 2031   6.370   8.743   2.793  0.8328 -0.1943  0.3305
  140SOL     OW 2032   3.868   4.486   7.428 -0.6628  0.6286  0.1915
  140SOL    HW1 2033   3.793   4.451   7.380  0.0236 -1.3343  0.4504
  140SOL    HW2 2034   3.928   4.515   7.360 -1.0749  0.9316 -0.0466
  141SOL     OW 2035   0.464   2.569   6.266 -1.2062 -0.4417  0.4657
  141SOL    HW1 2036   0.497   2.480   6.272 -0.8811 -0.4202 -0.6233
  141SOL    HW2 2037   0.505   2.604   6.186 -1.2538  0.7064  0.9196
  142SOL     OW 2038   6.788   0.244   3.132  0.2599 -0.4057  0.1396
  142SOL    HW1 2039   6.873   0.261   3.093 -0.1265  0.0116 -0.5441
  142SOL    HW2 2040   6.763   0.158   3.100 -0.5086  0.3504 -1.4070
  143SOL     OW 2041   6.962   4.795   2.405  0.7572  0.1244  0.3263
  143SOL    HW1 2042   7.043   4.745   2.392 -0.3222 -1.3123 -1.2532
  143SOL    HW2 2043   6.893   4.738   2.373 -0.9723  1.1562  2.0350
  144SOL     OW 2044   8.171   8.357   7.924 -0.2668 -0.0108  0.2126
  144SOL    HW1 2045   8.139   8.442   7.955  1.2220  0.5182  0.3628
  144SOL    HW2 2046   8.235   8.378   7.856  1.3026 -0.9085  1.3321
  145SOL     OW 2047   9.044   4.627   2.091  0.0098  0.2233 -0.0616
  145SOL    HW1 2048   9.084   4.586   2.014  1.6245  0.4586  0.6108
  145SOL    HW2 2049   9.023   4.716   2.062  1.5284  0.6395  0.0088
  146SOL     OW 2050   6.667   6.333   2.934 -0.4487  0.5876 -0.3828
  146SOL    HW1 2051   6.587   6.340   2.882 -0.0907  3.0472 -0.7418
  146SOL    HW2 2052   6.637   6.335   3.025 -0.8429  0.6111 -0.5110
  147SOL     OW 2053   0.434   0.905   4.243 -0.4668  0.0526  0.3915
  147SOL    HW1 2054   0.371   0.868   4.305  0.0433 -0.1510  0.7969
  147SOL    HW2 2055   0.502   0.944   4.299 -0.0504 -0.0541 -0.0407
  148SOL     OW 2056   7.454   6.124   9.013  0.0989  0.5716 -0.2951
  148SOL    HW1 2057   7.486   6.105   8.925 -0.1733 -0.9642 -0.0885
  148SOL    HW2 2058   7.360   6.138   9.002  0.1226  0.7453 -0.2877
  149SOL     OW 2059   1.010   9.754   8.355 -0.0372  0.1769  0.1466
  149SOL    HW1 2060   0.925   9.753   8.399 -0.8197  1.6237 -1.2574
  149SOL    HW2 2061   1.070   9.789   8.420 -0.6641 -0.0433  0.8665
  150SOL     OW 2062   9.354   1.522   4.309 -0.5385  0.4630 -0.3221
  150SOL    HW1 2063   9.423   1.579   4.273  0.9400 -0.5672  0.7888
  150SOL    HW2 2064   9.315   1.482   4.232 -0.2770  1.4810 -1.0152
  151SOL     OW 2065   0.891   4.411   5.101 -0.4972  0.4099 -0.0600
  151SOL    HW1 2066   0.826   4.417   5.032 -0.8168  1.6604  0.3212
  151SOL    HW2 2067   0.954   4.480   5.082  1.1720 -1.2348 -0.8331
  152SOL     OW 2068   1.417   6.433   4.352  0.1089 -0.0567 -0.1474
  152SOL    HW1 2069   1.498   6.481   4.342 -0.5251  1.0193 -0.2925
  152SOL    HW2 2070   1.387   6.417   4.262 -0.5085  0.7417 -0.0934
  153SOL     OW 2071   1.103   9.540   7.140 -0.4422 -0.0335  0.2619
  153SOL    HW1 2072   1.031   9.498   7.093  0.6646 -0.1165 -1.4465
  153SOL    HW2 2073   1.132   9.610   7.081  2.1945 -1.2930 -0.0711
  154SOL     OW 2074   1.681   2.620   8.695  0.1297 -0.3550 -0.4175
  154SOL    HW1 2075   1.607   2.561   8.682 -0.3418  0.3548 -1.0210
  154SOL    HW2 2076   1.712   2.639   8.606  0.0878  0.5338 -0.2438
  155SOL     OW 2077   0.513   7.169   7.577 -0.3195  0.2739 -0.2941
  155SOL    HW1 2078   0.513   7.189   7.483  2.9415 -1.1809 -0.7520
  155SOL    HW2 2079   0.492   7.252   7.619 -2.2817  0.8699 -2.2842
  156SOL     OW 2080   7.627   8.412   7.539 -0.0018  0.1709  0.0181
  156SOL    HW1 2081   7.639   8.507   7.532 -1.4863  0.4752  1.0342
  156SOL    HW2 2082   7.712   8.379   7.567  0.4562  1.2516 -0.0379
  157SOL     OW 2083   8.937   7.974   4.154 -0.0511  0.1509 -0.3723
  157SOL    HW1 2084   8.894   8.019   4.227  0.7259 -0.6574  0.6179
  157SOL    HW2 2085   8.872   7.911   4.123  0.1547 -0.6305  0.7081
  158SOL     OW 2086   7.084   4.118   3.312 -0.8647 -0.7449 -0.2871
  158SOL    HW1 2087   7.045   4.205   3.323 -0.2699 -0.4267 -0.6543
  158SOL    HW2 2088   7.167   4.122   3.358 -0.7383 -1.0528 -0.4837
  159SOL     OW 2089   0.774   1.517   0.331  0.1468 -0.1284  0.8137
  159SOL    HW1 2090   0.849   1.483   0.283  0.1367 -2.4445  2.2675
  159SOL    HW2 2091   0.698   1.483   0.284  0.0972 -0.4774  1.1367
  160SOL     OW 2092   8.066   8.054   6.519  0.0608 -0.3017 -0.4429
  160SOL    HW1 2093   8.060   7.976   6.575  1.4822 -0.8131 -0.9339
  160SOL    HW2 2094   8.044   8.127   6.577  1.3690 -0.8229  0.7895
  161SOL     OW 2095   7.447   9.520   1.054  0.1701  0.3058  0.6584
  161SOL    HW1 2096   7.355   9.496   1.066  0.5984 -1.3361  0.8212
  161SOL    HW2 2097   7.496   9.448   1.092  1.5392  1.1234  0.4980
  162SOL     OW 2098   5.337   4.617   7.657 -0.2937 -0.2740 -0.0936
  162SOL    HW1 2099   5.312   4.639   7.747  0.5952 -2.6821  0.8067
  162SOL    HW2 2100   5.401   4.684   7.633 -1.3197  1.0241  0.6405
  163SOL     OW 2101   3.714   8.933   2.300  0.0992  0.2652 -0.2888
  163SOL    HW1 2102   3.766   8.853   2.292 -0.7874 -0.1848 -1.8521
  163SOL    HW2 2103   3.778   9.001   2.320  0.9999 -0.6263 -0.0413
  164SOL     OW 2104   3.288   4.108   7.778 -0.4567  0.2717  0.2663
  164SOL    HW1 2105   3.332   4.061   7.850  0.6076  0.2413 -0.3751
  164SOL    HW2 2106   3.211   4.147   7.818 -0.7300 -1.0523  1.0802
  165SOL     OW 2107   1.969   4.951   1.754 -0.0462  0.0025  0.9723
  165SOL    HW1 2108   2.025   4.907   1.818 -0.0709 -2.2935 -0.4685
  165SOL    HW2 2109   1.883   4.953   1.794 -0.1659 -1.8510  0.8903
  166SOL     OW 2110   4.769   3.061   5.456  0.2349 -0.0110  0.1491
  166SOL    HW1 2111   4.762   3.012   5.374 -1.1444 -0.9442  0.7749
  166SOL    HW2 2112   4.817   3.003   5.515  1.5930  0.8278 -0.0826
  167SOL     OW 2113   5.205   6.852   6.457  0.0136  0.5547 -0.1600
  167SOL    HW1 2114   5.294   6.840   6.424 -0.4461 -1.8425 -0.6711
  167SOL    HW2 2115   5.217   6.873   6.549  1.1028 -0.0061 -0.1540
  168SOL     OW 2116   3.718   6.988   4.473 -0.4562  0.5630  0.4642
  168SOL    HW1 2117   3.629   7.008   4.500 -0.2539  2.7146 -0.2446
  168SOL    HW2 2118   3.719   7.006   4.379  0.0817 -2.0483 -0.1187
  169SOL     OW 2119   9.040   1.522   1.191  0.4192  0.2346  0.2017
  169SOL    HW1 2120   9.104   1.581   1.152 -0.4581  2.0661  1.4178
  169SOL    HW2 2121   8.968   1.519   1.128  0.9166 -0.4167 -0.3486
  170SOL     OW 2122   2.528   7.186   1.691 -0.1033 -0.1219 -0.3532
  170SOL    HW1 2123   2.604   7.135   1.714 -0.5841 -0.9697 -0.6107
  170SOL    HW2 2124   2.461   7.161   1.755 -1.0958 -1.6605 -1.9000
  171SOL     OW 2125   1.658   6.248   5.446  0.4983 -0.4930  0.5976
  171SOL    HW1 2126   1.683   6.202   5.366 -0.4040 -1.9689  1.1194
  171SOL    HW2 2127   1.630   6.334   5.417 -1.5324 -1.5932 -0.9303
  172SOL     OW 2128   4.072   4.661   2.410  0.3531 -0.2137  0.1202
  172SOL    HW1 2129   4.032   4.665   2.323 -0.1230 -0.4775  0.3212
  172SOL    HW2 2130   4.084   4.752   2.436  1.1887 -0.1287 -0.5287
  173SOL     OW 2131   8.631   7.197   8.631  0.4502 -0.0947  0.6746
  173SOL    HW1 2132   8.663   7.256   8.562 -1.3379  0.0957 -0.0601
  173SOL    HW2 2133   8.658   7.110   8.602 -0.8599 -0.0982 -0.7002
  174SOL     OW 2134   8.119   7.763   0.682 -0.2549  0.7830  0.3343
  174SOL    HW1 2135   8.161   7.704   0.744  1.0414 -0.3254 -1.4932
  174SOL    HW2 2136   8.159   7.848   0.698  1.2021  0.1851  0.0414
  175SOL     OW 2137   7.718   5.713   0.431  0.3048  0.2436 -0.2580
  175SOL    HW1 2138   7.665   5.675   0.501  0.4007 -1.4267 -1.0490
  175SOL    HW2 2139   7.676   5.683   0.350  1.7802 -0.1791 -0.9017
  176SOL     OW 2140   6.758   8.889   3.651 -0.0427 -0.2486  0.3986
  176SOL    HW1 2141   6.738   8.927   3.737 -1.3919  0.9195 -0.3830
  176SOL    HW2 2142   6.776   8.964   3.595  1.8490 -1.0409 -0.1559
  177SOL     OW 2143   6.132   0.684   7.235  0.2813 -0.1056 -0.0716
  177SOL    HW1 2144   6.220   0.702   7.268 -0.1553  0.8257  0.6471
  177SOL    HW2 2145   6.133   0.591   7.214  1.5681 -0.0191 -0.4908
  178SOL     OW 2146   9.300   3.414   5.636  0.8340 -0.0487 -0.2914
  178SOL    HW1 2147   9.350   3.370   5.704  0.8142  1.2354  0.5841
  178SOL    HW2 2148   9.303   3.354   5.561  3.0788 -0.3330 -0.0509
  179SOL     OW 2149   3.834   0.096   7.464 -0.2321 -0.3372 -0.5490
  179SOL    HW1 2150   3.828   0.052   7.548 -0.6317 -0.9372 -0.8793
  179SOL    HW2 2151   3.923   0.079   7.433 -0.9775 -2.7173 -1.6073
  180SOL     OW 2152   2.933   5.266   5.236 -0.7588  0.4269  0.2662
  180SOL    HW1 2153   2.892   5.334   5.183 -1.2850  0.1632  0.3243
  180SOL    HW2 2154   3.020   5.255   5.198 -0.9953  0.5015 -0.3095
  181SOL     OW 2155   1.643   9.777   1.334  0.1881  0.4530  0.0153
  181SOL    HW1 2156   1.725   9.823   1.318  0.0209  0.4307 -0.9855
  181SOL    HW2 2157   1.666   9.704   1.391  0.7057  0.9558  0.4515
  182SOL     OW 2158   4.378   9.007   7.541 -0.3664  0.1640 -0.4680
  182SOL    HW1 2159   4.296   9.041   7.504  0.3849  0.9235 -1.5245
  182SOL    HW2 2160   4.428   9.085   7.563  0.3025 -0.2833 -0.3794
  183SOL     OW 2161   8.232   2.634   7.962 -0.3847 -0.3899  0.7340
  183SOL    HW1 2162   8.221   2.718   7.917  0.0023  0.6310  2.4580
  183SOL    HW2 2163   8.182   2.572   7.910  1.0399  0.4387 -1.8015
  184SOL     OW 2164   9.826   4.700   2.286 -0.0990 -0.0384 -0.2227
  184SOL    HW1 2165   9.895   4.708   2.221  0.8606 -0.4607  0.7068
  184SOL    HW2 2166   9.789   4.788   2.293 -0.1166  0.0428 -1.2102
  185SOL     OW 2167   6.889   3.954   5.970  0.5538  0.3817  0.0485
  185SOL    HW1 2168   6.856   3.925   6.055  0.4323  0.4140  0.0128
  185SOL    HW2 2169   6.855   3.890   5.908 -0.0683  0.8369 -0.0862
  186SOL     OW 2170   2.725   0.766   0.700  0.4037 -0.1290  0.3038
  186SOL    HW1 2171   2.753   0.692   0.754  1.2030 -1.3419 -1.6481
  186SOL    HW2 2172   2.630   0.769   0.711  0.3047 -1.7598  0.1196
  187SOL     OW 2173   3.792   5.032   8.343  0.1412 -0.2763  0.1343
  187SOL    HW1 2174   3.705   5.022   8.383  0.1982  0.8810  0.5880
  187SOL    HW2 2175   3.823   4.943   8.330 -2.0294 -0.8281 -2.1049
  188SOL     OW 2176   8.524   7.528   2.961 -0.1167 -0.3428 -0.0004
  188SOL    HW1 2177   8.614   7.494   2.960 -0.2247 -0.7049 -1.8662
  188SOL    HW2 2178   8.534   7.621   2.982  0.8591 -0.1064 -1.3244
  189SOL     OW 2179   4.232   8.579   5.493 -0.1131  0.1705 -0.3667
  189SOL    HW1 2180   4.219   8.674   5.491  0.5873  0.3011  0.5143
  189SOL    HW2 2181   4.217   8.551   5.403 -0.1721  1.1387 -0.6772
  190SOL     OW 2182   9.216   9.558   9.828 -0.7082  0.8022  0.2135
  190SOL    HW1 2183   9.232   9.463   9.825 -2.0985  0.5145  0.7089
  190SOL    HW2 2184   9.173   9.578   9.745 -1.8317  0.6750  0.7398
  191SOL     OW 2185   6.491   5.645   7.013 -0.2544  0.5105 -0.1174
  191SOL    HW1 2186   6.406   5.653   6.970 -0.5155 -0.1003  0.2732
  191SOL    HW2 2187   6.476   5.677   7.102 -0.6748 -1.6591  0.6654
  192SOL     OW 2188   2.529   7.342   6.292  0.1838  0.0108  0.0813
  192SOL    HW1 2189   2.477   7.336   6.372  0.5248  0.9781  0.3768
  192SOL    HW2 2190   2.616   7.368   6.321  0.2804  0.4802 -0.6152
  193SOL     OW 2191   1.951   0.957   1.732 -0.7068 -0.2614 -0.3178
  193SOL    HW1 2192   1.866   0.923   1.704 -0.9164 -1.0225  1.1169
  193SOL    HW2 2193   2.000   0.971   1.651 -1.8200 -0.8391 -1.1112
  194SOL     OW 2194   6.978   8.830   3.901 -0.3515 -0.0475  0.1481
  194SOL    HW1 2195   6.902   8.774   3.889  0.2223 -0.7609 -0.2462
  194SOL    HW2 2196   7.031   8.786   3.968 -0.9097  1.1286  1.4048
  195SOL     OW 2197   8.162   6.227   0.866 -0.0836 -0.0696 -0.1124
  195SOL    HW1 2198   8.087   6.234   0.808 -0.8833 -2.4480  0.5452
  195SOL    HW2 2199   8.134   6.272   0.946 -0.5675 -0.3988 -0.0943
  196SOL     OW 2200   3.282   7.176   4.806 -1.0711 -0.0875 -0.5940
  196SOL    HW1 2201   3.217   7.199   4.740 -2.7286  1.6052  1.4891
  196SOL    HW2 2202   3.356   7.235   4.788 -2.4277  2.0227  0.3350
  197SOL     OW 2203   1.074   6.957   9.106 -0.3241  0.1225 -0.2616
  197SOL    HW1 2204   1.065   6.919   9.193 -0.8645 -1.1970 -0.8698
  197SOL    HW2 2205   1.119   7.040   9.121  0.8707 -0.7222  1.1164
  198SOL     OW 2206   7.799   2.097   8.515 -0.1848 -0.7420 -0.2072
  198SOL    HW1 2207   7.712   2.059   8.523  0.0437 -1.1559  0.3919
  198SOL    HW2 2208   7.855   2.042   8.570  0.3777 -0.2383 -0.2560
  199SOL     OW 2209   1.056   0.634   5.434  0.2615  0.5051  0.2561
  199SOL    HW1 2210   1.076   0.726   5.453 -0.7548  0.7927  0.0070
  199SOL    HW2 2211   1.098   0.617   5.350 -0.6226  1.1471 -0.3411
  200SOL     OW 2212   7.338   0.538   1.963 -0.5872 -0.0580 -0.2435
  200SOL    HW1 2213   7.334   0.624   1.923 -1.2678  0.8115  1.5599
  200SOL    HW2 2214   7.298   0.479   1.899 -1.0412  1.1326 -1.0881
  201SOL     OW 2215   9.580   8.740   7.821  0.1114 -0.3589 -0.3045
  201SOL    HW1 2216   9.551   8.658   7.860 -0.4370 -0.2398 -0.4519
  201SOL    HW2 2217   9.656   8.716   7.768 -1.2204 -1.1495 -1.9714
  202SOL     OW 2218   2.312   2.790   7.136  0.3942 -0.2947 -0.1668
  202SOL    HW1 2219   2.386   2.757   7.084  0.7827  1.5789 -0.8759
  202SOL    HW2 2220   2.296   2.877   7.101 -1.4547 -0.2375  0.7425
  203SOL     OW 2221   8.875   4.791   4.287 -0.5167 -0.0249  0.5911
  203SOL    HW1 2222   8.788   4.803   4.248  0.6636  3.7163 -1.4890
  203SOL    HW2 2223   8.860   4.796   4.382 -2.6765 -1.0217  0.3553
  204SOL     OW 2224   4.095   8.574   8.183  0.0415 -0.3695 -0.0476
  204SOL    HW1 2225   4.001   8.559   8.188 -0.0060  0.4231  2.0590
  204SOL    HW2 2226   4.105   8.643   8.117 -0.7434 -1.0369 -0.8937
  205SOL     OW 2227   5.195   9.407   9.518  0.4493  0.2269 -0.1615
  205SOL    HW1 2228   5.207   9.491   9.473  1.2112 -0.4909 -1.3350
  205SOL    HW2 2229   5.187   9.343   9.448 -0.4251 -0.6695  0.7177
  206SOL     OW 2230   5.611   7.417   7.308 -0.4485 -0.5348 -0.1274
  206SOL    HW1 2231   5.662   7.473   7.368 -0.5876 -0.1802 -0.3351
  206SOL    HW2 2232   5.557   7.363   7.365 -1.2114  0.3977  0.0544
  207SOL     OW 2233   4.408   7.280   1.144  0.1585  0.3361  0.1263
  207SOL    HW1 2234   4.435   7.257   1.055  2.0336 -0.5404  0.8865
  207SOL    HW2 2235   4.378   7.198   1.182  0.1423  0.5517  0.5852
  208SOL     OW 2236   8.434   8.096   7.323 -0.1576  0.2563 -0.5601
  208SOL    HW1 2237   8.525   8.069   7.309  0.4666  2.2487 -0.7925
  208SOL    HW2 2238   8.390   8.078   7.240  0.2923  0.2016 -0.7905
  209SOL     OW 2239   4.877   8.337   6.853  0.8567  0.8905  0.6298
  209SOL    HW1 2240   4.928   8.257   6.861  0.4752  0.7830  2.3510
  209SOL    HW2 2241   4.818   8.320   6.779  1.8232  0.2060 -0.0074
  210SOL     OW 2242   7.142   3.379   8.394  0.1793  0.2741  0.1122
  210SOL    HW1 2243   7.147   3.466   8.435 -0.1626  0.2658  0.1721
  210SOL    HW2 2244   7.132   3.398   8.301 -0.9759  0.3147  0.2339
  211SOL     OW 2245   3.497   3.223   0.900  0.6317  0.6161 -0.0100
  211SOL    HW1 2246   3.417   3.210   0.951 -0.6050  2.4750 -1.3657
  211SOL    HW2 2247   3.500   3.317   0.882  0.9320  0.0994 -3.3622
  212SOL     OW 2248   3.352   2.223   7.209  0.3921 -0.1098 -0.3507
  212SOL    HW1 2249   3.428   2.210   7.152  0.2556 -0.3735 -0.4755
  212SOL    HW2 2250   3.381   2.192   7.295  0.2792 -0.6388 -0.5014
  213SOL     OW 2251   5.744   3.209   0.948 -0.3176  0.0972 -0.1413
  213SOL    HW1 2252   5.825   3.252   0.920 -0.0896 -0.6532 -0.6818
  213SOL    HW2 2253   5.757   3.192   1.041  0.2710 -0.2505 -0.2782
  214SOL     OW 2254   7.175   3.836   5.260  0.0892 -0.2423 -0.1937
  214SOL    HW1 2255   7.203   3.841   5.168  1.2433 -0.8153  0.1040
  214SOL    HW2 2256   7.132   3.751   5.266 -0.6585  0.1197 -0.3725
  215SOL     OW 2257   6.193   7.792   0.578 -0.0969  0.0900  0.0415
  215SOL    HW1 2258   6.189   7.883   0.547 -2.1999 -0.4245 -1.3962
  215SOL    HW2 2259   6.280   7.762   0.551  0.3808  1.4523 -0.0394
  216SOL     OW 2260   8.550   6.069   7.445  0.0940  0.3321 -0.1429
  216SOL    HW1 2261   8.527   6.120   7.523 -0.4526 -0.1281  0.0048
  216SOL    HW2 2262   8.475   6.078   7.387  0.9202  1.5255 -1.0823
  217SOL     OW 2263   2.619   6.602   5.685 -0.3282  0.1510  0.1523
  217SOL    HW1 2264   2.546   6.663   5.670  0.0035  0.6607  0.5825
  217SOL    HW2 2265   2.605   6.570   5.774  0.7858  1.3835  0.7957
  218SOL     OW 2266   1.079   9.063   8.975 -0.3448  0.1078 -0.4678
  218SOL    HW1 2267   1.081   9.006   8.898  0.7064  0.2710 -0.5725
  218SOL    HW2 2268   1.121   9.011   9.044  1.8471  1.2128 -0.9044
  219SOL     OW 2269   8.985   1.379   0.370 -0.1966 -0.3918 -0.0571
  219SOL    HW1 2270   8.980   1.474   0.360 -2.2661 -0.4616 -0.0992
  219SOL    HW2 2271   8.975   1.345   0.281 -0.8207 -0.6684  0.1162
  220SOL     OW 2272   6.276   9.666   8.162 -0.5287  0.1927  0.0911
  220SOL    HW1 2273   6.229   9.695   8.241  1.7234  1.7673  0.9758
  220SOL    HW2 2274   6.339   9.736   8.145  0.2071 -0.9135 -2.1497
  221SOL     OW 2275   7.490   2.484   5.860 -0.2653  0.2394  0.1066
  221SOL    HW1 2276   7.434   2.433   5.919 -1.1475  1.5409  0.4373
  221SOL    HW2 2277   7.492   2.572   5.899  0.5219  0.6840 -0.8967
  222SOL     OW 2278   7.005   2.615   0.412  0.3030 -0.3264 -0.1923
  222SOL    HW1 2279   7.037   2.619   0.322 -0.4186  1.0234 -0.4288
  222SOL    HW2 2280   7.062   2.553   0.456  1.1010 -0.4855 -1.4124
  223SOL     OW 2281   5.624   0.532   7.504 -0.4046  0.1124 -0.0054
  223SOL    HW1 2282   5.630   0.564   7.595 -3.0834  1.2889 -0.1365
  223SOL    HW2 2283   5.692   0.465   7.498 -0.1223 -0.0228  2.8864
  224SOL     OW 2284   6.593   7.396   4.933  0.4418 -0.1041 -0.0312
  224SOL    HW1 2285   6.556   7.383   4.846 -0.2742 -0.1202  0.2661
  224SOL    HW2 2286   6.527   7.360   4.993  0.2830  1.1705  0.5971
  225SOL     OW 2287   7.772   4.013   8.228  0.4576 -0.2386  0.7114
  225SOL    HW1 2288   7.829   4.023   8.152 -1.1746 -0.9115 -0.6377
  225SOL    HW2 2289   7.813   4.069   8.295  0.9326  1.8340 -1.1970
  226SOL     OW 2290   6.670   1.558   6.802 -0.8497  0.0236 -0.0496
  226SOL    HW1 2291   6.684   1.463   6.802 -0.1737  0.1257 -0.3147
  226SOL    HW2 2292   6.593   1.571   6.747  0.5937 -0.1478 -2.1873
  227SOL     OW 2293   0.209   9.460   2.031 -0.1011 -0.2463 -0.4910
  227SOL    HW1 2294   0.256   9.458   1.948  0.8273  0.5534 -0.0039
  227SOL    HW2 2295   0.272   9.496   2.094 -0.7399 -0.9400  0.5901
  228SOL     OW 2296   6.518   4.552   0.493  0.0025  0.9290 -0.1715
  228SOL    HW1 2297   6.590   4.603   0.530  1.2675 -0.8432 -0.0260
  228SOL    HW2 2298   6.467   4.524   0.570 -0.0768  1.0928 -0.1639
  229SOL     OW 2299   1.729   2.315   2.587  0.4526 -0.4974  0.3677
  229SOL    HW1 2300   1.734   2.341   2.495  0.9509  0.7951  0.7405
  229SOL    HW2 2301   1.766   2.389   2.635  0.5010 -1.2913  1.5938
  230SOL     OW 2302   5.787   8.305   3.831 -0.8240  0.3928  0.2152
  230SOL    HW1 2303   5.747   8.392   3.830 -1.9823 -0.1118 -1.2147
  230SOL    HW2 2304   5.881   8.322   3.834 -0.9356  1.7727 -1.8493
  231SOL     OW 2305   8.258   6.306   6.856  0.0020 -0.3158 -0.0819
  231SOL    HW1 2306   8.214   6.305   6.771 -0.0766 -1.8768 -0.0631
  231SOL    HW2 2307   8.217   6.234   6.904  1.7767 -1.0833  0.3509
  232SOL     OW 2308   8.846   7.714   9.270  0.4176 -0.6657 -0.1327
  232SOL    HW1 2309   8.882   7.636   9.228  1.4373 -0.3117  0.0578
  232SOL    HW2 2310   8.752   7.710   9.252  0.6506 -1.2119 -1.2992
  233SOL     OW 2311   5.219   0.427   1.055 -0.0740 -0.4692 -0.4830
  233SOL    HW1 2312   5.213   0.504   0.998  1.1157 -0.1340 -0.1913
  233SOL    HW2 2313   5.303   0.387   1.032  2.9499  2.3079  4.0651
  234SOL     OW 2314   2.591   4.391   5.268  0.0638  0.6358 -0.6420
  234SOL    HW1 2315   2.529   4.360   5.334 -0.7888  1.8402 -0.8591
  234SOL    HW2 2316   2.552   4.367   5.185  1.4345 -1.4483 -0.7755
  235SOL     OW 2317   7.061   3.277   2.031 -0.6161  0.3164  0.1874
  235SOL    HW1 2318   6.989   3.236   2.079  0.5004  0.7643  2.3567
  235SOL    HW2 2319   7.100   3.205   1.982 -0.6283 -0.6134  1.4778
  236SOL     OW 2320   4.202   9.256   1.418  0.1545  0.1083  0.2100
  236SOL    HW1 2321   4.193   9.306   1.337  1.2536  1.3484  0.8180
  236SOL    HW2 2322   4.293   9.268   1.444 -0.0178 -0.7847  1.3076
  237SOL     OW 2323   2.355   5.305   5.833 -0.7086  0.2608 -0.3359
  237SOL    HW1 2324   2.277   5.354   5.859 -0.7045  0.2379 -0.2798
  237SOL    HW2 2325   2.332   5.214   5.848 -0.9314  0.2004 -1.0087
  238SOL     OW 2326   4.817   9.792   1.141  0.1219 -0.4500  0.3072
  238SOL    HW1 2327   4.845   9.825   1.056 -0.3950  0.4834  0.4822
  238SOL    HW2 2328   4.898   9.774   1.189  0.4834  2.0101  0.7494
  239SOL     OW 2329   8.636   2.784   5.590 -0.2422 -0.1655 -0.2329
  239SOL    HW1 2330   8.682   2.775   5.507  0.4035 -1.6362  0.2468
  239SOL    HW2 2331   8.674   2.862   5.630 -0.4375  0.4538 -1.2269
  240SOL     OW 2332   5.842   5.406   1.149  0.1209  0.0946 -0.3311
  240SOL    HW1 2333   5.821   5.316   1.177 -0.6897  0.4888  0.3942
  240SOL    HW2 2334   5.756   5.448   1.140  0.5370  1.1696  0.6071
  241SOL     OW 2335   3.883   5.392   3.448 -0.2948 -0.1560 -0.0061
  241SOL    HW1 2336   3.918   5.425   3.531  1.0998 -0.7879 -0.3239
  241SOL    HW2 2337   3.788   5.396   3.460 -0.1554  1.6611  0.8556
  242SOL     OW 2338   6.332   0.725   5.645 -0.7021 -0.0770 -0.2601
  242SOL    HW1 2339   6.367   0.791   5.586 -1.3863  0.1209 -0.4480
  242SOL    HW2 2340   6.349   0.760   5.733  0.8536 -0.6459 -0.3016
  243SOL     OW 2341   0.618   2.541   5.204  0.0384 -0.5275 -0.5297
  243SOL    HW1 2342   0.701   2.504   5.174  0.6726 -2.3177  2.8553
  243SOL    HW2 2343   0.567   2.465   5.231 -2.4665  0.5940 -1.8568
  244SOL     OW 2344   1.593   4.047   3.194  0.3031 -0.1185 -0.3417
  244SOL    HW1 2345   1.626   4.034   3.105 -0.7918  0.9274 -0.9224
  244SOL    HW2 2346   1.518   3.988   3.200  0.3974 -0.2124 -0.0860
  245SOL     OW 2347   0.465   3.730   8.565 -0.8160 -0.1248 -0.0786
  245SOL    HW1 2348   0.526   3.797   8.598  0.0705 -0.8577 -0.1787
  245SOL    HW2 2349   0.522   3.663   8.529 -1.6102 -1.8918  1.7852
  246SOL     OW 2350   4.821   5.725   2.463  0.5825 -0.3171 -0.4377
  246SOL    HW1 2351   4.814   5.701   2.371 -1.0411  0.7995 -0.6456
  246SOL    HW2 2352   4.780   5.653   2.510 -0.7603  0.1911 -0.7829
  247SOL     OW 2353   7.283   2.506   2.312 -0.1513 -0.3391  0.5302
  247SOL    HW1 2354   7.340   2.430   2.325  0.3835 -0.7021 -2.9038
  247SOL    HW2 2355   7.337   2.581   2.335  0.4325 -0.8678  0.9005
  248SOL     OW 2356   4.492   4.045   7.803  0.2023 -0.6332  0.0860
  248SOL    HW1 2357   4.409   4.083   7.831 -0.0805 -0.0762 -1.4139
  248SOL    HW2 2358   4.552   4.120   7.799  0.3838 -0.7933 -0.2252
  249SOL     OW 2359   7.260   1.182   3.208  0.0549  0.0692 -0.0641
  249SOL    HW1 2360   7.270   1.095   3.168  1.8826 -0.1339  0.7227
  249SOL    HW2 2361   7.253   1.242   3.135  1.6638 -0.4716 -0.7232
  250SOL     OW 2362   6.488   3.075   8.655 -0.1344 -0.0618  0.2566
  250SOL    HW1 2363   6.513   3.058   8.564 -0.9357 -1.1667  0.2223
  250SOL    HW2 2364   6.397   3.106   8.649  0.1747  0.9336  0.6058
  251SOL     OW 2365   3.233   1.913   6.288 -0.1822  0.1238  0.1114
  251SOL    HW1 2366   3.319   1.871   6.286 -0.3671 -0.2757  0.4738
  251SOL    HW2 2367   3.171   1.841   6.272 -0.5039  0.2431  0.7864
  252SOL     OW 2368   5.265   5.383   3.063  0.6665  0.6478  0.1853
  252SOL    HW1 2369   5.239   5.402   3.153  0.5616  0.3712  0.2153
  252SOL    HW2 2370   5.358   5.359   3.070 -0.1604 -2.9567  0.7770
  253SOL     OW 2371   5.772   1.925   0.905 -0.0644  0.5259  0.2568
  253SOL    HW1 2372   5.693   1.957   0.949 -0.2647 -0.1412  0.4044
  253SOL    HW2 2373   5.803   1.999   0.854 -1.2991  0.5464 -0.5142
  254SOL     OW 2374   6.382   7.476   1.378 -0.0463 -0.1429  0.2655
  254SOL    HW1 2375   6.368   7.489   1.284 -0.1906  0.1162  0.3216
  254SOL    HW2 2376   6.377   7.381   1.390 -2.8168 -0.0744  0.4315
  255SOL     OW 2377   4.663   8.835   5.837  0.0854 -0.0757 -0.4196
  255SOL    HW1 2378   4.603   8.777   5.790 -1.1793  0.4625  0.4680
  255SOL    HW2 2379   4.629   8.837   5.927  2.9487 -1.8239  0.8445
  256SOL     OW 2380   6.002   6.481   3.023 -0.2697  0.0728 -0.1912
  256SOL    HW1 2381   6.001   6.449   3.113  1.8887  1.0068  0.2164
  256SOL    HW2 2382   5.917   6.524   3.012 -0.2107  0.7669  1.7322
  257SOL     OW 2383   4.066   5.914   6.102 -0.6597  0.8517 -0.4916
  257SOL    HW1 2384   4.028   5.978   6.042 -2.7723  0.5405  0.4196
  257SOL    HW2 2385   4.131   5.964   6.152 -1.5469  2.0474 -0.4886
  258SOL     OW 2386   2.062   6.732   1.211  0.1589 -0.1882 -0.8924
  258SOL    HW1 2387   2.023   6.807   1.257 -0.6236 -1.6805  0.9771
  258SOL    HW2 2388   2.156   6.740   1.228  0.1220  0.5499 -1.0049
  259SOL     OW 2389   9.112   4.562   3.859 -0.2378  0.5234 -0.1863
  259SOL    HW1 2390   9.123   4.490   3.922 -1.7145  0.2321 -0.2250
  259SOL    HW2 2391   9.170   4.631   3.891  0.7215 -0.4361  0.2195
  260SOL     OW 2392   8.091   5.771   9.716  0.9613  0.0225 -0.5536
  260SOL    HW1 2393   8.117   5.823   9.641 -1.6103 -0.5009 -1.9327
  260SOL    HW2 2394   8.163   5.710   9.730  1.6199  0.3168 -2.4288
  261SOL     OW 2395   3.986   4.864   5.898 -0.5398 -0.7078  0.7055
  261SOL    HW1 2396   4.054   4.928   5.917 -0.9656 -0.6599  2.1710
  261SOL    HW2 2397   4.021   4.781   5.931 -0.0889 -1.2386 -0.9709
  262SOL     OW 2398   6.745   7.733   2.765  0.2168  0.0762  0.2820
  262SOL    HW1 2399   6.720   7.804   2.706  1.5400  0.2069 -0.1716
  262SOL    HW2 2400   6.687   7.741   2.840 -0.8314  0.5319 -0.5619
  263SOL     OW 2401   4.766   5.484   8.968 -0.3926 -0.8496 -0.6232
  263SOL    HW1 2402   4.688   5.462   9.018 -0.2305 -2.8548 -1.1421
  263SOL    HW2 2403   4.801   5.562   9.010 -1.2650 -1.4010  1.2234
  264SOL     OW 2404   2.139   3.402   7.484  0.0076  0.2148 -0.2028
  264SOL    HW1 2405   2.220   3.452   7.476 -0.5339  1.1893  0.2799
  264SOL    HW2 2406   2.072   3.457   7.443 -0.9777  0.8751  2.1350
  265SOL     OW 2407   8.714   0.846   0.393  0.0605 -0.0569  0.1350
  265SOL    HW1 2408   8.779   0.881   0.332 -0.4805 -0.8779 -0.9420
  265SOL    HW2 2409   8.764   0.790   0.452  0.5150  0.3329  0.1252
  266SOL     OW 2410   2.573   1.461   8.139 -0.1900  0.1096  0.2461
  266SOL    HW1 2411   2.526   1.404   8.199  0.0687 -0.0696  0.2834
  266SOL    HW2 2412   2.664   1.432   8.145 -0.3592 -0.7974 -1.2387
  267SOL     OW 2413   6.303   7.739   4.014  0.1783 -0.0053 -0.0643
  267SOL    HW1 2414   6.290   7.791   4.093  0.3777 -0.1451  0.0611
  267SOL    HW2 2415   6.218   7.740   3.970  0.0691  0.0758  0.1501
  268SOL     OW 2416   3.283   0.766   6.315  0.3215  0.0508 -0.4598
  268SOL    HW1 2417   3.309   0.710   6.242 -2.6304 -1.2018 -0.6969
  268SOL    HW2 2418   3.260   0.705   6.385 -1.0267  1.0278 -0.0057
  269SOL     OW 2419   6.902   8.199   0.272  0.1585  0.2951 -0.1263
  269SOL    HW1 2420   6.876   8.170   0.185 -0.8588 -3.3553  1.2411
  269SOL    HW2 2421   6.991   8.167   0.283 -0.3137 -0.7588  0.7546
  270SOL     OW 2422   8.274   9.051   6.506  0.0915 -0.3373 -0.4654
  270SOL    HW1 2423   8.191   9.017   6.539 -0.0327 -0.4991 -0.9423
  270SOL    HW2 2424   8.321   9.081   6.584 -0.7549  0.4980 -0.2634
  271SOL     OW 2425   2.695   1.524   7.511 -0.7183  0.5457  0.1206
  271SOL    HW1 2426   2.601   1.542   7.521 -1.0380 -1.0070  0.1887
  271SOL    HW2 2427   2.728   1.597   7.459 -1.9804  1.0734  0.0156
  272SOL     OW 2428   0.004   6.505   9.118 -0.8358  0.2577  0.0728
  272SOL    HW1 2429   0.098   6.523   9.122 -0.4654 -1.3736 -0.3793
  272SOL    HW2 2430  -0.032   6.547   9.196  0.1544  1.4436 -0.0776
  273SOL     OW 2431   7.298   4.784   5.320 -0.2601 -0.4617  0.5070
  273SOL    HW1 2432   7.356   4.847   5.277 -1.2462 -0.0443 -0.2782
  273SOL    HW2 2433   7.347   4.753   5.395  1.5117 -1.1598 -0.8809
  274SOL     OW 2434   6.007   0.887   0.555 -0.0493  0.1415 -0.5218
  274SOL    HW1 2435   5.937   0.941   0.519 -0.5861 -1.0706 -1.3519
  274SOL    HW2 2436   6.074   0.950   0.583  0.8463  1.2411 -4.4791
  275SOL     OW 2437   7.361   7.750   9.779 -0.3854 -0.4677 -0.3821
  275SOL    HW1 2438   7.313   7.686   9.831  0.2734 -1.2077 -0.6601
  275SOL    HW2 2439   7.295   7.789   9.722 -1.1650  0.5204  1.1216
  276SOL     OW 2440   0.802   8.963   7.480  0.4896 -0.0553 -0.6040
  276SOL    HW1 2441   0.793   9.041   7.425  1.2877  0.3389 -0.1921
  276SOL    HW2 2442   0.833   8.996   7.564  1.3079 -0.8661 -0.5685
  277SOL     OW 2443   2.856   6.442   7.244 -0.3876 -0.9600  0.7762
  277SOL    HW1 2444   2.807   6.516   7.206 -0.3000 -1.7171 -0.9327
  277SOL    HW2 2445   2.853   6.457   7.338 -1.0140  0.8200  0.5187
  278SOL     OW 2446   8.284   1.774   3.888  0.1881 -0.1500  0.4643
  278SOL    HW1 2447   8.296   1.684   3.858 -1.9784 -0.4345  0.2744
  278SOL    HW2 2448   8.203   1.771   3.940 -0.3640  1.8270 -0.1985
  279SOL     OW 2449   8.162   4.718   5.301 -0.0810  0.3132  0.5203
  279SOL    HW1 2450   8.197   4.660   5.234 -1.3860  0.6611 -0.5068
  279SOL    HW2 2451   8.194   4.681   5.384 -0.8607 -1.9020 -0.0895
  280SOL     OW 2452   9.236   6.462   8.000 -0.1997 -0.3772 -0.2328
  280SOL    HW1 2453   9.176   6.389   7.985 -0.0569 -1.1214  2.3829
  280SOL    HW2 2454   9.312   6.422   8.042  0.6607  1.0278 -0.4002
  281SOL     OW 2455   8.692   7.961   5.787 -0.4892 -0.2803 -0.3339
  281SOL    HW1 2456   8.598   7.964   5.772 -0.4319 -0.1714 -0.6897
  281SOL    HW2 2457   8.714   8.047   5.821 -0.4549 -0.1628 -0.6492
  282SOL     OW 2458   9.498   2.735   6.319  0.2652  0.1107 -0.7484
  282SOL    HW1 2459   9.519   2.724   6.412 -0.4957  0.0001 -0.5743
  282SOL    HW2 2460   9.470   2.826   6.311 -0.1582 -0.0155 -0.7580
  283SOL     OW 2461   9.621   5.320   2.646 -0.2151 -0.1876  0.6136
  283SOL    HW1 2462   9.624   5.373   2.567 -0.4006 -1.3085 -0.1784
  283SOL    HW2 2463   9.657   5.235   2.619  1.0385 -0.1833  2.0899
  284SOL     OW 2464   5.528   5.309   4.886  0.5681 -0.0701  0.0123
  284SOL    HW1 2465   5.450   5.322   4.833 -0.4664  0.8054  1.6633
  284SOL    HW2 2466   5.533   5.387   4.941  1.6524 -0.8613  1.0970
  285SOL     OW 2467   2.995   6.943   4.211 -0.7212 -0.4960  0.2382
  285SOL    HW1 2468   3.023   6.855   4.189 -2.0693 -1.1987  1.1953
  285SOL    HW2 2469   2.903   6.934   4.237 -1.3652  1.4128 -1.0879
  286SOL     OW 2470   4.817   9.210   8.738 -0.0727 -0.3049 -0.0287
  286SOL    HW1 2471   4.740   9.158   8.760 -0.5603  0.0933 -0.7317
  286SOL    HW2 2472   4.847   9.175   8.655  0.8202 -0.7861  0.4818
  287SOL     OW 2473   3.125   7.820   7.394 -0.3129 -0.3185  0.5635
  287SOL    HW1 2474   3.144   7.911   7.369 -1.3584 -0.4856 -1.0435
  287SOL    HW2 2475   3.200   7.771   7.361 -1.1219 -0.3737 -1.3418
  288SOL     OW 2476   7.306   9.664   1.295 -0.5840 -0.0407 -0.2192
  288SOL    HW1 2477   7.382   9.701   1.342 -2.2503  1.8180  1.2009
  288SOL    HW2 2478   7.327   9.677   1.202  2.3042 -2.7929 -0.1200
  289SOL     OW 2479   6.222   5.511   9.241 -0.6323 -0.2220 -0.9966
  289SOL    HW1 2480   6.199   5.432   9.192 -1.3080 -1.0125  0.5159
  289SOL    HW2 2481   6.249   5.478   9.327 -0.9957  1.1994 -0.3189
  290SOL     OW 2482   4.761   3.094   4.467 -0.4312  0.4017 -0.3593
  290SOL    HW1 2483   4.684   3.131   4.510 -2.0607 -0.7941 -2.0562
  290SOL    HW2 2484   4.788   3.022   4.523 -1.9164 -0.5165 -0.7416
  291SOL     OW 2485   0.193   8.510   8.232 -0.4614  0.7921  0.0681
  291SOL    HW1 2486   0.233   8.424   8.241 -0.2113  0.7649 -1.1166
  291SOL    HW2 2487   0.266   8.572   8.241 -0.6467  0.8935  0.9563
  292SOL     OW 2488   2.264   0.374   2.355  0.1933 -0.2599 -0.5061
  292SOL    HW1 2489   2.262   0.359   2.450 -0.7593 -0.1813 -0.5095
  292SOL    HW2 2490   2.179   0.343   2.324  0.4164 -0.0807 -1.3044
  293SOL     OW 2491   7.923   4.135   2.514 -0.4496 -0.2029 -0.0223
  293SOL    HW1 2492   7.982   4.128   2.439  0.8437 -1.6686  1.0791
  293SOL    HW2 2493   7.962   4.204   2.569 -0.6551 -0.0618 -0.0515
  294SOL     OW 2494   0.555   0.036   1.468  0.1831  0.1813  0.0112
  294SOL    HW1 2495   0.547   0.046   1.373 -1.1032 -1.2277 -0.0609
  294SOL    HW2 2496   0.613  -0.040   1.479 -0.5834 -0.3766  0.3071
  295SOL     OW 2497   7.270   2.886   1.780  0.5074 -0.0116  0.1975
  295SOL    HW1 2498   7.176   2.874   1.770  0.4745  0.8541 -0.7491
  295SOL    HW2 2499   7.282   2.907   1.872 -0.0406 -1.6101  0.6556
  296SOL     OW 2500   9.775   4.733   3.669 -0.0752  0.2696 -0.3160
  296SOL    HW1 2501   9.683   4.747   3.646  0.3829  1.3610 -1.6184
  296SOL    HW2 2502   9.789   4.788   3.746 -0.1806  1.2203 -0.9568
  297SOL     OW 2503   0.521   5.483   9.403 -0.3059  0.0813  0.4623
  297SOL    HW1 2504   0.518   5.525   9.489 -0.0151  0.7070  0.1708
  297SOL    HW2 2505   0.432   5.450   9.389  0.2505 -2.4576  2.1792
  298SOL     OW 2506   2.022   9.682   1.367  0.2815  0.0227  0.0869
  298SOL    HW1 2507   2.056   9.647   1.286 -0.7728  1.1397 -0.8855
  298SOL    HW2 2508   1.965   9.754   1.340  0.1338  0.6132  1.8290
  299SOL     OW 2509   4.324   4.831   4.830 -0.3378 -0.2177 -0.7032
  299SOL    HW1 2510   4.267   4.788   4.767 -1.6409 -1.7139  1.3668
  299SOL    HW2 2511   4.266   4.892   4.877 -0.3042 -1.6222  1.2999
  300SOL     OW 2512   8.371   2.139   6.567 -0.0628  0.2540 -0.0612
  300SOL    HW1 2513   8.318   2.115   6.492  0.4281 -0.4077 -0.1978
  300SOL    HW2 2514   8.390   2.232   6.554 -0.7145  0.3587 -0.2957
  301SOL     OW 2515   4.327   5.976   4.873 -0.1955 -0.1288  0.5967
  301SOL    HW1 2516   4.260   5.952   4.809  0.0577 -3.1595  1.3359
  301SOL    HW2 2517   4.408   5.938   4.839  0.6129  1.0713  1.1183
  302SOL     OW 2518   1.594   4.996   3.433  0.8321  0.1544 -0.3928
  302SOL    HW1 2519   1.628   5.064   3.491 -2.0780  3.3225 -1.9655
  302SOL    HW2 2520   1.510   4.971   3.472  0.6716 -0.5690 -1.1736
  303SOL     OW 2521   3.188   0.391   8.992 -0.1208  0.4142  0.0788
  303SOL    HW1 2522   3.258   0.334   8.961 -0.1237 -0.4704  1.6108
  303SOL    HW2 2523   3.225   0.479   8.987  0.0681  0.2643 -1.8289
  304SOL     OW 2524   3.825   8.765   5.871 -0.0370 -0.5395  0.2293
  304SOL    HW1 2525   3.886   8.775   5.944 -1.4867  0.8369  1.3242
  304SOL    HW2 2526   3.811   8.855   5.840 -3.0722 -0.5081  1.3990
  305SOL     OW 2527   4.970   8.892   0.936  0.3403  0.6100 -0.1458
  305SOL    HW1 2528   5.015   8.976   0.932  1.7201 -0.1443 -1.7777
  305SOL    HW2 2529   5.017   8.842   1.003  1.1147  0.2843 -0.9236
  306SOL     OW 2530   4.396   0.347   4.827  0.3405 -0.2616  0.0357
  306SOL    HW1 2531   4.402   0.339   4.922 -1.7533 -1.5481  0.1061
  306SOL    HW2 2532   4.449   0.424   4.806  0.6008  0.2182  2.2680
  307SOL     OW 2533   1.794   5.375   5.072  0.0213  0.2885 -0.3692
  307SOL    HW1 2534   1.842   5.448   5.034  0.5491 -0.3553 -0.9588
  307SOL    HW2 2535   1.792   5.394   5.166 -1.0786  1.7631 -0.6597
  308SOL     OW 2536   1.055   7.362   7.539  0.4577  0.2432  0.1425
  308SOL    HW1 2537   1.148   7.378   7.556  0.7097  0.1058 -0.9686
  308SOL    HW2 2538   1.033   7.422   7.467 -0.4282  0.5682  0.6660
  309SOL     OW 2539   8.263   4.779   0.363 -0.0297  0.7566 -0.4705
  309SOL    HW1 2540   8.326   4.828   0.415  0.7454 -1.1788  0.4819
  309SOL    HW2 2541   8.274   4.813   0.274  1.5844  1.2075 -0.1292
  310SOL     OW 2542   9.765   5.941   9.246 -0.1305  0.2687  0.2401
  310SOL    HW1 2543   9.685   5.918   9.200  0.3749 -0.4318 -0.3078
  310SOL    HW2 2544   9.828   5.874   9.220  0.3841  0.2978  1.3617
  311SOL     OW 2545   5.141   3.020   0.353 -0.1125  0.2456 -1.1971
  311SOL    HW1 2546   5.089   3.051   0.279 -0.6366 -1.3480 -1.5374
  311SOL    HW2 2547   5.084   2.959   0.399 -0.7938  3.1142  2.1494
  312SOL     OW 2548   4.417   7.821   8.503 -0.8680  0.4195  0.3703
  312SOL    HW1 2549   4.476   7.764   8.551  0.5571  1.4612 -0.0554
  312SOL    HW2 2550   4.348   7.764   8.471 -0.4764 -0.7177  1.4819
  313SOL     OW 2551   9.126   3.256   3.189 -0.6820 -0.2103 -0.8171
  313SOL    HW1 2552   9.101   3.338   3.146 -0.7253  0.1218 -0.1664
  313SOL    HW2 2553   9.216   3.240   3.161 -0.4046  0.4730 -0.3315
  314SOL     OW 2554   4.517   9.778   4.953 -0.2523 -0.1102 -0.1281
  314SOL    HW1 2555   4.536   9.862   4.996  0.1301 -0.1474 -0.2284
  314SOL    HW2 2556   4.421   9.773   4.952 -0.2895  0.6230 -0.7073
  315SOL     OW 2557   4.430   1.554   9.705 -0.2654  0.3739  0.0340
  315SOL    HW1 2558   4.486   1.480   9.680 -0.3056  0.4083 -0.1588
  315SOL    HW2 2559   4.341   1.517   9.703 -0.2924  0.4487 -0.1408
  316SOL     OW 2560   5.998   7.291   6.776  0.3804  0.3217  0.3405
  316SOL    HW1 2561   6.000   7.386   6.771 -1.2865  0.3210 -2.1958
  316SOL    HW2 2562   5.912   7.270   6.812  0.0526 -0.2094 -0.7149
  317SOL     OW 2563   7.458   5.096   3.073 -0.1223 -0.6492 -0.5195
  317SOL    HW1 2564   7.497   5.032   3.133 -1.4744 -0.7085  0.3384
  317SOL    HW2 2565   7.509   5.176   3.088  0.2446 -0.9576 -0.0743
  318SOL     OW 2566   6.325   7.900   8.183  0.0341 -0.2587 -0.2259
  318SOL    HW1 2567   6.246   7.940   8.146  0.8271  1.4251 -0.2102
  318SOL    HW2 2568   6.332   7.937   8.271  1.2049  0.2087 -0.4857
  319SOL     OW 2569   8.040   7.360   3.067 -0.2661 -0.0380  0.2930
  319SOL    HW1 2570   8.049   7.381   3.160  0.4686  0.9034  0.0257
  319SOL    HW2 2571   8.128   7.371   3.031 -0.8530  1.3086 -0.8335
  320SOL     OW 2572   7.132   6.958   9.259 -0.5717 -0.6712  0.0286
  320SOL    HW1 2573   7.161   6.965   9.350  1.2118 -2.4174 -0.3360
  320SOL    HW2 2574   7.038   6.975   9.262 -0.6238 -1.1236  2.2680
  321SOL     OW 2575   2.098   6.167   6.774  0.1447 -0.2244  0.1528
  321SOL    HW1 2576   2.163   6.105   6.741 -0.0766 -0.1401 -0.4447
  321SOL    HW2 2577   2.015   6.121   6.765  0.0325 -0.0221  0.1614
  322SOL     OW 2578   7.757   2.336   3.070 -0.2277  0.7654  0.2303
  322SOL    HW1 2579   7.842   2.296   3.087 -0.4889 -0.0202 -0.2614
  322SOL    HW2 2580   7.748   2.335   2.975 -0.8585  0.6838  0.2867
  323SOL     OW 2581   7.685   7.329   7.408  0.2103 -0.1261  0.0717
  323SOL    HW1 2582   7.650   7.402   7.356  0.8369  1.2243  1.4520
  323SOL    HW2 2583   7.629   7.255   7.386  0.1043  0.5112 -2.0882
  324SOL     OW 2584   7.640   8.217   4.902  0.4894 -0.3576 -0.0558
  324SOL    HW1 2585   7.653   8.127   4.931  1.3825  0.2294  1.4650
  324SOL    HW2 2586   7.705   8.267   4.951  0.1300  1.0951 -1.0198
  325SOL     OW 2587   5.638   2.386   1.239  0.2932 -0.4231  0.2412
  325SOL    HW1 2588   5.668   2.370   1.328 -0.2363  1.8648  0.8937
  325SOL    HW2 2589   5.710   2.433   1.196  0.4625 -1.3227 -0.5028
  326SOL     OW 2590   7.693   1.088   5.244 -0.3463  0.4602 -0.1697
  326SOL    HW1 2591   7.603   1.103   5.213 -0.2871 -2.1268 -1.9262
  326SOL    HW2 2592   7.683   1.043   5.328 -0.9779 -3.4303 -2.1104
  327SOL     OW 2593   8.176   3.890   8.191  0.1023 -0.0750 -0.1262
  327SOL    HW1 2594   8.127   3.936   8.123 -0.8617  0.4841  0.8964
  327SOL    HW2 2595   8.249   3.948   8.212 -1.0128  0.9697  1.0380
  328SOL     OW 2596   7.208   2.535   2.676 -0.3920 -0.1048 -0.1009
  328SOL    HW1 2597   7.165   2.530   2.591  0.7653  0.7401 -0.7693
  328SOL    HW2 2598   7.224   2.444   2.700 -1.1669 -0.3707 -0.5458
  329SOL     OW 2599   0.854   4.993   6.628  0.5034 -0.1289  0.3607
  329SOL    HW1 2600   0.922   5.028   6.685  0.1326  0.1386  0.6493
  329SOL    HW2 2601   0.899   4.929   6.573  1.1087  0.4942  0.1140
  330SOL     OW 2602   3.693   5.295   9.775  0.6115 -0.1747  0.0390
  330SOL    HW1 2603   3.766   5.274   9.834  1.2232 -0.0456 -0.6566
  330SOL    HW2 2604   3.686   5.218   9.718 -0.9480 -0.9510  1.2078
  331SOL     OW 2605   3.249   7.104   5.684  0.4915 -0.3501  0.7242
  331SOL    HW1 2606   3.261   7.009   5.680  0.6184 -0.3187  0.3437
  331SOL    HW2 2607   3.325   7.140   5.640 -0.5310 -0.1226 -0.9507
  332SOL     OW 2608   9.631   1.901   0.006  0.1003 -0.1748 -0.1051
  332SOL    HW1 2609   9.582   1.826   0.040 -0.9361  0.6515  0.2905
  332SOL    HW2 2610   9.706   1.910   0.064  1.9244 -2.6876 -1.8841
  333SOL     OW 2611   6.034   3.667   8.884  0.0208 -0.1139 -0.0693
  333SOL    HW1 2612   6.017   3.601   8.951 -0.3874 -1.0883 -1.0974
  333SOL    HW2 2613   5.962   3.729   8.893  0.4975  0.3066  1.0158
  334SOL     OW 2614   2.013   6.189   4.877  0.2567  0.5471  0.3042
  334SOL    HW1 2615   2.101   6.155   4.862  0.4765  0.7639  1.0712
  334SOL    HW2 2616   1.955   6.116   4.854  0.6877 -0.0061  0.9223
  335SOL     OW 2617   3.602   8.804   0.996  0.1853 -0.3002  0.3914
  335SOL    HW1 2618   3.652   8.803   1.078  1.1973  0.6138 -0.1842
  335SOL    HW2 2619   3.648   8.743   0.939 -0.5718 -1.0065  0.5228
  336SOL     OW 2620   9.027   2.335   6.929  0.3306  0.1414 -0.8411
  336SOL    HW1 2621   9.085   2.313   7.002 -0.4805  0.3757 -0.1121
  336SOL    HW2 2622   9.005   2.250   6.890  1.6685  0.0945 -1.5365
  337SOL     OW 2623   6.585   5.713   0.177 -0.0260 -0.3086  0.1873
  337SOL    HW1 2624   6.561   5.709   0.269  0.0319 -0.0815  0.2128
  337SOL    HW2 2625   6.553   5.631   0.140 -0.1909 -0.3291  0.3759
  338SOL     OW 2626   3.839   1.070   2.583  0.3861  0.0974 -0.0294
  338SOL    HW1 2627   3.862   1.158   2.614  1.3063 -0.8314  2.1642
  338SOL    HW2 2628   3.917   1.017   2.601 -0.8009 -1.5601  0.4938
  339SOL     OW 2629   2.490   5.487   8.714 -0.3457 -0.2701 -0.4889
  339SOL    HW1 2630   2.542   5.484   8.794  0.0729  2.4869 -0.5487
  339SOL    HW2 2631   2.554   5.490   8.643 -0.6049  0.4961 -0.7095
  340SOL     OW 2632   7.746   7.047   8.995 -0.4283  0.5429 -0.1604
  340SOL    HW1 2633   7.677   7.100   9.035 -0.0073 -0.7255  2.4597
  340SOL    HW2 2634   7.709   6.958   8.991 -0.2626  0.5173 -2.2571
  341SOL     OW 2635   7.663   2.488   8.227 -0.3489 -0.7934 -0.0675
  341SOL    HW1 2636   7.743   2.526   8.262 -0.1195 -1.9481  0.7076
  341SOL    HW2 2637   7.683   2.469   8.136  0.0435 -0.5007 -0.0437
  342SOL     OW 2638   6.533   0.005   3.244 -0.4098  0.1672  0.6385
  342SOL    HW1 2639   6.519  -0.088   3.257  1.9404 -0.1042  1.7778
  342SOL    HW2 2640   6.569   0.011   3.155 -2.4595  0.2791 -0.2332
  343SOL     OW 2641   7.985   7.075   4.498  0.2637 -0.5350 -0.4404
  343SOL    HW1 2642   8.006   7.101   4.587 -0.4654  0.9430 -0.6797
  343SOL    HW2 2643   8.002   7.153   4.445  0.6046 -1.3592 -1.5998
  344SOL     OW 2644   6.964   5.908   1.661 -0.3719  0.6568 -0.3153
  344SOL    HW1 2645   7.008   5.836   1.705  0.8143  1.1107 -0.7037
  344SOL    HW2 2646   6.871   5.892   1.674 -0.1146 -0.7484 -0.1048
  345SOL     OW 2647   8.046   9.621   7.789 -0.1606 -0.2369  0.3438
  345SOL    HW1 2648   7.955   9.618   7.821 -0.5247 -0.4292 -0.6618
  345SOL    HW2 2649   8.099   9.633   7.868 -1.2638  3.7521  0.6887
  346SOL     OW 2650   2.410   7.919   5.403  0.4465  0.2135  0.0441
  346SOL    HW1 2651   2.504   7.901   5.402  0.7316  1.5967 -1.0051
  346SOL    HW2 2652   2.397   7.987   5.336 -1.2708  0.1988  0.2987
  347SOL     OW 2653   5.953   6.726   7.640  0.3997 -0.1780 -0.7003
  347SOL    HW1 2654   5.988   6.740   7.552  1.2089 -3.3025 -0.9800
  347SOL    HW2 2655   6.029   6.738   7.698  0.0088  1.2413 -0.4473
  348SOL     OW 2656   1.864   4.403   5.185  0.3217 -0.3431 -0.4277
  348SOL    HW1 2657   1.888   4.353   5.107  1.4080 -1.0173  0.3214
  348SOL    HW2 2658   1.938   4.393   5.245  0.6914  2.3182 -0.2911
  349SOL     OW 2659   2.911   1.894   2.279  0.0469  0.2222  0.3354
  349SOL    HW1 2660   2.944   1.958   2.216 -2.7643  0.7159 -0.7861
  349SOL    HW2 2661   2.871   1.825   2.225  0.1245 -0.8407  1.5724
  350SOL     OW 2662   3.035   5.466   7.182  0.9553  0.7879 -0.5537
  350SOL    HW1 2663   3.028   5.489   7.089 -1.2544  1.5836 -0.2475
  350SOL    HW2 2664   2.982   5.386   7.190  1.1205  0.7374  0.0278
  351SOL     OW 2665   6.327   8.046   3.986  0.1084 -0.5994  0.0023
  351SOL    HW1 2666   6.387   8.112   4.021 -0.9689  0.9600 -0.9873
  351SOL    HW2 2667   6.339   7.970   4.044  0.6307  0.7963  1.8290
  352SOL     OW 2668   4.987   5.254   2.366  0.0477 -0.1609 -0.2292
  352SOL    HW1 2669   5.037   5.322   2.411 -1.1279  0.1263  0.6900
  352SOL    HW2 2670   4.916   5.300   2.322 -2.4949 -0.9049  2.7241
  353SOL     OW 2671   5.057   3.756   5.569  0.0760  0.2342 -0.3421
  353SOL    HW1 2672   4.979   3.723   5.523  0.3285 -1.4883  0.3672
  353SOL    HW2 2673   5.029   3.761   5.661  0.4813  0.7100 -0.2399
  354SOL     OW 2674   8.791   9.022   0.667 -0.3169  0.3932  0.5187
  354SOL    HW1 2675   8.696   9.017   0.675 -0.2207 -1.2284  1.2105
  354SOL    HW2 2676   8.823   9.003   0.756  0.6523 -2.8120 -0.3563
  355SOL     OW 2677   3.241   2.883   4.417 -0.2708  0.9183  0.3828
  355SOL    HW1 2678   3.198   2.892   4.332 -1.2443  3.0760  1.0297
  355SOL    HW2 2679   3.306   2.953   4.418  1.0045 -0.2272  0.7421
  356SOL     OW 2680   1.288   3.631   6.826 -0.2982  0.0062 -0.0730
  356SOL    HW1 2681   1.229   3.576   6.876 -2.4129  0.1928 -2.1915
  356SOL    HW2 2682   1.347   3.670   6.892 -1.5098 -1.4007  1.9348
  357SOL     OW 2683   6.137   1.542   9.842  0.7076  0.3698  0.2785
  357SOL    HW1 2684   6.152   1.613   9.904  0.5654  0.7077 -0.0711
  357SOL    HW2 2685   6.146   1.582   9.756  1.2763 -0.1744  0.0730
  358SOL     OW 2686   3.143   2.804   4.643  0.0362  0.3358 -0.2010
  358SOL    HW1 2687   3.162   2.715   4.672 -3.4000 -1.3571 -2.4999
  358SOL    HW2 2688   3.197   2.815   4.564  0.0437  0.0723 -0.2333
  359SOL     OW 2689   1.938   0.892   3.403  0.2134 -0.1140 -0.1748
  359SOL    HW1 2690   1.974   0.881   3.315  1.1021 -0.3746  0.2153
  359SOL    HW2 2691   1.855   0.937   3.389  0.8737  0.8732 -1.0613
  360SOL     OW 2692   1.721   5.955   3.085 -0.6667 -0.0772 -0.1527
  360SOL    HW1 2693   1.733   5.862   3.067  0.0137  0.2679 -1.5723
  360SOL    HW2 2694   1.810   5.988   3.099 -0.7213  0.7330 -1.6291
  361SOL     OW 2695   5.845   7.533   4.878  0.2029 -0.1874 -0.4131
  361SOL    HW1 2696   5.802   7.609   4.840  1.3150  0.4601 -0.4106
  361SOL    HW2 2697   5.783   7.500   4.944 -0.8600 -0.1134 -1.3555
  362SOL     OW 2698   6.016   9.726   2.255 -0.0534 -0.0143 -0.1946
  362SOL    HW1 2699   5.955   9.664   2.214  0.0533 -1.1804  1.3106
  362SOL    HW2 2700   6.069   9.759   2.182 -1.8633  0.3548 -1.4084
  363SOL     OW 2701   8.750   4.970   6.973 -0.3214  0.2642 -0.2510
  363SOL    HW1 2702   8.788   4.976   7.060 -0.1238 -0.1268 -0.3073
  363SOL    HW2 2703   8.777   4.884   6.941 -1.2747 -0.0254 -0.2832
  364SOL     OW 2704   6.834   0.597   2.652 -0.4908  0.2117  0.0894
  364SOL    HW1 2705   6.807   0.684   2.619 -3.1031 -0.0500  1.2489
  364SOL    HW2 2706   6.927   0.607   2.672 -1.1213  3.5135  2.3083
  365SOL     OW 2707   8.408   8.036   9.822 -0.1910 -0.3377 -0.0501
  365SOL    HW1 2708   8.367   7.993   9.748  0.0960 -0.1534 -0.3162
  365SOL    HW2 2709   8.344   8.102   9.850 -0.2459 -0.3219 -0.2111
  366SOL     OW 2710   1.888   5.869   5.276 -0.3747  0.3965 -0.5650
  366SOL    HW1 2711   1.880   5.773   5.271  0.3084  0.3880 -1.7022
  366SOL    HW2 2712   1.982   5.885   5.283 -0.5460  0.9618  0.6680
  367SOL     OW 2713   3.377   5.460   4.455 -0.0530  0.5955 -0.0178
  367SOL    HW1 2714   3.459   5.413   4.469 -0.0459  0.6956  0.2870
  367SOL    HW2 2715   3.394   5.548   4.489  0.1969  1.0728 -1.3031
  368SOL     OW 2716   2.010   8.298   7.246 -0.0184  0.0095 -0.1648
  368SOL    HW1 2717   2.025   8.230   7.312 -0.0980 -0.5680 -0.7307
  368SOL    HW2 2718   2.001   8.250   7.164  1.6206  0.8136 -0.8464
  369SOL     OW 2719   2.667   7.601   4.183  0.1516 -0.2312 -0.1448
  369SOL    HW1 2720   2.635   7.517   4.216  0.5394  0.5494  2.4914
  369SOL    HW2 2721   2.599   7.664   4.208  0.3698  0.4044 -1.1037
  370SOL     OW 2722   3.371   9.079   2.564 -0.2370  0.2050  0.3393
  370SOL    HW1 2723   3.424   9.034   2.630 -0.7058  0.5645  0.9770
  370SOL    HW2 2724   3.396   9.039   2.481  1.4678  0.7672  0.5460
  371SOL     OW 2725   5.763   9.523   6.906  0.3637 -0.7586  0.2372
  371SOL    HW1 2726   5.835   9.505   6.967 -0.6297 -2.0491  1.0874
  371SOL    HW2 2727   5.686   9.489   6.950 -0.8556  0.8978 -0.5054
  372SOL     OW 2728   4.657   1.659   7.002  0.0792  0.5455  1.0236
  372SOL    HW1 2729   4.571   1.632   7.034 -0.5869  0.9842 -0.3318
  372SOL    HW2 2730   4.708   1.676   7.082 -1.0040  0.0547  1.8497
  373SOL     OW 2731   5.500   3.686   7.926  0.0527 -0.3979 -0.0621
  373SOL    HW1 2732   5.575   3.740   7.951  0.5145 -1.4022  0.7525
  373SOL    HW2 2733   5.447   3.679   8.005 -0.5162 -0.3506 -0.4252
  374SOL     OW 2734   5.118   6.069   6.651  0.0848 -0.2619 -0.4956
  374SOL    HW1 2735   5.117   6.164   6.636 -1.8572 -0.0140  0.9179
  374SOL    HW2 2736   5.119   6.060   6.746 -1.0406 -1.6611 -0.5968
  375SOL     OW 2737   8.901   1.803   6.096 -0.0911  0.3399 -0.7194
  375SOL    HW1 2738   8.889   1.766   6.184 -0.6568  1.0902 -0.4721
  375SOL    HW2 2739   8.831   1.763   6.044  0.2271 -0.0837 -0.8296
  376SOL     OW 2740   9.571   8.099   8.086 -0.2090  0.1424  0.1204
  376SOL    HW1 2741   9.565   8.142   8.001  0.9991 -1.4967 -0.8380
  376SOL    HW2 2742   9.510   8.026   8.080  0.3409 -0.3466  0.4340
  377SOL     OW 2743   3.553   7.113   6.348 -0.2558 -0.4878 -0.2601
  377SOL    HW1 2744   3.500   7.034   6.343 -1.6706  0.4379 -0.4339
  377SOL    HW2 2745   3.614   7.106   6.274  0.5607 -2.0328  0.5261
  378SOL     OW 2746   3.167   3.078   2.170 -0.2198 -0.5533 -0.3570
  378SOL    HW1 2747   3.223   3.004   2.143 -0.5030 -0.5617 -0.9418
  378SOL    HW2 2748   3.100   3.038   2.225  0.3910 -0.5299  0.4339
  379SOL     OW 2749   5.880   3.987   1.994  0.2786  0.8198 -0.2413
  379SOL    HW1 2750   5.924   4.047   2.055 -1.1012  0.7837  0.8380
  379SOL    HW2 2751   5.788   4.013   1.997 -0.1384 -0.5290 -0.7259
  380SOL     OW 2752   0.162   7.375   1.852 -0.0881  0.3712 -0.2156
  380SOL    HW1 2753   0.255   7.389   1.835 -0.3308  1.7513 -0.5672
  380SOL    HW2 2754   0.143   7.288   1.817  1.2114 -0.2355  0.5205
  381SOL     OW 2755   3.642   9.697   0.552  0.3816 -0.1779 -0.0019
  381SOL    HW1 2756   3.644   9.789   0.577  0.2603 -0.4281  0.9420
  381SOL    HW2 2757   3.734   9.673   0.540  0.6052 -0.5864  2.2332
  382SOL     OW 2758   7.273   7.446   7.678 -0.8905 -0.6568  0.2762
  382SOL    HW1 2759   7.237   7.362   7.649 -2.5177 -0.4213  1.4483
  382SOL    HW2 2760   7.231   7.462   7.762  0.1057  0.8975  0.5205
  383SOL     OW 2761   6.363   4.486   0.286  0.8584  0.1570 -0.5403
  383SOL    HW1 2762   6.382   4.548   0.216  2.9458 -1.2880 -1.3426
  383SOL    HW2 2763   6.435   4.497   0.348  1.1960 -1.3547 -0.6365
  384SOL     OW 2764   5.448   7.402   4.579 -0.5783 -0.2426  0.1412
  384SOL    HW1 2765   5.445   7.330   4.517 -2.5675  1.7261 -2.2444
  384SOL    HW2 2766   5.541   7.427   4.584 -0.0190 -2.2192  0.2193
  385SOL     OW 2767   6.002   7.744   4.988 -0.5607  0.1396 -0.4686
  385SOL    HW1 2768   5.991   7.700   5.072  0.6398 -2.8873 -1.7262
  385SOL    HW2 2769   5.955   7.688   4.926  1.2152  0.4593 -2.2174
  386SOL     OW 2770   8.994   8.582   5.652 -0.0266 -0.0451 -0.4897
  386SOL    HW1 2771   8.994   8.659   5.595  0.7869 -0.8292 -1.5884
  386SOL    HW2 2772   9.048   8.607   5.727  0.9894  0.1584 -1.2713
  387SOL     OW 2773   1.009   1.204   7.048 -0.4321 -0.4108  0.1326
  387SOL    HW1 2774   1.079   1.217   7.112  1.0222  1.0471 -1.6191
  387SOL    HW2 2775   0.957   1.285   7.054 -0.8806 -0.6990  0.1515
  388SOL     OW 2776   4.672   8.000   5.689  0.2669  0.3104  0.5135
  388SOL    HW1 2777   4.730   8.074   5.706  0.3401  0.4987 -0.5435
  388SOL    HW2 2778   4.731   7.928   5.667  0.1840 -0.0081  1.2909
  389SOL     OW 2779   6.198   1.991   0.887 -0.1229  0.5358  0.4209
  389SOL    HW1 2780   6.271   1.976   0.827 -0.8432 -0.6050 -0.2049
  389SOL    HW2 2781   6.209   2.081   0.916  1.2732  0.5291 -0.0096
  390SOL     OW 2782   5.011   9.632   6.864 -0.2259 -0.2890 -0.1842
  390SOL    HW1 2783   5.072   9.703   6.846 -0.4979 -0.2608 -1.0305
  390SOL    HW2 2784   5.066   9.557   6.884  0.0698 -0.0059  0.0660
  391SOL     OW 2785   9.305   4.622   1.679  0.4657 -0.4408  0.3345
  391SOL    HW1 2786   9.300   4.699   1.735  0.4673 -0.0474 -0.1983
  391SOL    HW2 2787   9.272   4.651   1.594  2.1997 -0.5130 -0.4028
  392SOL     OW 2788   8.882   3.186   5.979 -0.1670 -0.1905  0.3169
  392SOL    HW1 2789   8.884   3.281   5.987  0.3878 -0.0932 -0.7857
  392SOL    HW2 2790   8.900   3.154   6.068 -0.6809  0.7198  0.7630
  393SOL     OW 2791   1.848   6.043   6.720 -0.0115  0.1399 -0.3857
  393SOL    HW1 2792   1.834   5.976   6.787 -0.0050  0.7873  0.2765
  393SOL    HW2 2793   1.822   6.001   6.638  0.8640 -0.9840 -0.1175
  394SOL     OW 2794   7.105   6.666   7.947  0.7064  0.4429  0.2630
  394SOL    HW1 2795   7.163   6.635   8.017 -0.8357  0.0947  1.4368
  394SOL    HW2 2796   7.149   6.640   7.867  1.3377 -1.4417  1.1489
  395SOL     OW 2797   1.009   7.727   8.695 -0.3746  0.0512  0.0908
  395SOL    HW1 2798   1.041   7.679   8.771  0.0058  0.6314  0.2956
  395SOL    HW2 2799   1.069   7.801   8.685 -2.4002  1.9755  1.3217
  396SOL     OW 2800   2.879   9.781   1.657  0.0532 -0.3691 -0.1411
  396SOL    HW1 2801   2.929   9.735   1.589  1.1600 -0.4186  0.6789
  396SOL    HW2 2802   2.871   9.870   1.624 -1.4484 -0.9120 -1.3899
  397SOL     OW 2803   7.997   5.371   3.727  0.0134 -0.1511  0.1750
  397SOL    HW1 2804   8.084   5.395   3.759  0.3453 -1.0537 -0.0148
  397SOL    HW2 2805   7.998   5.393   3.634 -0.2502  0.5936  0.3426
  398SOL     OW 2806   8.238   5.685   9.291  0.1809  0.3364 -0.2213
  398SOL    HW1 2807   8.231   5.600   9.334  1.7106 -0.0498 -0.6991
  398SOL    HW2 2808   8.179   5.678   9.216  0.3145 -0.3132 -0.2733
  399SOL     OW 2809   4.093   4.718   4.419 -0.1461  0.0666 -0.3946
  399SOL    HW1 2810   4.003   4.732   4.391  0.3223  1.2743 -1.4056
  399SOL    HW2 2811   4.132   4.667   4.349  0.1344  0.1529 -0.3038
  400SOL     OW 2812   3.111   4.970   8.214  0.4256  0.6137  0.0583
  400SOL    HW1 2813   3.159   5.024   8.152 -0.1275  1.2876  0.2037
  400SOL    HW2 2814   3.039   4.933   8.163 -1.1564  2.6683  0.6659
  401SOL     OW 2815   3.694   3.671   5.187 -0.1000 -0.1273  0.1107
  401SOL    HW1 2816   3.666   3.762   5.180 -0.1328 -0.0205  1.3160
  401SOL    HW2 2817   3.765   3.672   5.252 -0.2736 -0.9818  0.3333
  402SOL     OW 2818   5.068   7.888   9.719 -0.2595  0.4273  0.6181
  402SOL    HW1 2819   4.991   7.944   9.730  0.6425  1.3959  2.4743
  402SOL    HW2 2820   5.036   7.800   9.734 -1.2058  0.6873  0.2408
  403SOL     OW 2821   6.198   1.218   9.543 -0.0569 -0.0969 -0.8047
  403SOL    HW1 2822   6.182   1.278   9.470 -1.1725 -0.2263 -0.6876
  403SOL    HW2 2823   6.289   1.191   9.532  0.0033  0.4227 -1.7489
  404SOL     OW 2824   8.731   6.907   3.563 -0.5461  0.1774 -0.0734
  404SOL    HW1 2825   8.676   6.890   3.639  0.4137  1.2757  0.9131
  404SOL    HW2 2826   8.723   7.001   3.548  0.6030  0.2665 -0.2432
  405SOL     OW 2827   3.915   1.184   7.395  0.2306  0.2563 -0.1059
  405SOL    HW1 2828   3.845   1.164   7.332  0.9673 -0.7333 -0.6339
  405SOL    HW2 2829   3.880   1.155   7.479  0.1586 -0.6251 -0.4331
  406SOL     OW 2830   7.724   6.945   3.193  0.6268 -0.3109 -0.0431
  406SOL    HW1 2831   7.760   6.890   3.123  0.2080 -0.0436 -0.4744
  406SOL    HW2 2832   7.726   7.034   3.156 -0.2641 -0.2627  0.0058
  407SOL     OW 2833   7.248   6.458   4.408 -0.3116 -0.9032  0.4072
  407SOL    HW1 2834   7.228   6.388   4.345 -0.6929 -1.7424  1.4229
  407SOL    HW2 2835   7.179   6.451   4.474 -0.5959  0.7355  0.3009
  408SOL     OW 2836   7.227   5.317   0.010 -0.0695  0.1921  0.2830
  408SOL    HW1 2837   7.132   5.326   0.014 -0.1444 -0.0726 -0.6366
  408SOL    HW2 2838   7.250   5.342  -0.079  0.7606  0.5355  0.5852
  409SOL     OW 2839   1.213   3.572   5.754 -0.2378 -0.2346  0.4744
  409SOL    HW1 2840   1.150   3.602   5.688 -0.0096  1.0055  0.8052
  409SOL    HW2 2841   1.186   3.614   5.835  0.5176 -0.3695  0.8077
  410SOL     OW 2842   2.309   4.961   5.724 -0.2361  1.0106 -0.1073
  410SOL    HW1 2843   2.254   5.039   5.723 -1.9849 -0.1499 -1.7457
  410SOL    HW2 2844   2.288   4.917   5.806 -0.7262  1.2816 -0.0867
  411SOL     OW 2845   3.454   3.278   5.956 -0.6602 -0.4386 -0.2660
  411SOL    HW1 2846   3.501   3.361   5.956 -1.4552  0.0257 -1.0488
  411SOL    HW2 2847   3.521   3.213   5.974  0.1213  0.2918 -0.4594
  412SOL     OW 2848   4.508   6.104   8.899  1.0462 -0.4121 -0.0905
  412SOL    HW1 2849   4.437   6.043   8.917 -1.2106  2.0463 -0.0662
  412SOL    HW2 2850   4.541   6.078   8.813 -1.4043 -0.3545 -1.1443
  413SOL     OW 2851   8.356   0.764   6.800 -0.3467  0.5415  0.3552
  413SOL    HW1 2852   8.355   0.858   6.818  1.0224  0.3164  1.9339
  413SOL    HW2 2853   8.269   0.734   6.825 -0.5844  1.3004  0.4588
  414SOL     OW 2854   5.860   4.742   7.747  0.0940 -0.5238 -0.0882
  414SOL    HW1 2855   5.783   4.785   7.784  0.9890  0.3459  0.8141
  414SOL    HW2 2856   5.901   4.698   7.822  1.4962  0.6018 -0.1522
  415SOL     OW 2857   5.231   6.650   3.937 -0.4182  0.8018  0.0077
  415SOL    HW1 2858   5.325   6.659   3.954 -0.3631  0.6530 -0.2030
  415SOL    HW2 2859   5.214   6.556   3.950 -0.3420  0.6503 -0.8691
  416SOL     OW 2860   7.028   1.745   0.941  0.1551  0.4699  0.3063
  416SOL    HW1 2861   7.096   1.704   0.995 -0.0344 -1.8397 -1.0468
  416SOL    HW2 2862   6.994   1.673   0.887 -4.0520  1.2703  1.5341
  417SOL     OW 2863   8.329   6.132   8.790  0.0682  0.2751 -0.2344
  417SOL    HW1 2864   8.277   6.102   8.715  2.9108 -0.6430 -1.9775
  417SOL    HW2 2865   8.378   6.054   8.817 -0.5585  0.7007  2.3911
  418SOL     OW 2866   4.227   5.257   1.155 -1.0892  0.0963 -0.4862
  418SOL    HW1 2867   4.150   5.299   1.194 -1.3324  0.2821 -1.1502
  418SOL    HW2 2868   4.201   5.236   1.065 -0.9189 -1.3346 -0.2373
  419SOL     OW 2869   5.490   3.329   6.212 -0.7676  0.0330 -0.3224
  419SOL    HW1 2870   5.527   3.372   6.136  1.0296 -0.3054  0.3166
  419SOL    HW2 2871   5.408   3.291   6.181  0.0750 -0.3743 -2.1615
  420SOL     OW 2872   8.458   0.130   3.236 -0.4665 -0.4587  0.1456
  420SOL    HW1 2873   8.405   0.052   3.222 -1.1068 -0.1018  0.4880
  420SOL    HW2 2874   8.428   0.164   3.320  0.3629 -0.2804  0.3814
  421SOL     OW 2875   7.591   9.460   7.652 -0.0950  0.1230 -0.5174
  421SOL    HW1 2876   7.648   9.384   7.638 -1.0133 -0.7550  0.2907
  421SOL    HW2 2877   7.579   9.464   7.747 -0.6011  0.8691 -0.6035
  422SOL     OW 2878   5.918   5.385   2.092 -0.0686  0.4746 -0.2719
  422SOL    HW1 2879   5.930   5.355   2.002 -0.4008  1.0964 -0.5248
  422SOL    HW2 2880   5.972   5.325   2.144 -2.3332 -1.9545 -0.4895
  423SOL     OW 2881   7.793   5.156   0.904  0.2934  0.0344 -0.3449
  423SOL    HW1 2882   7.808   5.168   0.998  1.4191 -0.4081 -0.4586
  423SOL    HW2 2883   7.727   5.087   0.898  0.0288  0.2436  0.1200
  424SOL     OW 2884   6.376   0.651   4.294  0.6417  0.6208  0.8521
  424SOL    HW1 2885   6.438   0.586   4.327  1.6482  1.5792  0.9149
  424SOL    HW2 2886   6.402   0.665   4.203 -0.9730 -0.6629  0.1286
  425SOL     OW 2887   1.851   4.511   4.449 -0.5463 -0.0918 -0.0413
  425SOL    HW1 2888   1.816   4.433   4.405 -0.9276  0.8162 -1.4101
  425SOL    HW2 2889   1.784   4.578   4.436  0.8575  1.1694 -1.1345
  426SOL     OW 2890   3.461   2.634   1.783 -0.6284 -0.2064 -0.7066
  426SOL    HW1 2891   3.555   2.650   1.780 -0.3859 -1.5156 -0.3768
  426SOL    HW2 2892   3.422   2.722   1.775  0.5738  0.2547 -1.9000
  427SOL     OW 2893   7.736   6.197   8.938 -0.4013  0.1804 -0.7691
  427SOL    HW1 2894   7.699   6.134   8.876  0.3902 -0.1414 -0.9247
  427SOL    HW2 2895   7.708   6.165   9.024 -1.3906  0.5536 -0.9315
  428SOL     OW 2896   2.341   8.986   7.983  0.0961  0.0296  0.3283
  428SOL    HW1 2897   2.320   8.916   7.921  0.4313 -0.3583  0.6509
  428SOL    HW2 2898   2.430   9.011   7.961  0.7687 -1.1408  1.6179
  429SOL     OW 2899   2.162   4.585   8.293  0.6819  0.0997 -0.0810
  429SOL    HW1 2900   2.216   4.544   8.226 -1.8453 -0.4389 -1.9187
  429SOL    HW2 2901   2.173   4.679   8.279  1.3808 -0.0014 -0.2121
  430SOL     OW 2902   2.297   0.693   9.428 -0.4481  0.4064 -0.3410
  430SOL    HW1 2903   2.224   0.636   9.403  0.4642 -2.1493  2.2247
  430SOL    HW2 2904   2.375   0.641   9.409  0.5647  1.7881 -0.0859
  431SOL     OW 2905   2.271   5.833   5.167  0.1392 -0.4305  0.9072
  431SOL    HW1 2906   2.295   5.751   5.210  0.5491 -0.7383  0.1128
  431SOL    HW2 2907   2.303   5.823   5.078 -0.8739  0.1138  0.4678
  432SOL     OW 2908   6.182   7.052   6.959  0.0786 -1.0652  0.5202
  432SOL    HW1 2909   6.117   6.988   6.988  0.1629 -1.7961 -0.8401
  432SOL    HW2 2910   6.205   7.025   6.870  0.8781  0.2653  0.2917
  433SOL     OW 2911   2.168   6.115   6.476 -0.2462  0.1406  0.0644
  433SOL    HW1 2912   2.258   6.100   6.504 -0.6987  0.8171  2.0104
  433SOL    HW2 2913   2.120   6.036   6.502 -0.4124  0.1923 -0.0774
  434SOL     OW 2914   5.890   0.577   4.134  0.6641 -0.1771 -0.0978
  434SOL    HW1 2915   5.836   0.507   4.098  0.3208 -0.1716  0.3930
  434SOL    HW2 2916   5.916   0.546   4.221 -0.0269  0.5561  0.3886
  435SOL     OW 2917   4.441   1.329   2.029 -0.1209  0.0272  0.1436
  435SOL    HW1 2918   4.506   1.277   2.076 -0.0488  0.0986  0.1231
  435SOL    HW2 2919   4.382   1.361   2.097 -0.1928 -0.1197  0.1517
  436SOL     OW 2920   2.732   1.048   5.081  0.1823 -0.5330  0.1350
  436SOL    HW1 2921   2.807   1.099   5.110 -0.5347  0.4483  0.2942
  436SOL    HW2 2922   2.764   0.957   5.079  0.3538 -0.7088  3.8985
  437SOL     OW 2923   9.282   6.673   1.290 -0.2745  0.3005  0.3501
  437SOL    HW1 2924   9.282   6.763   1.257  1.6604  0.5651  0.9702
  437SOL    HW2 2925   9.277   6.683   1.385 -0.8169 -0.2945  0.3894
  438SOL     OW 2926   9.419   6.101   6.887  0.5146  0.0480  0.0510
  438SOL    HW1 2927   9.472   6.180   6.877 -0.2342  0.5248 -0.2265
  438SOL    HW2 2928   9.333   6.133   6.911 -0.0787 -0.6203 -1.1036
  439SOL     OW 2929   5.050   7.425   2.706  0.2649 -0.2767 -0.0461
  439SOL    HW1 2930   5.121   7.463   2.656  0.3908 -0.9096 -0.3559
  439SOL    HW2 2931   5.070   7.332   2.711 -0.2929 -0.3906  0.2745
  440SOL     OW 2932   1.631   1.547   3.178 -0.1454 -0.7152 -0.2143
  440SOL    HW1 2933   1.585   1.465   3.198 -0.1926 -0.4659  0.7091
  440SOL    HW2 2934   1.675   1.571   3.259  1.6788 -0.9593 -1.0797
  441SOL     OW 2935   0.056   9.733   9.094  0.2478  0.0379 -0.3062
  441SOL    HW1 2936   0.149   9.749   9.082  0.8796 -0.6707  2.7640
  441SOL    HW2 2937   0.021   9.816   9.125  0.1350 -0.0595 -0.1699
  442SOL     OW 2938   4.859   4.043   0.187 -0.3026 -0.5735  0.4948
  442SOL    HW1 2939   4.908   4.096   0.124 -0.9343  1.4761  1.6064
  442SOL    HW2 2940   4.768   4.053   0.160 -0.3878 -1.6534  0.3559
  443SOL     OW 2941   2.607   3.022   8.397 -0.4383  0.4505  0.3139
  443SOL    HW1 2942   2.557   2.940   8.398 -1.2507  0.9375  0.6824
  443SOL    HW2 2943   2.698   2.994   8.386 -0.8308 -0.4231 -0.9739
  444SOL     OW 2944   9.593   5.236   3.836  0.1949 -0.5109 -0.2876
  444SOL    HW1 2945   9.525   5.220   3.770  0.4129 -0.6260 -0.4862
  444SOL    HW2 2946   9.546   5.238   3.919  0.0388 -1.2655 -0.3495
  445SOL     OW 2947   3.932   7.385   4.254  0.2055 -0.0071  0.5284
  445SOL    HW1 2948   3.840   7.364   4.235  0.8333 -3.9450  0.9535
  445SOL    HW2 2949   3.976   7.377   4.169  0.4222  0.0716  0.6324
  446SOL     OW 2950   1.751   7.017   8.825 -0.0110 -0.4781  0.0526
  446SOL    HW1 2951   1.693   7.015   8.749 -0.6018  4.3500  0.0644
  446SOL    HW2 2952   1.839   7.016   8.788 -0.2883  1.0193 -0.7472
  447SOL     OW 2953   0.483   2.239   3.183  0.6244  0.0386 -0.0998
  447SOL    HW1 2954   0.482   2.218   3.090 -0.8809  0.7427 -0.2660
  447SOL    HW2 2955   0.434   2.321   3.190 -0.2719 -0.5734  1.4404
  448SOL     OW 2956   8.271   8.016   3.947  0.4648  0.5615 -0.1959
  448SOL    HW1 2957   8.364   8.007   3.926  0.1454  0.1372 -1.5279
  448SOL    HW2 2958   8.267   8.089   4.009  1.8838 -0.6360  1.4067
  449SOL     OW 2959   0.906   9.599   8.926 -0.7437  0.9081  0.4876
  449SOL    HW1 2960   0.950   9.528   8.973 -3.0426 -0.1048  1.3054
  449SOL    HW2 2961   0.922   9.677   8.979 -1.7279  0.1341  1.9940
  450SOL     OW 2962   0.873   1.085   5.266 -0.3081  0.1623 -0.0336
  450SOL    HW1 2963   0.811   1.057   5.334 -2.7814  0.4949 -1.9736
  450SOL    HW2 2964   0.930   1.009   5.253 -1.5638 -0.9197  0.5195
  451SOL     OW 2965   6.712   6.569   9.524  0.7239  0.2065 -0.0456
  451SOL    HW1 2966   6.758   6.486   9.539  0.7111  0.1284 -0.4298
  451SOL    HW2 2967   6.685   6.597   9.612  0.3847 -0.3879  0.0495
  452SOL     OW 2968   7.765   5.917   4.507  0.1831 -0.1796  0.5381
  452SOL    HW1 2969   7.793   5.897   4.596  3.0350  1.3255  0.1128
  452SOL    HW2 2970   7.845   5.943   4.462 -1.7219  3.4171 -1.2362
  453SOL     OW 2971   4.888   4.260   3.759 -0.1246 -0.3146  0.3110
  453SOL    HW1 2972   4.900   4.332   3.821 -0.0128  0.8549 -1.0335
  453SOL    HW2 2973   4.977   4.233   3.736 -0.1629 -0.4463  0.3143
  454SOL     OW 2974   3.040   5.690   0.538  0.4396 -0.2841  0.3597
  454SOL    HW1 2975   3.075   5.754   0.599  0.3943 -0.2872  0.3887
  454SOL    HW2 2976   2.965   5.734   0.497  0.7690 -0.0969 -0.0568
  455SOL     OW 2977   1.870   5.042   2.374 -0.1469  0.5229 -0.0165
  455SOL    HW1 2978   1.926   4.992   2.315 -0.3612  1.3727 -0.9857
  455SOL    HW2 2979   1.818   4.976   2.419  2.5814 -0.4026  2.0174
  456SOL     OW 2980   1.976   0.393   0.472  0.0057 -0.6917 -0.3331
  456SOL    HW1 2981   2.002   0.414   0.562 -0.4943 -0.7285 -0.1745
  456SOL    HW2 2982   2.012   0.306   0.456 -1.4654 -1.4970  0.5009
  457SOL     OW 2983   6.020   2.240   8.761 -0.3847  1.1562  0.3967
  457SOL    HW1 2984   5.930   2.252   8.732 -0.2439  1.6025  0.1300
  457SOL    HW2 2985   6.035   2.146   8.755 -0.2470  1.2540 -1.3513
  458SOL     OW 2986   8.843   1.584   4.909 -0.0123  0.2154  0.0652
  458SOL    HW1 2987   8.838   1.579   4.813 -3.0546 -1.9974  0.1688
  458SOL    HW2 2988   8.823   1.495   4.938 -1.1931  1.2552  2.7419
  459SOL     OW 2989   7.377   3.551   2.696 -0.2637  0.0419  0.7649
  459SOL    HW1 2990   7.401   3.460   2.712 -0.5130 -0.4838 -1.4999
  459SOL    HW2 2991   7.432   3.578   2.623  0.5284  2.0840  2.0286
  460SOL     OW 2992   6.324   3.316   6.730  0.5137 -0.0873 -1.1973
  460SOL    HW1 2993   6.346   3.355   6.814 -0.7379  1.8988 -1.7118
  460SOL    HW2 2994   6.265   3.380   6.689  1.0374 -1.0006 -3.5527
  461SOL     OW 2995   2.542   6.500   1.857  0.0136  0.0808  0.3271
  461SOL    HW1 2996   2.554   6.510   1.951 -1.2983  0.1796  0.5043
  461SOL    HW2 2997   2.452   6.469   1.847  1.1514 -3.3148 -0.7098
  462SOL     OW 2998   9.598   0.652   5.439  0.6207 -0.2953 -0.3559
  462SOL    HW1 2999   9.663   0.629   5.505 -0.4664 -0.2828  0.7509
  462SOL    HW2 3000   9.600   0.579   5.377  0.6083 -1.0349  0.4936
  463SOL     OW 3001   1.540   4.576   2.455 -0.0486 -0.6869 -0.1343
  463SOL    HW1 3002   1.513   4.489   2.425 -0.2732 -0.6687  0.0206
  463SOL    HW2 3003   1.472   4.635   2.423  0.0415 -0.5828 -0.1353
  464SOL     OW 3004   9.156   9.033   8.996 -0.4495 -0.2545 -0.0680
  464SOL    HW1 3005   9.155   9.085   9.076  1.4433  1.1633 -0.8846
  464SOL    HW2 3006   9.174   8.944   9.025  2.4166  0.5543  1.0505
  465SOL     OW 3007   0.413   2.070   9.780  0.0684 -0.4757 -0.3028
  465SOL    HW1 3008   0.499   2.037   9.807  0.6746  0.3034 -1.1845
  465SOL    HW2 3009   0.372   2.098   9.861  1.7464  1.6030 -0.0623
  466SOL     OW 3010   0.764   0.060   4.044  0.3338 -0.0328  0.1744
  466SOL    HW1 3011   0.718   0.122   4.101 -0.0733  1.6557 -1.8622
  466SOL    HW2 3012   0.851   0.099   4.033  0.1613  0.0679 -0.9195
  467SOL     OW 3013   1.725   4.685   6.498  0.6044  0.8082 -0.0192
  467SOL    HW1 3014   1.690   4.767   6.464  0.2892  0.4336 -0.5999
  467SOL    HW2 3015   1.800   4.712   6.551 -1.2531  1.7439  2.3100
  468SOL     OW 3016   8.040   0.164   4.801 -0.0614 -0.2956  0.2352
  468SOL    HW1 3017   7.969   0.111   4.764  0.2286 -1.2949  1.0586
  468SOL    HW2 3018   7.995   0.230   4.855 -0.3714 -1.2276  1.1429
  469SOL     OW 3019   8.447   1.713   4.999  0.3893 -0.5387  0.1351
  469SOL    HW1 3020   8.427   1.638   4.943  1.0493  0.7979 -2.0165
  469SOL    HW2 3021   8.364   1.736   5.039 -1.1872  0.9157 -3.5202
  470SOL     OW 3022   4.110   8.452   0.099  0.1221 -0.6318  0.1409
  470SOL    HW1 3023   4.149   8.503   0.170  1.6835  0.6120 -1.5037
  470SOL    HW2 3024   4.017   8.474   0.102  0.3978  0.5166  0.9495
  471SOL     OW 3025   6.642   1.062   8.120 -0.3954  0.3074  0.2439
  471SOL    HW1 3026   6.736   1.080   8.116 -0.3760  0.1052 -0.4485
  471SOL    HW2 3027   6.603   1.128   8.063 -0.2517 -2.1644 -3.0587
  472SOL     OW 3028   3.669   1.482   6.140 -0.2462 -0.5478 -0.8669
  472SOL    HW1 3029   3.584   1.461   6.100 -0.5215 -1.0455 -0.0397
  472SOL    HW2 3030   3.659   1.456   6.231  0.1439  1.2144 -0.2878
  473SOL     OW 3031   5.975   1.316   1.047 -0.3783 -0.4741  0.0906
  473SOL    HW1 3032   6.048   1.379   1.046  0.2744 -1.2183 -1.2347
  473SOL    HW2 3033   5.964   1.295   1.140  0.6535  0.1515  0.3790
  474SOL     OW 3034   8.476   7.214   1.329  0.2297  0.9873  0.9311
  474SOL    HW1 3035   8.480   7.293   1.384 -0.0958  2.8809 -1.5713
  474SOL    HW2 3036   8.386   7.211   1.299  0.7039  0.8286 -0.5459
  475SOL     OW 3037   4.349   7.220   7.032  0.2700 -0.2642  0.2750
  475SOL    HW1 3038   4.263   7.262   7.034  1.4974  2.5803 -0.9267
  475SOL    HW2 3039   4.385   7.244   6.947  1.5107 -3.1040 -0.0878
  476SOL     OW 3040   6.160   9.776   2.008 -0.4338  0.0768  0.1948
  476SOL    HW1 3041   6.235   9.721   2.031 -0.3236  0.5976  1.1333
  476SOL    HW2 3042   6.200   9.857   1.976 -0.5776 -0.6649 -2.0597
  477SOL     OW 3043   4.976   7.183   0.947 -0.2869 -0.2346 -0.0647
  477SOL    HW1 3044   4.985   7.152   1.037 -2.0086 -1.8063 -0.3835
  477SOL    HW2 3045   4.939   7.109   0.899  1.0823  0.3791 -2.2179
  478SOL     OW 3046   1.878   9.434   4.601  0.2912  0.5006  0.5329
  478SOL    HW1 3047   1.934   9.458   4.674 -1.4296 -0.7726  2.3574
  478SOL    HW2 3048   1.791   9.464   4.627 -0.4990 -0.6655 -0.6597
  479SOL     OW 3049   7.714   0.637   5.860  0.3735  0.3251 -0.0366
  479SOL    HW1 3050   7.798   0.597   5.838 -0.6660 -1.6944 -0.5882
  479SOL    HW2 3051   7.715   0.645   5.955  1.7409  1.7186 -0.1271
  480SOL     OW 3052   6.143   2.604   1.873 -0.3461  0.6240 -0.4017
  480SOL    HW1 3053   6.085   2.535   1.840 -1.1477  1.6367 -1.1476
  480SOL    HW2 3054   6.087   2.681   1.882  0.6116  1.2865  0.0926
  481SOL     OW 3055   6.976   8.190   3.203 -0.0464  0.6248 -0.0102
  481SOL    HW1 3056   6.982   8.203   3.298  0.6026  0.9495 -0.0907
  481SOL    HW2 3057   7.007   8.272   3.166  1.4888 -0.1490 -0.5138
  482SOL     OW 3058   3.257   6.753   6.824  0.6905 -0.6177  0.0120
  482SOL    HW1 3059   3.218   6.666   6.814  0.2171 -0.5152  0.8473
  482SOL    HW2 3060   3.184   6.814   6.813  0.5211 -0.4335  1.8078
  483SOL     OW 3061   8.038   2.914   4.563  0.5135  0.0607 -0.0008
  483SOL    HW1 3062   7.997   2.986   4.514 -0.2233  0.1447  0.7053
  483SOL    HW2 3063   7.982   2.839   4.546 -0.9669  0.5399  2.2661
  484SOL     OW 3064   9.163   7.606   3.679  0.1351 -0.3942 -0.1907
  484SOL    HW1 3065   9.180   7.559   3.761 -0.5059 -3.1871 -1.5571
  484SOL    HW2 3066   9.071   7.631   3.685 -0.2822 -1.7468 -0.5419
  485SOL     OW 3067   1.735   7.949   5.337  0.1745 -0.1424  0.1471
  485SOL    HW1 3068   1.720   7.915   5.425  0.2135 -0.1250  0.1605
  485SOL    HW2 3069   1.674   7.901   5.282  0.3772 -0.3850  0.1329
  486SOL     OW 3070   3.485   0.046   1.292  0.6768 -0.1318 -0.2906
  486SOL    HW1 3071   3.573   0.073   1.319  0.7209 -1.2431  0.7718
  486SOL    HW2 3072   3.434   0.045   1.374 -0.6671  1.6038 -1.0304
  487SOL     OW 3073   5.020   3.506   1.643  0.0453 -0.4833  0.2108
  487SOL    HW1 3074   4.962   3.539   1.574 -0.4357 -1.9099 -0.0891
  487SOL    HW2 3075   5.085   3.576   1.654 -0.6255  0.3300 -0.7675
  488SOL     OW 3076   3.726   1.110   7.568 -0.0364  0.0313 -0.5261
  488SOL    HW1 3077   3.663   1.039   7.559  0.1180 -0.2426  0.4256
  488SOL    HW2 3078   3.678   1.189   7.545 -0.6514 -0.2085 -0.0785
  489SOL     OW 3079   4.388   0.473   4.270  0.6685  0.0163 -0.8800
  489SOL    HW1 3080   4.328   0.538   4.233  0.1478  1.2584  1.8945
  489SOL    HW2 3081   4.465   0.524   4.295  0.8459 -0.6979  0.0542
  490SOL     OW 3082   0.173   8.370   6.617 -0.3886 -0.0018 -0.2157
  490SOL    HW1 3083   0.242   8.428   6.583  0.3233 -0.5971  0.1885
  490SOL    HW2 3084   0.186   8.288   6.570 -1.6240  0.2543 -1.0556
  491SOL     OW 3085   7.802   5.917   7.288  0.4195 -0.1195  0.3288
  491SOL    HW1 3086   7.887   5.890   7.324  1.1847  1.2389 -0.3743
  491SOL    HW2 3087   7.766   5.836   7.250  1.6353 -0.6282  0.1888
  492SOL     OW 3088   9.010   3.733   3.709 -0.2295 -0.3701 -0.3133
  492SOL    HW1 3089   9.010   3.672   3.635 -2.4951 -1.0889  0.2059
  492SOL    HW2 3090   9.011   3.820   3.669  0.9475 -0.7176 -1.0985
  493SOL     OW 3091   9.670   8.831   0.070 -0.2980  0.5974  0.0372
  493SOL    HW1 3092   9.754   8.866   0.100 -0.5718  1.8587 -0.5880
  493SOL    HW2 3093   9.613   8.836   0.146  0.1332 -0.0733  0.4083
  494SOL     OW 3094   1.202   2.187   2.773  0.0610 -0.7631 -0.1375
  494SOL    HW1 3095   1.148   2.199   2.851 -0.3593  0.3570 -0.5772
  494SOL    HW2 3096   1.159   2.239   2.706  3.3384  3.0445  0.3149
  495SOL     OW 3097   4.581   6.019   8.640 -0.2991 -0.4764  0.0389
  495SOL    HW1 3098   4.611   5.931   8.663 -2.7594 -2.0826 -2.2857
  495SOL    HW2 3099   4.583   6.020   8.544 -1.2551  1.6653 -0.0007
  496SOL     OW 3100   6.312   7.168   4.078 -0.0703  0.1359  0.0548
  496SOL    HW1 3101   6.332   7.111   4.153 -1.6670  2.8569  2.7970
  496SOL    HW2 3102   6.367   7.245   4.091  1.8444 -0.4375 -3.3944
  497SOL     OW 3103   3.122   7.571   6.042 -0.5771 -0.5965 -0.0176
  497SOL    HW1 3104   3.179   7.498   6.063  0.2307  0.7676  3.0058
  497SOL    HW2 3105   3.159   7.607   5.961  1.0454 -1.5209  0.2658
  498SOL     OW 3106   3.673   5.028   1.262  0.9045  0.1524 -0.3735
  498SOL    HW1 3107   3.728   5.093   1.218  0.8303 -0.7440 -1.8709
  498SOL    HW2 3108   3.664   4.957   1.198 -0.1427 -0.7192  0.6925
  499SOL     OW 3109   8.174   8.403   7.440  0.0727 -0.0106  0.0919
  499SOL    HW1 3110   8.145   8.474   7.496  1.1355  0.4090  0.1377
  499SOL    HW2 3111   8.220   8.446   7.368  1.6029 -0.6585  0.6283
  500SOL     OW 3112   2.281   3.235   2.388  0.1414 -0.0818  0.0084
  500SOL    HW1 3113   2.267   3.309   2.446 -0.7147  0.4686 -0.8620
  500SOL    HW2 3114   2.238   3.260   2.306  0.0415 -1.4315 -0.3835
  501SOL     OW 3115   9.517   3.405   3.449 -0.4378 -0.0883 -0.0175
  501SOL    HW1 3116   9.584   3.442   3.391  0.2402 -0.0515  0.7774
  501SOL    HW2 3117   9.445   3.468   3.443  0.3624  0.9340  0.6388
  502SOL     OW 3118   1.218   1.716   3.574  0.4972 -0.0294 -0.4477
  502SOL    HW1 3119   1.130   1.677   3.568  0.8476 -0.5611 -3.4908
  502SOL    HW2 3120   1.275   1.644   3.599  0.0746  0.4954  2.4358
  503SOL     OW 3121   8.574   6.459   1.291  0.0412 -0.4344 -0.3604
  503SOL    HW1 3122   8.650   6.422   1.336 -0.4738 -2.1586 -0.8377
  503SOL    HW2 3123   8.510   6.474   1.360  0.3771 -0.0786 -0.1193
  504SOL     OW 3124   8.320   0.145   4.750 -0.0978 -0.0485  0.3046
  504SOL    HW1 3125   8.359   0.232   4.738  0.0257  0.1358  1.8225
  504SOL    HW2 3126   8.228   0.163   4.770 -1.1264 -0.4820 -3.3414
  505SOL     OW 3127   0.845   2.341   4.018  0.1882  0.3939  0.4419
  505SOL    HW1 3128   0.858   2.431   4.049  0.0789  0.0595  1.5063
  505SOL    HW2 3129   0.856   2.287   4.097  1.1897 -0.6100 -0.3487
  506SOL     OW 3130   1.102   6.386   4.045  0.3119  0.1183 -0.2994
  506SOL    HW1 3131   1.095   6.475   4.012  3.0895 -0.0546 -1.6487
  506SOL    HW2 3132   1.159   6.393   4.121 -0.0436 -0.4247  0.0210
  507SOL     OW 3133   3.534   7.146   5.571  0.0695  0.0043  0.1558
  507SOL    HW1 3134   3.561   7.180   5.656  0.8608  0.2855 -0.2053
  507SOL    HW2 3135   3.595   7.074   5.553 -2.1002 -2.3010  1.3212
  508SOL     OW 3136   7.805   9.028   0.903 -0.2697 -0.1379 -0.8610
  508SOL    HW1 3137   7.829   9.121   0.907 -1.4431  0.1519 -0.2169
  508SOL    HW2 3138   7.820   9.004   0.811  1.9410  0.1351 -0.6132
  509SOL     OW 3139   5.946   4.944   7.219 -0.0358 -0.3806 -0.1091
  509SOL    HW1 3140   6.009   4.891   7.170  0.1536 -0.9787  0.7505
  509SOL    HW2 3141   5.888   4.980   7.152 -0.0077 -1.4711 -0.7530
  510SOL     OW 3142   0.974   6.603   9.151 -0.7883  0.1833  0.0460
  510SOL    HW1 3143   1.024   6.624   9.073 -0.7021  0.9976  0.3032
  510SOL    HW2 3144   1.038   6.601   9.222 -1.2889  3.1987  0.7204
  511SOL     OW 3145   4.461   1.004   5.412  0.2348  0.0428 -0.0892
  511SOL    HW1 3146   4.523   1.038   5.477  1.7934  1.2055 -2.0811
  511SOL    HW2 3147   4.514   0.987   5.334 -2.0443  2.0544 -2.2689
  512SOL     OW 3148   6.940   8.405   4.263 -0.0589 -0.0227  0.1755
  512SOL    HW1 3149   6.989   8.370   4.189 -0.2579 -1.4536  0.7001
  512SOL    HW2 3150   6.993   8.384   4.340  0.1011  1.3639  0.4781
  513SOL     OW 3151   1.787   6.634   3.422 -0.2756  0.4375  0.0735
  513SOL    HW1 3152   1.755   6.612   3.334 -0.4347  2.1298 -0.3405
  513SOL    HW2 3153   1.708   6.658   3.471 -0.2276 -0.8210  0.8125
  514SOL     OW 3154   8.159   1.904   4.684 -0.8540 -0.4710 -0.3266
  514SOL    HW1 3155   8.254   1.891   4.689 -0.8754 -0.3079  0.6567
  514SOL    HW2 3156   8.146   1.954   4.603 -0.3482 -2.5189 -1.7592
  515SOL     OW 3157   3.690   7.314   0.837  0.1447 -0.0179 -0.7622
  515SOL    HW1 3158   3.762   7.335   0.777  0.0106  2.3071 -0.2079
  515SOL    HW2 3159   3.734   7.289   0.918  0.3122 -1.7808 -1.3617
  516SOL     OW 3160   1.018   8.906   8.616  0.5564  0.1432 -0.5234
  516SOL    HW1 3161   0.988   8.830   8.666 -1.3613  0.9586 -0.3619
  516SOL    HW2 3162   1.114   8.898   8.615  0.4241 -2.0760 -0.2254
  517SOL     OW 3163   4.873   0.419   8.626  0.1621  0.5995  0.4103
  517SOL    HW1 3164   4.803   0.478   8.597  0.7468  1.2736  0.3353
  517SOL    HW2 3165   4.953   0.467   8.608  0.8445 -1.3752 -2.3998
  518SOL     OW 3166   1.612   7.104   5.722  0.2669 -0.0980  0.5956
  518SOL    HW1 3167   1.552   7.170   5.687 -0.3581 -1.1003 -0.2779
  518SOL    HW2 3168   1.691   7.113   5.668 -0.3372 -0.9822 -0.4801
  519SOL     OW 3169   5.716   9.195   2.962  0.1220  0.2271  0.0512
  519SOL    HW1 3170   5.624   9.219   2.968  0.0117 -0.1059 -0.2325
  519SOL    HW2 3171   5.732   9.187   2.868  0.3977  0.1312  0.1056
  520SOL     OW 3172   6.196   5.125   7.176  0.1262 -0.4988 -0.0068
  520SOL    HW1 3173   6.158   5.038   7.186 -0.8077 -0.2793 -1.4461
  520SOL    HW2 3174   6.121   5.183   7.164  0.7757  0.4212  0.2242
  521SOL     OW 3175   4.479   9.168   2.629  0.4163  0.0440  0.0703
  521SOL    HW1 3176   4.471   9.154   2.724  2.1860  0.1874  0.2560
  521SOL    HW2 3177   4.566   9.137   2.607 -0.0246 -0.1224 -1.5604
  522SOL     OW 3178   9.809   1.134   0.717 -0.5594  0.1250 -0.8919
  522SOL    HW1 3179   9.854   1.217   0.729 -0.7761  0.1408 -0.1123
  522SOL    HW2 3180   9.851   1.094   0.641 -1.0147  1.3210 -1.8224
  523SOL     OW 3181   3.325   1.786   2.500 -0.2793  0.4463  0.7535
  523SOL    HW1 3182   3.391   1.753   2.561  0.0476 -0.0332  0.1440
  523SOL    HW2 3183   3.370   1.853   2.449 -0.2190  0.0276  0.2488
  524SOL     OW 3184   0.513   3.732   2.880  0.2135 -0.9040 -0.5050
  524SOL    HW1 3185   0.578   3.802   2.892 -0.3662 -0.6050  1.3074
  524SOL    HW2 3186   0.440   3.776   2.836  0.7148 -0.9394 -1.4054
  525SOL     OW 3187   0.117   1.445   5.311 -0.5260  0.1279  0.2439
  525SOL    HW1 3188   0.104   1.361   5.355  1.0215  0.2724  1.0421
  525SOL    HW2 3189   0.198   1.480   5.349 -1.3932  2.2261  0.2809
  526SOL     OW 3190   5.772   1.123   0.754  0.3091 -0.2919 -0.1390
  526SOL    HW1 3191   5.790   1.093   0.665 -0.2058 -0.8785 -0.0552
  526SOL    HW2 3192   5.715   1.055   0.790  1.7388 -0.8507  1.1652
  527SOL     OW 3193   0.529   5.366   2.242 -0.3460  0.1106 -0.4764
  527SOL    HW1 3194   0.590   5.303   2.280 -0.0525  0.9946  0.5693
  527SOL    HW2 3195   0.585   5.425   2.191 -0.3722  0.6458  0.1026
  528SOL     OW 3196   5.452   0.183   1.928  0.4253  0.7108  0.3021
  528SOL    HW1 3197   5.410   0.145   1.851  1.5948 -0.2672  0.1328
  528SOL    HW2 3198   5.442   0.278   1.916  1.0919  0.6038 -1.3464
  529SOL     OW 3199   0.156   9.808   4.290 -0.1871 -0.2205 -1.1165
  529SOL    HW1 3200   0.109   9.735   4.330 -1.1979  0.8604 -0.2789
  529SOL    HW2 3201   0.096   9.842   4.224 -0.8418  1.4491  0.2630
  530SOL     OW 3202   8.871   7.347   9.649 -0.2926 -0.6447  0.3644
  530SOL    HW1 3203   8.895   7.408   9.719 -2.9838  0.2529  0.6113
  530SOL    HW2 3204   8.783   7.375   9.622 -1.2337 -3.8036 -0.2261
  531SOL     OW 3205   8.984   2.723   0.118 -0.4556  0.0257 -0.1040
  531SOL    HW1 3206   8.977   2.816   0.097  0.7479 -0.2537 -1.9803
  531SOL    HW2 3207   8.929   2.679   0.053  0.2332 -0.6613 -0.2383
  532SOL     OW 3208   2.623   4.752   6.480 -0.0207 -0.5201 -0.2490
  532SOL    HW1 3209   2.543   4.763   6.429  0.0382 -0.8538 -0.4131
  532SOL    HW2 3210   2.646   4.660   6.470 -1.4107 -1.2440  2.4520
  533SOL     OW 3211   7.308   5.984   1.707  0.6855  0.1628  0.8493
  533SOL    HW1 3212   7.242   5.923   1.675 -0.2806  0.3159  2.4392
  533SOL    HW2 3213   7.369   5.994   1.633  0.2622 -1.8175  0.1580
  534SOL     OW 3214   5.667   1.531   6.676 -0.9227  0.8027  0.3894
  534SOL    HW1 3215   5.700   1.617   6.652 -0.6606  0.9668  1.3199
  534SOL    HW2 3216   5.581   1.546   6.713 -0.3972  0.8073  1.6527
  535SOL     OW 3217   0.361   6.396   4.733 -0.2411  0.3482  0.0891
  535SOL    HW1 3218   0.296   6.363   4.671  0.4755  0.0273 -0.5062
  535SOL    HW2 3219   0.445   6.374   4.694  0.2324  0.5415  0.9643
  536SOL     OW 3220   5.841   1.028   7.879  0.1595 -0.1208 -0.2535
  536SOL    HW1 3221   5.750   1.016   7.850  0.0670 -0.4668  0.1779
  536SOL    HW2 3222   5.843   1.118   7.913 -0.2530 -0.4023  0.5541
  537SOL     OW 3223   7.436   2.358   3.615  0.1401 -0.7583 -0.0114
  537SOL    HW1 3224   7.435   2.307   3.534  0.0062 -0.6280 -0.0935
  537SOL    HW2 3225   7.494   2.310   3.674  1.0764 -0.3106 -0.5370
  538SOL     OW 3226   0.223   8.835   2.007 -0.5434 -0.0758  0.1079
  538SOL    HW1 3227   0.185   8.823   2.094 -2.0157  2.0512 -0.1850
  538SOL    HW2 3228   0.151   8.818   1.946 -0.0637  0.4652 -0.6251
  539SOL     OW 3229   9.303   8.821   2.748 -0.0559  0.3022  0.0412
  539SOL    HW1 3230   9.350   8.904   2.744 -1.1259  0.8697 -1.6633
  539SOL    HW2 3231   9.256   8.824   2.831 -0.0572  1.3738  0.0164
  540SOL     OW 3232   9.615   7.196   8.205 -0.4248 -0.6807  0.4391
  540SOL    HW1 3233   9.557   7.255   8.156 -1.2311 -1.8474 -0.0406
  540SOL    HW2 3234   9.698   7.244   8.210 -0.8527  0.2150 -0.5369
  541SOL     OW 3235   0.133   2.590   3.709 -0.1997  0.0763  0.0248
  541SOL    HW1 3236   0.201   2.655   3.721 -0.6926  0.5648  0.1959
  541SOL    HW2 3237   0.164   2.514   3.758 -0.0420  0.4896  0.5750
  542SOL     OW 3238   7.895   8.819   5.712 -0.6440 -0.0370  0.2969
  542SOL    HW1 3239   7.933   8.892   5.761 -0.6592 -0.3413  0.7778
  542SOL    HW2 3240   7.847   8.860   5.640  0.5315  0.3620 -0.2815
  543SOL     OW 3241   3.939   2.598   9.335  0.3709  0.2224 -0.8065
  543SOL    HW1 3242   3.972   2.596   9.425 -2.3918  1.1143  0.3410
  543SOL    HW2 3243   3.976   2.519   9.295  2.8887  0.5681  0.5928
  544SOL     OW 3244   1.692   1.014   9.438 -0.3109  0.5524  0.1340
  544SOL    HW1 3245   1.768   0.977   9.483 -1.0429 -2.3503 -0.8520
  544SOL    HW2 3246   1.618   0.996   9.495 -1.0866 -2.2188 -1.5491
  545SOL     OW 3247   4.696   2.110   7.186 -0.3329  0.5672 -0.0114
  545SOL    HW1 3248   4.629   2.113   7.254  0.0930  2.0681  0.3751
  545SOL    HW2 3249   4.670   2.178   7.123  0.1155  0.2657 -0.5334
  546SOL     OW 3250   1.446   7.141   9.221  0.1284  0.4475 -0.0528
  546SOL    HW1 3251   1.455   7.203   9.149 -0.5064 -0.0505 -0.5730
  546SOL    HW2 3252   1.489   7.062   9.190 -1.7875 -0.4122 -0.6905
  547SOL     OW 3253   6.605   9.202   1.897  0.0737  0.2794 -0.7156
  547SOL    HW1 3254   6.700   9.202   1.888  0.2844  2.0232  0.8191
  547SOL    HW2 3255   6.574   9.259   1.826  0.0131 -1.2127 -1.9512
  548SOL     OW 3256   8.475   6.407   9.274  0.2300  0.0740 -0.1561
  548SOL    HW1 3257   8.426   6.338   9.230  2.1539  0.7271 -3.7397
  548SOL    HW2 3258   8.562   6.369   9.287  1.6215  1.9150 -3.0777
  549SOL     OW 3259   9.815   1.166   1.192  0.0466 -0.2162  0.4134
  549SOL    HW1 3260   9.760   1.101   1.148  0.9885 -1.1908  0.6058
  549SOL    HW2 3261   9.789   1.161   1.284 -0.5812  0.4155  0.2721
  550SOL     OW 3262   2.488   3.948   3.255 -0.1734 -0.3425 -0.0387
  550SOL    HW1 3263   2.572   3.988   3.233  0.6677 -1.4570  1.0017
  550SOL    HW2 3264   2.422   4.005   3.215  1.0997 -0.0227 -1.7759
  551SOL     OW 3265   8.120   6.932   0.311  0.2471 -0.2794  0.1408
  551SOL    HW1 3266   8.200   6.897   0.272  0.7179  0.2279  0.6467
  551SOL    HW2 3267   8.132   6.920   0.405  0.6041  1.6176  0.3707
  552SOL     OW 3268   4.696   9.677   1.681  0.4060  0.4087  0.1954
  552SOL    HW1 3269   4.601   9.684   1.678  0.4301  0.4090 -0.8251
  552SOL    HW2 3270   4.728   9.767   1.683  0.3935  0.4213 -0.0714
  553SOL     OW 3271   8.712   1.315   0.799 -0.0393  0.2330  0.1131
  553SOL    HW1 3272   8.720   1.406   0.828 -0.1939  0.8365 -1.6323
  553SOL    HW2 3273   8.619   1.295   0.806  0.2606 -0.6963  2.9009
  554SOL     OW 3274   2.849   0.099   7.428  0.0124 -0.3707 -0.3631
  554SOL    HW1 3275   2.899   0.048   7.492 -1.1965 -0.8120  0.2485
  554SOL    HW2 3276   2.758   0.083   7.450 -0.4639 -0.7970 -2.4108
  555SOL     OW 3277   9.283   5.570   0.060 -0.6812 -0.4425  0.6046
  555SOL    HW1 3278   9.314   5.653   0.024  1.0881 -0.7353  1.3480
  555SOL    HW2 3279   9.235   5.529  -0.012  1.0064 -0.1059 -0.7786
  556SOL     OW 3280   8.127   3.317   2.235  0.4199  0.9612  0.6992
  556SOL    HW1 3281   8.105   3.408   2.252 -0.0478  0.7391  1.3127
  556SOL    HW2 3282   8.173   3.288   2.314 -0.6610  0.2796  1.1017
  557SOL     OW 3283   3.781   2.454   3.814  0.6944  0.0560 -0.3369
  557SOL    HW1 3284   3.804   2.400   3.889  0.1900 -0.3291 -0.4462
  557SOL    HW2 3285   3.687   2.437   3.801  0.2808  1.7443  0.2469
  558SOL     OW 3286   2.995   8.961   4.419 -0.1767 -0.1464 -0.4196
  558SOL    HW1 3287   3.079   8.932   4.456 -0.6960 -2.1007 -0.6598
  558SOL    HW2 3288   2.932   8.895   4.448 -1.1271 -0.2154 -2.4882
  559SOL     OW 3289   0.680   2.144   2.277  0.4202  0.1921 -0.5272
  559SOL    HW1 3290   0.632   2.184   2.205  0.4345 -0.4489 -0.9030
  559SOL    HW2 3291   0.745   2.088   2.234 -1.1118 -2.0748 -0.0696
  560SOL     OW 3292   6.718   1.683   1.350  0.5772  0.3486 -0.5001
  560SOL    HW1 3293   6.704   1.621   1.421  0.2604  0.6777 -0.2726
  560SOL    HW2 3294   6.632   1.722   1.333  0.7078  0.4944 -0.8577
  561SOL     OW 3295   5.456   9.196   0.806  0.1900  0.7104  0.2404
  561SOL    HW1 3296   5.415   9.125   0.757 -0.5134  0.8650  0.5876
  561SOL    HW2 3297   5.537   9.215   0.759 -0.2462  0.5480 -0.5896
  562SOL     OW 3298   1.587   0.378   6.896  0.0444  0.0221  0.0349
  562SOL    HW1 3299   1.533   0.374   6.818  1.1573  0.9822 -0.8176
  562SOL    HW2 3300   1.647   0.303   6.888 -1.6312 -1.5621  1.4072
  563SOL     OW 3301   7.812   5.586   1.548 -0.6295  0.0671 -0.5973
  563SOL    HW1 3302   7.818   5.619   1.459 -0.7622  0.5521 -0.4263
  563SOL    HW2 3303   7.779   5.497   1.538 -1.7186  0.4983 -0.9664
  564SOL     OW 3304   1.756   3.928   4.961 -0.5407  0.4900  0.1488
  564SOL    HW1 3305   1.759   3.912   5.056  0.0751  0.7633  0.1771
  564SOL    HW2 3306   1.671   3.970   4.948 -1.9364 -2.1097  0.1560
  565SOL     OW 3307   0.747   4.499   8.504  0.1115 -0.3211  0.2041
  565SOL    HW1 3308   0.837   4.529   8.491  0.4029 -0.1597  2.3087
  565SOL    HW2 3309   0.717   4.547   8.581 -0.7449 -2.5698  1.3471
  566SOL     OW 3310   7.532   8.252   4.657  0.0889  0.7345 -0.1712
  566SOL    HW1 3311   7.473   8.327   4.665  1.0625  1.4493  0.6575
  566SOL    HW2 3312   7.600   8.268   4.723 -0.3865 -1.5516  0.9833
  567SOL     OW 3313   8.047   7.770   2.967  0.3791 -0.4003  0.1771
  567SOL    HW1 3314   8.042   7.834   3.038 -0.3734  0.5857 -0.7262
  567SOL    HW2 3315   8.130   7.788   2.923 -0.7648  1.4600 -1.3851
  568SOL     OW 3316   6.012   3.229   4.810 -0.4622 -0.1163 -0.0333
  568SOL    HW1 3317   6.013   3.246   4.716  3.2193 -1.1199 -0.3285
  568SOL    HW2 3318   6.041   3.311   4.850 -0.0235 -0.3045  0.0383
  569SOL     OW 3319   6.354   8.202   8.618 -0.2674 -0.0295  0.0347
  569SOL    HW1 3320   6.400   8.279   8.585 -0.0129 -0.6227 -1.0371
  569SOL    HW2 3321   6.284   8.237   8.674  0.0690  0.9560 -0.1517
  570SOL     OW 3322   1.390   2.224   3.912 -0.2278 -0.0344  0.0905
  570SOL    HW1 3323   1.313   2.276   3.892  0.8513  1.6599  0.0965
  570SOL    HW2 3324   1.418   2.255   3.998 -0.0345 -1.2543  0.4846
  571SOL     OW 3325   4.957   6.775   1.205  0.4282  0.8387 -0.0674
  571SOL    HW1 3326   5.022   6.841   1.181  1.8603 -0.2973  0.5024
  571SOL    HW2 3327   4.918   6.807   1.286 -1.4837  2.6819 -1.6117
  572SOL     OW 3328   5.068   9.725   3.945 -0.2943 -0.3893 -0.8139
  572SOL    HW1 3329   5.119   9.796   3.984 -0.5447 -0.7144  0.1166
  572SOL    HW2 3330   5.133   9.670   3.902 -0.0396  0.0868 -1.0557
  573SOL     OW 3331   9.671   6.711   0.858  0.0643  0.4082  1.0688
  573SOL    HW1 3332   9.660   6.616   0.860  0.1793  0.3973  2.8386
  573SOL    HW2 3333   9.585   6.746   0.879  0.0093  0.6934  0.3611
  574SOL     OW 3334   6.639   8.018   7.001  0.4204 -0.0377 -0.0477
  574SOL    HW1 3335   6.676   8.099   6.965  1.5501 -1.2253 -1.6611
  574SOL    HW2 3336   6.714   7.969   7.032 -0.0840 -1.1508 -0.5443
  575SOL     OW 3337   5.174   2.668   1.901  0.2759  0.1891  0.1148
  575SOL    HW1 3338   5.244   2.623   1.855 -1.0459 -2.5751  0.6012
  575SOL    HW2 3339   5.114   2.696   1.832  0.6157  0.3477 -0.1228
  576SOL     OW 3340   1.622   7.039   4.556  0.4900 -0.2929  0.8390
  576SOL    HW1 3341   1.647   7.008   4.643  2.2559  0.9226  0.8022
  576SOL    HW2 3342   1.704   7.049   4.509 -0.4511 -1.3263 -1.1633
  577SOL     OW 3343   7.605   0.772   6.867 -0.1708 -0.3503  0.3949
  577SOL    HW1 3344   7.658   0.756   6.945 -0.9453 -0.6673  0.8608
  577SOL    HW2 3345   7.666   0.813   6.805  0.2002  0.8583  1.5198
  578SOL     OW 3346   5.250   5.875   3.992  0.1773  0.0950  0.1106
  578SOL    HW1 3347   5.263   5.789   4.031 -0.3482  0.5798  1.4197
  578SOL    HW2 3348   5.335   5.919   4.004  0.0224  0.2393  0.7560
  579SOL     OW 3349   4.352   0.754   9.562  0.2647 -0.3171  0.2481
  579SOL    HW1 3350   4.282   0.737   9.625  0.1059  0.2936  0.2460
  579SOL    HW2 3351   4.427   0.706   9.596  0.0711 -0.3054  0.6980
  580SOL     OW 3352   4.261   0.574   6.758  0.1129 -0.4568  0.4147
  580SOL    HW1 3353   4.226   0.641   6.698  1.0411  0.8631  1.2798
  580SOL    HW2 3354   4.213   0.588   6.840  1.6568  0.4823  1.1997
  581SOL     OW 3355   4.365   2.013   2.083 -0.0742 -0.0541 -0.8392
  581SOL    HW1 3356   4.271   2.022   2.063 -0.1237  0.7601 -0.3119
  581SOL    HW2 3357   4.369   2.011   2.178  0.5385  1.4551 -0.7971
  582SOL     OW 3358   4.776   2.572   2.704  0.5640  0.2362 -0.2931
  582SOL    HW1 3359   4.836   2.530   2.766  0.7681  1.0257  0.0476
  582SOL    HW2 3360   4.742   2.648   2.751  0.0566  0.3564 -0.8435
  583SOL     OW 3361   8.985   0.400   0.162 -0.2398 -0.3186 -0.3034
  583SOL    HW1 3362   9.028   0.419   0.246 -2.2288  1.3345  0.4300
  583SOL    HW2 3363   9.032   0.455   0.099 -1.2722  1.5807  0.5091
  584SOL     OW 3364   4.807   3.498   8.600 -0.8962  0.2909 -0.1235
  584SOL    HW1 3365   4.770   3.580   8.568 -0.0311  0.9484  0.5241
  584SOL    HW2 3366   4.830   3.515   8.691 -0.4306 -0.5739 -0.0598
  585SOL     OW 3367   5.287   7.062   4.896 -0.7045  0.3369 -0.7742
  585SOL    HW1 3368   5.258   7.065   4.805 -1.3844 -0.4172 -0.5930
  585SOL    HW2 3369   5.225   7.118   4.943 -2.1711 -1.5505 -0.3300
  586SOL     OW 3370   4.464   0.851   8.775 -0.1926  0.3130  0.0610
  586SOL    HW1 3371   4.474   0.762   8.742  0.0385  0.6859 -0.9111
  586SOL    HW2 3372   4.384   0.884   8.734  1.3239  1.5851 -2.0940
  587SOL     OW 3373   6.914   9.035   8.301  0.3799  0.5679 -0.4687
  587SOL    HW1 3374   6.868   8.982   8.236 -1.2718 -1.1719  1.9329
  587SOL    HW2 3375   6.909   8.983   8.382  0.4284  3.5060  1.5780
  588SOL     OW 3376   2.686   3.703   3.072 -0.1088  0.2015  0.1590
  588SOL    HW1 3377   2.601   3.743   3.053 -0.3942 -1.1895 -1.8340
  588SOL    HW2 3378   2.729   3.764   3.132 -2.7680  0.5948  1.7885
  589SOL     OW 3379   6.645   3.510   6.667 -0.0996 -0.2647  0.3323
  589SOL    HW1 3380   6.665   3.595   6.707  3.1345 -0.2571 -1.0372
  589SOL    HW2 3381   6.678   3.446   6.730 -1.6855 -0.5186  0.9358
  590SOL     OW 3382   6.024   5.578   1.301 -0.1448 -0.8263  0.5765
  590SOL    HW1 3383   5.960   5.646   1.322  2.5846  2.0117  0.5222
  590SOL    HW2 3384   5.984   5.527   1.231 -2.2094  0.9898  0.3457
  591SOL     OW 3385   4.675   0.592   7.044 -0.3166  0.3569 -0.7169
  591SOL    HW1 3386   4.605   0.624   7.101  0.6126  0.8341  0.2095
  591SOL    HW2 3387   4.725   0.671   7.022  1.4337 -0.2727  0.7841
  592SOL     OW 3388   7.526   2.884   0.551 -0.7074 -0.5004 -0.0158
  592SOL    HW1 3389   7.593   2.886   0.620  0.3381 -0.7569 -0.9899
  592SOL    HW2 3390   7.443   2.884   0.599 -0.0486  0.6750  1.2319
  593SOL     OW 3391   7.640   9.553   3.082 -0.4788 -0.6505 -0.0984
  593SOL    HW1 3392   7.629   9.476   3.027 -2.7790  0.2937 -1.0816
  593SOL    HW2 3393   7.725   9.589   3.056 -1.1643 -0.6374 -2.5726
  594SOL     OW 3394   8.404   9.388   2.484  0.0435 -0.6122  0.7085
  594SOL    HW1 3395   8.454   9.464   2.512  0.5847 -0.7012  0.0048
  594SOL    HW2 3396   8.359   9.416   2.405  0.7980 -1.2172  0.0459
  595SOL     OW 3397   3.935   6.140   8.098  0.1725 -0.1216  0.3263
  595SOL    HW1 3398   3.945   6.045   8.098  1.3871 -0.0073  0.0850
  595SOL    HW2 3399   3.992   6.170   8.027 -1.1857  0.6967 -0.4562
  596SOL     OW 3400   5.047   1.068   8.637 -0.0031  0.1363  0.0279
  596SOL    HW1 3401   5.032   1.012   8.713 -2.9660 -1.0747 -1.3128
  596SOL    HW2 3402   5.142   1.064   8.623  0.3535 -1.3209  2.3178
  597SOL     OW 3403   9.514   7.970   3.760 -0.1947  0.3640  0.3625
  597SOL    HW1 3404   9.445   7.971   3.693 -0.1863 -3.7933  0.0545
  597SOL    HW2 3405   9.481   8.028   3.829 -2.9134  0.3082 -0.7699
  598SOL     OW 3406   6.590   9.505   2.385  0.3198  0.4978  0.4384
  598SOL    HW1 3407   6.588   9.444   2.311  1.6839  1.3726 -0.3549
  598SOL    HW2 3408   6.522   9.570   2.364 -0.1778  0.0414  0.6034
  599SOL     OW 3409   9.319   4.747   2.606  0.4694 -0.7754 -0.1174
  599SOL    HW1 3410   9.341   4.839   2.594  3.0588 -1.2920  0.0700
  599SOL    HW2 3411   9.392   4.699   2.567 -0.5613 -2.7491  0.2296
  600SOL     OW 3412   5.316   6.758   2.801  0.3187 -0.1133 -0.5416
  600SOL    HW1 3413   5.327   6.741   2.707 -1.4829 -1.2880 -0.5834
  600SOL    HW2 3414   5.287   6.849   2.805 -1.3761 -0.5648 -1.3267
  601SOL     OW 3415   8.885   0.165   8.688  0.0824 -0.3439 -0.1690
  601SOL    HW1 3416   8.815   0.212   8.734 -0.2477  0.3889 -1.3641
  601SOL    HW2 3417   8.871   0.073   8.711 -0.7841 -0.1225  0.2401
  602SOL     OW 3418   7.204   4.660   0.873  0.2957  0.1348  0.4983
  602SOL    HW1 3419   7.181   4.568   0.867 -1.1787  0.5562 -1.3169
  602SOL    HW2 3420   7.282   4.670   0.819  0.4422 -0.0336  0.6783
  603SOL     OW 3421   0.003   2.238   4.020 -0.5645  1.0452  0.7415
  603SOL    HW1 3422  -0.031   2.219   4.108  0.8848 -1.3877  0.8636
  603SOL    HW2 3423   0.073   2.174   4.007 -0.4112  1.6566 -2.0140
  604SOL     OW 3424   9.358   1.152   7.642  0.3269 -0.7151 -0.0099
  604SOL    HW1 3425   9.334   1.105   7.562 -0.8279 -1.9045  0.9797
  604SOL    HW2 3426   9.314   1.103   7.712  0.0604  1.1839  1.2012
  605SOL     OW 3427   1.851   1.896   2.578 -0.1350 -0.1214 -0.4008
  605SOL    HW1 3428   1.927   1.842   2.600 -0.2867 -0.2759 -0.2568
  605SOL    HW2 3429   1.851   1.899   2.482 -0.6683 -1.1600 -0.4484
  606SOL     OW 3430   1.494   0.064   4.657 -0.2036  0.3131 -0.5774
  606SOL    HW1 3431   1.546   0.002   4.607  1.0693  0.9899 -0.1332
  606SOL    HW2 3432   1.452   0.012   4.725 -1.1175 -0.4400 -1.6921
  607SOL     OW 3433   7.551   1.080   3.826 -0.3330  0.3080 -0.0278
  607SOL    HW1 3434   7.579   0.989   3.819 -0.1259  0.3450  0.3366
  607SOL    HW2 3435   7.602   1.126   3.759 -0.6459  0.1072 -0.4056
  608SOL     OW 3436   7.694   7.122   3.744  0.1182  0.2180 -0.1881
  608SOL    HW1 3437   7.714   7.128   3.838 -1.4062 -1.3683  0.3007
  608SOL    HW2 3438   7.751   7.052   3.712  0.1386  0.2848 -0.2987
  609SOL     OW 3439   7.984   8.694   9.541 -1.4250  0.1114 -0.1847
  609SOL    HW1 3440   8.003   8.749   9.466 -2.1948  1.1646  0.3628
  609SOL    HW2 3441   7.984   8.754   9.616 -3.2047 -0.4185  0.3120
  610SOL     OW 3442   1.685   2.452   4.510 -0.5070  0.0642  0.2984
  610SOL    HW1 3443   1.763   2.506   4.524 -1.1537  1.1027 -0.0457
  610SOL    HW2 3444   1.687   2.430   4.417  0.2562 -1.3319  0.6108
  611SOL     OW 3445   2.451   4.032   5.854 -0.0491  0.0533 -0.2136
  611SOL    HW1 3446   2.508   4.042   5.930 -1.7770 -0.4501  1.2239
  611SOL    HW2 3447   2.501   3.977   5.793  1.9985  1.7726 -0.1987
  612SOL     OW 3448   8.935   5.432   2.868  0.5428  0.1086  0.0393
  612SOL    HW1 3449   8.884   5.353   2.850 -0.1903  0.3513  0.9865
  612SOL    HW2 3450   8.964   5.421   2.959 -0.3398  1.3530  0.4865
  613SOL     OW 3451   8.381   6.187   2.112  0.7667 -0.2467 -0.4417
  613SOL    HW1 3452   8.304   6.204   2.167  0.6926  0.0523 -0.6370
  613SOL    HW2 3453   8.361   6.105   2.066 -0.3443  0.8876 -2.0873
  614SOL     OW 3454   1.118   5.185   0.831 -0.2128  0.0805 -0.2776
  614SOL    HW1 3455   1.169   5.219   0.904 -0.4745  0.4262 -0.2490
  614SOL    HW2 3456   1.174   5.196   0.755 -0.6972  1.6386 -0.4518
  615SOL     OW 3457   1.184   3.159   6.394 -0.3489 -0.1015  0.1654
  615SOL    HW1 3458   1.212   3.097   6.461  0.8474  2.7774  2.5600
  615SOL    HW2 3459   1.258   3.219   6.384 -1.4432  1.0186 -1.9838
  616SOL     OW 3460   5.366   7.749   0.325 -0.1438  0.2656  0.2590
  616SOL    HW1 3461   5.313   7.827   0.309 -2.0926 -0.5618  2.1861
  616SOL    HW2 3462   5.430   7.776   0.391  0.4402  0.6849 -0.4589
  617SOL     OW 3463   6.517   5.908   1.452  0.3788 -0.0105 -0.2840
  617SOL    HW1 3464   6.465   5.829   1.469 -0.5715  0.7310  0.3174
  617SOL    HW2 3465   6.459   5.981   1.472  1.5197  0.8527  0.0208
  618SOL     OW 3466   3.635   4.058   9.001  0.2115  0.6828  0.0675
  618SOL    HW1 3467   3.631   4.117   9.076 -1.3934  0.0310  0.5538
  618SOL    HW2 3468   3.634   3.970   9.040  0.3102  0.3345 -0.6974
  619SOL     OW 3469   6.697   6.562   3.696  0.3631 -0.6434  0.1025
  619SOL    HW1 3470   6.616   6.603   3.724  0.2909 -0.4559 -0.3662
  619SOL    HW2 3471   6.700   6.578   3.601  0.6330 -1.1858  0.0140
  620SOL     OW 3472   0.454   2.693   6.504 -0.1262 -0.0366 -0.2033
  620SOL    HW1 3473   0.472   2.656   6.418 -2.2252 -0.8653 -0.3504
  620SOL    HW2 3474   0.460   2.618   6.564 -0.7178  0.1084  0.0488
  621SOL     OW 3475   0.976   1.193   6.352 -0.2192  0.0254  0.0382
  621SOL    HW1 3476   1.007   1.283   6.352 -2.0829  0.7108 -0.8853
  621SOL    HW2 3477   1.052   1.141   6.324  0.9732  1.2273  0.9086
  622SOL     OW 3478   5.156   5.055   2.630 -0.2429 -0.5729 -0.5819
  622SOL    HW1 3479   5.123   4.979   2.677 -0.5958  0.3274  0.6612
  622SOL    HW2 3480   5.114   5.130   2.671  1.5183  0.4536 -0.5303
  623SOL     OW 3481   1.795   6.507   3.179 -0.0064 -0.0307 -0.3107
  623SOL    HW1 3482   1.820   6.491   3.088  0.3398  0.5754 -0.3272
  623SOL    HW2 3483   1.743   6.431   3.203  0.5313 -0.5598 -0.7784
  624SOL     OW 3484   1.899   4.447   8.182  0.3013 -0.0348 -0.1064
  624SOL    HW1 3485   1.945   4.487   8.256 -0.2779 -1.7890  1.2732
  624SOL    HW2 3486   1.961   4.384   8.146 -0.1555 -0.6723  0.2130
  625SOL     OW 3487   8.824   6.068   7.814 -0.0995 -0.0418  0.1773
  625SOL    HW1 3488   8.759   6.040   7.750 -0.7023  0.0300  0.7538
  625SOL    HW2 3489   8.904   6.022   7.788 -0.5210 -0.5800 -0.1865
  626SOL     OW 3490   2.742   5.663   9.649 -0.0035  0.0327  0.0627
  626SOL    HW1 3491   2.782   5.657   9.735 -1.1110  0.5220  0.6364
  626SOL    HW2 3492   2.680   5.590   9.645 -1.1476  0.9540  0.3571
  627SOL     OW 3493   7.212   1.632   2.332  0.1031 -0.0893  0.0418
  627SOL    HW1 3494   7.289   1.578   2.316  0.7486  0.1592  1.9690
  627SOL    HW2 3495   7.142   1.570   2.349  0.6509 -0.3724  1.4341
  628SOL     OW 3496   5.656   8.973   4.138  0.3290  0.4870 -0.8366
  628SOL    HW1 3497   5.642   9.048   4.081  0.5282 -0.1204 -1.7145
  628SOL    HW2 3498   5.662   8.898   4.078  0.8788 -0.1268 -0.0415
  629SOL     OW 3499   5.971   5.373   8.336  0.0879 -0.3191  0.1284
  629SOL    HW1 3500   5.959   5.313   8.410 -0.4003  0.2400  0.5226
  629SOL    HW2 3501   5.882   5.406   8.319  0.1732 -0.5560 -0.8130
  630SOL     OW 3502   1.628   5.650   5.946  0.3235  0.4055  0.3025
  630SOL    HW1 3503   1.632   5.659   6.041  2.9966 -0.6001  0.3615
  630SOL    HW2 3504   1.706   5.601   5.923 -1.6678 -1.8967 -2.1796
  631SOL     OW 3505   8.971   1.745   2.270 -0.3550  0.4806  0.3780
  631SOL    HW1 3506   8.947   1.762   2.361  0.0128  1.7217  0.2656
  631SOL    HW2 3507   9.040   1.679   2.276  0.6124  1.5227  1.1063
  632SOL     OW 3508   0.990   5.946   0.713 -0.0514  0.0132  0.3277
  632SOL    HW1 3509   0.983   5.970   0.621  0.9964  0.1654  0.2759
  632SOL    HW2 3510   1.083   5.957   0.734 -0.6437  2.3034  2.0584
  633SOL     OW 3511   0.181   0.579   0.548  0.3703  0.0472  0.6030
  633SOL    HW1 3512   0.129   0.576   0.468  0.2197 -1.4554  0.7250
  633SOL    HW2 3513   0.120   0.614   0.614 -0.5263 -1.5896  0.7168
  634SOL     OW 3514   3.481   0.559   1.392 -0.1794  0.2844  0.8824
  634SOL    HW1 3515   3.524   0.624   1.448  0.7970 -0.5502  1.1323
  634SOL    HW2 3516   3.391   0.555   1.426  0.1312  0.4818  1.7772
  635SOL     OW 3517   1.003   3.604   3.920 -0.3079  0.2993 -0.6434
  635SOL    HW1 3518   1.064   3.673   3.892 -0.4033  0.5935 -0.1343
  635SOL    HW2 3519   1.014   3.535   3.855  0.2253  0.5456 -0.8210
  636SOL     OW 3520   9.270   3.289   4.754 -0.1878 -0.0271 -0.4756
  636SOL    HW1 3521   9.235   3.225   4.816 -1.3129 -0.0873 -1.1574
  636SOL    HW2 3522   9.345   3.245   4.713 -0.4906 -0.6223 -0.3975
  637SOL     OW 3523   6.348   1.054   1.001 -0.0546 -0.4036 -0.4669
  637SOL    HW1 3524   6.369   1.136   1.045  1.1047 -0.7282 -0.3850
  637SOL    HW2 3525   6.423   0.997   1.019 -0.1234 -0.9614 -1.8051
  638SOL     OW 3526   9.373   0.194   3.653 -0.0008  0.2940  0.0430
  638SOL    HW1 3527   9.378   0.147   3.736 -0.2250 -2.8706 -1.5678
  638SOL    HW2 3528   9.279   0.209   3.640 -0.0023  0.3796  0.1555
  639SOL     OW 3529   9.034   7.538   0.734 -0.2593  0.3717  0.6516
  639SOL    HW1 3530   8.974   7.483   0.785  0.1268 -1.2189 -0.5388
  639SOL    HW2 3531   9.121   7.505   0.754 -0.1668 -1.2711 -2.0312
  640SOL     OW 3532   4.882   4.008   8.847 -0.1170  0.8469  0.0350
  640SOL    HW1 3533   4.945   3.938   8.833 -1.0730 -0.1231  0.4455
  640SOL    HW2 3534   4.802   3.978   8.804  0.3586  3.2161 -2.8146
  641SOL     OW 3535   5.010   2.978   6.981  0.1509 -0.4290 -0.1043
  641SOL    HW1 3536   4.953   3.018   7.047  1.8521  1.8155  0.1158
  641SOL    HW2 3537   4.957   2.976   6.901 -0.6433  0.4815  0.3799
  642SOL     OW 3538   8.875   5.171   4.400  0.1185  0.0087 -0.1774
  642SOL    HW1 3539   8.922   5.222   4.334 -0.5687 -2.3319 -2.6413
  642SOL    HW2 3540   8.801   5.134   4.354 -0.7411 -1.3089  2.0953
  643SOL     OW 3541   6.734   3.563   3.022  0.0718 -0.4154 -0.3072
  643SOL    HW1 3542   6.788   3.641   3.036 -1.1273  0.5826 -1.0547
  643SOL    HW2 3543   6.687   3.551   3.105 -1.0763  0.7504 -0.7592
  644SOL     OW 3544   6.915   5.270   2.216 -0.0816  0.4247  0.3176
  644SOL    HW1 3545   6.857   5.196   2.199 -2.1338  1.6905  1.4353
  644SOL    HW2 3546   6.954   5.250   2.301 -0.3421  0.4568  0.4448
  645SOL     OW 3547   7.216   1.636   7.352  0.4311 -0.2371  0.3121
  645SOL    HW1 3548   7.141   1.587   7.387 -0.1904 -1.1061 -2.0353
  645SOL    HW2 3549   7.286   1.571   7.347  1.2223  0.4480  2.0164
  646SOL     OW 3550   4.533   3.372   6.523 -0.3077 -0.1470 -0.5018
  646SOL    HW1 3551   4.517   3.383   6.617  1.0932  0.0398 -0.2728
  646SOL    HW2 3552   4.464   3.311   6.495 -0.1707 -0.9698  0.8369
  647SOL     OW 3553   8.985   8.602   9.206  0.2000 -0.3458  0.0557
  647SOL    HW1 3554   8.986   8.679   9.149 -1.5829 -0.5237 -0.2641
  647SOL    HW2 3555   9.069   8.607   9.253  1.0424  0.6359 -1.4366
  648SOL     OW 3556   6.695   1.128   9.159 -0.5819  0.6853  0.1934
  648SOL    HW1 3557   6.694   1.206   9.214 -0.1241  0.1992  0.9140
  648SOL    HW2 3558   6.680   1.160   9.070  2.6007  1.9778 -0.0175
  649SOL     OW 3559   0.070   4.875   0.299  0.3421 -0.4631  0.2990
  649SOL    HW1 3560   0.107   4.950   0.346 -0.3415 -0.1653  0.3708
  649SOL    HW2 3561  -0.024   4.881   0.314  0.0612 -0.1748 -1.3549
  650SOL     OW 3562   6.637   7.912   9.179 -0.2750 -0.6597 -0.4190
  650SOL    HW1 3563   6.572   7.878   9.118 -0.2632 -0.9340 -0.2822
  650SOL    HW2 3564   6.637   8.007   9.165 -1.6564 -0.4925  0.5106
  651SOL     OW 3565   2.950   8.594   5.730 -0.0811  0.3761  0.0202
  651SOL    HW1 3566   3.013   8.530   5.699 -1.1137 -0.9201  0.5032
  651SOL    HW2 3567   2.866   8.547   5.732 -0.5095  1.1099  2.3389
  652SOL     OW 3568   7.926   2.094   2.905  0.3936 -0.1275 -0.0126
  652SOL    HW1 3569   7.991   2.057   2.966 -0.3559 -1.3970  0.0618
  652SOL    HW2 3570   7.953   2.185   2.893  1.4586 -0.2849  0.9949
  653SOL     OW 3571   5.714   4.076   3.799  0.7865 -0.5630 -0.0807
  653SOL    HW1 3572   5.772   4.046   3.730  0.1123 -0.5303 -0.6789
  653SOL    HW2 3573   5.689   4.165   3.773 -1.5013 -1.4486 -1.1875
  654SOL     OW 3574   9.584   2.315   1.932 -0.6200 -0.4474  0.6729
  654SOL    HW1 3575   9.502   2.322   1.980 -0.8777  1.0044  0.0502
  654SOL    HW2 3576   9.569   2.244   1.869 -1.8233  0.5530 -0.2075
  655SOL     OW 3577   7.409   6.486   2.739 -0.2098 -0.0582 -0.4661
  655SOL    HW1 3578   7.435   6.396   2.719 -0.3852 -0.4357  0.9175
  655SOL    HW2 3579   7.402   6.488   2.834  2.0646  2.0307 -0.2467
  656SOL     OW 3580   9.646   2.359   6.503  0.5128  0.0377 -0.2964
  656SOL    HW1 3581   9.629   2.451   6.485 -1.5568 -0.4026 -0.9225
  656SOL    HW2 3582   9.595   2.340   6.582  0.6731 -0.6267 -0.3430
  657SOL     OW 3583   2.686   5.024   1.840 -0.8588 -0.1392 -0.2307
  657SOL    HW1 3584   2.745   5.096   1.859  0.0018 -0.7813 -0.4286
  657SOL    HW2 3585   2.644   5.005   1.924  0.1539 -0.5033  0.2044
  658SOL     OW 3586   0.241   4.127   3.475 -0.3724 -0.0623  0.1407
  658SOL    HW1 3587   0.224   4.198   3.537 -2.3223 -0.2607 -0.0987
  658SOL    HW2 3588   0.160   4.119   3.425 -0.0922 -2.2348 -0.0674
  659SOL     OW 3589   1.114   9.475   1.415 -0.4564  0.4611 -0.3933
  659SOL    HW1 3590   1.177   9.427   1.361  2.1254  1.9486  1.1117
  659SOL    HW2 3591   1.029   9.440   1.389  0.8759 -1.0323 -3.1741
  660SOL     OW 3592   4.148   8.811   8.028  0.6531 -0.4340 -0.1671
  660SOL    HW1 3593   4.054   8.821   8.041  0.8424  0.5275  0.6279
  660SOL    HW2 3594   4.161   8.828   7.934  0.0119 -0.7983 -0.3264
  661SOL     OW 3595   6.269   8.155   3.591  0.7036  0.3586 -0.1754
  661SOL    HW1 3596   6.234   8.124   3.675 -1.1838  1.1473 -0.6233
  661SOL    HW2 3597   6.288   8.075   3.542  0.6332 -0.0960  0.5205
  662SOL     OW 3598   7.526   5.472   7.889  0.0345 -0.8382 -0.2223
  662SOL    HW1 3599   7.473   5.426   7.824  0.3334 -1.2834 -0.1534
  662SOL    HW2 3600   7.602   5.415   7.902 -0.6184 -1.3842  1.4436
  663SOL     OW 3601   5.825   1.232   1.557 -0.1402  0.0261 -0.2381
  663SOL    HW1 3602   5.860   1.261   1.641  0.1039  0.1827 -0.3927
  663SOL    HW2 3603   5.748   1.180   1.580 -0.2512  0.3164  0.0698
  664SOL     OW 3604   1.249   1.630   5.456 -0.2917 -0.4606 -0.1900
  664SOL    HW1 3605   1.212   1.633   5.368 -1.2084 -1.3612  0.1502
  664SOL    HW2 3606   1.274   1.539   5.469 -0.0355 -0.3079  0.4332
  665SOL     OW 3607   9.818   8.901   5.015 -0.3962  0.0977  0.5232
  665SOL    HW1 3608   9.822   8.883   5.109  2.9498  0.4307  0.5373
  665SOL    HW2 3609   9.875   8.976   5.002  0.7733 -1.1207 -2.0049
  666SOL     OW 3610   8.760   1.819   8.328  0.1285 -0.0806  0.0585
  666SOL    HW1 3611   8.814   1.744   8.302 -0.0255 -0.6440  1.2874
  666SOL    HW2 3612   8.677   1.806   8.281  1.1490  1.0418 -2.2147
  667SOL     OW 3613   5.026   6.193   0.294  0.2252 -0.0187  0.3298
  667SOL    HW1 3614   4.965   6.167   0.363  0.1154 -1.9627 -0.4260
  667SOL    HW2 3615   5.091   6.122   0.292  0.0862 -0.1465 -1.6895
  668SOL     OW 3616   5.254   3.482   9.016 -0.1486  0.0716 -0.6859
  668SOL    HW1 3617   5.168   3.441   9.025  0.6994 -1.6627 -0.0629
  668SOL    HW2 3618   5.295   3.438   8.942  1.3717 -1.4036  0.9386
  669SOL     OW 3619   4.697   2.697   7.721 -0.1223  0.2658  0.3578
  669SOL    HW1 3620   4.738   2.638   7.658  0.0444  1.1263 -0.3698
  669SOL    HW2 3621   4.619   2.651   7.751 -0.0157 -0.3013 -0.2122
  670SOL     OW 3622   1.396   5.852   7.772 -0.4362 -0.1475 -0.6624
  670SOL    HW1 3623   1.363   5.928   7.820 -0.2739 -0.4605 -0.0600
  670SOL    HW2 3624   1.324   5.790   7.772  0.3619 -1.1450  1.3172
  671SOL     OW 3625   8.852   1.908   0.187  0.4665  0.2624 -0.0681
  671SOL    HW1 3626   8.916   1.927   0.118  1.9464 -0.6098  0.9891
  671SOL    HW2 3627   8.855   1.812   0.196 -1.7797  0.0812 -0.6831
  672SOL     OW 3628   9.577   6.943   1.436 -0.2712  0.2297  0.3540
  672SOL    HW1 3629   9.502   7.001   1.445 -1.1887 -0.8562 -0.0437
  672SOL    HW2 3630   9.653   7.001   1.446 -1.1402  1.3551  0.7412
  673SOL     OW 3631   6.502   3.090   2.359 -0.7846 -0.0100 -0.8888
  673SOL    HW1 3632   6.428   3.144   2.386 -0.1160 -0.5178  2.2933
  673SOL    HW2 3633   6.470   3.000   2.368  0.6464 -0.2968  2.2764
  674SOL     OW 3634   8.139   5.669   8.191  0.0160 -0.1414 -0.5755
  674SOL    HW1 3635   8.198   5.712   8.253 -0.5228 -0.1793 -0.0305
  674SOL    HW2 3636   8.097   5.599   8.241  0.5911 -1.0748 -1.3528
  675SOL     OW 3637   3.974   7.695   6.159 -0.5887 -0.2198 -0.4359
  675SOL    HW1 3638   4.055   7.713   6.110 -0.3161 -0.2663 -0.0032
  675SOL    HW2 3639   3.904   7.725   6.101 -0.1868  1.4373 -0.1068
  676SOL     OW 3640   2.814   4.276   6.739  0.1042 -0.3916  0.1261
  676SOL    HW1 3641   2.850   4.365   6.746  0.1638 -0.4315  0.3271
  676SOL    HW2 3642   2.856   4.240   6.661 -1.4295  0.4616 -1.1637
  677SOL     OW 3643   7.945   9.803   6.128  0.4232 -0.4394  0.0546
  677SOL    HW1 3644   7.938   9.716   6.089  1.0583 -0.1358 -0.7601
  677SOL    HW2 3645   8.033   9.833   6.104  0.0816  0.5741  0.0273
  678SOL     OW 3646   9.613   3.559   8.896 -0.4386 -0.6594  0.3137
  678SOL    HW1 3647   9.625   3.650   8.924 -0.9118 -0.8747  1.2465
  678SOL    HW2 3648   9.699   3.519   8.907 -0.0641 -0.1845 -0.7021
  679SOL     OW 3649   6.165   2.721   3.715 -0.2594  0.4512  0.0057
  679SOL    HW1 3650   6.176   2.729   3.620  0.1176 -0.6351 -0.0541
  679SOL    HW2 3651   6.197   2.633   3.735 -3.0708 -0.5036  0.7232
  680SOL     OW 3652   8.893   2.614   1.890  1.0023  0.3442  0.0641
  680SOL    HW1 3653   8.938   2.613   1.806  1.1807  0.3692  0.1590
  680SOL    HW2 3654   8.962   2.632   1.954  0.7043  1.4534  0.1068
  681SOL     OW 3655   8.746   1.345   5.749  0.9814  0.0990  0.2074
  681SOL    HW1 3656   8.731   1.437   5.727 -0.3402 -0.2503 -0.5115
  681SOL    HW2 3657   8.774   1.305   5.667 -3.2962 -1.0788 -0.9718
  682SOL     OW 3658   4.873   0.912   6.378  0.2063 -0.4289 -0.3435
  682SOL    HW1 3659   4.852   1.003   6.357  1.4532 -0.2265 -0.8424
  682SOL    HW2 3660   4.884   0.911   6.473  2.0719  0.4157 -0.5030
  683SOL     OW 3661   0.975   1.146   4.823 -0.4768  0.3402  0.0900
  683SOL    HW1 3662   0.989   1.071   4.881 -0.3366  0.9219  0.8302
  683SOL    HW2 3663   1.039   1.211   4.853 -0.1346  0.5174 -0.9766
  684SOL     OW 3664   0.669   2.304   2.646  0.2057  0.2676 -0.0626
  684SOL    HW1 3665   0.643   2.395   2.638  0.0733  0.3752  1.3337
  684SOL    HW2 3666   0.625   2.273   2.725 -1.9408 -1.7988 -1.8780
  685SOL     OW 3667   4.040   8.845   8.736  0.1313 -0.6063  0.1394
  685SOL    HW1 3668   4.121   8.815   8.696 -0.3943  0.9596 -2.3499
  685SOL    HW2 3669   3.971   8.822   8.673 -0.9502  0.6704  0.7783
  686SOL     OW 3670   3.614   8.789   4.300 -0.2180  0.0321 -0.1280
  686SOL    HW1 3671   3.583   8.713   4.251  0.5286  0.3386 -1.1069
  686SOL    HW2 3672   3.658   8.843   4.234  0.0735  0.8599  0.7338
  687SOL     OW 3673   0.212   3.078   6.466 -0.5188  0.2038  0.1699
  687SOL    HW1 3674   0.176   3.115   6.386  0.9905 -0.2295 -0.7471
  687SOL    HW2 3675   0.291   3.031   6.438 -0.7370 -1.1822  1.6994
  688SOL     OW 3676   2.822   4.166   3.482  0.2730  0.1623  0.1405
  688SOL    HW1 3677   2.893   4.208   3.531  0.1876  1.2222 -0.6031
  688SOL    HW2 3678   2.863   4.139   3.399 -0.4981  2.2400 -0.9897
  689SOL     OW 3679   5.476   1.690   2.059 -0.1331 -0.0777 -0.2700
  689SOL    HW1 3680   5.505   1.661   2.145  1.0060  1.1034 -0.2201
  689SOL    HW2 3681   5.387   1.721   2.073 -0.3160 -0.8045  0.2573
  690SOL     OW 3682   6.284   7.517   4.750 -0.2015  0.1962  0.0906
  690SOL    HW1 3683   6.357   7.571   4.720  0.5506 -0.8220  0.0625
  690SOL    HW2 3684   6.300   7.505   4.844  0.2825 -0.9475 -0.1273
  691SOL     OW 3685   9.747   5.988   0.645  0.1590 -0.5068  0.3445
  691SOL    HW1 3686   9.808   6.049   0.604 -0.1397 -0.5996 -0.2455
  691SOL    HW2 3687   9.777   5.982   0.736 -0.3715  1.2598  0.6890
  692SOL     OW 3688   1.814   0.306   3.850  0.6230  0.5303  0.3761
  692SOL    HW1 3689   1.869   0.228   3.858 -0.9862 -0.5763  1.3114
  692SOL    HW2 3690   1.746   0.281   3.788  0.2880  1.3029  0.4283
  693SOL     OW 3691   9.769   6.191   6.696  1.0266  0.1398  0.2564
  693SOL    HW1 3692   9.731   6.254   6.757 -1.0227 -1.3659  0.6343
  693SOL    HW2 3693   9.861   6.185   6.723  0.1580 -0.7078  3.5400
  694SOL     OW 3694   7.461   8.531   9.406 -0.0746  0.2879 -0.1375
  694SOL    HW1 3695   7.526   8.537   9.477 -1.5654  0.0055  1.3190
  694SOL    HW2 3696   7.494   8.461   9.350 -0.5518 -1.9988  2.2272
  695SOL     OW 3697   8.479   6.416   2.871 -0.1845  0.5410  0.3487
  695SOL    HW1 3698   8.467   6.329   2.833  0.2232  0.7480 -0.2938
  695SOL    HW2 3699   8.541   6.459   2.811 -0.4460  1.2980  0.6081
  696SOL     OW 3700   6.318   1.691   9.232  0.0702  0.1400 -0.6284
  696SOL    HW1 3701   6.319   1.737   9.316  0.3204 -2.3140  0.8108
  696SOL    HW2 3702   6.410   1.686   9.206  0.2124 -0.7928 -0.0066
  697SOL     OW 3703   7.685   9.192   7.612 -0.6423  0.3905  0.3703
  697SOL    HW1 3704   7.723   9.126   7.670 -1.5452  1.9831  2.9260
  697SOL    HW2 3705   7.629   9.143   7.552  0.2365 -1.3119  0.8817
  698SOL     OW 3706   9.694   7.373   4.003 -0.2018  0.1924  0.5966
  698SOL    HW1 3707   9.756   7.347   4.070 -0.2650 -0.3836  0.4444
  698SOL    HW2 3708   9.667   7.290   3.963  1.4399  0.6284 -1.5891
  699SOL     OW 3709   5.801   2.187   1.995 -0.0768  0.3190 -0.4569
  699SOL    HW1 3710   5.800   2.216   2.086  0.6997 -0.9769 -0.0226
  699SOL    HW2 3711   5.745   2.110   1.993  1.1957 -0.6311 -0.7245
  700SOL     OW 3712   6.194   2.763   7.676 -0.1796  0.3805  0.2906
  700SOL    HW1 3713   6.133   2.836   7.662 -0.4369 -0.0127 -0.7224
  700SOL    HW2 3714   6.166   2.696   7.613  0.5481 -0.2811  0.6579
  701SOL     OW 3715   0.140   8.859   2.902 -0.3771  0.1712  0.3397
  701SOL    HW1 3716   0.107   8.784   2.953 -0.6787 -0.4283 -0.6913
  701SOL    HW2 3717   0.062   8.914   2.888 -0.4315  0.0129  0.0022
  702SOL     OW 3718   0.830   3.720   4.444 -0.2476 -0.0273  0.3889
  702SOL    HW1 3719   0.787   3.634   4.441  0.7159 -0.4995 -0.7249
  702SOL    HW2 3720   0.840   3.744   4.352  1.3980  0.2968  0.6260
  703SOL     OW 3721   1.119   7.498   7.097  0.2990 -0.2207 -0.1848
  703SOL    HW1 3722   1.039   7.525   7.142  0.0625  0.2889 -0.8976
  703SOL    HW2 3723   1.125   7.404   7.114  0.7147  0.1004  1.6625
  704SOL     OW 3724   6.456   3.192   2.808 -0.2001 -0.2887  0.4712
  704SOL    HW1 3725   6.443   3.098   2.825  0.0796 -0.2814  0.7359
  704SOL    HW2 3726   6.368   3.225   2.789 -0.1696 -0.7921 -0.5868
  705SOL     OW 3727   6.240   5.079   2.780  0.0321 -0.2761 -0.0331
  705SOL    HW1 3728   6.273   5.080   2.690  2.5376  0.6320  0.7858
  705SOL    HW2 3729   6.196   4.994   2.788  2.3004 -1.7022 -1.3227
  706SOL     OW 3730   0.187   8.480   0.772 -0.3810  0.9265 -0.3165
  706SOL    HW1 3731   0.166   8.392   0.803  1.3476  0.2994 -0.8005
  706SOL    HW2 3732   0.240   8.518   0.843  2.5498 -0.0662 -1.8115
  707SOL     OW 3733   6.264   4.635   1.147 -0.0926  0.0096 -0.6292
  707SOL    HW1 3734   6.213   4.654   1.226 -0.7146  2.7418 -1.5683
  707SOL    HW2 3735   6.201   4.597   1.086 -0.3938  0.7781 -0.8194
  708SOL     OW 3736   2.140   6.395   0.672  0.0538  0.3302  0.1768
  708SOL    HW1 3737   2.108   6.314   0.713 -1.2933  0.4129 -0.6282
  708SOL    HW2 3738   2.063   6.452   0.672  1.1500  1.8830  1.3232
  709SOL     OW 3739   0.936   8.733   6.597 -0.0498 -0.2780  0.0334
  709SOL    HW1 3740   0.973   8.658   6.551 -1.7239 -0.6407 -0.8137
  709SOL    HW2 3741   0.924   8.799   6.529  1.1274  0.6726  0.7189
  710SOL     OW 3742   5.185   4.071   9.295  0.3783 -0.0443 -0.1731
  710SOL    HW1 3743   5.116   4.034   9.240 -0.0168 -2.1376  1.5831
  710SOL    HW2 3744   5.238   3.996   9.322  2.9141  1.3931 -0.7878
  711SOL     OW 3745   6.816   9.102   3.470 -0.5897  0.4710  0.2997
  711SOL    HW1 3746   6.762   9.165   3.422 -0.1385  0.8396  0.2666
  711SOL    HW2 3747   6.902   9.144   3.476 -0.1648 -0.3174 -0.0784
  712SOL     OW 3748   6.702   5.470   6.864 -0.1773 -0.4778 -1.1124
  712SOL    HW1 3749   6.676   5.379   6.847 -0.2806 -0.9711  1.2825
  712SOL    HW2 3750   6.624   5.510   6.902  0.5229 -0.0545 -0.0813
  713SOL     OW 3751   8.903   4.210   7.215  0.3954 -0.0598 -0.2780
  713SOL    HW1 3752   8.989   4.172   7.200  0.2298  0.0606 -1.7292
  713SOL    HW2 3753   8.911   4.300   7.183 -0.1725  0.0430 -0.1433
  714SOL     OW 3754   8.655   8.748   3.505 -0.4125  0.7424 -0.8907
  714SOL    HW1 3755   8.667   8.654   3.521 -0.6321  0.5239 -1.9378
  714SOL    HW2 3756   8.708   8.790   3.572 -0.9760 -0.1121  0.1247
  715SOL     OW 3757   3.443   2.821   8.817  0.3791 -0.2902  0.0504
  715SOL    HW1 3758   3.392   2.873   8.879  0.9411  1.3092 -0.7503
  715SOL    HW2 3759   3.399   2.737   8.812 -1.0710  0.4024  0.7871
  716SOL     OW 3760   3.419   7.384   8.377  0.2007  0.6038 -0.5244
  716SOL    HW1 3761   3.458   7.303   8.409 -0.2261  0.6117  0.0541
  716SOL    HW2 3762   3.329   7.382   8.410 -0.4596  0.3393 -2.2675
  717SOL     OW 3763   2.594   4.312   7.802  0.5719  0.1508  0.3277
  717SOL    HW1 3764   2.533   4.308   7.729  0.9507 -2.8843  0.0613
  717SOL    HW2 3765   2.668   4.362   7.768  0.1028  0.0636 -0.8682
  718SOL     OW 3766   2.394   4.574   3.436  0.7722  0.1910  0.5263
  718SOL    HW1 3767   2.301   4.558   3.421  1.0520 -1.0899 -0.0535
  718SOL    HW2 3768   2.428   4.488   3.462  2.0511  0.2824 -0.7284
  719SOL     OW 3769   3.221   1.492   8.594  0.3737 -0.2836 -0.2543
  719SOL    HW1 3770   3.158   1.549   8.550  1.8084  0.3518 -1.6030
  719SOL    HW2 3771   3.174   1.410   8.608 -0.5537 -0.0668 -1.8308
  720SOL     OW 3772   3.120   3.015   7.610 -0.1640  0.2117 -0.6626
  720SOL    HW1 3773   3.118   3.105   7.580 -2.9142  0.9347  1.2937
  720SOL    HW2 3774   3.169   2.968   7.543 -0.4861  2.7711 -2.8312
  721SOL     OW 3775   3.022   7.395   6.989  0.5398 -0.1353 -0.0506
  721SOL    HW1 3776   2.997   7.303   6.986 -1.3374  0.3513 -1.4802
  721SOL    HW2 3777   3.000   7.422   7.079 -0.3817 -0.7258 -0.0750
  722SOL     OW 3778   4.976   5.280   3.319  0.2856  0.2650  0.4577
  722SOL    HW1 3779   5.061   5.323   3.325  0.4187  0.3402 -1.4425
  722SOL    HW2 3780   4.990   5.208   3.257 -0.6952 -0.6408  1.2461
  723SOL     OW 3781   1.316   9.534   8.699  0.0792 -0.5166 -0.5433
  723SOL    HW1 3782   1.257   9.459   8.714  2.3290 -2.2479  0.2495
  723SOL    HW2 3783   1.285   9.573   8.617 -2.9249 -0.5205  0.4782
  724SOL     OW 3784   5.319   8.975   0.687 -0.1806  0.1377  0.2955
  724SOL    HW1 3785   5.381   8.922   0.637  0.2704  1.2612 -0.3793
  724SOL    HW2 3786   5.294   8.920   0.761 -0.7485 -1.5150 -1.0742
  725SOL     OW 3787   4.229   2.540   2.632  0.4535 -0.0679  0.7698
  725SOL    HW1 3788   4.149   2.490   2.615 -0.2529  0.6788  1.7481
  725SOL    HW2 3789   4.235   2.543   2.727 -0.3310  2.8518  0.8192
  726SOL     OW 3790   8.747   2.976   7.315  0.0411  0.5835  0.0512
  726SOL    HW1 3791   8.734   2.882   7.315 -0.5303  0.6416 -1.4874
  726SOL    HW2 3792   8.799   2.993   7.236 -1.7352  1.7673 -0.9321
  727SOL     OW 3793   1.684   7.905   1.885 -0.6406 -0.2589  0.2800
  727SOL    HW1 3794   1.614   7.864   1.835 -0.4345 -1.3514  0.8582
  727SOL    HW2 3795   1.642   7.941   1.962 -0.5592 -1.0278  0.6911
  728SOL     OW 3796   2.477   5.188   9.231 -0.4645 -0.3339 -0.3151
  728SOL    HW1 3797   2.562   5.214   9.194 -0.3752 -0.0370  0.0780
  728SOL    HW2 3798   2.414   5.246   9.189 -0.6246 -1.3031 -1.4320
  729SOL     OW 3799   1.824   9.322   6.384  0.6184 -0.3060 -0.1263
  729SOL    HW1 3800   1.896   9.384   6.385  0.6442 -0.3050  1.5792
  729SOL    HW2 3801   1.860   9.243   6.343  1.4029 -0.0853  0.1300
  730SOL     OW 3802   0.002   5.769   4.794  0.1531  0.2247  0.1044
  730SOL    HW1 3803   0.084   5.804   4.760  0.1473 -0.4546 -0.6326
  730SOL    HW2 3804  -0.056   5.764   4.718 -0.3028 -0.0761  0.4634
  731SOL     OW 3805   6.020   4.706   6.672 -0.0699  0.7000  0.0037
  731SOL    HW1 3806   5.952   4.768   6.699 -0.1300  0.6739 -0.0868
  731SOL    HW2 3807   6.062   4.679   6.753 -3.0972 -2.7537  0.6846
  732SOL     OW 3808   4.580   4.502   8.626 -0.4387 -0.0609 -0.1377
  732SOL    HW1 3809   4.628   4.515   8.544 -0.5692  2.5496  0.1046
  732SOL    HW2 3810   4.489   4.492   8.598 -0.8823  3.3975 -0.3379
  733SOL     OW 3811   3.814   5.203   9.226  0.5400  0.2480  0.2772
  733SOL    HW1 3812   3.727   5.243   9.220  0.3235 -0.2762 -0.0710
  733SOL    HW2 3813   3.826   5.158   9.142  1.6279  1.2866 -0.1570
  734SOL     OW 3814   5.492   8.221   9.794  0.2493  0.2622 -0.1473
  734SOL    HW1 3815   5.404   8.215   9.830  0.5997  0.8898  0.8617
  734SOL    HW2 3816   5.542   8.156   9.843  0.3172 -0.2190 -0.8407
  735SOL     OW 3817   4.191   7.383   2.573 -0.6557 -0.5291 -0.1105
  735SOL    HW1 3818   4.264   7.321   2.577 -0.1357  0.0929  0.2832
  735SOL    HW2 3819   4.217   7.445   2.505 -0.8826 -0.3799 -0.0621
  736SOL     OW 3820   9.431   7.167   9.151 -0.5887  0.1284  0.2035
  736SOL    HW1 3821   9.361   7.233   9.160  0.2340  1.2870 -1.4187
  736SOL    HW2 3822   9.511   7.219   9.147  0.1672 -1.0510 -0.1594
  737SOL     OW 3823   1.232   8.921   5.858 -0.1213  0.0818 -0.2286
  737SOL    HW1 3824   1.263   8.899   5.770  0.4640 -0.4535  0.1048
  737SOL    HW2 3825   1.192   8.840   5.890  1.8673 -0.5022  0.9334
  738SOL     OW 3826   3.712   6.833   0.137  0.0700 -0.0538  0.7349
  738SOL    HW1 3827   3.749   6.859   0.222  1.0852 -1.8232  0.8851
  738SOL    HW2 3828   3.723   6.910   0.081 -1.3295  1.4189  2.3783
  739SOL     OW 3829   2.476   6.134   3.300 -0.1203  0.3284  0.5941
  739SOL    HW1 3830   2.384   6.163   3.304  0.0257  1.0170 -0.4975
  739SOL    HW2 3831   2.480   6.077   3.223  0.4418  0.6299  0.3920
  740SOL     OW 3832   3.979   1.462   9.514 -0.1667  0.7015 -0.0689
  740SOL    HW1 3833   3.928   1.394   9.469  0.1339  0.7315 -0.4646
  740SOL    HW2 3834   4.054   1.476   9.457  1.4943 -0.9560  1.5844
  741SOL     OW 3835   4.844   9.597   5.420 -1.1505  0.1451  0.3825
  741SOL    HW1 3836   4.902   9.565   5.490  0.2427  0.4300 -0.5946
  741SOL    HW2 3837   4.827   9.688   5.442 -0.7644  0.2155  0.3909
  742SOL     OW 3838   4.064   1.469   4.620 -0.1281  0.2538  0.2068
  742SOL    HW1 3839   3.993   1.404   4.617 -0.4475  0.3751  2.7252
  742SOL    HW2 3840   4.139   1.419   4.653 -0.1406  0.9375  1.3170
  743SOL     OW 3841   5.218   4.081   6.009 -1.2132 -0.3762 -0.2006
  743SOL    HW1 3842   5.268   4.017   5.958 -2.8239 -0.8744 -1.2363
  743SOL    HW2 3843   5.163   4.027   6.067  0.3469  0.1739  1.9048
  744SOL     OW 3844   6.305   2.561   8.880  0.5913 -0.2339  0.1263
  744SOL    HW1 3845   6.330   2.470   8.862  0.8449  0.0813 -1.2530
  744SOL    HW2 3846   6.334   2.609   8.803 -1.2540  0.7087 -0.0248
  745SOL     OW 3847   2.090   2.467   6.636 -0.3423 -0.1516  0.1301
  745SOL    HW1 3848   2.063   2.548   6.680 -0.8428 -0.9647  1.3963
  745SOL    HW2 3849   2.028   2.457   6.564 -1.2524 -0.1608  0.8839
  746SOL     OW 3850   9.819   9.378   2.925 -0.4547  0.0115 -0.6278
  746SOL    HW1 3851   9.874   9.352   2.999  0.2582 -1.3716 -1.5886
  746SOL    HW2 3852   9.734   9.340   2.944 -0.2123 -0.5336 -0.5965
  747SOL     OW 3853   7.596   1.320   1.512 -0.3209 -0.4101 -0.0197
  747SOL    HW1 3854   7.523   1.323   1.450 -0.5048  0.2847  0.2293
  747SOL    HW2 3855   7.664   1.269   1.466 -0.1342  0.8070 -1.1551
  748SOL     OW 3856   6.179   9.216   3.064  0.8240  0.0716 -0.1809
  748SOL    HW1 3857   6.246   9.150   3.076  0.1562 -0.6003 -0.0383
  748SOL    HW2 3858   6.138   9.225   3.150  0.9104  0.6725 -0.1979
  749SOL     OW 3859   6.884   0.681   4.876  0.2260  0.3287  0.5312
  749SOL    HW1 3860   6.791   0.701   4.879  0.2002  0.0985  1.6833
  749SOL    HW2 3861   6.926   0.766   4.859 -0.2423  0.2201 -1.3575
  750SOL     OW 3862   0.341   1.230   6.366  0.7460 -0.3428  0.3620
  750SOL    HW1 3863   0.412   1.277   6.323  0.9931  0.0847  1.2118
  750SOL    HW2 3864   0.281   1.298   6.396  1.0085 -0.5569  1.4272
  751SOL     OW 3865   4.496   4.205   6.228  0.0977 -0.0720 -0.4350
  751SOL    HW1 3866   4.566   4.168   6.173  0.0109  1.4081 -1.6178
  751SOL    HW2 3867   4.539   4.273   6.279 -0.4403  0.7688 -1.0832
  752SOL     OW 3868   0.792   1.081   9.210  0.2563  0.1606  0.4102
  752SOL    HW1 3869   0.737   1.004   9.229  1.1460 -1.2355 -2.1377
  752SOL    HW2 3870   0.749   1.123   9.136  1.4561  0.2721 -0.2501
  753SOL     OW 3871   1.759   9.546   6.718  0.7203  0.0583  0.3421
  753SOL    HW1 3872   1.748   9.595   6.800  1.1014 -1.9035  1.6391
  753SOL    HW2 3873   1.838   9.493   6.733  0.7621 -0.3855 -1.2874
  754SOL     OW 3874   2.783   0.473   5.051 -0.0886 -0.5238  0.0317
  754SOL    HW1 3875   2.864   0.475   5.000 -0.3833 -1.8273 -0.5314
  754SOL    HW2 3876   2.811   0.489   5.141  0.3606  2.5112 -0.5276
  755SOL     OW 3877   1.689   9.466   7.650  0.1337 -0.0980  0.9953
  755SOL    HW1 3878   1.678   9.449   7.556 -0.5819  0.5080  0.9590
  755SOL    HW2 3879   1.746   9.396   7.680  0.7370 -0.0479  0.0158
  756SOL     OW 3880   4.480   1.324   8.316 -0.1947 -0.3188  1.0487
  756SOL    HW1 3881   4.473   1.404   8.263  0.1539 -0.2792  1.0628
  756SOL    HW2 3882   4.563   1.333   8.363  0.5768 -1.3477 -0.0474
  757SOL     OW 3883   1.401   6.206   2.698 -0.0522 -0.5201  0.4148
  757SOL    HW1 3884   1.331   6.250   2.747 -0.2977 -2.9750  2.5244
  757SOL    HW2 3885   1.481   6.248   2.728 -0.4064 -0.1292  0.8333
  758SOL     OW 3886   3.526   8.410   8.139 -0.3539 -0.4044 -0.0682
  758SOL    HW1 3887   3.581   8.450   8.071 -0.4220  0.0110  0.1173
  758SOL    HW2 3888   3.589   8.366   8.197 -0.0127  1.4889  1.1053
  759SOL     OW 3889   4.113   5.242   3.531 -0.4922  0.5426 -0.0671
  759SOL    HW1 3890   4.170   5.303   3.484  0.3292 -1.0252 -1.1949
  759SOL    HW2 3891   4.026   5.260   3.496  0.2110 -1.2412 -3.0910
  760SOL     OW 3892   2.708   8.773   2.471 -0.3657  0.5884 -0.0440
  760SOL    HW1 3893   2.619   8.784   2.436 -1.2068  0.0722  1.7994
  760SOL    HW2 3894   2.699   8.788   2.565  1.4441  0.1278  0.2466
  761SOL     OW 3895   9.216   3.791   7.340 -0.5750  0.4261 -0.2790
  761SOL    HW1 3896   9.255   3.843   7.410 -0.5212  0.1145 -0.0772
  761SOL    HW2 3897   9.276   3.718   7.328 -1.0077  0.0319 -0.0778
  762SOL     OW 3898   1.554   9.207   6.397  0.1139 -0.5235  0.0597
  762SOL    HW1 3899   1.603   9.290   6.398  1.5091 -1.2946  1.4671
  762SOL    HW2 3900   1.557   9.178   6.306  1.6182 -0.1215 -0.0443
  763SOL     OW 3901   4.797   1.398   1.495  0.0559  0.4941 -0.1058
  763SOL    HW1 3902   4.812   1.492   1.484  1.3532  0.1203 -1.7861
  763SOL    HW2 3903   4.724   1.378   1.436 -0.1438  0.4174  0.1640
  764SOL     OW 3904   4.499   3.068   6.585  0.3104 -0.2293 -0.1254
  764SOL    HW1 3905   4.427   3.053   6.646 -0.8319  1.0721 -1.0999
  764SOL    HW2 3906   4.563   3.120   6.635 -1.0165  1.6099 -0.2245
  765SOL     OW 3907   6.123   6.353   9.368  0.1516  0.1122  0.5954
  765SOL    HW1 3908   6.083   6.359   9.455 -1.9247 -0.1231 -0.2946
  765SOL    HW2 3909   6.066   6.405   9.311  0.1227 -1.6002 -1.0572
  766SOL     OW 3910   6.107   5.339   7.597 -0.6186  0.1687  0.4016
  766SOL    HW1 3911   6.016   5.365   7.608 -0.7243  0.3740 -0.8743
  766SOL    HW2 3912   6.146   5.406   7.542 -0.1362 -0.8091 -0.4854
  767SOL     OW 3913   5.576   7.476   0.197 -0.1308 -0.1346 -0.1568
  767SOL    HW1 3914   5.510   7.406   0.194  1.1950 -1.5859  1.9329
  767SOL    HW2 3915   5.582   7.499   0.289  1.7781  0.4612 -0.3909
  768SOL     OW 3916   8.959   3.060   3.925 -0.5170  0.2360 -0.2422
  768SOL    HW1 3917   8.913   3.140   3.901 -0.8650  0.2197  0.3661
  768SOL    HW2 3918   8.996   3.079   4.011  1.0248  0.4237 -0.8946
  769SOL     OW 3919   4.914   0.698   4.126  0.2072  0.0224 -0.5961
  769SOL    HW1 3920   4.911   0.775   4.182  1.7423  0.1676 -0.6642
  769SOL    HW2 3921   4.964   0.634   4.176 -0.4296 -0.6900 -0.8448
  770SOL     OW 3922   8.053   8.799   2.789  0.1669 -0.2532 -0.2961
  770SOL    HW1 3923   8.004   8.865   2.739  0.6703  0.4313  0.0943
  770SOL    HW2 3924   8.078   8.844   2.870 -0.3027 -1.2240  0.4180
  771SOL     OW 3925   5.887   9.764   7.221 -0.3418 -0.1775  0.3721
  771SOL    HW1 3926   5.850   9.675   7.218  0.6901 -0.5991 -1.5199
  771SOL    HW2 3927   5.889   9.786   7.314 -0.5330 -2.1850  0.8986
  772SOL     OW 3928   7.948   1.268   5.643  0.3041  0.1592 -0.2270
  772SOL    HW1 3929   7.887   1.245   5.713  0.3939 -0.4708 -0.3584
  772SOL    HW2 3930   7.969   1.185   5.601  2.0198  0.2267  0.4380
  773SOL     OW 3931   7.693   5.109   2.497 -0.0276 -0.1643  0.1043
  773SOL    HW1 3932   7.761   5.095   2.563  0.1662  1.1535  0.2238
  773SOL    HW2 3933   7.636   5.176   2.536 -0.9277 -0.6681 -0.3327
  774SOL     OW 3934   2.147   3.980   8.392  0.6458  0.8820 -0.0320
  774SOL    HW1 3935   2.227   4.027   8.369  1.7883 -0.5756  0.7851
  774SOL    HW2 3936   2.133   3.919   8.319  0.9662  0.3300  0.3558
  775SOL     OW 3937   9.327   6.958   2.948  0.3032  0.1226  0.6500
  775SOL    HW1 3938   9.291   6.874   2.920  0.1745  1.0746 -2.3783
  775SOL    HW2 3939   9.401   6.935   3.004  1.8040 -2.1327 -2.0290
  776SOL     OW 3940   4.391   9.836   9.406  0.1635 -0.2678  0.2663
  776SOL    HW1 3941   4.303   9.870   9.419  0.5304  0.5920  0.5197
  776SOL    HW2 3942   4.417   9.801   9.492  1.4599  2.7945  1.2493
  777SOL     OW 3943   0.891   3.269   4.168 -0.0348 -0.4528  0.1228
  777SOL    HW1 3944   0.938   3.348   4.142  0.1199 -0.0616  1.4833
  777SOL    HW2 3945   0.959   3.201   4.174 -0.1240 -0.6266 -0.7805
  778SOL     OW 3946   3.907   4.803   3.684 -0.6065 -0.2722  0.2013
  778SOL    HW1 3947   3.951   4.725   3.652 -1.4250 -0.9384  0.6682
  778SOL    HW2 3948   3.819   4.798   3.647 -1.3483 -0.6863  1.9386
  779SOL     OW 3949   3.010   6.825   2.452 -0.2344 -0.1519 -0.6221
  779SOL    HW1 3950   3.008   6.877   2.532  0.9902 -0.3613 -0.4275
  779SOL    HW2 3951   3.098   6.839   2.417 -0.7915  0.0324 -2.0012
  780SOL     OW 3952   8.534   1.558   9.394  0.1300  0.0516 -0.1031
  780SOL    HW1 3953   8.492   1.632   9.439 -0.1423 -0.5754  0.6851
  780SOL    HW2 3954   8.497   1.480   9.436  0.2086 -0.5423 -1.1164
  781SOL     OW 3955   3.610   3.606   3.122 -0.0850  0.8190 -0.4900
  781SOL    HW1 3956   3.619   3.684   3.067 -0.1869  0.9648 -0.3017
  781SOL    HW2 3957   3.521   3.611   3.156  0.2900  1.2323  0.4550
  782SOL     OW 3958   1.313   5.352   3.329 -0.2023  0.3440  0.3903
  782SOL    HW1 3959   1.315   5.256   3.324 -0.6008  0.3543  0.0222
  782SOL    HW2 3960   1.355   5.372   3.413  0.1075 -0.1401  0.3532
  783SOL     OW 3961   8.893   5.771   3.090  0.1190 -0.0894 -0.2270
  783SOL    HW1 3962   8.868   5.690   3.135  1.5333 -1.7667 -2.2566
  783SOL    HW2 3963   8.810   5.809   3.061 -0.5049 -1.8039 -0.8058
  784SOL     OW 3964   3.254   6.318   2.627  0.6403 -0.4170  0.0986
  784SOL    HW1 3965   3.196   6.359   2.691  2.0578 -0.4454  1.4415
  784SOL    HW2 3966   3.253   6.225   2.651 -0.1684 -0.7261 -1.0362
  785SOL     OW 3967   9.446   6.740   0.573  0.4642 -0.5522  0.0506
  785SOL    HW1 3968   9.492   6.817   0.539  0.5482 -0.7012 -0.1709
  785SOL    HW2 3969   9.417   6.767   0.660  0.8486 -0.4083  0.1371
  786SOL     OW 3970   8.572   2.388   4.988 -0.2943 -0.3929  0.4541
  786SOL    HW1 3971   8.589   2.397   4.894 -1.9640 -0.0572  0.1427
  786SOL    HW2 3972   8.643   2.436   5.030 -0.6597  1.2888 -0.7384
  787SOL     OW 3973   2.334   4.881   7.357  0.0076  0.0120  0.2051
  787SOL    HW1 3974   2.382   4.858   7.437  0.1799  0.7239  0.3080
  787SOL    HW2 3975   2.247   4.841   7.369  0.8908 -2.3075 -0.5014
  788SOL     OW 3976   9.441   2.380   1.076 -0.5141  0.9208 -0.2095
  788SOL    HW1 3977   9.412   2.384   1.167  1.2895 -0.3282  0.4781
  788SOL    HW2 3978   9.389   2.447   1.031 -1.4983  1.5132  1.7026
  789SOL     OW 3979   9.058   1.053   8.615 -0.2752  0.5327 -0.0897
  789SOL    HW1 3980   8.969   1.026   8.590  0.5416 -0.9288 -1.5913
  789SOL    HW2 3981   9.115   1.010   8.552  1.3560  3.7252 -1.0052
  790SOL     OW 3982   0.592   4.375   4.557  0.4792  0.3154 -0.3758
  790SOL    HW1 3983   0.589   4.291   4.603  1.0833 -0.7035 -2.1279
  790SOL    HW2 3984   0.500   4.395   4.539  0.2534  0.5838  0.9578
  791SOL     OW 3985   5.548   9.720   1.372 -0.0578  0.3528 -0.2453
  791SOL    HW1 3986   5.546   9.641   1.318  1.1026 -0.5678  1.0010
  791SOL    HW2 3987   5.641   9.733   1.392 -0.4183  0.8684  1.2286
  792SOL     OW 3988   4.874   2.056   8.640 -0.2785 -0.2905  0.5938
  792SOL    HW1 3989   4.848   1.964   8.635 -0.9311 -0.1082  0.5897
  792SOL    HW2 3990   4.923   2.062   8.722  1.1045 -0.9565 -0.1262
  793SOL     OW 3991   3.512   7.172   2.856  0.0497  0.5322  0.8342
  793SOL    HW1 3992   3.600   7.191   2.822 -0.2328 -0.2392 -0.3890
  793SOL    HW2 3993   3.527   7.142   2.945  1.3279 -2.0509 -0.1505
  794SOL     OW 3994   7.652   9.822   2.925  0.2473  0.6435 -0.3275
  794SOL    HW1 3995   7.560   9.814   2.947  0.2195  1.0208 -0.3008
  794SOL    HW2 3996   7.681   9.733   2.906 -0.1198  0.5277 -0.3293
  795SOL     OW 3997   2.462   2.775   9.057  0.5931  0.0579 -0.4290
  795SOL    HW1 3998   2.442   2.701   9.116  1.1721  0.3699  0.1799
  795SOL    HW2 3999   2.557   2.769   9.044  0.5467  0.3253 -0.8892
  796SOL     OW 4000   0.304   6.375   9.613  0.4761 -0.3996 -0.3935
  796SOL    HW1 4001   0.223   6.425   9.611  0.2314 -0.7989 -0.4813
  796SOL    HW2 4002   0.344   6.397   9.697  0.3327 -0.1173 -0.3974
  797SOL     OW 4003   0.496   6.501   3.368 -0.8032  0.3139  1.0500
  797SOL    HW1 4004   0.589   6.481   3.377 -1.1116 -0.9704  1.5616
  797SOL    HW2 4005   0.467   6.521   3.457 -1.2795 -0.5325  1.0900
  798SOL     OW 4006   0.010   1.845   5.191  0.8139  0.1027  0.5661
  798SOL    HW1 4007  -0.064   1.899   5.216  1.3484  1.0206  0.2008
  798SOL    HW2 4008  -0.024   1.755   5.193 -0.5060  0.5593 -0.3388
  799SOL     OW 4009   2.287   3.059   5.492 -0.3936  0.6217 -0.0887
  799SOL    HW1 4010   2.340   2.981   5.507  0.4157  1.2135  0.2034
  799SOL    HW2 4011   2.351   3.130   5.483 -1.1236  1.2815 -0.1707
  800SOL     OW 4012   1.186   5.719   6.166  0.5443 -0.1785  0.4400
  800SOL    HW1 4013   1.203   5.804   6.124  0.2162 -0.4925 -0.3520
  800SOL    HW2 4014   1.259   5.664   6.139  0.0299 -0.5537 -0.2110
  801SOL     OW 4015   2.021   4.296   9.146  0.5103  0.2563  0.1220
  801SOL    HW1 4016   2.096   4.355   9.148  0.6960  0.1296 -1.6216
  801SOL    HW2 4017   2.046   4.227   9.084 -0.3057 -0.8350  0.9563
  802SOL     OW 4018   9.178   3.166   0.622 -0.0019  0.8051  0.1875
  802SOL    HW1 4019   9.086   3.155   0.601  0.1117  0.3397 -0.0789
  802SOL    HW2 4020   9.193   3.110   0.698  0.3252 -0.0622 -0.4955
  803SOL     OW 4021   3.383   3.729   9.776 -0.3440  0.0981 -0.4007
  803SOL    HW1 4022   3.304   3.694   9.735 -1.1390  0.7960  0.4811
  803SOL    HW2 4023   3.351   3.800   9.832  0.5117 -1.5310  2.3081
  804SOL     OW 4024   5.488   5.281   7.181 -0.4380 -0.6529 -0.9241
  804SOL    HW1 4025   5.399   5.298   7.150 -0.7133  3.0561  1.2497
  804SOL    HW2 4026   5.476   5.247   7.270  0.3137 -0.6141 -0.8032
  805SOL     OW 4027   3.775   2.855   7.318  0.1596  0.1684 -0.0391
  805SOL    HW1 4028   3.734   2.908   7.386  0.1916 -1.1877  1.0731
  805SOL    HW2 4029   3.849   2.812   7.362 -0.6678 -1.8414 -0.5140
  806SOL     OW 4030   7.230   3.466   3.767 -0.2761  0.2719 -1.0042
  806SOL    HW1 4031   7.257   3.423   3.686 -1.0802  0.1264 -1.2060
  806SOL    HW2 4032   7.146   3.425   3.789 -0.3818  0.7682 -0.4522
  807SOL     OW 4033   3.031   5.483   8.425  0.6510 -0.1178  0.8097
  807SOL    HW1 4034   3.046   5.501   8.332  0.2259  0.9244  0.9285
  807SOL    HW2 4035   2.952   5.429   8.426 -0.9968  2.1635  0.6804
  808SOL     OW 4036   1.464   2.824   7.160 -0.2228 -0.4860  0.8716
  808SOL    HW1 4037   1.446   2.776   7.079 -0.7825 -0.6874  1.1115
  808SOL    HW2 4038   1.471   2.757   7.228 -2.7355 -0.1763  1.5338
  809SOL     OW 4039   1.368   7.775   2.679  0.2420 -0.6320 -0.2217
  809SOL    HW1 4040   1.304   7.801   2.745  0.0265  0.0596 -0.6959
  809SOL    HW2 4041   1.442   7.834   2.693 -0.3204  0.4152 -1.4204
  810SOL     OW 4042   7.999   7.757   2.339 -0.0133  0.1231 -0.4101
  810SOL    HW1 4043   8.038   7.795   2.418 -0.9952 -1.0886  0.6989
  810SOL    HW2 4044   7.924   7.813   2.319  0.0101  0.2051 -0.2647
  811SOL     OW 4045   5.312   6.107   2.666  0.4742  0.1901 -0.1898
  811SOL    HW1 4046   5.369   6.095   2.742 -1.4169 -2.8324  0.9510
  811SOL    HW2 4047   5.246   6.170   2.695 -0.6582 -1.4886  1.0277
  812SOL     OW 4048   1.112   7.573   6.547 -0.0993  0.2935 -0.3856
  812SOL    HW1 4049   1.173   7.501   6.530  0.1070  0.3877 -0.0581
  812SOL    HW2 4050   1.080   7.557   6.636  0.8910  1.2742  0.1737
  813SOL     OW 4051   9.826   1.428   8.562  0.1253 -0.3920  0.2114
  813SOL    HW1 4052   9.749   1.448   8.614  0.6400  2.3261  0.0855
  813SOL    HW2 4053   9.792   1.382   8.485 -0.9935 -1.6859  1.4329
  814SOL     OW 4054   2.877   2.501   2.427  0.0340  0.5114  0.2726
  814SOL    HW1 4055   2.854   2.514   2.519 -0.2679 -1.0927  0.4497
  814SOL    HW2 4056   2.798   2.465   2.387 -0.2410  2.3025 -0.9201
  815SOL     OW 4057   5.079   9.005   4.205 -0.1271  0.0016  0.2471
  815SOL    HW1 4058   5.071   8.912   4.183  0.5528  0.0513 -0.2373
  815SOL    HW2 4059   4.989   9.038   4.203 -0.6280 -1.0555  2.3374
  816SOL     OW 4060   2.606   9.485   3.404  1.2569  0.7152  0.1315
  816SOL    HW1 4061   2.576   9.400   3.372  1.0138  1.3473 -1.4110
  816SOL    HW2 4062   2.683   9.465   3.458  0.1024 -0.6199  1.3534
  817SOL     OW 4063   3.506   3.672   8.078  0.0269  0.2991  0.2358
  817SOL    HW1 4064   3.570   3.621   8.028  0.7728  1.3482  0.0907
  817SOL    HW2 4065   3.525   3.651   8.169 -0.4783 -0.6076  0.1486
  818SOL     OW 4066   6.441   4.678   2.362 -0.1655  0.6805  0.1552
  818SOL    HW1 4067   6.377   4.696   2.432  0.0235  0.3362  0.4196
  818SOL    HW2 4068   6.515   4.637   2.407  0.2227  1.0253 -0.1596
  819SOL     OW 4069   6.433   8.067   5.426 -0.2176  0.2606 -0.9254
  819SOL    HW1 4070   6.471   7.984   5.455 -0.3943  1.1759  2.2740
  819SOL    HW2 4071   6.340   8.048   5.415 -0.2007 -0.0346 -0.5595
  820SOL     OW 4072   6.726   7.936   8.754  0.6225  0.2551  0.2677
  820SOL    HW1 4073   6.809   7.942   8.707  0.5174  1.0522  0.1650
  820SOL    HW2 4074   6.742   7.980   8.837  0.4847 -0.1537  0.5087
  821SOL     OW 4075   5.624   3.329   0.267 -0.0303  0.3791 -0.2156
  821SOL    HW1 4076   5.706   3.315   0.313  1.1061  0.8563 -1.9911
  821SOL    HW2 4077   5.561   3.351   0.335  1.5015  0.8076  1.1089
  822SOL     OW 4078   0.052   1.209   3.164  0.3707 -0.0073 -0.5914
  822SOL    HW1 4079   0.056   1.114   3.175 -2.6651 -0.0224  1.6696
  822SOL    HW2 4080   0.080   1.244   3.248 -0.0604  1.0212 -0.8610
  823SOL     OW 4081   4.574   3.490   6.924  0.8977 -0.3002 -0.3412
  823SOL    HW1 4082   4.576   3.434   7.002 -1.1948 -1.5530 -1.0835
  823SOL    HW2 4083   4.660   3.532   6.922  1.0725 -0.2706  2.5771
  824SOL     OW 4084   6.663   3.670   8.919 -0.1474  0.3994  0.1657
  824SOL    HW1 4085   6.577   3.640   8.946 -0.3280  0.9529  0.2095
  824SOL    HW2 4086   6.646   3.747   8.865  0.4225  2.5670  2.8395
  825SOL     OW 4087   4.801   0.342   6.095 -0.4450 -0.6385  0.4841
  825SOL    HW1 4088   4.841   0.320   6.011  1.2563  1.3822  0.6894
  825SOL    HW2 4089   4.825   0.270   6.153  2.0188 -0.1071  0.2669
  826SOL     OW 4090   8.010   7.175   6.615  0.3954  0.2530 -0.2488
  826SOL    HW1 4091   7.951   7.129   6.675 -0.5186  0.2217 -1.1459
  826SOL    HW2 4092   7.970   7.163   6.528  1.4168  0.7271 -0.7999
  827SOL     OW 4093   1.661   9.067   7.755 -0.4018  0.0734 -0.3419
  827SOL    HW1 4094   1.679   8.984   7.712  0.8761 -0.1772  0.6267
  827SOL    HW2 4095   1.743   9.116   7.749 -0.2645  0.1451  1.4869
  828SOL     OW 4096   6.275   6.830   3.864 -0.3264  0.1791 -0.2492
  828SOL    HW1 4097   6.309   6.741   3.875 -0.1973  0.3828  1.2082
  828SOL    HW2 4098   6.303   6.876   3.942  0.3092  1.7584 -1.3742
  829SOL     OW 4099   0.472   3.849   5.160 -0.1522  0.2004 -0.3552
  829SOL    HW1 4100   0.492   3.884   5.247 -0.7777 -1.1664  0.3712
  829SOL    HW2 4101   0.379   3.827   5.164  0.1099 -1.0987 -0.9131
  830SOL     OW 4102   2.501   3.844   7.842  0.0891  0.5437  0.4789
  830SOL    HW1 4103   2.569   3.868   7.904 -0.2653  0.7416  0.7993
  830SOL    HW2 4104   2.421   3.838   7.895 -0.0705 -0.0950  0.1846
  831SOL     OW 4105   6.787   8.619   2.040 -0.2036  0.4526  0.0745
  831SOL    HW1 4106   6.875   8.655   2.027 -0.0730  0.7333  1.4801
  831SOL    HW2 4107   6.744   8.683   2.097 -1.0420 -0.0812  0.0543
  832SOL     OW 4108   2.130   3.763   8.205 -0.9354  0.5480 -0.3173
  832SOL    HW1 4109   2.126   3.682   8.256 -0.1343  0.8625  0.2725
  832SOL    HW2 4110   2.039   3.781   8.182 -1.3651  0.5611  1.2800
  833SOL     OW 4111   4.721   0.870   0.647  0.1441  0.4506 -0.3943
  833SOL    HW1 4112   4.647   0.914   0.688 -0.6893 -0.9058 -0.3875
  833SOL    HW2 4113   4.797   0.901   0.696 -0.5670  0.8050  0.5159
  834SOL     OW 4114   9.034   6.490   1.590 -0.1808  0.1515 -0.0887
  834SOL    HW1 4115   9.066   6.563   1.643  0.3812 -0.6804  0.7400
  834SOL    HW2 4116   8.980   6.438   1.649 -0.1326 -0.4065 -0.5270
  835SOL     OW 4117   2.857   0.124   8.886  0.4493  0.4869 -0.2124
  835SOL    HW1 4118   2.778   0.071   8.893 -0.8799  2.3972 -0.0080
  835SOL    HW2 4119   2.920   0.067   8.842 -0.7882 -1.3351  0.2582
  836SOL     OW 4120   4.949   1.807   6.697  0.3893 -0.2454 -0.0733
  836SOL    HW1 4121   4.980   1.717   6.701 -0.6029 -0.6566 -1.1002
  836SOL    HW2 4122   4.854   1.800   6.707  0.2411  0.6285 -0.8123
  837SOL     OW 4123   9.656   6.505   6.567  0.8127  0.5829  0.2170
  837SOL    HW1 4124   9.632   6.576   6.507  0.6475 -0.0297 -0.4631
  837SOL    HW2 4125   9.600   6.432   6.540  0.4383  0.4161  1.3950
  838SOL     OW 4126   7.342   6.119   8.733 -0.0967 -0.1718 -0.4888
  838SOL    HW1 4127   7.263   6.117   8.787  0.6853  0.6429  0.7380
  838SOL    HW2 4128   7.311   6.108   8.643 -1.4715 -1.2033  0.0855
  839SOL     OW 4129   3.314   2.177   3.846 -0.3923 -0.2070 -0.3140
  839SOL    HW1 4130   3.262   2.199   3.923 -1.5131 -0.8303 -0.8782
  839SOL    HW2 4131   3.311   2.082   3.841  0.6381 -0.2455 -0.4814
  840SOL     OW 4132   2.726   7.263   7.032  0.2557  0.3926 -0.5684
  840SOL    HW1 4133   2.733   7.338   7.091 -0.3731 -1.2983  1.8380
  840SOL    HW2 4134   2.816   7.235   7.018  0.3798  0.1156  0.6416
  841SOL     OW 4135   5.461   5.861   3.110  0.0050  0.0274 -0.1164
  841SOL    HW1 4136   5.402   5.873   3.185 -2.6721  0.1019 -2.0801
  841SOL    HW2 4137   5.446   5.771   3.082 -0.7612  0.6356 -1.8321
  842SOL     OW 4138   6.406   8.274   4.686  0.3141 -0.4227 -0.2106
  842SOL    HW1 4139   6.322   8.243   4.719  0.4480 -0.1532  0.3870
  842SOL    HW2 4140   6.470   8.247   4.751  0.3877  1.4479  0.5556
  843SOL     OW 4141   6.214   0.396   3.284  0.2264  0.0359  0.1365
  843SOL    HW1 4142   6.243   0.346   3.360  1.7873  1.7996  0.7782
  843SOL    HW2 4143   6.237   0.341   3.209 -0.5050 -1.3335  0.8858
  844SOL     OW 4144   4.187   3.782   7.964 -0.1014  0.2544 -0.3937
  844SOL    HW1 4145   4.108   3.749   7.922  0.1708  2.0208 -2.5276
  844SOL    HW2 4146   4.220   3.848   7.903  1.9083  1.0221  1.3946
  845SOL     OW 4147   5.408   6.755   0.165 -0.1543  0.1829 -0.1698
  845SOL    HW1 4148   5.344   6.684   0.159 -1.5445  1.3083  0.6300
  845SOL    HW2 4149   5.430   6.776   0.074 -1.6412  0.3630 -0.5143
  846SOL     OW 4150   6.017   1.932   8.461 -0.1755 -0.8261  0.3772
  846SOL    HW1 4151   5.967   2.003   8.501 -0.4809 -0.5658 -0.4332
  846SOL    HW2 4152   6.024   1.957   8.369  1.7244 -0.7024  0.5110
  847SOL     OW 4153   1.640   8.799   8.256  0.0714  0.0333 -0.6031
  847SOL    HW1 4154   1.620   8.863   8.188 -0.7380  0.4215 -0.0252
  847SOL    HW2 4155   1.556   8.786   8.301  1.0466  1.5843  1.8419
  848SOL     OW 4156   0.490   6.240   0.413  0.0457  0.6566  0.6528
  848SOL    HW1 4157   0.459   6.313   0.360 -1.2002  0.9859  1.8027
  848SOL    HW2 4158   0.421   6.175   0.408  0.2097  0.4213  1.3354
  849SOL     OW 4159   0.838   8.279   5.176 -0.3168 -0.0566  0.1414
  849SOL    HW1 4160   0.930   8.279   5.202  0.2684  1.0392 -1.7879
  849SOL    HW2 4161   0.803   8.198   5.214  1.9038 -1.4763 -0.6436
  850SOL     OW 4162   2.016   9.479   0.245 -0.3908  0.3388  0.2664
  850SOL    HW1 4163   2.010   9.388   0.216 -1.1149  0.1009  1.1234
  850SOL    HW2 4164   2.081   9.519   0.187 -1.8650 -0.0702 -1.7773
  851SOL     OW 4165   1.489   5.606   7.681 -0.3330  0.4624  0.0765
  851SOL    HW1 4166   1.508   5.563   7.598 -0.4591  0.1402  0.2108
  851SOL    HW2 4167   1.465   5.696   7.658  0.5313  0.6344 -0.1591
  852SOL     OW 4168   7.999   8.138   6.800  0.0178 -0.0180 -0.2091
  852SOL    HW1 4169   8.013   8.044   6.813  0.3625  0.3121  2.4856
  852SOL    HW2 4170   8.046   8.179   6.873  0.9251  2.3600 -2.0167
  853SOL     OW 4171   5.857   7.477   0.238  0.1774 -0.2191 -0.2912
  853SOL    HW1 4172   5.767   7.492   0.208  0.2691  0.4655 -0.2481
  853SOL    HW2 4173   5.856   7.504   0.330  0.6487  0.6764 -0.5444
  854SOL     OW 4174   7.030   7.184   8.387  0.3584 -0.5336 -0.2681
  854SOL    HW1 4175   6.948   7.227   8.411 -0.4406 -1.7566 -0.7154
  854SOL    HW2 4176   7.043   7.206   8.294 -0.4345 -1.8035 -0.7019
  855SOL     OW 4177   2.731   4.378   8.340 -0.3357 -0.2348  0.3517
  855SOL    HW1 4178   2.806   4.426   8.376 -0.9252 -0.3975  1.8694
  855SOL    HW2 4179   2.755   4.361   8.249  0.9451  0.7734  0.4657
  856SOL     OW 4180   4.836   8.397   2.786 -0.5973 -0.4672  0.2310
  856SOL    HW1 4181   4.760   8.375   2.730 -0.2360  0.1532 -0.5222
  856SOL    HW2 4182   4.884   8.462   2.735  0.3191 -0.6844  0.8129
  857SOL     OW 4183   3.010   0.141   4.689 -0.7537  0.1641 -0.4387
  857SOL    HW1 4184   3.045   0.182   4.768 -0.7836 -2.5482  1.1101
  857SOL    HW2 4185   3.080   0.152   4.624  0.2642  0.4542  0.6567
  858SOL     OW 4186   4.979   6.428   2.051 -0.0850  0.2717  0.0293
  858SOL    HW1 4187   4.911   6.362   2.064 -1.1342  1.6242  1.8045
  858SOL    HW2 4188   5.061   6.378   2.055 -0.8275 -0.9093  1.6186
  859SOL     OW 4189   3.088   8.780   2.038  0.5436  0.1033 -0.3806
  859SOL    HW1 4190   3.081   8.685   2.028  0.8006  0.1355 -0.9107
  859SOL    HW2 4191   3.068   8.796   2.130 -0.2794 -0.3915 -0.4619
  860SOL     OW 4192   1.684   0.216   6.698 -0.3726  0.4054  0.1852
  860SOL    HW1 4193   1.671   0.306   6.668 -1.3897 -0.0942 -0.9140
  860SOL    HW2 4194   1.627   0.163   6.644  0.3755 -0.9548  0.6612
  861SOL     OW 4195   3.602   7.084   9.643 -0.0889 -0.8661  0.5102
  861SOL    HW1 4196   3.673   7.070   9.706  2.0608  1.6357 -1.1602
  861SOL    HW2 4197   3.625   7.029   9.568 -0.0618 -0.3326  0.1162
  862SOL     OW 4198   4.775   0.423   7.693  0.3833  0.3029  0.1402
  862SOL    HW1 4199   4.778   0.408   7.599  0.3443  0.2103  0.1545
  862SOL    HW2 4200   4.755   0.516   7.702  0.5799  0.3534  0.0550
  863SOL     OW 4201   6.231   7.752   7.803 -0.0071  0.3691  0.8717
  863SOL    HW1 4202   6.167   7.822   7.791  0.2578  0.5665  0.5980
  863SOL    HW2 4203   6.297   7.789   7.861  0.2124  0.4012  0.6051
  864SOL     OW 4204   6.472   0.643   2.419 -0.4942  0.5877 -0.5341
  864SOL    HW1 4205   6.496   0.724   2.463  1.5737 -0.3900  0.2567
  864SOL    HW2 4206   6.428   0.671   2.339 -1.6152  2.4378  0.6723
  865SOL     OW 4207   4.883   1.773   7.979  0.2804 -0.1533 -0.1891
  865SOL    HW1 4208   4.925   1.692   7.951  0.1410  0.3897 -2.0806
  865SOL    HW2 4209   4.796   1.770   7.939  0.1098  0.7177  0.0914
  866SOL     OW 4210   8.799   6.452   5.115 -0.1683 -0.1540  0.0394
  866SOL    HW1 4211   8.848   6.501   5.181 -0.9233 -0.4011  0.8125
  866SOL    HW2 4212   8.853   6.456   5.036  0.4291  0.7412  0.4793
  867SOL     OW 4213   9.317   0.368   0.898 -0.0768  0.0994 -0.4707
  867SOL    HW1 4214   9.402   0.329   0.917  0.9184  1.6564 -1.4821
  867SOL    HW2 4215   9.322   0.456   0.935 -1.2217  0.2411 -0.6124
  868SOL     OW 4216   0.763   0.501   1.331  0.0270  0.5681 -0.0643
  868SOL    HW1 4217   0.795   0.439   1.397  1.4898  0.7886 -0.5401
  868SOL    HW2 4218   0.670   0.513   1.353  0.3840  0.3691  1.7362
  869SOL     OW 4219   2.200   4.909   0.889  0.2325  0.5913 -0.0110
  869SOL    HW1 4220   2.162   4.997   0.887 -1.0366  0.1813 -4.3351
  869SOL    HW2 4221   2.127   4.852   0.913  0.0420  0.4204 -0.9790
  870SOL     OW 4222   0.197   5.492   9.513 -0.0479  0.3536 -0.2522
  870SOL    HW1 4223   0.156   5.447   9.440  0.1161  0.2782 -0.2985
  870SOL    HW2 4224   0.210   5.582   9.482 -0.4942  0.4697 -0.1120
  871SOL     OW 4225   2.706   8.974   5.124 -0.4397 -0.1359 -0.0153
  871SOL    HW1 4226   2.690   9.045   5.187  1.4985 -0.5820  1.0641
  871SOL    HW2 4227   2.801   8.974   5.112 -0.4271 -2.3354 -0.2433
  872SOL     OW 4228   3.291   9.579   0.166  0.2127 -0.5685 -0.4171
  872SOL    HW1 4229   3.244   9.517   0.220 -0.7962  1.1821  0.8323
  872SOL    HW2 4230   3.277   9.664   0.209  0.6774  0.6812 -2.5603
  873SOL     OW 4231   0.460   5.670   5.989  0.6188  0.2825  0.5750
  873SOL    HW1 4232   0.516   5.643   6.062 -0.0156 -2.0974  0.2630
  873SOL    HW2 4233   0.487   5.615   5.916 -0.6821  0.5894 -0.1657
  874SOL     OW 4234   0.964   4.871   3.068  0.1444 -0.0682 -0.7370
  874SOL    HW1 4235   0.924   4.790   3.037  0.1768 -0.3410 -0.0732
  874SOL    HW2 4236   1.041   4.843   3.117  0.1773  0.3670 -0.5322
  875SOL     OW 4237   9.111   4.496   8.391  0.7392 -0.0934 -0.3916
  875SOL    HW1 4238   9.185   4.445   8.357  0.7144 -1.6500  1.7125
  875SOL    HW2 4239   9.049   4.431   8.424 -0.7128  1.2377 -0.3212
  876SOL     OW 4240   3.017   5.189   2.394 -0.3201 -0.5357  0.3388
  876SOL    HW1 4241   2.975   5.145   2.320  0.9850  0.3979 -1.0010
  876SOL    HW2 4242   3.092   5.133   2.416 -0.2647 -0.4133  0.4632
  877SOL     OW 4243   9.073   7.028   0.667 -0.5424 -0.5227 -0.4743
  877SOL    HW1 4244   9.012   7.045   0.596 -1.9816 -0.6378  0.6969
  877SOL    HW2 4245   9.046   6.943   0.703 -0.9463  0.3069  1.2917
  878SOL     OW 4246   4.184   9.384   6.223  0.1989  0.1028  1.0963
  878SOL    HW1 4247   4.243   9.457   6.245 -0.1902  1.0436 -0.8161
  878SOL    HW2 4248   4.186   9.328   6.301  0.8281  1.9315  2.4745
  879SOL     OW 4249   6.927   0.525   0.522  0.6128  0.0655  0.2271
  879SOL    HW1 4250   6.841   0.533   0.480 -0.0150 -0.2627  1.4098
  879SOL    HW2 4251   6.989   0.549   0.453 -0.4517  1.0436 -0.4375
  880SOL     OW 4252   8.300   6.869   2.245  0.2246  0.2450  0.0522
  880SOL    HW1 4253   8.206   6.851   2.239  0.4219 -1.2385  0.9794
  880SOL    HW2 4254   8.306   6.958   2.279 -0.8341  0.4149 -0.1830
  881SOL     OW 4255   9.630   3.999   4.755  0.1032 -0.5833 -0.0847
  881SOL    HW1 4256   9.653   3.980   4.664 -0.4820 -0.5182 -0.2492
  881SOL    HW2 4257   9.535   3.991   4.758  0.2043 -1.6543  0.7791
  882SOL     OW 4258   9.096   2.704   6.854 -0.7431 -0.5945 -0.2161
  882SOL    HW1 4259   9.102   2.789   6.897 -0.3215 -0.0533 -1.3127
  882SOL    HW2 4260   9.123   2.720   6.764  0.5216 -2.1264 -0.1485
  883SOL     OW 4261   5.533   5.457   2.233  0.4167  0.1936  0.0643
  883SOL    HW1 4262   5.553   5.549   2.250  0.9851 -0.2636  2.1683
  883SOL    HW2 4263   5.438   5.451   2.246  0.5434  0.2704  1.0695
  884SOL     OW 4264   5.794   3.157   4.594 -0.4959  0.0078 -0.0499
  884SOL    HW1 4265   5.789   3.068   4.627 -0.5860 -0.0010 -0.0867
  884SOL    HW2 4266   5.719   3.202   4.635 -1.1976 -0.2567 -1.0196
  885SOL     OW 4267   6.916   4.381   3.116  0.0093 -0.5784  0.0589
  885SOL    HW1 4268   7.009   4.363   3.115  0.0155 -0.8413 -3.1094
  885SOL    HW2 4269   6.910   4.476   3.128  0.7965 -0.3314 -1.3316
  886SOL     OW 4270   6.361   4.430   7.976  0.5398 -0.3745 -0.1738
  886SOL    HW1 4271   6.429   4.363   7.988  0.6087 -0.4324 -0.8754
  886SOL    HW2 4272   6.361   4.448   7.882  0.4519  0.5373 -0.0085
  887SOL     OW 4273   2.816   3.421   9.087  0.1821  0.6506 -0.3416
  887SOL    HW1 4274   2.740   3.478   9.077 -0.7774 -0.7335 -1.3388
  887SOL    HW2 4275   2.792   3.340   9.042  1.0072 -1.0277  2.0369
  888SOL     OW 4276   1.078   8.190   5.253  0.1040 -0.0399  0.2780
  888SOL    HW1 4277   1.056   8.099   5.233  1.2835 -0.1923 -0.3693
  888SOL    HW2 4278   1.099   8.189   5.347 -0.5156 -0.2950  0.4229
  889SOL     OW 4279   7.558   6.802   1.831  0.3220  0.0101  0.3399
  889SOL    HW1 4280   7.586   6.870   1.892  0.9569 -0.2022  0.2989
  889SOL    HW2 4281   7.618   6.729   1.848  0.0639 -0.2999 -0.0615
  890SOL     OW 4282   1.242   2.793   8.892  0.2183  0.2054 -0.0782
  890SOL    HW1 4283   1.331   2.760   8.883  0.1953  0.0726  0.1758
  890SOL    HW2 4284   1.230   2.851   8.818  0.6065  0.4229  0.0302
  891SOL     OW 4285   2.747   5.850   1.779  0.2065  0.1705 -0.2687
  891SOL    HW1 4286   2.743   5.927   1.722  0.4409 -0.3914 -1.0663
  891SOL    HW2 4287   2.656   5.833   1.803  0.0418  0.1135 -0.9060
  892SOL     OW 4288   7.900   3.432   9.367 -0.3426  0.1226 -0.8982
  892SOL    HW1 4289   7.897   3.343   9.403  0.3751  0.6331  0.5149
  892SOL    HW2 4290   7.909   3.488   9.444 -0.4658  1.4049 -1.7913
  893SOL     OW 4291   1.818   3.083   9.075 -0.3784  0.1097  0.0071
  893SOL    HW1 4292   1.872   3.012   9.109 -1.6956 -1.8335 -1.7384
  893SOL    HW2 4293   1.850   3.097   8.985 -0.0763  1.8495  0.3392
  894SOL     OW 4294   8.973   8.998   5.369 -0.0277  0.7357  0.5389
  894SOL    HW1 4295   8.942   9.088   5.380 -0.4181  0.4131  2.4252
  894SOL    HW2 4296   9.039   9.004   5.300 -1.8775  2.0061 -1.2680
  895SOL     OW 4297   6.196   8.701   8.090  0.5526 -0.5964  0.6167
  895SOL    HW1 4298   6.112   8.703   8.135  0.5632 -0.3519  0.6300
  895SOL    HW2 4299   6.246   8.773   8.130 -0.0702  0.7972 -0.9902
  896SOL     OW 4300   4.382   7.603   7.275  0.2432  0.3247 -0.2943
  896SOL    HW1 4301   4.441   7.636   7.208  3.0742 -0.1613  1.7800
  896SOL    HW2 4302   4.331   7.535   7.232  1.5894  0.3821 -2.0663
  897SOL     OW 4303   0.227   5.331   7.374 -0.0726  0.3356  0.0664
  897SOL    HW1 4304   0.144   5.354   7.415  0.7423  0.9734  1.4273
  897SOL    HW2 4305   0.276   5.287   7.443  0.9178  0.4153 -0.5682
  898SOL     OW 4306   0.693   7.352   5.016 -0.5354  0.1131  0.1911
  898SOL    HW1 4307   0.733   7.424   5.064  0.5748 -0.8929  0.8393
  898SOL    HW2 4308   0.739   7.274   5.047  0.5336 -0.5769 -2.7328
  899SOL     OW 4309   9.397   7.927   4.456 -0.0350  0.2475  0.2288
  899SOL    HW1 4310   9.373   7.852   4.402 -0.6306  1.1124 -0.7346
  899SOL    HW2 4311   9.476   7.961   4.415 -0.7172  1.1509 -0.3528
  900SOL     OW 4312   4.356   0.575   6.181 -0.3018 -0.2717  0.1348
  900SOL    HW1 4313   4.306   0.654   6.162  1.3328  0.4467 -1.4148
  900SOL    HW2 4314   4.360   0.572   6.276 -0.8982  1.1741  0.2368
  901SOL     OW 4315   9.835   1.544   0.493 -0.5434  0.2061 -0.3688
  901SOL    HW1 4316   9.752   1.497   0.488  0.5829 -1.9813  0.3722
  901SOL    HW2 4317   9.812   1.628   0.534 -2.5742  0.2562 -1.4830
  902SOL     OW 4318   4.580   2.530   9.040 -0.1054  0.1809  0.1089
  902SOL    HW1 4319   4.662   2.578   9.024  0.9786 -1.0695  1.5421
  902SOL    HW2 4320   4.587   2.454   8.983 -0.0652 -0.1306  0.5258
  903SOL     OW 4321   6.494   0.992   8.355 -0.8713 -0.3180 -0.5796
  903SOL    HW1 4322   6.541   1.026   8.279 -1.3632  1.6147 -0.0891
  903SOL    HW2 4323   6.439   0.921   8.321  0.8752 -1.2804 -1.4994
  904SOL     OW 4324   6.881   3.107   7.028  0.2805  0.3405  0.2597
  904SOL    HW1 4325   6.810   3.050   6.996 -0.8286  1.9544 -0.3019
  904SOL    HW2 4326   6.954   3.048   7.043 -0.3406 -1.0499 -1.7235
  905SOL     OW 4327   0.556   3.882   5.436  0.3932  1.0585  0.5488
  905SOL    HW1 4328   0.468   3.871   5.472 -0.3745  0.9682 -1.2441
  905SOL    HW2 4329   0.595   3.795   5.443  0.0214  0.8876  0.5519
  906SOL     OW 4330   5.639   1.962   1.946 -0.0255 -0.4060 -0.0809
  906SOL    HW1 4331   5.545   1.968   1.966  0.3171 -0.8586  1.9525
  906SOL    HW2 4332   5.646   1.889   1.886 -1.2780  1.6603 -2.9608
  907SOL     OW 4333   6.310   1.037   8.981  0.1089 -0.5440  0.6723
  907SOL    HW1 4334   6.221   1.030   9.017  0.3292 -0.5428  1.2348
  907SOL    HW2 4335   6.325   0.953   8.937  0.3862 -1.1715  1.9040
  908SOL     OW 4336   7.190   7.836   9.041  0.1765  0.2548 -0.0299
  908SOL    HW1 4337   7.264   7.890   9.014  0.3754  0.6027  1.1798
  908SOL    HW2 4338   7.124   7.850   8.972  0.9677  0.4674 -0.7603
  909SOL     OW 4339   0.991   8.460   4.160  0.0685 -0.2734 -0.1019
  909SOL    HW1 4340   0.980   8.478   4.067  1.1525 -0.1803 -0.2225
  909SOL    HW2 4341   1.070   8.508   4.185 -0.4180  0.0039  0.9555
  910SOL     OW 4342   6.242   1.754   6.100  0.0504  0.3291 -0.5897
  910SOL    HW1 4343   6.160   1.738   6.055  0.8882  0.0585 -2.0904
  910SOL    HW2 4344   6.307   1.761   6.030  1.6497 -1.4273  0.6084
  911SOL     OW 4345   4.375   9.369   6.929  0.5807 -0.0915 -0.2319
  911SOL    HW1 4346   4.423   9.422   6.992 -0.6421 -0.4123  1.0117
  911SOL    HW2 4347   4.284   9.393   6.942  0.1152 -1.6538 -0.4322
  912SOL     OW 4348   0.178   4.898   3.716  0.2441  0.4549  0.6067
  912SOL    HW1 4349   0.107   4.935   3.768 -0.3292 -0.5478  0.5665
  912SOL    HW2 4350   0.167   4.936   3.630 -1.5791 -1.2547  0.0009
  913SOL     OW 4351   6.774   8.502   0.200 -0.2533 -0.1154  0.5493
  913SOL    HW1 4352   6.857   8.458   0.217  0.4615  0.7703 -0.5166
  913SOL    HW2 4353   6.791   8.558   0.125 -2.0042 -0.4166 -0.1363
  914SOL     OW 4354   2.727   1.962   4.834 -0.1053  0.5734 -0.2473
  914SOL    HW1 4355   2.803   2.016   4.856  0.6269 -0.3171 -0.5451
  914SOL    HW2 4356   2.763   1.875   4.818 -1.4650 -0.6240  2.4800
  915SOL     OW 4357   5.299   2.428   7.255  0.4861 -0.0526  0.2474
  915SOL    HW1 4358   5.258   2.396   7.175  0.0262 -0.3903  0.6109
  915SOL    HW2 4359   5.384   2.462   7.227  0.1432  0.2458 -0.4462
  916SOL     OW 4360   7.286   1.870   0.043 -0.2888 -0.6148  0.5480
  916SOL    HW1 4361   7.333   1.923   0.107 -3.6129  2.6232  0.6276
  916SOL    HW2 4362   7.273   1.786   0.087  3.7887 -1.1832  1.0690
  917SOL     OW 4363   2.507   5.749   1.818 -0.0400 -0.1528  0.3097
  917SOL    HW1 4364   2.543   5.674   1.771  0.2752 -0.7769  1.5167
  917SOL    HW2 4365   2.518   5.727   1.910 -0.8390  0.9514  0.6867
  918SOL     OW 4366   6.231   0.057   3.693 -0.2713 -0.0593  0.3450
  918SOL    HW1 4367   6.273   0.008   3.763  0.1091 -0.9093 -0.4536
  918SOL    HW2 4368   6.217   0.145   3.729  2.3722  0.3244  0.6230
  919SOL     OW 4369   1.704   8.527   3.666 -0.1414 -1.1564 -0.1039
  919SOL    HW1 4370   1.743   8.480   3.740 -2.5778 -0.5350  1.6705
  919SOL    HW2 4371   1.638   8.467   3.632 -1.8073  0.0680  0.8333
  920SOL     OW 4372   9.031   7.990   0.782 -0.2335  0.5775 -0.0876
  920SOL    HW1 4373   8.941   7.958   0.777  0.2601 -0.6338 -2.1522
  920SOL    HW2 4374   9.086   7.915   0.760  1.2221  1.6343 -0.2786
  921SOL     OW 4375   6.721   8.066   3.001 -0.4684  0.5438  0.1826
  921SOL    HW1 4376   6.704   8.068   2.907 -0.5545 -0.4244  0.1647
  921SOL    HW2 4377   6.699   8.154   3.031  1.8982  1.6523 -1.0793
  922SOL     OW 4378   5.064   6.051   0.986  0.0123 -0.0951  0.1935
  922SOL    HW1 4379   5.043   6.073   1.077  0.6311 -1.8814  0.8250
  922SOL    HW2 4380   5.093   5.959   0.990  1.0883  0.1169 -1.6522
  923SOL     OW 4381   6.915   6.807   0.950 -0.1974  0.0699  0.1197
  923SOL    HW1 4382   6.845   6.818   1.015  0.7828 -1.1551  1.4591
  923SOL    HW2 4383   6.984   6.760   0.997  0.7845 -0.3924 -1.6786
  924SOL     OW 4384   1.775   7.323   9.457  0.0765  0.1048 -0.3652
  924SOL    HW1 4385   1.704   7.385   9.438 -1.9580 -2.4572 -1.9367
  924SOL    HW2 4386   1.820   7.313   9.373  2.4563  1.7097  0.6265
  925SOL     OW 4387   2.371   9.075   6.411 -0.3340  0.0340 -0.2134
  925SOL    HW1 4388   2.323   9.126   6.476 -0.5302  2.1157 -1.8963
  925SOL    HW2 4389   2.303   9.030   6.360 -0.1945 -1.3328  0.7543
  926SOL     OW 4390   0.247   7.246   3.924 -0.2468  0.5728 -0.0757
  926SOL    HW1 4391   0.258   7.304   4.000  0.3666  1.4066 -0.7818
  926SOL    HW2 4392   0.264   7.302   3.848 -0.7305 -0.2762 -0.8355
  927SOL     OW 4393   9.028   6.928   8.363  0.0307  0.8138 -0.5561
  927SOL    HW1 4394   9.084   6.911   8.438 -0.5326 -0.4063 -0.3812
  927SOL    HW2 4395   9.086   6.966   8.297  1.2196 -0.9635 -0.6037
  928SOL     OW 4396   2.549   0.224   4.527 -0.2257  0.3063  0.4024
  928SOL    HW1 4397   2.591   0.209   4.612 -0.7286  3.0689  1.2150
  928SOL    HW2 4398   2.588   0.305   4.494 -0.9710 -0.0190 -1.4347
  929SOL     OW 4399   0.950   8.656   4.757  0.6432 -0.3168 -0.5326
  929SOL    HW1 4400   0.974   8.676   4.667  0.3863 -2.6187 -1.1765
  929SOL    HW2 4401   1.033   8.635   4.800  1.1452  3.2331  0.5920
  930SOL     OW 4402   5.348   9.838   2.133 -0.6558 -0.5552 -0.0822
  930SOL    HW1 4403   5.289   9.913   2.141 -0.7539 -0.5672 -0.6212
  930SOL    HW2 4404   5.411   9.864   2.065  1.2838  0.3095  1.9230
  931SOL     OW 4405   1.868   5.624   0.380  0.3193  0.0391 -0.3363
  931SOL    HW1 4406   1.924   5.564   0.428 -0.3157  0.4559  0.9916
  931SOL    HW2 4407   1.792   5.636   0.437 -0.1284  1.1358 -1.1292
  932SOL     OW 4408   6.509   4.241   2.657 -0.3688 -0.4493  0.3688
  932SOL    HW1 4409   6.561   4.251   2.737  0.1846 -1.1202  0.1066
  932SOL    HW2 4410   6.565   4.189   2.599 -0.5950  0.3799 -0.6129
  933SOL     OW 4411   1.312   1.652   3.962  0.6788 -0.4245  0.1524
  933SOL    HW1 4412   1.325   1.721   4.028  0.0838 -1.6500  1.6000
  933SOL    HW2 4413   1.217   1.646   3.952  0.7596 -0.3595 -0.7325
  934SOL     OW 4414   0.980   9.004   2.331  0.5573 -0.4852 -0.3218
  934SOL    HW1 4415   1.043   9.045   2.389 -0.0744  0.5490 -0.3376
  934SOL    HW2 4416   0.994   9.046   2.246  1.9210 -2.4444 -1.1400
  935SOL     OW 4417   2.008   8.845   6.585  0.5668 -0.1444 -0.5133
  935SOL    HW1 4418   2.000   8.842   6.489  1.0607 -0.8862 -0.5389
  935SOL    HW2 4419   1.937   8.789   6.616 -0.9075  1.7277 -0.3509
  936SOL     OW 4420   1.842   2.640   9.763 -0.8707 -0.8078  0.0071
  936SOL    HW1 4421   1.913   2.638   9.827  0.2274 -2.3644 -1.1786
  936SOL    HW2 4422   1.765   2.668   9.813  0.2588 -0.4690  1.6409
  937SOL     OW 4423   8.864   4.980   0.182  0.6273 -0.1310 -0.0629
  937SOL    HW1 4424   8.937   4.938   0.227  0.3543 -0.4112  0.1260
  937SOL    HW2 4425   8.817   4.908   0.140 -1.4323 -0.4539  2.5104
  938SOL     OW 4426   5.031   1.199   0.693 -0.0324 -0.8602  0.0745
  938SOL    HW1 4427   5.099   1.266   0.691  0.1085 -1.0184 -0.9935
  938SOL    HW2 4428   4.967   1.228   0.628 -0.5163 -1.2000  0.3908
  939SOL     OW 4429   7.511   5.931   1.880  0.2530  0.1099  0.1900
  939SOL    HW1 4430   7.527   6.004   1.940  0.3081 -2.0566  3.0333
  939SOL    HW2 4431   7.447   5.966   1.817  0.1718  2.5560  1.4892
  940SOL     OW 4432   2.962   3.698   5.699  0.4779  0.5264  0.4151
  940SOL    HW1 4433   2.881   3.649   5.705  0.0223  1.3759  1.8755
  940SOL    HW2 4434   3.024   3.649   5.752  0.1817  1.1753  1.3986
  941SOL     OW 4435   4.956   7.090   1.197 -0.9865  0.6345 -0.3130
  941SOL    HW1 4436   4.879   7.049   1.238  0.0103  1.0007  2.0567
  941SOL    HW2 4437   5.002   7.133   1.269  1.4411  0.4566 -1.6426
  942SOL     OW 4438   7.032   8.224   5.953 -0.8717  0.1021  0.6235
  942SOL    HW1 4439   6.976   8.206   5.878  0.2991  0.9258 -0.4949
  942SOL    HW2 4440   7.047   8.319   5.950  1.8865 -0.2538 -0.1577
  943SOL     OW 4441   1.888   4.293   4.926  0.3901 -0.5073 -0.0473
  943SOL    HW1 4442   1.909   4.201   4.909 -3.1872 -1.2455 -1.0978
  943SOL    HW2 4443   1.910   4.339   4.845 -0.6905 -1.0303 -0.6568
  944SOL     OW 4444   4.764   0.119   6.651 -0.1560 -0.3363 -0.1058
  944SOL    HW1 4445   4.809   0.061   6.589  1.0990  1.0618 -0.5713
  944SOL    HW2 4446   4.777   0.207   6.616 -2.0524  0.2637  0.5526
  945SOL     OW 4447   9.805   5.365   7.460 -0.3172  0.3997  0.2661
  945SOL    HW1 4448   9.779   5.322   7.542 -2.6138 -0.2816 -0.7508
  945SOL    HW2 4449   9.722   5.388   7.418  0.8145  0.7141 -1.8936
  946SOL     OW 4450   0.828   1.743   2.702  0.1185 -0.5981 -0.0495
  946SOL    HW1 4451   0.827   1.830   2.740  2.6145  0.9831 -3.1313
  946SOL    HW2 4452   0.753   1.742   2.642  0.7195 -0.0726 -0.8389
  947SOL     OW 4453   2.059   6.196   1.027  0.2895 -0.1102  0.0288
  947SOL    HW1 4454   2.134   6.220   1.081  0.4417  0.6905 -0.5275
  947SOL    HW2 4455   1.991   6.259   1.049  0.3187  0.1608 -0.6232
  948SOL     OW 4456   3.941   9.309   5.051 -0.3078 -0.2746 -0.1330
  948SOL    HW1 4457   4.032   9.281   5.063 -0.4298 -1.5320 -1.7872
  948SOL    HW2 4458   3.946   9.378   4.985 -0.7325 -2.4216 -2.5857
  949SOL     OW 4459   6.462   6.657   7.671 -0.2055 -0.1702  0.2494
  949SOL    HW1 4460   6.554   6.631   7.676 -0.0341  0.4824  0.5283
  949SOL    HW2 4461   6.456   6.734   7.727 -0.5536  0.8498 -1.1535
  950SOL     OW 4462   7.786   9.258   4.546  0.4603 -0.2806 -0.6291
  950SOL    HW1 4463   7.807   9.246   4.454  2.3073  0.4743 -0.3398
  950SOL    HW2 4464   7.813   9.175   4.587  1.1171 -0.0247 -0.5393
  951SOL     OW 4465   6.508   3.806   8.123 -0.0829 -0.2444 -0.8305
  951SOL    HW1 4466   6.583   3.865   8.128 -0.0400 -0.3309 -0.4392
  951SOL    HW2 4467   6.504   3.780   8.031  0.8989 -0.9469 -0.6851
  952SOL     OW 4468   6.448   2.842   5.822 -0.7498 -0.1542  0.2301
  952SOL    HW1 4469   6.404   2.779   5.879  0.6534 -1.5910 -0.2203
  952SOL    HW2 4470   6.486   2.906   5.883 -1.3383 -0.2849  0.7458
  953SOL     OW 4471   6.178   1.133   6.556 -0.1840 -0.3308 -0.1321
  953SOL    HW1 4472   6.166   1.141   6.651 -1.8336 -1.1883 -0.2207
  953SOL    HW2 4473   6.140   1.213   6.520 -2.2222 -1.2476 -0.1758
  954SOL     OW 4474   0.662   1.064   1.031 -0.0035 -0.4681  0.4886
  954SOL    HW1 4475   0.578   1.037   0.993  0.7987 -1.8638 -0.3485
  954SOL    HW2 4476   0.708   1.106   0.958 -0.0825  0.5866  1.0307
  955SOL     OW 4477   4.442   1.151   1.809 -0.5647  0.4481 -0.0296
  955SOL    HW1 4478   4.525   1.106   1.797 -0.5872  0.4369 -0.1414
  955SOL    HW2 4479   4.456   1.207   1.885 -0.9939 -0.8710  1.0689
  956SOL     OW 4480   6.686   1.444   5.785 -0.0495  0.0717 -0.0196
  956SOL    HW1 4481   6.620   1.375   5.784 -0.8900  0.8257  1.3309
  956SOL    HW2 4482   6.762   1.403   5.827 -0.9489  0.2655  1.9215
  957SOL     OW 4483   5.431   8.729   9.090  0.1088  0.4925 -0.1269
  957SOL    HW1 4484   5.502   8.702   9.030 -0.3123  0.8085 -0.7827
  957SOL    HW2 4485   5.428   8.660   9.156 -0.0624 -0.3731 -1.0174
  958SOL     OW 4486   2.404   3.314   3.721  0.4730 -0.3224 -0.2490
  958SOL    HW1 4487   2.381   3.228   3.755 -0.0223 -0.4690 -0.9261
  958SOL    HW2 4488   2.376   3.312   3.629 -0.6795  0.9700  0.0295
  959SOL     OW 4489   0.758   6.539   8.414  0.9375 -0.2012 -0.7456
  959SOL    HW1 4490   0.785   6.624   8.449  2.2069 -0.1953 -1.6810
  959SOL    HW2 4491   0.662   6.544   8.409  0.7181  0.0351  2.0161
  960SOL     OW 4492   1.842   0.785   4.938 -0.0113  0.3458 -0.1345
  960SOL    HW1 4493   1.864   0.841   5.012 -0.4619  0.4740 -0.0933
  960SOL    HW2 4494   1.858   0.839   4.861 -1.6541  0.9998 -0.0655
  961SOL     OW 4495   3.678   3.173   5.029  0.1419  0.2646  0.6423
  961SOL    HW1 4496   3.770   3.146   5.028  0.0646 -0.0112  0.7071
  961SOL    HW2 4497   3.681   3.268   5.023  0.4381  0.2721  0.8429
  962SOL     OW 4498   2.775   8.381   2.073 -0.0016  0.0604 -0.4157
  962SOL    HW1 4499   2.772   8.349   1.982 -0.0789  1.3340 -0.8838
  962SOL    HW2 4500   2.698   8.343   2.114 -0.6719  0.4899 -1.2494
  963SOL     OW 4501   6.624   9.496   3.445 -0.1816  0.3144  0.1927
  963SOL    HW1 4502   6.623   9.412   3.400 -0.1160 -0.6122  1.8421
  963SOL    HW2 4503   6.715   9.525   3.440 -0.2427  0.3975 -0.5423
  964SOL     OW 4504   3.957   9.550   4.859  0.2045 -0.2524 -0.7932
  964SOL    HW1 4505   4.017   9.619   4.886  0.1926 -0.5369 -0.0266
  964SOL    HW2 4506   3.931   9.575   4.770  0.9494  0.2133 -0.8918
  965SOL     OW 4507   5.563   2.983   6.903  0.1376  0.1772 -0.3227
  965SOL    HW1 4508   5.548   2.991   6.809 -0.2066  2.5288 -0.1311
  965SOL    HW2 4509   5.475   2.984   6.941  0.2167 -1.7709  0.0183
  966SOL     OW 4510   0.810   1.858   7.699  0.5435 -0.1249 -0.4081
  966SOL    HW1 4511   0.804   1.942   7.746 -0.3954 -1.9055  3.0111
  966SOL    HW2 4512   0.725   1.849   7.656  1.2031  1.2799 -2.1459
  967SOL     OW 4513   4.196   8.055   2.254 -0.0132 -0.5252  0.0519
  967SOL    HW1 4514   4.226   8.134   2.210  1.2162 -1.1911 -0.3783
  967SOL    HW2 4515   4.177   8.082   2.344 -0.0655  0.3480 -0.2226
  968SOL     OW 4516   7.097   8.962   0.205  0.3275  0.3348  0.0051
  968SOL    HW1 4517   7.159   9.020   0.161  2.0667 -0.7580  0.8717
  968SOL    HW2 4518   7.080   8.893   0.140 -1.8045  1.7522 -1.0547
  969SOL     OW 4519   8.926   9.201   2.864 -0.1434  0.1714  0.3213
  969SOL    HW1 4520   8.956   9.143   2.934  0.6522  1.8035  1.3827
  969SOL    HW2 4521   9.006   9.241   2.830 -0.8081  2.3517  1.1713
  970SOL     OW 4522   0.093   7.433   6.338 -0.3129 -0.3951 -0.0683
  970SOL    HW1 4523   0.143   7.419   6.258 -1.6572 -0.7571 -0.8775
  970SOL    HW2 4524   0.049   7.350   6.354 -3.1624  0.7527 -1.2167
  971SOL     OW 4525   1.756   4.287   6.632  0.4837 -0.3236  0.1516
  971SOL    HW1 4526   1.711   4.312   6.551  0.0774 -1.5599 -0.0206
  971SOL    HW2 4527   1.839   4.249   6.604  0.7670  0.1183  0.3737
  972SOL     OW 4528   4.794   9.565   6.315  0.5892 -0.2845  0.2783
  972SOL    HW1 4529   4.780   9.471   6.320  0.0059 -0.1952  0.4420
  972SOL    HW2 4530   4.754   9.591   6.232 -0.2308 -0.0286  0.7370
  973SOL     OW 4531   7.995   1.037   6.638  0.5939 -0.0082 -0.2360
  973SOL    HW1 4532   8.038   1.026   6.554  0.5103 -1.2600 -0.1403
  973SOL    HW2 4533   7.916   0.982   6.632 -1.4844  2.8181 -0.7091
  974SOL     OW 4534   2.748   0.294   9.355 -0.4312  0.8856 -0.4261
  974SOL    HW1 4535   2.778   0.332   9.273  1.1393 -0.1624 -0.3837
  974SOL    HW2 4536   2.755   0.199   9.341 -0.7483  0.6806  0.6964
  975SOL     OW 4537   9.270   7.607   9.462 -0.4735 -0.2204  0.1813
  975SOL    HW1 4538   9.317   7.528   9.487 -2.4477 -1.2111  0.9906
  975SOL    HW2 4539   9.239   7.588   9.373  0.6490  0.4594 -0.3787
  976SOL     OW 4540   6.220   9.156   7.271 -0.2502  0.1216 -0.6336
  976SOL    HW1 4541   6.242   9.076   7.319 -0.7476 -0.1973 -0.9333
  976SOL    HW2 4542   6.283   9.221   7.303  0.3456 -0.4626 -0.5979
  977SOL     OW 4543   4.728   2.222   0.205  0.1406 -0.2062  0.2942
  977SOL    HW1 4544   4.675   2.181   0.273 -1.3253  0.6884 -0.2588
  977SOL    HW2 4545   4.668   2.284   0.163  1.5504  0.6104 -0.5735
  978SOL     OW 4546   0.681   7.751   0.799  0.0128  0.2374 -0.0196
  978SOL    HW1 4547   0.643   7.815   0.859  2.3481  0.4091  1.3672
  978SOL    HW2 4548   0.753   7.711   0.848 -0.4231 -2.4224 -1.3733
  979SOL     OW 4549   8.624   0.750   1.024  0.1621  0.0273 -0.3116
  979SOL    HW1 4550   8.583   0.816   1.080  0.8765  1.6077 -1.5713
  979SOL    HW2 4551   8.703   0.724   1.071 -0.6328 -0.7241  0.6618
  980SOL     OW 4552   3.565   0.182   4.648  0.0563  0.0358 -0.0029
  980SOL    HW1 4553   3.633   0.239   4.684  1.4362 -1.6494  0.1540
  980SOL    HW2 4554   3.501   0.175   4.719  1.4113 -1.0741  1.1619
  981SOL     OW 4555   1.132   8.231   0.976  0.2231 -0.0462 -0.0911
  981SOL    HW1 4556   1.120   8.223   1.071  1.5296 -0.2941  0.0676
  981SOL    HW2 4557   1.223   8.256   0.965 -0.4392  2.1107 -1.2043
  982SOL     OW 4558   1.106   7.821   9.411  0.4914 -0.0479 -0.0566
  982SOL    HW1 4559   1.122   7.873   9.332 -0.1350  0.0117 -0.1474
  982SOL    HW2 4560   1.011   7.809   9.413  0.4879  0.0786  0.7698
  983SOL     OW 4561   4.576   1.578   4.462  0.0012  0.1092 -0.0654
  983SOL    HW1 4562   4.485   1.574   4.492 -0.6242  1.0054 -1.7262
  983SOL    HW2 4563   4.616   1.643   4.519 -1.2445  2.0092 -1.2311
  984SOL     OW 4564   6.843   9.732   7.011 -0.3772 -0.2636  0.2418
  984SOL    HW1 4565   6.920   9.762   6.963 -0.8562  0.4718 -0.1036
  984SOL    HW2 4566   6.877   9.685   7.087  0.4004 -0.3604 -0.1658
  985SOL     OW 4567   4.635   2.314   6.987 -0.0293 -0.3384 -0.3559
  985SOL    HW1 4568   4.720   2.350   6.961 -0.0774  0.7855  0.9235
  985SOL    HW2 4569   4.586   2.390   7.017 -1.5243 -0.9670 -1.0959
  986SOL     OW 4570   7.151   2.329   7.268  0.1944 -0.1544 -0.1541
  986SOL    HW1 4571   7.081   2.367   7.215 -0.9090 -2.0597 -0.1732
  986SOL    HW2 4572   7.125   2.346   7.359  0.1496 -0.1333 -0.1711
  987SOL     OW 4573   5.428   1.071   8.041 -0.2493  0.1786 -0.4825
  987SOL    HW1 4574   5.490   1.015   8.087 -1.0484  0.3390  0.8612
  987SOL    HW2 4575   5.420   1.032   7.954  3.0330  1.1638 -1.3485
  988SOL     OW 4576   4.559   2.065   8.395  0.2740  0.1483 -0.1124
  988SOL    HW1 4577   4.492   2.133   8.393 -0.3135 -0.4273 -0.2868
  988SOL    HW2 4578   4.520   1.995   8.448  0.2034 -0.7330 -1.2945
  989SOL     OW 4579   8.830   4.218   8.955  0.2788  0.2276  0.1374
  989SOL    HW1 4580   8.819   4.210   9.050  3.9989 -0.5197  0.6758
  989SOL    HW2 4581   8.774   4.292   8.931 -2.1406 -0.6621  2.5466
  990SOL     OW 4582   1.529   4.163   5.347  0.4098 -0.2575  0.4073
  990SOL    HW1 4583   1.510   4.074   5.320 -2.7728  0.4153  0.0489
  990SOL    HW2 4584   1.532   4.159   5.443 -0.0179 -0.7095  0.4059
  991SOL     OW 4585   4.998   1.814   4.059  0.0864  0.2196 -0.1021
  991SOL    HW1 4586   4.980   1.898   4.101 -2.1489 -0.4616  0.4649
  991SOL    HW2 4587   4.911   1.776   4.044  1.0132 -1.7345 -0.8819
  992SOL     OW 4588   0.763   7.975   1.527 -0.1815 -0.2875 -0.1983
  992SOL    HW1 4589   0.747   8.042   1.593  0.1009 -0.9386  0.5365
  992SOL    HW2 4590   0.724   7.895   1.563 -0.3661 -0.5709 -0.9878
  993SOL     OW 4591   0.043   7.155   6.405 -0.4999  0.4201 -0.3528
  993SOL    HW1 4592   0.135   7.131   6.395 -0.3070 -0.0796  2.1110
  993SOL    HW2 4593  -0.003   7.071   6.411 -0.9771  0.6692 -0.5196
  994SOL     OW 4594   2.723   0.328   2.903  0.2567 -0.7740  0.2025
  994SOL    HW1 4595   2.754   0.274   2.830 -1.2245  1.4462 -2.2465
  994SOL    HW2 4596   2.803   0.353   2.949  1.3956 -1.2028 -1.4300
  995SOL     OW 4597   0.748   7.252   4.527 -0.4672 -0.4792 -0.0514
  995SOL    HW1 4598   0.735   7.329   4.582  2.0665 -1.1693  1.6900
  995SOL    HW2 4599   0.715   7.179   4.579  0.9839 -1.0211  0.1547
  996SOL     OW 4600   3.826   6.335   2.272 -0.1767 -0.0484 -0.4330
  996SOL    HW1 4601   3.848   6.390   2.347  1.9461 -1.0486 -0.2345
  996SOL    HW2 4602   3.751   6.282   2.301  0.3525 -0.1214  0.8471
  997SOL     OW 4603   0.814   7.125   1.967  0.6295 -0.3707  0.0051
  997SOL    HW1 4604   0.843   7.058   2.029  1.6432  0.2904  0.2568
  997SOL    HW2 4605   0.739   7.167   2.011  1.1447 -0.1122  0.6535
  998SOL     OW 4606   9.561   5.346   5.683 -0.2745  0.3417 -0.7245
  998SOL    HW1 4607   9.625   5.363   5.752 -0.5332 -1.0311 -0.1158
  998SOL    HW2 4608   9.612   5.306   5.612 -0.3798 -0.4959 -0.3479
  999SOL     OW 4609   5.173   4.318   3.504 -0.4739  0.4716  0.2693
  999SOL    HW1 4610   5.208   4.351   3.421  0.2328 -0.4532  0.1848
  999SOL    HW2 4611   5.091   4.366   3.516  0.3065  1.9458 -0.0486
 1000SOL     OW 4612   5.261   2.843   9.326 -0.1406 -0.2951  0.2491
 1000SOL    HW1 4613   5.327   2.908   9.302  2.1876 -3.4999 -3.3180
 1000SOL    HW2 4614   5.177   2.888   9.312  1.2947  1.9772 -1.9324
 1001SOL     OW 4615   1.045   2.897   6.577 -0.5280  0.0162 -0.1328
 1001SOL    HW1 4616   1.103   2.827   6.548 -0.5533 -0.3113  0.5867
 1001SOL    HW2 4617   0.963   2.854   6.600 -0.7689  0.3665 -0.3285
 1002SOL     OW 4618   8.299   0.841   7.833 -0.6997  0.1168  0.4413
 1002SOL    HW1 4619   8.383   0.852   7.789  0.4740 -0.6893  2.3255
 1002SOL    HW2 4620   8.266   0.758   7.800 -0.6782  0.3577 -0.1925
 1003SOL     OW 4621   2.153   9.715   5.773 -0.4561 -0.5062 -0.1587
 1003SOL    HW1 4622   2.091   9.695   5.843 -1.1904 -1.1573 -0.9610
 1003SOL    HW2 4623   2.103   9.769   5.711  0.1208 -0.0980 -0.2774
 1004SOL     OW 4624   4.203   4.624   5.288  0.4106  0.0496  0.5475
 1004SOL    HW1 4625   4.178   4.651   5.200  2.0378 -0.3970 -0.0818
 1004SOL    HW2 4626   4.135   4.562   5.314  0.6291 -0.8793 -0.9649
 1005SOL     OW 4627   5.277   2.855   3.811 -0.8115 -0.3311  0.1437
 1005SOL    HW1 4628   5.275   2.822   3.900 -0.7880  0.3485  0.4006
 1005SOL    HW2 4629   5.366   2.889   3.799 -1.2006  0.8256  0.3414
 1006SOL     OW 4630   3.365   4.097   1.452 -0.1020  0.2138  0.5589
 1006SOL    HW1 4631   3.358   4.183   1.410 -0.4673 -0.4407 -0.7495
 1006SOL    HW2 4632   3.312   4.039   1.398 -0.4213 -0.7092  1.8286
 1007SOL     OW 4633   3.456   5.657   7.119 -0.3777 -0.3096 -0.0261
 1007SOL    HW1 4634   3.539   5.624   7.085 -0.8534 -1.4176 -0.1736
 1007SOL    HW2 4635   3.401   5.579   7.126 -2.0732  0.6329 -1.8022
 1008SOL     OW 4636   3.059   8.411   7.004 -0.1406 -0.1184  0.0087
 1008SOL    HW1 4637   2.972   8.388   7.035 -0.4221  0.1371 -0.5913
 1008SOL    HW2 4638   3.113   8.336   7.028 -0.6104 -0.4631 -0.0016
 1009SOL     OW 4639   4.658   1.949   4.506  0.5290 -0.2066  1.1476
 1009SOL    HW1 4640   4.659   2.026   4.562  1.0142  0.0141  0.8452
 1009SOL    HW2 4641   4.644   1.984   4.418  0.1314 -0.5169  1.0857
 1010SOL     OW 4642   0.771   7.665   7.832  0.2872  0.1978  0.0718
 1010SOL    HW1 4643   0.835   7.734   7.818  0.7485 -0.0866  0.7329
 1010SOL    HW2 4644   0.823   7.588   7.855 -0.1604 -0.6057 -1.4360
 1011SOL     OW 4645   4.220   5.314   8.254 -0.4280  0.5103 -0.3361
 1011SOL    HW1 4646   4.157   5.337   8.186  0.7715  0.2021 -1.5875
 1011SOL    HW2 4647   4.287   5.382   8.248 -0.4132  0.6086  0.7165
 1012SOL     OW 4648   8.929   3.508   1.179 -0.4523 -0.2565  1.1948
 1012SOL    HW1 4649   9.010   3.461   1.197  1.1014  1.8843  0.1765
 1012SOL    HW2 4650   8.952   3.600   1.184 -2.2917  0.4513 -1.2550
 1013SOL     OW 4651   4.911   1.900   1.374  0.0240  0.1425 -0.5464
 1013SOL    HW1 4652   4.857   1.978   1.381  2.2259  1.6647  0.9034
 1013SOL    HW2 4653   4.949   1.905   1.286 -1.5096 -0.5193 -1.2730
 1014SOL     OW 4654   7.215   1.921   4.185 -0.3245 -0.4235  0.4052
 1014SOL    HW1 4655   7.242   1.862   4.255 -2.7653 -2.9725 -0.6133
 1014SOL    HW2 4656   7.128   1.890   4.159 -1.4955  3.2680 -0.7138
 1015SOL     OW 4657   7.876   2.730   5.952  0.0544  0.0300  0.2671
 1015SOL    HW1 4658   7.808   2.746   5.886  2.5276 -2.9147 -3.4419
 1015SOL    HW2 4659   7.840   2.660   6.006 -0.5083 -0.3818 -0.6159
 1016SOL     OW 4660   7.206   6.295   3.117 -0.1139 -0.3531 -0.7104
 1016SOL    HW1 4661   7.231   6.294   3.209 -1.2898  1.3509 -0.3102
 1016SOL    HW2 4662   7.261   6.229   3.075  0.1508 -1.4524  1.2808
 1017SOL     OW 4663   5.541   7.541   1.411  0.3233  0.3341 -0.4710
 1017SOL    HW1 4664   5.577   7.615   1.461  0.4769 -0.1378  0.1338
 1017SOL    HW2 4665   5.593   7.466   1.439 -2.5900 -0.8725  2.3135
 1018SOL     OW 4666   1.741   9.247   4.335 -0.0611  0.1151 -0.5811
 1018SOL    HW1 4667   1.811   9.272   4.274  0.3743  0.1875 -0.0578
 1018SOL    HW2 4668   1.783   9.245   4.420 -1.2043  2.4834  0.1229
 1019SOL     OW 4669   5.810   1.863   3.212  0.1468  0.4782  0.2178
 1019SOL    HW1 4670   5.804   1.769   3.201 -0.7402  0.7204 -1.6971
 1019SOL    HW2 4671   5.881   1.875   3.276  0.9261 -1.4316 -0.2136
 1020SOL     OW 4672   4.960   3.971   9.185  0.2224  0.3065  0.2773
 1020SOL    HW1 4673   4.912   3.968   9.268 -1.1827 -0.7480 -0.5257
 1020SOL    HW2 4674   4.938   4.057   9.148 -1.2923 -0.2299 -0.1688
 1021SOL     OW 4675   6.625   6.360   3.214 -0.5010  0.1679 -0.3369
 1021SOL    HW1 4676   6.583   6.287   3.260  0.1125 -0.6603 -1.0702
 1021SOL    HW2 4677   6.576   6.437   3.243 -0.7513 -0.4495  0.9443
 1022SOL     OW 4678   0.653   8.885   3.115  0.1705 -0.0431  0.5344
 1022SOL    HW1 4679   0.601   8.955   3.075  0.7232 -0.5382 -1.1248
 1022SOL    HW2 4680   0.728   8.931   3.155 -0.0768  0.4159  0.4766
 1023SOL     OW 4681   3.719   6.667   3.809  0.1235 -0.1386  0.3343
 1023SOL    HW1 4682   3.678   6.712   3.883 -3.1761  0.4311 -1.5920
 1023SOL    HW2 4683   3.801   6.714   3.795  0.0262  0.8209  2.5615
 1024SOL     OW 4684   7.064   1.976   9.159  0.5266  0.5947  0.1492
 1024SOL    HW1 4685   7.141   1.953   9.210  1.4243  2.9141 -0.0238
 1024SOL    HW2 4686   6.994   1.985   9.224  1.1551  1.4616  0.7263
 1025SOL     OW 4687   2.392   8.943   7.211  0.3118 -0.4262 -0.2069
 1025SOL    HW1 4688   2.375   8.965   7.303  0.0648 -1.2119 -0.0511
 1025SOL    HW2 4689   2.308   8.909   7.179  0.4752 -0.4284 -0.6368
 1026SOL     OW 4690   7.162   6.927   3.924  0.1024 -0.1179  0.3192
 1026SOL    HW1 4691   7.178   6.953   3.834  1.2323  2.2239  1.1144
 1026SOL    HW2 4692   7.166   6.831   3.923 -0.2887 -0.1628 -2.1414
 1027SOL     OW 4693   1.773   5.736   5.700  0.3131  0.7052 -0.3084
 1027SOL    HW1 4694   1.780   5.780   5.615  0.0548  1.1932 -0.0772
 1027SOL    HW2 4695   1.763   5.806   5.764 -2.9875  0.3259 -0.2096
 1028SOL     OW 4696   1.693   7.798   5.872  0.0610 -0.1340 -0.1100
 1028SOL    HW1 4697   1.698   7.791   5.776 -1.5693  0.5219 -0.2882
 1028SOL    HW2 4698   1.631   7.870   5.887  1.1153  0.4948  1.4552
 1029SOL     OW 4699   4.377   2.028   1.551  0.1633 -0.1927 -0.0323
 1029SOL    HW1 4700   4.381   1.969   1.475 -1.0718  0.4504 -0.6187
 1029SOL    HW2 4701   4.365   1.969   1.625 -2.9531 -0.7078 -0.7855
 1030SOL     OW 4702   7.684   1.960   4.753  0.4343 -0.1631  0.5640
 1030SOL    HW1 4703   7.638   2.018   4.693  1.5164 -0.8210 -0.9654
 1030SOL    HW2 4704   7.675   2.002   4.839 -1.8203  0.3981  0.1116
 1031SOL     OW 4705   1.580   1.922   1.470  0.0463 -0.0240  0.2144
 1031SOL    HW1 4706   1.616   2.010   1.480  0.1618  0.0217 -0.5296
 1031SOL    HW2 4707   1.656   1.864   1.476 -0.2713 -0.2977  3.0856
 1032SOL     OW 4708   9.666   0.811   5.723  0.1399  0.4627 -0.2763
 1032SOL    HW1 4709   9.698   0.721   5.713  1.8480  0.9586  0.3476
 1032SOL    HW2 4710   9.733   0.855   5.775 -1.3683  1.7468  0.6614
 1033SOL     OW 4711   7.238   8.382   4.547 -0.0016  0.1115  0.4136
 1033SOL    HW1 4712   7.229   8.333   4.629  1.9609  1.1732  1.3570
 1033SOL    HW2 4713   7.160   8.437   4.542 -1.6342 -2.1408 -0.0439
 1034SOL     OW 4714   2.716   1.262   2.127 -0.3528  0.2109  0.5120
 1034SOL    HW1 4715   2.701   1.191   2.064  1.7498 -0.1669  0.3840
 1034SOL    HW2 4716   2.802   1.244   2.165 -0.4407  1.8611  1.6168
 1035SOL     OW 4717   8.470   6.865   5.843 -0.5274  0.1006  0.2170
 1035SOL    HW1 4718   8.554   6.823   5.862 -0.0903  1.1795  0.7280
 1035SOL    HW2 4719   8.444   6.828   5.759 -0.1160 -1.1133  0.5934
 1036SOL     OW 4720   0.065   3.433   4.234  0.2536  0.1334 -0.5226
 1036SOL    HW1 4721   0.086   3.343   4.210 -2.7929 -1.1466  1.0768
 1036SOL    HW2 4722  -0.020   3.450   4.194  0.9477  2.5048 -1.1336
 1037SOL     OW 4723   2.442   5.064   7.827 -0.6072 -0.7838 -0.1588
 1037SOL    HW1 4724   2.408   5.151   7.846  1.1494 -0.1982  0.5357
 1037SOL    HW2 4725   2.487   5.038   7.908 -0.3839 -1.9702 -0.6486
 1038SOL     OW 4726   5.393   0.603   9.581 -0.1752  0.5278 -0.2924
 1038SOL    HW1 4727   5.316   0.551   9.557 -0.0082 -0.6795  1.5667
 1038SOL    HW2 4728   5.359   0.667   9.644 -0.0159  1.4037 -1.0768
 1039SOL     OW 4729   5.352   7.449   9.703 -0.2678  0.0507 -0.1478
 1039SOL    HW1 4730   5.309   7.370   9.737 -2.2664  0.2656 -1.9606
 1039SOL    HW2 4731   5.400   7.418   9.626 -0.1599  0.4307 -0.2337
 1040SOL     OW 4732   2.325   7.223   8.845 -0.5501  0.1919 -0.1269
 1040SOL    HW1 4733   2.352   7.251   8.757 -1.5380  1.5902 -0.0105
 1040SOL    HW2 4734   2.373   7.141   8.859  0.1905  0.3161 -1.6699
 1041SOL     OW 4735   4.564   5.357   7.336  0.0120  0.0492  0.0514
 1041SOL    HW1 4736   4.575   5.333   7.428 -1.3076 -0.5986  0.0676
 1041SOL    HW2 4737   4.469   5.362   7.324  0.1091 -1.2002 -1.5899
 1042SOL     OW 4738   0.701   3.861   4.637 -0.3484 -0.5971 -0.6608
 1042SOL    HW1 4739   0.607   3.851   4.646 -0.2871 -2.2320 -1.3267
 1042SOL    HW2 4740   0.722   3.818   4.554  0.9298  0.1129 -0.7356
 1043SOL     OW 4741   1.357   9.603   7.563 -0.0549 -0.6586  0.3341
 1043SOL    HW1 4742   1.344   9.684   7.513  1.5933 -1.4509 -1.4839
 1043SOL    HW2 4743   1.435   9.620   7.616 -0.3407 -0.7135  0.7839
 1044SOL     OW 4744   8.434   0.925   8.853 -0.3816  0.4329 -0.1495
 1044SOL    HW1 4745   8.500   0.970   8.799 -0.9901  1.1435 -0.3127
 1044SOL    HW2 4746   8.392   0.864   8.793  3.4002 -3.8191  0.9515
 1045SOL     OW 4747   9.770   6.682   2.774 -0.2202 -0.4613 -0.3712
 1045SOL    HW1 4748   9.708   6.614   2.748  0.2744 -1.2579  0.4826
 1045SOL    HW2 4749   9.735   6.717   2.855  1.4442 -2.3430  1.2587
 1046SOL     OW 4750   9.008   5.480   1.221 -0.4765  0.1237 -0.1303
 1046SOL    HW1 4751   9.020   5.387   1.205  0.0803  0.6333 -3.1856
 1046SOL    HW2 4752   8.917   5.489   1.248 -0.1201 -1.4057  1.8349
 1047SOL     OW 4753   2.005   7.032   7.088 -0.3273 -0.0633 -0.1789
 1047SOL    HW1 4754   2.023   6.975   7.014 -0.0144 -1.2207  0.7563
 1047SOL    HW2 4755   1.987   6.973   7.161 -1.0906  1.0440  0.5673
 1048SOL     OW 4756   7.749   7.157   4.803 -0.1570 -0.0992  0.7117
 1048SOL    HW1 4757   7.769   7.216   4.731  0.3642 -0.6865  0.3650
 1048SOL    HW2 4758   7.832   7.146   4.849 -0.2900 -0.4295  0.8739
 1049SOL     OW 4759   1.657   3.880   8.453  0.0438 -0.2531 -0.0782
 1049SOL    HW1 4760   1.717   3.923   8.515 -0.6305 -0.0826  0.4693
 1049SOL    HW2 4761   1.639   3.947   8.387  1.4523 -0.7062 -0.9787
 1050SOL     OW 4762   9.347   4.251   2.283  0.4343 -0.4079 -0.5611
 1050SOL    HW1 4763   9.349   4.267   2.189  0.4575  0.9389 -0.3566
 1050SOL    HW2 4764   9.439   4.246   2.308  0.4408 -0.0795 -0.5131
 1051SOL     OW 4765   3.197   2.552   2.139  0.5353  0.0263 -0.0614
 1051SOL    HW1 4766   3.175   2.636   2.099  0.0849  0.0917  0.3196
 1051SOL    HW2 4767   3.114   2.506   2.147  0.4997  0.2926  1.4173
 1052SOL     OW 4768   8.659   8.366   2.448 -0.4687 -0.0089 -0.1434
 1052SOL    HW1 4769   8.653   8.422   2.525 -2.3197 -0.7722  0.3094
 1052SOL    HW2 4770   8.645   8.425   2.374  2.4545  0.9477 -0.0751
 1053SOL     OW 4771   6.967   1.414   4.287 -0.0199 -0.3944 -0.2964
 1053SOL    HW1 4772   6.928   1.460   4.213  1.1926 -0.5768 -1.0607
 1053SOL    HW2 4773   7.051   1.383   4.256  2.0572  2.2946  2.1108
 1054SOL     OW 4774   6.456   1.301   7.984  0.0287 -0.0311 -0.0699
 1054SOL    HW1 4775   6.406   1.379   8.008 -0.4423 -0.5723  0.7467
 1054SOL    HW2 4776   6.405   1.228   8.019  0.8807 -0.6559 -0.1110
 1055SOL     OW 4777   2.380   6.522   8.034  0.1335 -0.2276 -0.4515
 1055SOL    HW1 4778   2.336   6.516   7.950 -0.8126 -0.0138  0.0222
 1055SOL    HW2 4779   2.310   6.532   8.098  0.8875  0.6756  0.2663
 1056SOL     OW 4780   5.322   5.963   1.408 -0.5574 -0.2043  0.3780
 1056SOL    HW1 4781   5.370   5.926   1.482  0.7495 -0.0942 -0.3965
 1056SOL    HW2 4782   5.359   6.050   1.396 -1.5851  0.2389  0.3217
 1057SOL     OW 4783   4.652   4.101   8.171  0.7251 -0.1816 -0.3668
 1057SOL    HW1 4784   4.627   4.171   8.111 -2.3071 -0.8863 -0.1052
 1057SOL    HW2 4785   4.689   4.033   8.115 -1.6833 -0.6698 -1.4995
 1058SOL     OW 4786   7.115   2.422   8.741 -0.0280  0.1735  0.1667
 1058SOL    HW1 4787   7.180   2.487   8.716  1.9112 -1.8447 -0.3319
 1058SOL    HW2 4788   7.134   2.346   8.686 -1.7154 -1.0963  1.2327
 1059SOL     OW 4789   1.407   0.376   6.674 -0.3481 -0.6464  0.3212
 1059SOL    HW1 4790   1.337   0.324   6.634 -2.6335  1.8462  0.7785
 1059SOL    HW2 4791   1.462   0.402   6.601 -1.0509 -1.0212 -0.3609
 1060SOL     OW 4792   7.844   1.908   2.236  0.3102  0.0156 -0.1087
 1060SOL    HW1 4793   7.823   1.831   2.289  0.7760 -0.3868 -0.4974
 1060SOL    HW2 4794   7.889   1.872   2.159  0.9849  0.7170 -0.0474
 1061SOL     OW 4795   8.393   3.126   7.896 -0.0211 -0.0600  0.3355
 1061SOL    HW1 4796   8.454   3.157   7.963  0.4741  0.4516 -0.3450
 1061SOL    HW2 4797   8.446   3.115   7.818 -0.8489  0.6512 -0.3478
 1062SOL     OW 4798   2.164   0.539   7.478  0.7820 -0.4044 -0.0919
 1062SOL    HW1 4799   2.124   0.612   7.526  2.4149 -0.2352  1.1070
 1062SOL    HW2 4800   2.232   0.580   7.425  0.0256 -0.7861 -1.3867
 1063SOL     OW 4801   3.770   7.302   3.672 -0.0162 -0.2226 -0.2531
 1063SOL    HW1 4802   3.717   7.222   3.675  1.3539 -1.1617 -0.1130
 1063SOL    HW2 4803   3.860   7.271   3.683  0.4338  1.4745  1.3319
 1064SOL     OW 4804   9.836   3.468   2.307  0.1603  0.2960 -0.1993
 1064SOL    HW1 4805   9.893   3.543   2.290  0.4020  0.5543  1.5141
 1064SOL    HW2 4806   9.770   3.502   2.368  0.1556 -0.8024  0.4402
 1065SOL     OW 4807   7.681   0.206   0.420 -0.1349 -0.0145 -0.2620
 1065SOL    HW1 4808   7.605   0.153   0.396  0.6469 -1.6330  0.6519
 1065SOL    HW2 4809   7.662   0.236   0.509  1.0103 -1.9018  0.6650
 1066SOL     OW 4810   1.159   8.896   4.627  0.0551 -0.3836  0.6060
 1066SOL    HW1 4811   1.176   8.836   4.699 -1.5930 -0.3229  1.0998
 1066SOL    HW2 4812   1.076   8.864   4.589 -0.2500  0.8827  0.1454
 1067SOL     OW 4813   4.246   4.606   9.168  0.1093  0.2862 -0.7583
 1067SOL    HW1 4814   4.152   4.626   9.171  0.3925  1.5680  0.6109
 1067SOL    HW2 4815   4.250   4.510   9.169 -1.1708  0.2085  0.6685
 1068SOL     OW 4816   1.086   0.069   1.835 -0.1931  0.0117 -0.2920
 1068SOL    HW1 4817   1.144   0.008   1.790 -0.0894 -0.7023  0.7641
 1068SOL    HW2 4818   1.009   0.077   1.779  0.0856 -0.5712 -0.7608
 1069SOL     OW 4819   5.822   8.126   5.569 -0.3297  0.0487 -0.8185
 1069SOL    HW1 4820   5.856   8.168   5.490  1.2433 -0.6171 -0.5313
 1069SOL    HW2 4821   5.895   8.127   5.630 -1.4242  0.2751  0.5411
 1070SOL     OW 4822   2.475   0.553   6.579 -0.5035  0.7853 -0.2316
 1070SOL    HW1 4823   2.484   0.599   6.495 -0.1873 -1.3373 -1.4211
 1070SOL    HW2 4824   2.522   0.471   6.567 -1.8300 -0.3007  1.4669
 1071SOL     OW 4825   6.879   5.587   7.979 -0.6368 -0.1537  0.1503
 1071SOL    HW1 4826   6.889   5.640   7.901  0.9153 -1.2352 -0.4179
 1071SOL    HW2 4827   6.917   5.640   8.049 -1.1674  0.4107  0.0276
 1072SOL     OW 4828   7.241   3.573   3.176  0.4217  0.1789 -0.8823
 1072SOL    HW1 4829   7.266   3.568   3.268 -2.5359  0.5417  0.0442
 1072SOL    HW2 4830   7.225   3.482   3.150  0.5819  0.1338 -0.8197
 1073SOL     OW 4831   7.978   7.262   1.404  0.0377 -0.0305  0.4474
 1073SOL    HW1 4832   7.999   7.175   1.369 -2.2299 -1.1486  1.6038
 1073SOL    HW2 4833   7.960   7.316   1.327  0.9407 -0.7462 -0.2707
 1074SOL     OW 4834   0.641   0.165   2.950 -0.2448 -0.0714  0.3448
 1074SOL    HW1 4835   0.548   0.189   2.944 -0.0868  1.0170  1.8052
 1074SOL    HW2 4836   0.661   0.170   3.044  1.0922 -1.1024  0.1403
 1075SOL     OW 4837   4.631   6.247   1.234  0.3496 -0.2036  1.1249
 1075SOL    HW1 4838   4.608   6.161   1.198  2.4183  0.0999 -1.1452
 1075SOL    HW2 4839   4.557   6.303   1.212  0.9584 -0.3599 -1.6587
 1076SOL     OW 4840   3.108   9.374   7.285  1.0067  0.1343 -0.2036
 1076SOL    HW1 4841   3.134   9.408   7.371 -0.2504  1.3553 -0.2688
 1076SOL    HW2 4842   3.164   9.298   7.271  1.0265 -0.2781  1.8398
 1077SOL     OW 4843   9.387   7.033   1.890  0.4028 -0.3083  0.0628
 1077SOL    HW1 4844   9.364   7.051   1.799  0.2946 -1.1381 -0.0837
 1077SOL    HW2 4845   9.370   7.115   1.936 -0.0797 -0.0489 -0.5667
 1078SOL     OW 4846   4.343   2.719   7.938  0.6851  0.7718  0.2795
 1078SOL    HW1 4847   4.411   2.771   7.981 -0.9397  1.0923  2.5795
 1078SOL    HW2 4848   4.364   2.628   7.961  2.3056  0.4700 -2.0044
 1079SOL     OW 4849   7.569   5.961   5.913 -0.5744  0.5992 -0.1012
 1079SOL    HW1 4850   7.533   5.948   6.001 -1.6403 -1.9463 -0.8209
 1079SOL    HW2 4851   7.629   5.888   5.900 -0.1523  1.1342 -1.3746
 1080SOL     OW 4852   3.649   9.289   3.695  0.1726  0.4070  0.0945
 1080SOL    HW1 4853   3.638   9.383   3.682  0.0935  0.4023  0.1241
 1080SOL    HW2 4854   3.579   9.250   3.643  1.7560  0.2474 -2.0955
 1081SOL     OW 4855   0.350   9.725   3.189  0.6853 -0.2177  0.0982
 1081SOL    HW1 4856   0.387   9.673   3.117  1.4783 -1.4950  1.3855
 1081SOL    HW2 4857   0.400   9.806   3.188 -0.9197  0.8782 -2.2790
 1082SOL     OW 4858   0.971   5.641   5.749  0.2434  0.6459  0.1452
 1082SOL    HW1 4859   1.040   5.574   5.746  1.3967  1.7365  1.0647
 1082SOL    HW2 4860   1.012   5.719   5.713 -1.8777  0.3129 -3.4177
 1083SOL     OW 4861   9.813   6.340   9.639  0.0946  0.3846 -0.4951
 1083SOL    HW1 4862   9.823   6.330   9.544 -0.8729  0.9226 -0.6668
 1083SOL    HW2 4863   9.844   6.429   9.657  0.6970  0.1283 -0.2301
 1084SOL     OW 4864   2.056   0.655   2.608 -0.3406 -0.3110  0.0581
 1084SOL    HW1 4865   2.131   0.705   2.577 -1.3454  1.6440  0.6097
 1084SOL    HW2 4866   2.009   0.630   2.528  1.4494 -2.5783 -0.3622
 1085SOL     OW 4867   0.177   6.830   8.391 -0.6425 -0.1547  0.2905
 1085SOL    HW1 4868   0.092   6.796   8.363 -1.3735 -0.3163  2.5440
 1085SOL    HW2 4869   0.214   6.762   8.447 -0.5181  1.2188  1.9515
 1086SOL     OW 4870   1.084   5.816   8.164  0.1576  0.7185 -0.2112
 1086SOL    HW1 4871   1.007   5.771   8.199  0.6769  0.0611  0.1041
 1086SOL    HW2 4872   1.049   5.898   8.128 -1.1395 -0.7524 -2.5726
 1087SOL     OW 4873   0.243   6.979   0.312  0.3335  0.6272  0.5351
 1087SOL    HW1 4874   0.200   6.998   0.395  1.7660  0.0703  1.4283
 1087SOL    HW2 4875   0.185   7.019   0.246 -2.0580 -0.9046  1.5684
 1088SOL     OW 4876   3.803   1.295   9.372 -0.1319 -0.3203  0.2769
 1088SOL    HW1 4877   3.842   1.305   9.285  1.7493 -1.4997  0.9137
 1088SOL    HW2 4878   3.766   1.206   9.372 -1.7863  0.3374  0.1045
 1089SOL     OW 4879   3.344   9.539   5.671 -0.2264 -0.2663  0.0677
 1089SOL    HW1 4880   3.302   9.456   5.692 -0.2616 -0.7213 -1.6239
 1089SOL    HW2 4881   3.287   9.577   5.603 -1.5486  2.2922  2.4194
 1090SOL     OW 4882   4.022   2.022   8.015  0.0095  0.5113  0.6153
 1090SOL    HW1 4883   4.011   2.076   7.937  0.3429 -0.8720 -0.4304
 1090SOL    HW2 4884   4.115   1.998   8.014  0.2713  1.3044  2.0386
 1091SOL     OW 4885   1.523   0.324   2.167  0.2369 -0.1128  0.0067
 1091SOL    HW1 4886   1.587   0.395   2.167  0.9949 -0.7543  0.9201
 1091SOL    HW2 4887   1.441   0.364   2.140  0.8355  0.9244 -0.3089
 1092SOL     OW 4888   6.149   3.667   4.619 -0.3991 -0.3382  0.5691
 1092SOL    HW1 4889   6.211   3.700   4.683 -0.0616  0.6243 -0.2216
 1092SOL    HW2 4890   6.192   3.591   4.580  0.9393  1.0859 -0.9144
 1093SOL     OW 4891   6.011   0.908   5.869 -0.1838  0.9132  0.4856
 1093SOL    HW1 4892   6.065   0.955   5.806  0.9945  0.4529  1.1107
 1093SOL    HW2 4893   6.067   0.837   5.901 -2.2269 -1.6215 -1.1716
 1094SOL     OW 4894   7.916   8.138   9.562  0.0270 -0.5479 -0.4666
 1094SOL    HW1 4895   7.842   8.141   9.501 -0.2834  1.9390 -0.0514
 1094SOL    HW2 4896   7.993   8.154   9.507 -0.2812  2.0068 -0.2562
 1095SOL     OW 4897   8.903   8.005   3.534 -0.0478 -0.9441 -0.4094
 1095SOL    HW1 4898   8.928   8.002   3.626 -0.1802 -2.0323 -0.3882
 1095SOL    HW2 4899   8.970   7.953   3.489  0.1914 -0.1682 -0.9807
 1096SOL     OW 4900   9.074   6.650   9.508  0.0798  0.3437  0.0775
 1096SOL    HW1 4901   9.117   6.628   9.591  1.2428  1.3357 -0.2365
 1096SOL    HW2 4902   9.033   6.735   9.524 -3.3479 -1.2883  0.9012
 1097SOL     OW 4903   9.410   3.649   5.521 -0.5766  0.6804  0.4863
 1097SOL    HW1 4904   9.496   3.674   5.554  0.2490 -0.6959 -0.5494
 1097SOL    HW2 4905   9.389   3.568   5.568 -0.5685  0.1334 -0.4469
 1098SOL     OW 4906   4.112   6.720   2.887  0.3011 -0.3291 -0.4987
 1098SOL    HW1 4907   4.082   6.797   2.837 -2.2511 -1.7778 -1.3722
 1098SOL    HW2 4908   4.146   6.757   2.969 -2.0006  1.7158 -0.3354
 1099SOL     OW 4909   8.402   1.777   9.523  0.6462  0.0703 -0.2553
 1099SOL    HW1 4910   8.333   1.836   9.492 -0.1853  0.5954  2.3635
 1099SOL    HW2 4911   8.374   1.751   9.610  1.9727 -2.7145 -0.5565
 1100SOL     OW 4912   1.244   4.187   0.252  0.6295 -0.3796  0.0508
 1100SOL    HW1 4913   1.228   4.093   0.263  1.0258 -0.5466 -0.7807
 1100SOL    HW2 4914   1.274   4.196   0.162  1.9219  0.3722  0.5275
 1101SOL     OW 4915   1.254   6.681   7.130  0.1181 -0.2867 -0.0276
 1101SOL    HW1 4916   1.277   6.614   7.195 -0.0316  0.1316  0.4599
 1101SOL    HW2 4917   1.312   6.662   7.056 -0.9333 -1.8787 -0.5069
 1102SOL     OW 4918   7.441   4.777   5.535 -0.4534  0.8278  0.4373
 1102SOL    HW1 4919   7.513   4.791   5.473 -1.3715 -0.1599 -0.9309
 1102SOL    HW2 4920   7.485   4.755   5.617  0.8609 -0.7447 -0.5986
 1103SOL     OW 4921   9.379   9.443   8.217  0.2525  0.6950  0.3661
 1103SOL    HW1 4922   9.459   9.403   8.251  1.7691  0.4144 -3.0827
 1103SOL    HW2 4923   9.321   9.369   8.200  0.0575  0.7054  0.9680
 1104SOL     OW 4924   7.901   8.594   5.532  0.1018  0.3462 -0.0470
 1104SOL    HW1 4925   7.917   8.639   5.614  0.4579 -0.1005  0.1362
 1104SOL    HW2 4926   7.850   8.516   5.556  1.5561 -0.6392 -0.0058
 1105SOL     OW 4927   2.429   2.084   8.043 -0.1014 -0.1669  0.2877
 1105SOL    HW1 4928   2.366   2.089   8.115 -0.0265  0.6639  0.3043
 1105SOL    HW2 4929   2.456   2.174   8.028  1.4908 -0.5555  0.6137
 1106SOL     OW 4930   9.152   9.432   0.236 -0.3468  0.4658 -0.2849
 1106SOL    HW1 4931   9.171   9.469   0.150 -1.7956 -0.5360 -1.0732
 1106SOL    HW2 4932   9.067   9.469   0.260 -0.4594 -0.1069  0.2286
 1107SOL     OW 4933   5.520   0.216   3.470 -0.1701  0.4140  0.3422
 1107SOL    HW1 4934   5.445   0.179   3.424 -2.0262  0.7966  2.8906
 1107SOL    HW2 4935   5.595   0.170   3.433 -1.5877  0.1267 -2.4089
 1108SOL     OW 4936   2.965   6.301   1.252 -0.4160  0.0690 -0.4234
 1108SOL    HW1 4937   2.984   6.370   1.188  1.6909  1.1584  1.2608
 1108SOL    HW2 4938   2.977   6.220   1.202  1.0251  0.8795 -1.4833
 1109SOL     OW 4939   3.540   3.379   7.464  0.2520 -0.1341 -0.3599
 1109SOL    HW1 4940   3.489   3.456   7.439  2.0496  2.5665  3.3514
 1109SOL    HW2 4941   3.626   3.393   7.424 -0.1056 -1.6652 -1.7828
 1110SOL     OW 4942   5.151   1.467   9.375  0.5381 -0.6937 -0.6203
 1110SOL    HW1 4943   5.226   1.414   9.400  2.2513  1.0699 -1.7049
 1110SOL    HW2 4944   5.174   1.502   9.289  0.2070  2.9112  0.5871
 1111SOL     OW 4945   5.707   0.929   5.068  0.6513  0.4954  0.2112
 1111SOL    HW1 4946   5.750   0.852   5.104  0.3526  0.6557  0.9428
 1111SOL    HW2 4947   5.697   0.911   4.975 -0.0838 -0.6536  0.5090
 1112SOL     OW 4948   9.209   5.221   8.949  0.4568  0.0652 -0.3526
 1112SOL    HW1 4949   9.256   5.253   9.026  0.1236  0.0266 -0.1332
 1112SOL    HW2 4950   9.188   5.130   8.970  0.3487  0.0603 -0.4838
 1113SOL     OW 4951   4.837   5.164   2.597 -0.2031  0.1583  0.0659
 1113SOL    HW1 4952   4.884   5.171   2.514 -1.2738  0.5094 -0.5282
 1113SOL    HW2 4953   4.839   5.071   2.619 -1.2334 -0.1828 -1.1631
 1114SOL     OW 4954   7.522   6.358   2.986  0.2541  0.0560  0.1392
 1114SOL    HW1 4955   7.532   6.448   3.015  1.1390  0.2939 -0.8509
 1114SOL    HW2 4956   7.611   6.323   2.984 -0.0924 -0.8926  0.6583
 1115SOL     OW 4957   3.438   0.994   2.905 -0.4799  0.5952  0.4361
 1115SOL    HW1 4958   3.481   1.046   2.974 -0.2594  0.7727  0.1668
 1115SOL    HW2 4959   3.467   1.035   2.823 -0.1569 -0.0672  0.2138
 1116SOL     OW 4960   5.524   3.444   6.983 -0.4382 -0.2155 -0.3342
 1116SOL    HW1 4961   5.456   3.501   7.019 -0.8946 -1.1984  0.4426
 1116SOL    HW2 4962   5.479   3.361   6.967  0.2784 -0.4634 -1.1282
 1117SOL     OW 4963   5.508   9.256   6.189 -0.0567  0.1785 -0.4222
 1117SOL    HW1 4964   5.474   9.176   6.149 -0.0624  0.6852 -1.4536
 1117SOL    HW2 4965   5.486   9.247   6.282  0.5812 -1.3355 -0.3913
 1118SOL     OW 4966   0.957   4.529   8.806 -0.2608  0.2144  0.0883
 1118SOL    HW1 4967   0.939   4.463   8.738 -1.7239 -0.5540  1.1816
 1118SOL    HW2 4968   1.019   4.589   8.764 -2.9032  1.1825 -2.8587
 1119SOL     OW 4969   8.017   0.137   7.708 -0.4253 -0.1425 -0.5970
 1119SOL    HW1 4970   7.931   0.137   7.750 -0.0657  1.7816  0.2246
 1119SOL    HW2 4971   8.079   0.154   7.779  0.8503 -2.9611 -0.9019
 1120SOL     OW 4972   1.384   1.704   5.854 -0.3829  0.0808  0.5035
 1120SOL    HW1 4973   1.362   1.758   5.930 -0.8430  0.9893 -0.2675
 1120SOL    HW2 4974   1.476   1.724   5.836 -0.0068 -0.7853  1.3219
 1121SOL     OW 4975   9.506   1.523   5.171  0.5831 -0.0681  0.5274
 1121SOL    HW1 4976   9.463   1.446   5.209  2.2151 -1.0483  0.4889
 1121SOL    HW2 4977   9.435   1.586   5.157 -1.0023 -1.9510 -0.4220
 1122SOL     OW 4978   6.980   8.201   7.920  0.0779  0.1996  0.3414
 1122SOL    HW1 4979   6.970   8.296   7.911  1.1609  0.2536 -0.3587
 1122SOL    HW2 4980   7.045   8.177   7.854 -1.0387 -1.2049 -0.3015
 1123SOL     OW 4981   2.852   5.273   3.708 -0.0858 -0.0387  0.9157
 1123SOL    HW1 4982   2.824   5.345   3.764  2.4494  0.9701  0.9927
 1123SOL    HW2 4983   2.840   5.195   3.763  0.9178  0.7686  2.3648
 1124SOL     OW 4984   5.074   5.071   2.191 -0.2642  0.3937  0.1236
 1124SOL    HW1 4985   5.055   5.138   2.256  2.4324  1.6332 -0.2173
 1124SOL    HW2 4986   5.010   5.085   2.122 -0.8637  1.4590  0.8625
 1125SOL     OW 4987   3.144   8.432   5.625 -0.3894 -0.2788 -0.6960
 1125SOL    HW1 4988   3.190   8.490   5.564  0.0835  0.0934 -0.0071
 1125SOL    HW2 4989   3.199   8.354   5.631  0.8676  0.6918  1.1119
 1126SOL     OW 4990   9.655   7.625   3.375 -0.3630  0.1084  0.6903
 1126SOL    HW1 4991   9.626   7.716   3.382  0.8885  0.6473 -0.6012
 1126SOL    HW2 4992   9.660   7.594   3.465 -1.2178  1.1786  1.1282
 1127SOL     OW 4993   2.074   7.175   1.971 -0.0717  0.2428  0.8521
 1127SOL    HW1 4994   1.996   7.217   1.934  0.3741  0.8356  0.5612
 1127SOL    HW2 4995   2.044   7.089   2.000 -0.6675  0.1588  0.0231
 1128SOL     OW 4996   3.077   5.047   0.027 -0.0040 -0.4919  0.7430
 1128SOL    HW1 4997   3.117   4.963   0.003 -0.4691 -0.2618 -0.9490
 1128SOL    HW2 4998   3.053   5.087  -0.056 -0.5445  0.9670  1.5632
 1129SOL     OW 4999   4.476   6.984   4.244 -0.3620 -0.5186  0.2855
 1129SOL    HW1 5000   4.489   6.929   4.167 -1.5574  1.0666 -1.1151
 1129SOL    HW2 5001   4.514   7.068   4.221  0.1111 -0.2755  1.8199
 1130SOL     OW 5002   9.501   0.654   3.594 -0.5456  0.1782  0.7809
 1130SOL    HW1 5003   9.429   0.592   3.582  0.3548 -0.5627 -1.4449
 1130SOL    HW2 5004   9.475   0.731   3.543  0.3636 -0.2626 -0.4059
 1131SOL     OW 5005   2.752   1.116   1.880 -0.0978  0.0401  0.2232
 1131SOL    HW1 5006   2.721   1.029   1.854  0.4544  0.0310 -0.4218
 1131SOL    HW2 5007   2.836   1.100   1.922 -0.3652  0.1913  0.8273
 1132SOL     OW 5008   4.995   0.995   9.217  0.3151  0.3939  0.1645
 1132SOL    HW1 5009   5.076   1.027   9.177  0.4285  0.1161  0.1658
 1132SOL    HW2 5010   4.942   1.073   9.231  0.2185  0.4776 -0.6426
 1133SOL     OW 5011   7.044   1.423   6.101 -0.3781 -1.3327  0.2251
 1133SOL    HW1 5012   7.124   1.380   6.071  0.0426  0.8661 -2.1421
 1133SOL    HW2 5013   6.976   1.391   6.042 -0.1679  0.6663 -1.2001
 1134SOL     OW 5014   0.150   3.076   5.771  0.0618  0.1207 -0.0908
 1134SOL    HW1 5015   0.131   3.135   5.844  0.3579  1.2173 -0.8705
 1134SOL    HW2 5016   0.245   3.071   5.768  0.0349 -1.2702  0.6244
 1135SOL     OW 5017   7.596   5.572   0.216  0.3140  0.0312 -0.5109
 1135SOL    HW1 5018   7.613   5.496   0.160  0.8267  0.8079 -1.4537
 1135SOL    HW2 5019   7.501   5.573   0.227  0.0648  0.4778 -2.3295
 1136SOL     OW 5020   9.598   0.549   9.251 -0.2133 -0.0825  0.5260
 1136SOL    HW1 5021   9.534   0.614   9.277  0.5253  0.5998  0.6718
 1136SOL    HW2 5022   9.671   0.560   9.312  0.1040 -0.7532  0.2851
 1137SOL     OW 5023   5.489   1.936   1.644  0.4342 -0.5670  0.4904
 1137SOL    HW1 5024   5.565   1.888   1.676 -2.0293 -2.7341  3.7687
 1137SOL    HW2 5025   5.496   2.022   1.684  0.9253 -0.9101  1.1620
 1138SOL     OW 5026   7.263   0.084   3.433  0.6246  0.0813 -0.4519
 1138SOL    HW1 5027   7.305   0.008   3.474 -0.0142  0.0164  0.0893
 1138SOL    HW2 5028   7.302   0.088   3.346  0.6357 -0.8936 -0.5031
 1139SOL     OW 5029   0.146   4.264   3.693 -0.0136  0.2692 -0.1396
 1139SOL    HW1 5030   0.131   4.337   3.634  1.0842  0.9532  0.3923
 1139SOL    HW2 5031   0.058   4.233   3.716 -0.4755 -0.7018 -2.9024
 1140SOL     OW 5032   3.767   9.130   2.714 -0.3350 -0.4074 -0.1875
 1140SOL    HW1 5033   3.740   9.130   2.622 -0.3521  0.4727 -0.1859
 1140SOL    HW2 5034   3.858   9.158   2.713 -0.1580 -0.9734  0.0163
 1141SOL     OW 5035   0.318   4.109   2.662 -0.1170  0.2900 -0.0197
 1141SOL    HW1 5036   0.337   4.195   2.701  2.1871  0.3299 -1.0814
 1141SOL    HW2 5037   0.306   4.128   2.568 -0.1275 -0.4896 -0.1792
 1142SOL     OW 5038   8.253   7.319   7.615 -0.3620  0.4598  0.2549
 1142SOL    HW1 5039   8.242   7.388   7.681  0.9211  0.2875  0.6710
 1142SOL    HW2 5040   8.174   7.266   7.623  0.2067 -0.1690  2.3991
 1143SOL     OW 5041   3.616   5.631   3.305  0.0294 -0.0098 -0.3106
 1143SOL    HW1 5042   3.639   5.574   3.379  0.0455  0.6844  0.2293
 1143SOL    HW2 5043   3.573   5.706   3.345  0.4592  0.6006 -0.9661
 1144SOL     OW 5044   9.477   9.616   4.695  0.4398 -0.6618 -0.0768
 1144SOL    HW1 5045   9.566   9.622   4.660  1.0701 -2.1830  1.1839
 1144SOL    HW2 5046   9.478   9.671   4.773 -0.1968  0.5552 -0.8945
 1145SOL     OW 5047   9.128   4.190   0.496 -0.1945 -0.5615  0.1654
 1145SOL    HW1 5048   9.048   4.238   0.476  1.7587  2.4064 -1.3327
 1145SOL    HW2 5049   9.133   4.191   0.591 -1.4697 -0.0105  0.2517
 1146SOL     OW 5050   2.982   2.472   8.451  0.5709  0.1507  0.4885
 1146SOL    HW1 5051   2.909   2.441   8.506  0.1257 -0.0680 -0.2110
 1146SOL    HW2 5052   2.985   2.410   8.378  1.6722 -0.0215  0.6748
 1147SOL     OW 5053   0.873   6.065   4.489  0.1174 -0.0071 -0.6969
 1147SOL    HW1 5054   0.924   5.997   4.532 -0.7634  0.9479  2.0360
 1147SOL    HW2 5055   0.938   6.127   4.456  0.8929 -1.7261 -2.6249
 1148SOL     OW 5056   3.653   3.396   1.518 -0.1191 -0.7468  0.1045
 1148SOL    HW1 5057   3.713   3.439   1.458 -1.2664  0.7927  0.0074
 1148SOL    HW2 5058   3.685   3.420   1.605 -1.0717  0.8611  0.0539
 1149SOL     OW 5059   3.274   0.734   0.822 -0.4424 -0.4018 -0.2591
 1149SOL    HW1 5060   3.196   0.789   0.825 -0.0179  0.1591  1.5507
 1149SOL    HW2 5061   3.343   0.792   0.789  0.1248  0.4204  2.1276
 1150SOL     OW 5062   2.445   4.225   7.028 -0.1257 -0.1974 -0.2561
 1150SOL    HW1 5063   2.448   4.311   7.070  3.2596 -0.6796  0.7764
 1150SOL    HW2 5064   2.498   4.233   6.949  0.3588 -1.3558 -0.0784
 1151SOL     OW 5065   9.531   9.201   3.550 -0.5180 -0.4154  0.3594
 1151SOL    HW1 5066   9.453   9.250   3.575 -1.2847 -0.1671 -2.2855
 1151SOL    HW2 5067   9.523   9.188   3.456  2.2036 -1.1946  0.1420
 1152SOL     OW 5068   0.615   9.614   7.491  0.6408  0.3987 -0.3860
 1152SOL    HW1 5069   0.703   9.611   7.527  0.2915 -0.6841  0.4062
 1152SOL    HW2 5070   0.574   9.532   7.518 -0.7763  1.0928 -0.3171
 1153SOL     OW 5071   8.349   3.160   9.568 -0.2291 -0.3834  0.5724
 1153SOL    HW1 5072   8.341   3.174   9.474  2.1406 -0.3272  0.3083
 1153SOL    HW2 5073   8.350   3.248   9.605 -1.4803 -0.4124  0.7175
 1154SOL     OW 5074   6.950   3.526   6.597  0.1186  0.5673  0.1013
 1154SOL    HW1 5075   6.916   3.473   6.525  0.1496  0.1887  0.3645
 1154SOL    HW2 5076   6.904   3.494   6.675 -0.5066  1.5105  0.1426
 1155SOL     OW 5077   9.255   3.472   9.671  0.4368  0.7629  0.1852
 1155SOL    HW1 5078   9.290   3.455   9.758  1.6782 -1.3549 -0.6672
 1155SOL    HW2 5079   9.315   3.537   9.633  1.7170 -0.5656 -0.1477
 1156SOL     OW 5080   9.489   1.674   0.670  0.6593  0.7696 -0.3523
 1156SOL    HW1 5081   9.565   1.665   0.728  0.1154 -0.7887  0.1574
 1156SOL    HW2 5082   9.414   1.661   0.727  0.0143  1.5673 -0.9940
 1157SOL     OW 5083   4.936   6.913   2.733 -0.1809  0.3575 -0.6167
 1157SOL    HW1 5084   4.927   6.826   2.696  1.2776 -0.0596 -0.0581
 1157SOL    HW2 5085   4.902   6.906   2.822  2.2889 -0.3784  0.3565
 1158SOL     OW 5086   9.203   0.853   9.394  0.5708  0.0043  0.4519
 1158SOL    HW1 5087   9.179   0.844   9.486  2.3280 -0.3790  0.9150
 1158SOL    HW2 5088   9.166   0.776   9.352 -0.6056  0.3924  0.7350
 1159SOL     OW 5089   1.730   7.580   6.027 -0.1285  0.0884  0.2543
 1159SOL    HW1 5090   1.740   7.649   5.961  0.0871  0.4424  0.6510
 1159SOL    HW2 5091   1.669   7.518   5.987  0.2430  0.1379 -0.4063
 1160SOL     OW 5092   0.534   6.766   5.189 -0.5103  0.6615  0.5007
 1160SOL    HW1 5093   0.583   6.792   5.267  0.8578  0.4900 -0.2777
 1160SOL    HW2 5094   0.458   6.718   5.223  1.1301 -1.2121  1.6907
 1161SOL     OW 5095   5.497   4.940   4.983  0.4579 -0.3922  0.3887
 1161SOL    HW1 5096   5.447   5.017   5.012  0.4163 -0.8822  1.6752
 1161SOL    HW2 5097   5.530   4.901   5.064  1.0924 -1.3244 -0.2993
 1162SOL     OW 5098   8.854   9.485   8.929  0.2241 -0.5931  0.3556
 1162SOL    HW1 5099   8.826   9.499   9.019  1.8599 -0.0823  0.8126
 1162SOL    HW2 5100   8.809   9.404   8.903 -3.4887  1.3331  0.1837
 1163SOL     OW 5101   9.290   7.182   5.732  0.0458 -0.3514  0.1426
 1163SOL    HW1 5102   9.247   7.106   5.771  0.4995  0.2689  1.9677
 1163SOL    HW2 5103   9.381   7.176   5.761  0.4745  0.0194 -1.0678
 1164SOL     OW 5104   2.231   2.470   8.033  0.0142 -0.6513  0.1668
 1164SOL    HW1 5105   2.227   2.519   8.114 -1.5704  0.9695 -0.8194
 1164SOL    HW2 5106   2.167   2.400   8.044  0.8796 -1.3610  0.8406
 1165SOL     OW 5107   7.748   8.695   2.405  0.4771 -0.1973 -0.0841
 1165SOL    HW1 5108   7.719   8.726   2.319  0.4550  0.4709  0.1629
 1165SOL    HW2 5109   7.681   8.633   2.431 -0.0639  0.3728 -0.0919
 1166SOL     OW 5110   1.292   6.751   7.789 -0.3102 -0.0318  0.1575
 1166SOL    HW1 5111   1.199   6.749   7.767 -0.0676 -1.0560 -0.9276
 1166SOL    HW2 5112   1.334   6.700   7.719  1.1247  0.8302  0.3516
 1167SOL     OW 5113   4.825   1.202   9.077 -0.6761  0.2585  0.5105
 1167SOL    HW1 5114   4.735   1.232   9.067 -1.2472 -1.2561  0.7493
 1167SOL    HW2 5115   4.874   1.279   9.104 -1.9709  1.0246  0.7439
 1168SOL     OW 5116   4.670   8.932   9.766 -0.0382 -0.3547 -0.5407
 1168SOL    HW1 5117   4.727   9.008   9.776  0.4558 -0.8495  0.5881
 1168SOL    HW2 5118   4.721   8.872   9.711  0.7669 -0.9966  0.8670
 1169SOL     OW 5119   7.698   8.442   0.108 -0.5534 -0.0045 -0.5202
 1169SOL    HW1 5120   7.715   8.349   0.125 -1.2248 -0.2483 -1.1277
 1169SOL    HW2 5121   7.617   8.442   0.057 -1.6220  1.0206  1.0988
 1170SOL     OW 5122   4.011   2.381   0.201 -0.0829  0.6273 -0.2426
 1170SOL    HW1 5123   4.001   2.437   0.278  0.1844  1.1764 -0.5924
 1170SOL    HW2 5124   3.970   2.299   0.225  0.9756  0.3904  0.9025
 1171SOL     OW 5125   5.934   1.163   2.295  0.0366 -0.1826  0.4098
 1171SOL    HW1 5126   5.893   1.128   2.374 -0.1863  2.5752  1.6478
 1171SOL    HW2 5127   5.958   1.086   2.244 -1.7733 -2.0247  2.1470
 1172SOL     OW 5128   2.518   3.901   0.509  0.5965  0.1404  0.0309
 1172SOL    HW1 5129   2.438   3.952   0.514  0.4018  0.4731 -3.6956
 1172SOL    HW2 5130   2.585   3.958   0.546 -0.6469  0.2302  2.3127
 1173SOL     OW 5131   5.821   6.863   8.070  0.6170  0.1749 -0.2997
 1173SOL    HW1 5132   5.877   6.788   8.050 -0.7807 -1.2489  0.8716
 1173SOL    HW2 5133   5.880   6.938   8.067  1.9865 -0.8838 -1.9008
 1174SOL     OW 5134   4.610   3.776   5.345  0.0723  0.1203  0.1560
 1174SOL    HW1 5135   4.607   3.807   5.255 -0.9335 -0.9783 -0.2082
 1174SOL    HW2 5136   4.557   3.696   5.345 -0.9137  0.7206  1.9693
 1175SOL     OW 5137   0.174   5.178   7.885 -0.2387 -0.1940 -0.9589
 1175SOL    HW1 5138   0.145   5.094   7.920 -1.5672  0.0262 -1.4590
 1175SOL    HW2 5139   0.130   5.244   7.939  2.8903  0.3285  1.2418
 1176SOL     OW 5140   9.651   8.106   8.653 -0.7124 -0.3706  0.0134
 1176SOL    HW1 5141   9.706   8.087   8.577 -0.3049 -1.2313  0.5161
 1176SOL    HW2 5142   9.664   8.200   8.668 -0.3497 -0.3090 -0.6217
 1177SOL     OW 5143   4.426   0.393   9.450 -0.3492  0.3086  0.1168
 1177SOL    HW1 5144   4.482   0.371   9.524 -2.1902 -1.1246  1.1750
 1177SOL    HW2 5145   4.441   0.323   9.386 -0.9443 -0.1052  0.4232
 1178SOL     OW 5146   9.045   5.640   8.789 -0.2923 -0.2653  0.3226
 1178SOL    HW1 5147   9.007   5.602   8.710  0.5966  0.9795 -0.7291
 1178SOL    HW2 5148   9.025   5.733   8.783 -0.3811 -0.1769  1.6794
 1179SOL     OW 5149   7.183   0.003   6.099  0.0147  0.1768 -0.0452
 1179SOL    HW1 5150   7.180  -0.008   6.194  1.3284  0.6771  0.0718
 1179SOL    HW2 5151   7.272   0.031   6.081 -0.4686  0.9707 -1.3420
 1180SOL     OW 5152   9.810   8.310   1.061 -0.6345 -0.0049 -0.0702
 1180SOL    HW1 5153   9.824   8.222   1.097 -0.8375  0.0118  0.0563
 1180SOL    HW2 5154   9.857   8.368   1.119  0.2537 -0.1082 -0.6662
 1181SOL     OW 5155   3.778   7.121   0.382 -0.5953  0.1599  0.1160
 1181SOL    HW1 5156   3.689   7.107   0.350  0.2974 -1.1064 -2.0198
 1181SOL    HW2 5157   3.809   7.197   0.332  0.0661 -0.4412 -0.3990
 1182SOL     OW 5158   8.850   7.282   8.990  0.0187  0.4216  0.8222
 1182SOL    HW1 5159   8.890   7.328   8.916 -0.6077  0.1780  0.3237
 1182SOL    HW2 5160   8.768   7.247   8.955 -0.6323  0.8933  1.8186
 1183SOL     OW 5161   7.125   0.268   0.543  0.7272 -0.0950  0.3342
 1183SOL    HW1 5162   7.181   0.315   0.605  0.8864  0.7641 -0.4442
 1183SOL    HW2 5163   7.113   0.328   0.470  0.6594 -1.1326 -0.5431
 1184SOL     OW 5164   3.641   4.834   4.433 -0.2316  0.2338 -0.4937
 1184SOL    HW1 5165   3.590   4.813   4.355  0.8532  0.4277 -1.2764
 1184SOL    HW2 5166   3.727   4.795   4.418 -0.3117 -0.6453  1.0895
 1185SOL     OW 5167   5.293   2.743   4.059 -0.2776  0.1877 -0.2918
 1185SOL    HW1 5168   5.367   2.800   4.078  2.0474 -2.2566 -1.4159
 1185SOL    HW2 5169   5.275   2.698   4.142  0.5676 -0.3543 -0.3974
 1186SOL     OW 5170   1.691   1.945   9.730  0.5841 -0.1340 -0.5071
 1186SOL    HW1 5171   1.723   2.026   9.771  0.6195  0.0423 -0.8827
 1186SOL    HW2 5172   1.613   1.922   9.781  0.3536  0.3470 -0.6388
 1187SOL     OW 5173   5.949   8.590   4.296 -0.0623  0.1610  0.1163
 1187SOL    HW1 5174   5.973   8.655   4.230 -3.4206  0.1820 -1.2665
 1187SOL    HW2 5175   5.982   8.507   4.261  1.0590  0.5869  0.1057
 1188SOL     OW 5176   0.551   4.503   8.305 -0.2515  0.2124  0.3161
 1188SOL    HW1 5177   0.483   4.440   8.325 -1.3445  0.8127 -1.3138
 1188SOL    HW2 5178   0.606   4.505   8.383 -2.4362  0.1568  1.9411
 1189SOL     OW 5179   4.169   3.617   6.919 -0.1472 -0.3097  0.3931
 1189SOL    HW1 5180   4.218   3.678   6.973 -0.9577 -0.2953  1.1295
 1189SOL    HW2 5181   4.169   3.657   6.832  0.1178  0.2819  0.6602
 1190SOL     OW 5182   9.801   3.807   3.506  0.6810  0.3926 -0.2804
 1190SOL    HW1 5183   9.817   3.889   3.553 -0.8980  1.5729 -1.6742
 1190SOL    HW2 5184   9.859   3.811   3.430 -0.1947  0.7901 -0.9479
 1191SOL     OW 5185   7.432   5.301   5.087  0.5368  0.1915 -0.1652
 1191SOL    HW1 5186   7.455   5.247   5.011  2.2503  2.0857 -1.0971
 1191SOL    HW2 5187   7.410   5.238   5.155  1.4398 -1.6568 -1.4862
 1192SOL     OW 5188   5.748   0.036   4.754  0.1489 -0.0570 -0.5160
 1192SOL    HW1 5189   5.805  -0.030   4.715 -1.1888 -1.2216 -0.5711
 1192SOL    HW2 5190   5.667   0.029   4.705 -0.8767 -0.1275  1.1112
 1193SOL     OW 5191   4.403   2.628   6.561  0.0414  0.2435 -0.1887
 1193SOL    HW1 5192   4.428   2.601   6.650 -0.0101  1.7857  0.3276
 1193SOL    HW2 5193   4.336   2.695   6.575  0.9339  1.4382 -1.3354
 1194SOL     OW 5194   2.881   5.692   5.233 -0.4463 -0.2811 -0.4387
 1194SOL    HW1 5195   2.788   5.710   5.241 -0.8453 -2.3338  0.1028
 1194SOL    HW2 5196   2.887   5.625   5.165  0.4218 -1.4305  0.7091
 1195SOL     OW 5197   0.837   9.580   3.481  0.3660 -0.3097  0.1829
 1195SOL    HW1 5198   0.811   9.581   3.388 -0.9437 -0.9173  0.5099
 1195SOL    HW2 5199   0.800   9.660   3.517  0.2450 -0.4265  0.3221
 1196SOL     OW 5200   2.891   1.529   0.007  0.1155  0.0215  0.3823
 1196SOL    HW1 5201   2.935   1.490   0.082  0.1824  1.6575  1.2358
 1196SOL    HW2 5202   2.961   1.566  -0.046 -0.0668  0.5550  0.5132
 1197SOL     OW 5203   0.884   8.383   4.718  0.0329 -0.0824  0.1079
 1197SOL    HW1 5204   0.892   8.466   4.764  0.2074 -0.4199  0.6898
 1197SOL    HW2 5205   0.900   8.316   4.785 -0.7221 -0.5994 -0.2183
 1198SOL     OW 5206   0.421   6.123   3.479 -0.2207 -0.4776  0.2502
 1198SOL    HW1 5207   0.413   6.087   3.391  1.6814  2.5497 -1.3194
 1198SOL    HW2 5208   0.496   6.076   3.517 -0.3134 -0.9896 -0.1917
 1199SOL     OW 5209   0.526   7.097   6.933 -0.5179 -0.1467 -0.8105
 1199SOL    HW1 5210   0.621   7.109   6.932 -0.5847  1.0997  1.6759
 1199SOL    HW2 5211   0.513   7.005   6.908  1.2853 -0.2465 -1.5102
 1200SOL     OW 5212   1.364   2.064   6.355 -0.1147  0.0932 -0.0888
 1200SOL    HW1 5213   1.405   2.130   6.298 -0.3526 -0.7663 -1.2925
 1200SOL    HW2 5214   1.431   1.997   6.367 -0.0984  0.2227  0.5848
 1201SOL     OW 5215   2.749   9.181   2.279 -0.5739 -0.0149  0.2086
 1201SOL    HW1 5216   2.730   9.112   2.216 -0.4921 -0.1958  0.3826
 1201SOL    HW2 5217   2.694   9.255   2.252  0.5609  0.4353 -0.9887
 1202SOL     OW 5218   6.412   7.343   3.073  0.7887 -0.0720 -0.0855
 1202SOL    HW1 5219   6.362   7.372   3.149  0.0366  1.1638 -1.0163
 1202SOL    HW2 5220   6.498   7.384   3.084  0.6965  0.0623  0.1390
 1203SOL     OW 5221   4.375   5.121   6.301 -0.5558 -0.1481 -0.2625
 1203SOL    HW1 5222   4.377   5.114   6.396  1.4697  0.8630 -0.1684
 1203SOL    HW2 5223   4.365   5.031   6.270  1.8637 -0.9012  0.9174
 1204SOL     OW 5224   2.208   7.021   0.131  0.0501  0.3301  0.1477
 1204SOL    HW1 5225   2.116   7.047   0.141 -0.0211 -0.5947  2.1344
 1204SOL    HW2 5226   2.222   6.953   0.196  1.7344 -0.7235 -1.2268
 1205SOL     OW 5227   6.942   9.397   2.153  0.2818 -0.1286 -0.0721
 1205SOL    HW1 5228   7.036   9.381   2.140  0.3101 -0.1810  0.1914
 1205SOL    HW2 5229   6.938   9.471   2.213  0.1486  0.6913 -1.0758
 1206SOL     OW 5230   1.961   7.249   7.968  0.2841 -0.1366 -0.3268
 1206SOL    HW1 5231   1.976   7.184   7.898 -2.8215 -1.5021  0.1346
 1206SOL    HW2 5232   1.888   7.302   7.937 -0.5771 -0.1911  1.4918
 1207SOL     OW 5233   1.448   8.364   6.215 -0.6141  0.3058 -0.4441
 1207SOL    HW1 5234   1.518   8.409   6.262  0.3663 -0.7255 -0.8671
 1207SOL    HW2 5235   1.373   8.367   6.274 -0.0886  1.0444  0.2040
 1208SOL     OW 5236   7.099   2.552   6.368 -0.1702 -0.0292  0.1142
 1208SOL    HW1 5237   7.066   2.547   6.458 -1.6290  1.9609 -0.2454
 1208SOL    HW2 5238   7.179   2.499   6.369  0.8482  1.3499  3.0496
 1209SOL     OW 5239   7.483   6.103   7.868  0.0114  0.1920 -0.1827
 1209SOL    HW1 5240   7.494   6.196   7.847 -0.0547  0.5058  1.1073
 1209SOL    HW2 5241   7.572   6.068   7.867  0.1567  0.5322  0.4743
 1210SOL     OW 5242   4.038   0.019   2.744 -0.6850 -0.1190  0.2204
 1210SOL    HW1 5243   4.134   0.025   2.744 -0.6470 -0.5917  1.0491
 1210SOL    HW2 5244   4.009   0.108   2.764 -0.3944 -0.1828  0.9416
 1211SOL     OW 5245   6.582   2.811   8.739  0.4962  0.0424  0.1268
 1211SOL    HW1 5246   6.543   2.728   8.712  0.8331 -1.0146  2.6175
 1211SOL    HW2 5247   6.676   2.797   8.732  0.6264 -0.5262  2.3324
 1212SOL     OW 5248   7.950   7.825   0.997 -0.4037  0.4461 -0.0921
 1212SOL    HW1 5249   7.997   7.778   1.067 -1.4705  0.7361  0.8465
 1212SOL    HW2 5250   8.014   7.888   0.964  0.3445 -0.1677  0.1361
 1213SOL     OW 5251   7.769   0.546   7.639 -0.1182 -0.2072 -0.4320
 1213SOL    HW1 5252   7.758   0.573   7.731 -1.0410 -1.0671 -0.2630
 1213SOL    HW2 5253   7.859   0.515   7.634  0.2570  0.7996 -0.0785
 1214SOL     OW 5254   4.967   4.143   3.216 -0.0658 -0.2855  0.3369
 1214SOL    HW1 5255   4.984   4.053   3.188  0.8737 -0.2137  0.6689
 1214SOL    HW2 5256   5.027   4.158   3.289 -0.0789  0.6757  0.1636
 1215SOL     OW 5257   6.814   1.606   3.303  0.0885  0.4085  0.3117
 1215SOL    HW1 5258   6.739   1.562   3.262 -0.8297  0.4401  1.8711
 1215SOL    HW2 5259   6.799   1.699   3.287  1.9135  0.2969 -2.7896
 1216SOL     OW 5260   7.149   0.960   7.122 -0.2997  0.5327  0.3764
 1216SOL    HW1 5261   7.211   0.997   7.060  1.7450 -2.6279  0.2910
 1216SOL    HW2 5262   7.066   1.003   7.102  0.5855  0.8073 -3.5186
 1217SOL     OW 5263   6.177   0.995   7.511 -0.1526 -0.1733  1.0100
 1217SOL    HW1 5264   6.090   0.969   7.482  0.1990 -0.5442  0.2462
 1217SOL    HW2 5265   6.225   0.912   7.521  0.8891  0.1108 -1.1355
 1218SOL     OW 5266   3.173   3.179   0.944  0.3461  0.2402 -0.3632
 1218SOL    HW1 5267   3.230   3.106   0.970  0.3501  0.6404  0.8010
 1218SOL    HW2 5268   3.123   3.145   0.870 -1.2559 -1.7415  1.4942
 1219SOL     OW 5269   5.973   4.389   0.624  0.2015 -0.0969  1.1618
 1219SOL    HW1 5270   5.913   4.316   0.634 -0.5564  0.4783  0.8599
 1219SOL    HW2 5271   5.921   4.467   0.645  1.0339  0.3557  1.6348
 1220SOL     OW 5272   3.043   0.799   2.354  0.2833 -0.1921  0.5192
 1220SOL    HW1 5273   3.070   0.809   2.446 -0.7899  0.1184  0.8041
 1220SOL    HW2 5274   3.005   0.711   2.350  2.0127 -0.9581 -0.0703
 1221SOL     OW 5275   3.832   8.105   9.430  0.3617 -0.7410  0.8915
 1221SOL    HW1 5276   3.873   8.090   9.345  1.2700 -2.4764  1.5688
 1221SOL    HW2 5277   3.769   8.033   9.438 -1.1585  0.5443  0.8761
 1222SOL     OW 5278   8.885   6.719   4.680 -0.4037 -0.3033  0.6450
 1222SOL    HW1 5279   8.835   6.754   4.754  1.0171  2.3141  0.4850
 1222SOL    HW2 5280   8.976   6.743   4.698  0.0233  0.2667 -1.8446
 1223SOL     OW 5281   3.736   6.681   2.533 -0.4756 -0.2268  0.1850
 1223SOL    HW1 5282   3.643   6.693   2.515 -0.0111  1.2667 -1.5641
 1223SOL    HW2 5283   3.779   6.748   2.479  1.6824 -1.7479 -0.0929
 1224SOL     OW 5284   5.921   4.312   3.719  0.3117  0.1306 -0.1040
 1224SOL    HW1 5285   5.827   4.299   3.732 -0.1767  1.2289 -2.0972
 1224SOL    HW2 5286   5.928   4.400   3.682  1.9022 -0.7004 -1.9945
 1225SOL     OW 5287   3.776   2.083   8.959  0.2561 -0.0923  0.4893
 1225SOL    HW1 5288   3.759   2.123   8.874 -2.0333 -0.1098  0.8667
 1225SOL    HW2 5289   3.860   2.038   8.949 -0.3498 -0.8120 -2.0335
 1226SOL     OW 5290   0.983   5.221   5.960 -0.4875 -0.5285  0.3276
 1226SOL    HW1 5291   0.912   5.161   5.983 -0.0682 -0.4562  1.9775
 1226SOL    HW2 5292   1.032   5.231   6.042 -0.6579  2.2573  0.1705
 1227SOL     OW 5293   1.492   2.118   3.422  0.3491 -0.1046 -0.0980
 1227SOL    HW1 5294   1.552   2.048   3.395  1.9811  0.7869  1.0182
 1227SOL    HW2 5295   1.490   2.177   3.346  1.2190  0.0483 -0.0201
 1228SOL     OW 5296   5.706   0.820   3.872  0.3109 -0.0852 -0.2160
 1228SOL    HW1 5297   5.799   0.825   3.893  0.3748 -0.5282 -0.3854
 1228SOL    HW2 5298   5.661   0.843   3.953  0.5519 -1.1770  0.2361
 1229SOL     OW 5299   2.168   3.489   6.194 -0.6095 -0.6029  0.4702
 1229SOL    HW1 5300   2.127   3.512   6.111 -0.7144 -1.1020  0.3776
 1229SOL    HW2 5301   2.231   3.559   6.211 -0.3251 -0.6884 -0.2132
 1230SOL     OW 5302   7.506   5.745   9.060  0.1514 -0.2692  0.3561
 1230SOL    HW1 5303   7.535   5.746   8.969 -0.1157 -2.0470  0.2193
 1230SOL    HW2 5304   7.484   5.654   9.077 -1.8983  0.3952  1.5481
 1231SOL     OW 5305   5.556   5.699   1.774  0.1829 -0.7321  0.3862
 1231SOL    HW1 5306   5.594   5.682   1.687 -1.7920  0.2226 -0.7283
 1231SOL    HW2 5307   5.596   5.632   1.830  0.0554 -2.6828 -1.6724
 1232SOL     OW 5308   2.698   4.143   0.230  0.0664 -0.0171 -0.3987
 1232SOL    HW1 5309   2.755   4.095   0.169  3.0799  0.4231  1.8364
 1232SOL    HW2 5310   2.693   4.086   0.307  1.5112  1.9685  1.2779
 1233SOL     OW 5311   7.152   3.118   5.308 -0.3549 -0.1735  0.3197
 1233SOL    HW1 5312   7.087   3.110   5.377 -0.8730 -1.6379 -0.3058
 1233SOL    HW2 5313   7.185   3.029   5.295 -0.9653 -0.1433 -1.9439
 1234SOL     OW 5314   4.993   8.455   7.414 -0.1551 -0.4623 -0.1479
 1234SOL    HW1 5315   5.049   8.398   7.361  2.1636  1.0480  0.5190
 1234SOL    HW2 5316   4.964   8.523   7.353 -0.1810 -0.5224 -0.2028
 1235SOL     OW 5317   1.116   3.451   8.611  0.0577 -0.7735 -0.2604
 1235SOL    HW1 5318   1.195   3.495   8.580  0.8041 -0.8539  1.4436
 1235SOL    HW2 5319   1.044   3.501   8.573  0.8873  1.0520  0.4588
 1236SOL     OW 5320   6.338   7.369   4.409  0.0940 -0.4044  0.3396
 1236SOL    HW1 5321   6.396   7.323   4.348  0.8361  1.1535 -0.1880
 1236SOL    HW2 5322   6.282   7.423   4.353  0.6406  0.8932  0.9812
 1237SOL     OW 5323   2.645   5.162   6.396 -0.0856 -0.5056 -0.4461
 1237SOL    HW1 5324   2.620   5.127   6.311 -1.1797 -0.0313 -0.3387
 1237SOL    HW2 5325   2.739   5.145   6.402 -0.1725 -1.4217 -1.3221
 1238SOL     OW 5326   5.609   8.136   8.037 -0.4822  0.4089 -0.1588
 1238SOL    HW1 5327   5.650   8.111   8.120 -0.4018  0.0160 -0.3159
 1238SOL    HW2 5328   5.673   8.112   7.970  0.3778  2.6135 -0.2326
 1239SOL     OW 5329   5.041   4.174   1.128  0.5414  0.7531 -0.0952
 1239SOL    HW1 5330   5.065   4.086   1.156 -0.8985  0.6246  0.8496
 1239SOL    HW2 5331   5.118   4.227   1.147  0.8137  0.0167  0.9361
 1240SOL     OW 5332   1.260   7.259   6.668 -0.1147  0.6136  0.4414
 1240SOL    HW1 5333   1.254   7.339   6.720 -1.0263  0.5610  0.4405
 1240SOL    HW2 5334   1.169   7.235   6.651  0.1586 -0.0715 -0.1020
 1241SOL     OW 5335   2.555   3.264   4.905  0.5622 -0.1482 -0.5871
 1241SOL    HW1 5336   2.529   3.174   4.924 -0.0611 -0.1044 -1.1581
 1241SOL    HW2 5337   2.566   3.305   4.990 -2.0368  0.0173 -0.2278
 1242SOL     OW 5338   3.285   9.219   8.133  0.2285 -0.7089 -0.0835
 1242SOL    HW1 5339   3.227   9.154   8.173 -0.4071 -0.6771 -0.9331
 1242SOL    HW2 5340   3.229   9.267   8.072  0.6746  0.6749  0.5542
 1243SOL     OW 5341   9.841   1.228   9.421 -0.2167 -0.5625 -0.0160
 1243SOL    HW1 5342   9.917   1.277   9.391 -0.2266 -1.0217 -0.8513
 1243SOL    HW2 5343   9.783   1.226   9.345 -1.0262 -0.2949  0.5802
 1244SOL     OW 5344   5.009   6.989   6.350  0.5284  0.1695  0.1891
 1244SOL    HW1 5345   5.048   7.075   6.365  1.4348 -0.1080 -0.4679
 1244SOL    HW2 5346   5.078   6.928   6.378  0.7074 -0.3348 -1.2949
 1245SOL     OW 5347   5.069   2.368   2.591  0.3005  0.1137  0.2680
 1245SOL    HW1 5348   5.153   2.353   2.547 -0.4597 -0.1041 -1.1641
 1245SOL    HW2 5349   5.088   2.354   2.684  1.7914 -0.1726 -0.0536
 1246SOL     OW 5350   1.607   8.455   9.336  0.8238 -0.8006  0.0158
 1246SOL    HW1 5351   1.542   8.411   9.282 -0.4524  0.6681  0.3105
 1246SOL    HW2 5352   1.566   8.464   9.421  1.3582  0.2602  0.1763
 1247SOL     OW 5353   8.178   6.379   7.354  0.5585  0.1791 -0.2963
 1247SOL    HW1 5354   8.271   6.398   7.364  0.1311  1.1268  2.9636
 1247SOL    HW2 5355   8.159   6.315   7.423 -1.8428  2.7710  1.6376
 1248SOL     OW 5356   0.350   7.357   7.695  0.2282  0.2470  0.0757
 1248SOL    HW1 5357   0.359   7.408   7.776  3.0037  0.0992 -0.0614
 1248SOL    HW2 5358   0.276   7.398   7.650 -2.1180 -0.3299  3.0847
 1249SOL     OW 5359   8.738   3.533   5.647  0.3603 -0.6589  0.0548
 1249SOL    HW1 5360   8.831   3.544   5.627  0.6223 -0.9788  1.0763
 1249SOL    HW2 5361   8.704   3.622   5.649  0.6069 -0.5469 -0.4763
 1250SOL     OW 5362   4.831   0.555   3.235 -0.1512 -0.0042  0.3224
 1250SOL    HW1 5363   4.758   0.586   3.181 -0.5393 -0.9541  0.2740
 1250SOL    HW2 5364   4.880   0.634   3.257 -0.9612  0.6036  0.0067
 1251SOL     OW 5365   4.481   0.961   0.347  0.1959 -0.4395 -0.1536
 1251SOL    HW1 5366   4.514   0.875   0.320  1.4188 -0.3654  1.0436
 1251SOL    HW2 5367   4.554   1.021   0.333 -0.1579  0.1350  0.4221
 1252SOL     OW 5368   6.444   4.595   1.804 -0.3634  0.3749  0.4558
 1252SOL    HW1 5369   6.441   4.501   1.822  0.0082  0.2042 -0.3018
 1252SOL    HW2 5370   6.436   4.601   1.708 -1.0021  1.1530  0.5490
 1253SOL     OW 5371   5.634   3.597   0.461  0.4123 -0.4936 -0.0737
 1253SOL    HW1 5372   5.560   3.539   0.439  0.6948 -1.0659  0.4409
 1253SOL    HW2 5373   5.625   3.613   0.555  2.0916 -2.2828  0.4636
 1254SOL     OW 5374   9.699   7.313   0.951 -0.1332  0.3971 -0.6249
 1254SOL    HW1 5375   9.710   7.219   0.935  0.1126  0.1669  0.8248
 1254SOL    HW2 5376   9.763   7.335   1.018 -1.1601  1.2813  0.1202
 1255SOL     OW 5377   2.390   8.130   2.726 -0.3312  1.0782 -0.0120
 1255SOL    HW1 5378   2.466   8.189   2.721 -0.5119  1.2771 -0.5930
 1255SOL    HW2 5379   2.323   8.174   2.673 -1.0822  1.2336  1.0540
 1256SOL     OW 5380   5.520   0.722   0.075  0.2118  0.5118  0.1765
 1256SOL    HW1 5381   5.586   0.732   0.008 -0.1901  0.5274 -0.2225
 1256SOL    HW2 5382   5.544   0.642   0.121  1.1468  1.1145  0.7766
 1257SOL     OW 5383   1.827   6.893   7.610  0.6228  0.6426 -0.0747
 1257SOL    HW1 5384   1.871   6.931   7.533 -0.1348 -2.4399 -2.2341
 1257SOL    HW2 5385   1.898   6.853   7.660  0.7872 -1.4182 -1.7913
 1258SOL     OW 5386   0.137   6.626   3.131 -0.3717 -0.2549  0.1702
 1258SOL    HW1 5387   0.058   6.579   3.102 -0.1505  0.2299 -1.3059
 1258SOL    HW2 5388   0.209   6.577   3.092 -0.0655  0.4638 -0.1831
 1259SOL     OW 5389   1.139   2.518   3.305 -0.1890  0.1703 -0.0003
 1259SOL    HW1 5390   1.057   2.472   3.317  0.2961 -0.4462  1.0964
 1259SOL    HW2 5391   1.113   2.607   3.281 -1.2212  0.4260  1.9118
 1260SOL     OW 5392   2.190   2.139   5.116  0.0869  0.0433 -0.0500
 1260SOL    HW1 5393   2.133   2.068   5.142  0.1761 -0.0714 -0.1663
 1260SOL    HW2 5394   2.232   2.168   5.197 -0.8431  0.7562  0.1897
 1261SOL     OW 5395   7.739   0.272   3.861  0.3835 -0.2736 -0.3570
 1261SOL    HW1 5396   7.702   0.192   3.825 -0.0066 -0.1012 -0.3458
 1261SOL    HW2 5397   7.669   0.336   3.855  0.4538 -0.1203  0.2904
 1262SOL     OW 5398   8.078   2.025   0.400 -0.6839 -0.3731 -0.2282
 1262SOL    HW1 5399   8.065   2.119   0.393  0.7377 -0.0543  0.8192
 1262SOL    HW2 5400   8.050   1.989   0.316 -2.2340  0.8448 -0.2677
 1263SOL     OW 5401   9.168   1.233   0.538  0.0508 -0.4581  0.2114
 1263SOL    HW1 5402   9.239   1.216   0.477 -0.1970 -2.0798  0.3160
 1263SOL    HW2 5403   9.091   1.247   0.481  0.2707  0.3432  0.1137
 1264SOL     OW 5404   6.372   6.807   0.442 -0.2029  0.5911 -0.1626
 1264SOL    HW1 5405   6.375   6.892   0.396 -1.3828  0.3003 -0.8029
 1264SOL    HW2 5406   6.279   6.788   0.452  0.0489 -0.4361  0.3564
 1265SOL     OW 5407   2.417   4.267   6.372  0.3837 -0.0744 -0.4896
 1265SOL    HW1 5408   2.417   4.291   6.464  1.1982 -1.4683 -0.1014
 1265SOL    HW2 5409   2.335   4.219   6.360  0.5161 -0.3304 -0.3695
 1266SOL     OW 5410   8.594   4.499   4.045 -0.3585 -0.6965  0.2390
 1266SOL    HW1 5411   8.671   4.480   4.099  0.3117  0.0928 -0.4091
 1266SOL    HW2 5412   8.629   4.514   3.957 -1.3588 -1.2188 -0.2675
 1267SOL     OW 5413   1.234   1.001   7.097  0.1920 -0.5283  0.2743
 1267SOL    HW1 5414   1.279   1.085   7.088 -2.3265  0.8935  0.0436
 1267SOL    HW2 5415   1.280   0.942   7.036  1.4050  0.9507 -0.2976
 1268SOL     OW 5416   9.362   9.373   1.792 -0.2050  0.0532  0.0584
 1268SOL    HW1 5417   9.338   9.282   1.773  2.1956 -0.4049 -1.1923
 1268SOL    HW2 5418   9.279   9.415   1.815 -1.5218 -2.2307 -0.1871
 1269SOL     OW 5419   8.670   6.900   1.814 -0.0372  0.7661 -0.4666
 1269SOL    HW1 5420   8.753   6.856   1.833  0.7340  1.8675 -1.1048
 1269SOL    HW2 5421   8.609   6.868   1.880  0.6733 -0.6891 -0.4802
 1270SOL     OW 5422   8.183   1.238   3.599  0.2288  0.0206 -0.1250
 1270SOL    HW1 5423   8.170   1.205   3.510 -0.2375 -2.1838  0.6985
 1270SOL    HW2 5424   8.103   1.289   3.617  0.7124  1.2316 -1.2259
 1271SOL     OW 5425   0.584   9.151   5.425  0.1607 -0.1992  0.2258
 1271SOL    HW1 5426   0.497   9.153   5.384  0.8122 -0.2114 -1.2409
 1271SOL    HW2 5427   0.592   9.062   5.459 -0.8212  0.1313  1.3977
 1272SOL     OW 5428   9.628   2.641   6.546 -0.6006 -0.2436 -0.0278
 1272SOL    HW1 5429   9.608   2.718   6.598  1.0097 -0.5408  1.1162
 1272SOL    HW2 5430   9.723   2.630   6.555 -0.3206 -0.6609 -2.5662
 1273SOL     OW 5431   4.267   7.263   4.468  0.3530 -0.2129 -0.5155
 1273SOL    HW1 5432   4.284   7.342   4.417  1.3983  1.0814  1.6779
 1273SOL    HW2 5433   4.174   7.270   4.491 -0.0778 -0.7060 -1.9880
 1274SOL     OW 5434   5.233   7.063   5.832  0.4287  0.0227 -0.0930
 1274SOL    HW1 5435   5.228   6.993   5.897 -1.7385 -0.1777 -0.4077
 1274SOL    HW2 5436   5.234   7.017   5.748  0.1792  0.3517 -0.2766
 1275SOL     OW 5437   5.716   1.579   5.092 -0.0118 -0.7793  0.3798
 1275SOL    HW1 5438   5.789   1.631   5.124  0.6875 -0.4860 -1.5148
 1275SOL    HW2 5439   5.655   1.643   5.055 -0.8852 -1.0761  1.2781
 1276SOL     OW 5440   3.969   4.993   1.145 -0.3555  0.5734 -0.0763
 1276SOL    HW1 5441   3.955   5.087   1.141 -2.5888  0.2994 -0.0536
 1276SOL    HW2 5442   4.013   4.979   1.229 -0.4585  1.5593  0.1547
 1277SOL     OW 5443   7.234   7.454   5.138  0.4166 -0.2087  0.3399
 1277SOL    HW1 5444   7.227   7.466   5.044 -0.4161  0.5197  0.4860
 1277SOL    HW2 5445   7.291   7.377   5.148  0.7833 -0.0958 -0.7376
 1278SOL     OW 5446   2.081   8.044   2.344  0.6174  0.5250  0.4020
 1278SOL    HW1 5447   2.059   8.135   2.324 -0.0633  0.3857  0.4923
 1278SOL    HW2 5448   2.166   8.030   2.303  1.2331  1.5142  1.2966
 1279SOL     OW 5449   8.059   1.890   7.307 -0.8370  1.4944  0.3501
 1279SOL    HW1 5450   7.994   1.847   7.251 -0.6253  2.3747 -0.6195
 1279SOL    HW2 5451   8.007   1.945   7.366 -1.1160 -0.1333  1.6959
 1280SOL     OW 5452   4.914   4.688   9.650  0.0703 -0.8386  0.3965
 1280SOL    HW1 5453   4.892   4.635   9.573  0.8708 -1.0477  0.3021
 1280SOL    HW2 5454   4.994   4.648   9.685  0.7265  0.3304  0.2961
 1281SOL     OW 5455   5.951   7.312   4.761  0.1058  0.1546  0.0647
 1281SOL    HW1 5456   5.936   7.405   4.780 -3.0309  0.1110 -1.5968
 1281SOL    HW2 5457   5.896   7.266   4.824 -0.0738 -0.4734 -0.5428
 1282SOL     OW 5458   4.241   1.343   4.772 -0.1744 -0.7978  0.7104
 1282SOL    HW1 5459   4.286   1.260   4.755  0.0519 -0.5697  0.1467
 1282SOL    HW2 5460   4.312   1.403   4.797 -0.3843 -0.8682  1.5045
 1283SOL     OW 5461   8.926   2.891   4.241 -0.2308 -0.0024 -0.6100
 1283SOL    HW1 5462   8.960   2.969   4.196  0.8862 -0.1434 -0.0530
 1283SOL    HW2 5463   8.996   2.867   4.303 -1.8179  0.3862  1.4575
 1284SOL     OW 5464   8.510   0.502   0.708 -0.1000 -0.6165  0.1916
 1284SOL    HW1 5465   8.601   0.528   0.721 -0.3427  1.1269 -1.2276
 1284SOL    HW2 5466   8.468   0.518   0.792  0.5900  0.0343  0.4259
 1285SOL     OW 5467   1.656   6.402   9.754  0.3635 -0.5496  0.1871
 1285SOL    HW1 5468   1.613   6.321   9.782 -1.5868  0.5198  0.4761
 1285SOL    HW2 5469   1.714   6.375   9.683 -2.1108 -1.8998 -1.4850
 1286SOL     OW 5470   5.978   7.398   8.978 -0.1747 -0.1856  0.9707
 1286SOL    HW1 5471   6.045   7.415   8.911 -0.8922  1.0439  0.5281
 1286SOL    HW2 5472   5.901   7.371   8.928 -0.9150  1.3615  1.2132
 1287SOL     OW 5473   7.744   4.868   9.170 -0.6262  0.7611  0.1348
 1287SOL    HW1 5474   7.756   4.905   9.082  2.4994  0.1291  0.1552
 1287SOL    HW2 5475   7.798   4.788   9.170  2.3874  2.4767  3.5260
 1288SOL     OW 5476   5.094   7.550   0.353  0.4230  0.2008  0.0203
 1288SOL    HW1 5477   5.163   7.508   0.405  0.3348 -0.1236 -0.1215
 1288SOL    HW2 5478   5.135   7.566   0.268  0.4830  0.4843  0.1026
 1289SOL     OW 5479   7.880   7.560   1.957  1.0313 -0.0633  0.1735
 1289SOL    HW1 5480   7.815   7.625   1.928  1.2417  0.8638  1.6890
 1289SOL    HW2 5481   7.924   7.601   2.031  3.2363 -0.7585 -0.6632
 1290SOL     OW 5482   7.907   8.475   8.921  0.4411 -0.1269  0.3939
 1290SOL    HW1 5483   7.944   8.452   8.835 -1.9252 -2.4297 -0.1617
 1290SOL    HW2 5484   7.909   8.570   8.923  1.3133 -0.0267 -1.8823
 1291SOL     OW 5485   0.763   0.597   7.226 -0.4292 -0.0703  0.1954
 1291SOL    HW1 5486   0.671   0.595   7.198 -0.3464  0.5168 -0.1205
 1291SOL    HW2 5487   0.812   0.565   7.151 -0.2851  0.6437 -0.0196
 1292SOL     OW 5488   5.821   4.918   6.747 -0.2629  0.0866 -0.1753
 1292SOL    HW1 5489   5.737   4.916   6.702 -0.2994  0.9678 -0.1481
 1292SOL    HW2 5490   5.872   4.984   6.700 -0.0426  0.4842  0.6155
 1293SOL     OW 5491   6.892   9.257   6.558 -0.3989  0.1055  0.8059
 1293SOL    HW1 5492   6.950   9.222   6.626 -0.8493  0.4790  1.3814
 1293SOL    HW2 5493   6.888   9.187   6.493 -2.9716 -1.9199  2.9098
 1294SOL     OW 5494   5.110   0.922   0.517 -0.6321 -0.0641 -0.8552
 1294SOL    HW1 5495   5.049   0.962   0.580  0.9690  0.7527  0.2607
 1294SOL    HW2 5496   5.058   0.857   0.471 -2.0063 -0.3505  0.9920
 1295SOL     OW 5497   8.562   1.142   9.373  0.0982 -0.3027  0.4775
 1295SOL    HW1 5498   8.657   1.156   9.374 -0.1287  1.4694  0.2657
 1295SOL    HW2 5499   8.535   1.168   9.285 -0.5652 -0.9278  0.4939
 1296SOL     OW 5500   5.744   4.135   7.829 -0.3943  0.2677  0.4729
 1296SOL    HW1 5501   5.716   4.227   7.830  0.0665  0.4427  2.8896
 1296SOL    HW2 5502   5.681   4.091   7.772 -0.6610  2.0432 -0.6816
 1297SOL     OW 5503   3.874   2.414   9.786  0.1471 -0.0766 -0.2031
 1297SOL    HW1 5504   3.943   2.402   9.852  0.7314 -0.0934 -0.8004
 1297SOL    HW2 5505   3.888   2.342   9.724 -0.2524  0.0686 -0.4674
 1298SOL     OW 5506   1.326   6.357   9.308 -0.0741  0.2469  0.1726
 1298SOL    HW1 5507   1.382   6.301   9.254 -0.9525  0.8557 -1.4385
 1298SOL    HW2 5508   1.238   6.325   9.292 -0.4400  1.0734  0.4861
 1299SOL     OW 5509   9.301   2.489   1.769 -1.0487 -0.0835  0.1248
 1299SOL    HW1 5510   9.325   2.442   1.849  0.6271 -0.5752 -0.6186
 1299SOL    HW2 5511   9.356   2.449   1.701 -2.7338  0.0433 -1.3598
 1300SOL     OW 5512   9.480   3.278   6.531  0.1120  0.0130  0.1591
 1300SOL    HW1 5513   9.403   3.232   6.498  0.4775 -0.2792 -0.3157
 1300SOL    HW2 5514   9.506   3.230   6.609 -0.0992  0.0226  0.2350
 1301SOL     OW 5515   0.360   2.309   0.418  0.0005  0.1940 -0.4096
 1301SOL    HW1 5516   0.394   2.291   0.330 -0.9031 -0.4251 -0.6487
 1301SOL    HW2 5517   0.342   2.403   0.417  1.1493  0.4257 -0.4620
 1302SOL     OW 5518   8.983   2.472   0.464 -0.3088  0.6464 -0.3213
 1302SOL    HW1 5519   8.901   2.469   0.416  0.0302 -2.0572 -0.8707
 1302SOL    HW2 5520   8.970   2.412   0.538 -0.3798  3.7333  2.4386
 1303SOL     OW 5521   0.054   2.186   6.677  0.5205  0.5576  0.2703
 1303SOL    HW1 5522  -0.021   2.233   6.714  1.2464  0.9341  1.3301
 1303SOL    HW2 5523   0.077   2.236   6.598  0.0871  0.8573  0.3312
 1304SOL     OW 5524   2.944   7.986   8.193 -0.4294  0.2976 -0.3018
 1304SOL    HW1 5525   2.961   7.892   8.197  1.7891  0.6714  0.2202
 1304SOL    HW2 5526   2.963   8.018   8.281  3.1287  1.8055 -1.4430
 1305SOL     OW 5527   8.971   4.942   9.453  0.8784  0.2586  0.0010
 1305SOL    HW1 5528   8.999   4.928   9.363  0.7058 -3.1159  0.3402
 1305SOL    HW2 5529   9.049   4.978   9.497  1.0176  1.7515 -1.3831
 1306SOL     OW 5530   0.351   9.416   3.797 -0.9050 -0.2722 -0.2841
 1306SOL    HW1 5531   0.348   9.496   3.848 -0.9903  0.0871 -0.8466
 1306SOL    HW2 5532   0.294   9.355   3.844  0.1506 -0.4145  0.8286
 1307SOL     OW 5533   0.308   9.647   0.700  0.5116 -0.9757  0.2387
 1307SOL    HW1 5534   0.316   9.552   0.708 -2.8393 -1.2733  1.4970
 1307SOL    HW2 5535   0.259   9.661   0.620 -0.5584 -0.4755  0.9499
 1308SOL     OW 5536   3.699   4.526   6.704 -0.0912  0.2730 -0.1700
 1308SOL    HW1 5537   3.605   4.537   6.692 -0.1368 -0.1588 -0.2290
 1308SOL    HW2 5538   3.721   4.583   6.778 -0.8064 -1.3378  1.3525
 1309SOL     OW 5539   5.744   4.464   1.718  0.4106 -0.0918  0.6242
 1309SOL    HW1 5540   5.762   4.428   1.631  1.8077 -0.0620  0.8692
 1309SOL    HW2 5541   5.831   4.479   1.756 -0.1220  1.7968  1.2493
 1310SOL     OW 5542   5.601   2.087   1.082  0.3157 -0.8867 -0.0335
 1310SOL    HW1 5543   5.554   2.158   1.128  1.7248  0.8363 -1.1101
 1310SOL    HW2 5544   5.548   2.009   1.098 -1.9194  0.6033  0.3338
 1311SOL     OW 5545   0.560   8.220   8.439  0.2637 -0.3194 -0.7914
 1311SOL    HW1 5546   0.549   8.306   8.396 -2.6333  0.6281  1.5050
 1311SOL    HW2 5547   0.475   8.178   8.429  0.6651 -1.6021  0.8526
 1312SOL     OW 5548   0.779   0.798   5.738 -0.5611 -0.1736  0.3249
 1312SOL    HW1 5549   0.788   0.754   5.654  2.0300  0.6233  0.1002
 1312SOL    HW2 5550   0.853   0.765   5.790 -0.0552  1.9226  1.0298
 1313SOL     OW 5551   8.577   4.791   5.192 -0.6634  0.1194  0.2470
 1313SOL    HW1 5552   8.570   4.794   5.096  0.1226  1.8609  0.2133
 1313SOL    HW2 5553   8.671   4.800   5.209 -0.6990 -1.0336  1.1848
 1314SOL     OW 5554   2.402   4.035   3.590 -0.4348  0.0141 -0.2111
 1314SOL    HW1 5555   2.333   4.021   3.524 -1.4317  1.9445  0.3522
 1314SOL    HW2 5556   2.354   4.048   3.671  0.7593 -1.6960  0.8353
 1315SOL     OW 5557   5.360   3.688   4.477 -0.1192  0.3110  0.6397
 1315SOL    HW1 5558   5.433   3.652   4.527 -1.7020  0.3870  3.1657
 1315SOL    HW2 5559   5.376   3.782   4.475  0.6842  0.1636 -0.2781
 1316SOL     OW 5560   5.332   2.195   9.522  0.0754  0.2670  0.4080
 1316SOL    HW1 5561   5.409   2.146   9.493 -1.4010 -1.0378 -1.6170
 1316SOL    HW2 5562   5.357   2.287   9.514  0.9514 -0.1104 -1.7747
 1317SOL     OW 5563   8.370   9.382   8.329 -0.0403  0.4399 -0.2120
 1317SOL    HW1 5564   8.439   9.446   8.311 -0.0760  0.5531  0.0454
 1317SOL    HW2 5565   8.385   9.312   8.267  0.0744  0.6446 -0.4139
 1318SOL     OW 5566   8.792   8.546   5.327  0.3972 -0.1417 -0.2113
 1318SOL    HW1 5567   8.811   8.591   5.244 -0.6323 -0.3591 -0.5805
 1318SOL    HW2 5568   8.761   8.616   5.385  0.7365 -0.0576 -0.1231
 1319SOL     OW 5569   1.360   4.208   2.223 -0.0580 -0.0341 -0.2870
 1319SOL    HW1 5570   1.299   4.282   2.226 -0.1952 -0.1268 -0.7923
 1319SOL    HW2 5571   1.330   4.154   2.150  0.1621 -0.4891 -0.0519
 1320SOL     OW 5572   9.190   2.459   8.503 -0.3117  0.5030  0.2558
 1320SOL    HW1 5573   9.180   2.406   8.424 -3.1156  0.5199  0.4890
 1320SOL    HW2 5574   9.284   2.460   8.520  0.1879 -1.0802 -1.9868
 1321SOL     OW 5575   2.480   7.005   8.843 -0.0082 -0.3472 -0.4788
 1321SOL    HW1 5576   2.431   6.981   8.763  1.2212 -0.3250 -1.2568
 1321SOL    HW2 5577   2.515   6.922   8.875  0.6294 -0.1847 -0.7360
 1322SOL     OW 5578   3.941   2.022   0.829 -0.4017 -0.2146  0.0879
 1322SOL    HW1 5579   4.037   2.017   0.832 -0.3419  0.9788  1.2893
 1322SOL    HW2 5580   3.920   2.034   0.736  0.5006 -1.8781 -0.3694
 1323SOL     OW 5581   6.274   8.176   7.299  0.0183  0.0364  0.4249
 1323SOL    HW1 5582   6.203   8.118   7.328  0.3481 -0.5556  0.0784
 1323SOL    HW2 5583   6.346   8.155   7.359  0.5440 -0.8365 -0.4836
 1324SOL     OW 5584   2.220   0.990   7.879 -0.0539 -0.0489 -0.8056
 1324SOL    HW1 5585   2.172   0.928   7.825 -1.1210 -0.1194  0.1715
 1324SOL    HW2 5586   2.312   0.966   7.869 -0.4057 -1.4092 -0.8923
 1325SOL     OW 5587   8.977   4.198   5.566  0.4580 -0.3116 -0.0851
 1325SOL    HW1 5588   9.027   4.260   5.619  0.0302  0.0362 -0.0811
 1325SOL    HW2 5589   9.034   4.180   5.491 -0.3755  2.0328 -1.4067
 1326SOL     OW 5590   3.702   7.105   6.100  0.3717  0.1327 -0.2028
 1326SOL    HW1 5591   3.655   7.084   6.019  0.3556  0.3013 -0.2378
 1326SOL    HW2 5592   3.794   7.089   6.079  0.2554 -1.2354  0.1867
 1327SOL     OW 5593   2.487   8.027   7.177 -0.4840  0.1231 -0.1932
 1327SOL    HW1 5594   2.523   7.946   7.142 -1.3216 -0.0809 -0.6251
 1327SOL    HW2 5595   2.463   8.078   7.099 -2.4752 -0.3843  0.0317
 1328SOL     OW 5596   4.445   6.618   7.006 -0.1925 -0.2543 -0.0298
 1328SOL    HW1 5597   4.456   6.710   6.980 -1.2038  0.3408  1.4870
 1328SOL    HW2 5598   4.532   6.579   6.995  0.6768  1.3210  0.8885
 1329SOL     OW 5599   4.388   4.349   4.854 -0.2569 -0.3219  0.1901
 1329SOL    HW1 5600   4.382   4.401   4.774  0.5113 -0.5075  0.0014
 1329SOL    HW2 5601   4.444   4.401   4.912 -0.9553 -0.1029  0.6864
 1330SOL     OW 5602   1.927   7.831   1.981 -0.5054  0.1390  0.0706
 1330SOL    HW1 5603   1.942   7.819   2.075 -1.2437  0.7283  0.2703
 1330SOL    HW2 5604   1.833   7.846   1.973 -0.1681  2.3734 -0.4783
 1331SOL     OW 5605   6.436   7.596   8.714  0.2184 -0.0569  0.4455
 1331SOL    HW1 5606   6.436   7.588   8.619  0.3107 -1.1791  0.5320
 1331SOL    HW2 5607   6.525   7.625   8.736  0.2809 -0.0743  0.2166
 1332SOL     OW 5608   5.844   0.389   9.198  0.0489  0.1321  0.3321
 1332SOL    HW1 5609   5.774   0.362   9.138 -0.9198 -2.2353  2.3301
 1332SOL    HW2 5610   5.827   0.481   9.215 -2.9557 -0.4144  1.0272
 1333SOL     OW 5611   4.825   3.643   1.903  0.6016  0.0010 -0.2265
 1333SOL    HW1 5612   4.845   3.550   1.903  2.6532  0.4058 -0.7704
 1333SOL    HW2 5613   4.896   3.683   1.952 -0.8096  1.2158  0.9510
 1334SOL     OW 5614   3.418   5.133   6.994  0.1297  0.2399  0.2612
 1334SOL    HW1 5615   3.467   5.066   6.947 -0.5191  0.9372 -1.5139
 1334SOL    HW2 5616   3.485   5.193   7.027  0.6227 -0.4129  0.4523
 1335SOL     OW 5617   9.806   7.196   4.531  0.0782 -0.6522 -0.2115
 1335SOL    HW1 5618   9.880   7.173   4.475  0.4860 -1.2971  0.5698
 1335SOL    HW2 5619   9.752   7.117   4.532 -0.0002 -0.5931  0.1985
 1336SOL     OW 5620   4.555   8.603   8.247  0.2235 -0.0599 -0.2709
 1336SOL    HW1 5621   4.507   8.648   8.178  3.4989  0.6026 -2.3569
 1336SOL    HW2 5622   4.550   8.510   8.223 -0.6157 -0.0877 -0.0154
 1337SOL     OW 5623   4.754   1.479   6.525  0.7965  0.2711  0.1536
 1337SOL    HW1 5624   4.673   1.444   6.486  1.4673 -2.0450  0.6932
 1337SOL    HW2 5625   4.741   1.469   6.619  1.2889  0.9358  0.3000
 1338SOL     OW 5626   9.824   4.470   2.421  0.0034 -1.0053 -0.3179
 1338SOL    HW1 5627   9.825   4.553   2.373  1.2298 -0.8277 -0.0121
 1338SOL    HW2 5628   9.837   4.495   2.513 -3.0892 -1.2674  0.2929
 1339SOL     OW 5629   3.296   6.500   6.416  0.3484 -0.5543  0.4645
 1339SOL    HW1 5630   3.327   6.479   6.328 -0.8999 -3.3039  0.5590
 1339SOL    HW2 5631   3.367   6.549   6.457  0.9679  0.7637 -2.0216
 1340SOL     OW 5632   1.394   3.752   3.933  0.1213  0.7203 -0.0676
 1340SOL    HW1 5633   1.424   3.728   3.845  0.8557  0.0983  0.3469
 1340SOL    HW2 5634   1.470   3.740   3.989 -0.8672 -0.9514  1.0164
 1341SOL     OW 5635   6.719   9.278   5.710  0.7208  0.1285 -0.4454
 1341SOL    HW1 5636   6.718   9.369   5.678 -0.0412  0.6395  0.9548
 1341SOL    HW2 5637   6.672   9.229   5.643 -3.1935  1.6088  0.9319
 1342SOL     OW 5638   0.914   2.601   4.070  0.1197 -0.1373  0.4875
 1342SOL    HW1 5639   0.940   2.669   4.008 -0.5103 -0.6950 -0.4089
 1342SOL    HW2 5640   0.873   2.649   4.142  0.9304  0.5257  0.5260
 1343SOL     OW 5641   8.884   3.210   1.853 -0.2386 -0.2359  0.5551
 1343SOL    HW1 5642   8.800   3.167   1.841 -0.0160 -1.0731  1.7861
 1343SOL    HW2 5643   8.917   3.225   1.764 -1.5078 -0.2307  0.0751
 1344SOL     OW 5644   6.501   7.813   5.516  0.3161  0.0520  0.2822
 1344SOL    HW1 5645   6.441   7.744   5.489  2.1924 -0.7447 -2.2728
 1344SOL    HW2 5646   6.528   7.789   5.605 -2.2256 -0.1338  1.0730
 1345SOL     OW 5647   5.495   6.672   8.283  0.2422 -0.7830  0.0666
 1345SOL    HW1 5648   5.405   6.671   8.251  0.5916 -0.0206 -0.9969
 1345SOL    HW2 5649   5.544   6.622   8.217  0.4479 -2.0646  1.1573
 1346SOL     OW 5650   3.073   5.836   2.224  0.0305 -0.2416 -0.0808
 1346SOL    HW1 5651   2.992   5.824   2.273 -0.4185  1.4324 -0.3474
 1346SOL    HW2 5652   3.125   5.896   2.279  1.6538 -2.2292  0.6851
 1347SOL     OW 5653   7.551   4.182   6.708 -0.1886 -0.1175 -0.2425
 1347SOL    HW1 5654   7.593   4.146   6.786  0.5092  1.8241  0.3301
 1347SOL    HW2 5655   7.562   4.114   6.642 -1.0490 -1.9338  1.3730
 1348SOL     OW 5656   0.985   7.367   4.435 -0.1238  0.2963  0.1758
 1348SOL    HW1 5657   1.054   7.374   4.501 -0.1583 -1.8678  0.4855
 1348SOL    HW2 5658   0.904   7.369   4.485 -0.2544  1.0018 -0.0416
 1349SOL     OW 5659   0.717   8.043   5.273  0.1715 -0.6329  0.4416
 1349SOL    HW1 5660   0.723   7.999   5.358 -0.7356 -2.0468 -0.1916
 1349SOL    HW2 5661   0.668   7.982   5.218  1.2522 -0.0113 -1.2843
 1350SOL     OW 5662   6.608   0.076   3.497  0.1332  0.1149  0.3078
 1350SOL    HW1 5663   6.566   0.069   3.411  0.7301  1.3130 -0.0969
 1350SOL    HW2 5664   6.697   0.106   3.478  0.2209  0.5579  1.3545
 1351SOL     OW 5665   2.725   0.654   8.287  0.3315 -0.4746  0.8827
 1351SOL    HW1 5666   2.777   0.713   8.232  0.6919 -0.1876  1.5223
 1351SOL    HW2 5667   2.748   0.678   8.377 -0.9954 -0.2659  1.1872
 1352SOL     OW 5668   6.165   3.340   7.142 -0.2465 -0.5136 -0.0747
 1352SOL    HW1 5669   6.244   3.352   7.089 -0.2071  0.4321  0.1849
 1352SOL    HW2 5670   6.197   3.311   7.227 -0.0322  1.4355  0.5506
 1353SOL     OW 5671   5.935   8.669   1.227 -0.4073  0.1874  0.5719
 1353SOL    HW1 5672   5.928   8.700   1.136  0.1537  3.8299  1.6160
 1353SOL    HW2 5673   5.996   8.596   1.222 -0.6403  0.0682 -2.0106
 1354SOL     OW 5674   6.102   0.112   7.414  0.0906 -0.5298  0.3198
 1354SOL    HW1 5675   6.036   0.068   7.468 -0.6550  1.4442  1.1307
 1354SOL    HW2 5676   6.079   0.087   7.324 -1.5699 -0.1839  0.6028
 1355SOL     OW 5677   3.163   9.477   8.371  0.2633  0.0613  0.2284
 1355SOL    HW1 5678   3.118   9.425   8.437  0.6985 -0.1730  0.3419
 1355SOL    HW2 5679   3.101   9.481   8.298  0.1272 -0.4058  0.3156
 1356SOL     OW 5680   2.564   8.563   3.137  0.4413  0.4191  0.1692
 1356SOL    HW1 5681   2.551   8.566   3.042  3.1091  1.5946 -0.2575
 1356SOL    HW2 5682   2.551   8.654   3.165 -2.0046 -0.1824  1.3002
 1357SOL     OW 5683   2.427   8.719   6.233  0.1334  0.4317  0.3957
 1357SOL    HW1 5684   2.475   8.787   6.185 -2.7406  1.7500 -0.8812
 1357SOL    HW2 5685   2.432   8.746   6.325  0.3438  1.5365  0.0726
 1358SOL     OW 5686   1.953   0.081   3.767 -0.2468  0.1412 -0.0745
 1358SOL    HW1 5687   1.954   0.005   3.826 -2.6468 -1.0054 -1.3483
 1358SOL    HW2 5688   2.027   0.067   3.709 -0.2516 -0.8915  0.1389
 1359SOL     OW 5689   6.374   0.215   3.160  0.2283  0.3741  0.6152
 1359SOL    HW1 5690   6.373   0.193   3.066  2.4321  0.6060  0.4659
 1359SOL    HW2 5691   6.420   0.142   3.201 -1.7063 -0.2819  1.7439
 1360SOL     OW 5692   9.069   2.053   9.180 -0.2682 -0.1369 -0.3711
 1360SOL    HW1 5693   9.106   2.024   9.263 -1.7233  0.4001  0.5020
 1360SOL    HW2 5694   9.000   1.989   9.161 -0.2696  0.0203 -0.9140
 1361SOL     OW 5695   8.795   3.209   8.734  0.0095 -0.4038 -0.0598
 1361SOL    HW1 5696   8.823   3.124   8.768 -0.8894 -1.8508 -2.6633
 1361SOL    HW2 5697   8.823   3.209   8.643 -1.9243  1.1660 -0.7305
 1362SOL     OW 5698   6.249   6.697   1.114 -0.5348 -0.1936 -0.4213
 1362SOL    HW1 5699   6.218   6.778   1.155  0.1810 -0.2149  0.1896
 1362SOL    HW2 5700   6.231   6.708   1.021 -0.0913  0.8323 -0.3924
 1363SOL     OW 5701   7.327   2.725   3.991  0.3270  0.0104  0.3833
 1363SOL    HW1 5702   7.370   2.671   3.924 -2.1534 -1.5143 -0.1244
 1363SOL    HW2 5703   7.314   2.666   4.065 -1.7898  0.0385  0.0997
 1364SOL     OW 5704   4.986   5.208   7.579 -0.2052  0.2146 -0.3777
 1364SOL    HW1 5705   5.069   5.246   7.550 -0.6799  0.0571 -2.1063
 1364SOL    HW2 5706   4.940   5.281   7.621  0.8166  0.2893  0.6400
 1365SOL     OW 5707   1.732   8.099   2.993 -0.1541 -0.5472  0.1797
 1365SOL    HW1 5708   1.661   8.131   3.047  0.0462  1.5835 -0.7288
 1365SOL    HW2 5709   1.758   8.016   3.034 -0.7653  0.3881  2.6069
 1366SOL     OW 5710   7.192   3.888   8.973 -0.2726 -0.3057  0.6930
 1366SOL    HW1 5711   7.279   3.916   9.000 -1.0540  0.7137  2.3112
 1366SOL    HW2 5712   7.194   3.793   8.979  0.9092 -0.3410  0.0469
 1367SOL     OW 5713   7.297   5.226   7.160  0.2341  0.1523  0.9758
 1367SOL    HW1 5714   7.215   5.186   7.130 -0.9758  2.4972  0.9531
 1367SOL    HW2 5715   7.281   5.246   7.252  0.1977  1.9009  0.6291
 1368SOL     OW 5716   6.812   1.080   3.789  0.4066 -0.4025 -0.2130
 1368SOL    HW1 5717   6.773   1.026   3.859  1.0816 -0.6352 -0.0083
 1368SOL    HW2 5718   6.752   1.069   3.715  0.5679 -1.5066 -0.1991
 1369SOL     OW 5719   9.314   1.169   8.099  0.3741  0.7158 -0.0433
 1369SOL    HW1 5720   9.350   1.257   8.084 -0.6008  0.9081 -1.5177
 1369SOL    HW2 5721   9.363   1.113   8.039  1.0414  0.2116  0.9456
 1370SOL     OW 5722   8.241   1.963   8.205 -0.2369  0.0139 -0.0208
 1370SOL    HW1 5723   8.238   2.052   8.240 -1.1860  0.0789 -0.2377
 1370SOL    HW2 5724   8.191   1.968   8.123  0.7563 -0.4472 -0.6753
 1371SOL     OW 5725   4.781   8.063   7.358  0.4935  0.4593 -0.5851
 1371SOL    HW1 5726   4.869   8.026   7.357  0.8418  1.1196  1.1077
 1371SOL    HW2 5727   4.785   8.131   7.425 -1.1861  0.8233 -0.8134
 1372SOL     OW 5728   2.616   6.462   5.448 -0.6773 -1.0614 -0.4801
 1372SOL    HW1 5729   2.669   6.388   5.478  1.7832  0.4893 -0.6877
 1372SOL    HW2 5730   2.614   6.522   5.523 -1.2815 -0.6328 -0.8267
 1373SOL     OW 5731   3.705   8.332   4.350 -0.3103  0.0048  0.6292
 1373SOL    HW1 5732   3.772   8.323   4.282 -0.7575 -0.5151  0.2476
 1373SOL    HW2 5733   3.641   8.393   4.314 -0.5768 -0.3141  0.5622
 1374SOL     OW 5734   9.773   9.758   3.775 -0.3338 -0.1435  0.3535
 1374SOL    HW1 5735   9.836   9.825   3.751 -0.1209 -0.2882  0.5064
 1374SOL    HW2 5736   9.761   9.706   3.695 -0.6451  0.1924  0.1801
 1375SOL     OW 5737   7.043   3.360   0.482  0.8204 -0.0108  0.3292
 1375SOL    HW1 5738   7.132   3.326   0.484  0.8301  0.0306  0.6069
 1375SOL    HW2 5739   7.053   3.454   0.497  0.6249 -0.2037  1.7446
 1376SOL     OW 5740   2.410   1.777   4.476  0.4060  0.2717  0.6299
 1376SOL    HW1 5741   2.336   1.821   4.434  1.5229  1.8115  0.2082
 1376SOL    HW2 5742   2.400   1.797   4.569  1.2517  2.0458  0.3797
 1377SOL     OW 5743   5.914   3.424   1.291  0.0388  0.2318  0.1768
 1377SOL    HW1 5744   6.009   3.423   1.305  0.0677 -1.2119  0.0047
 1377SOL    HW2 5745   5.896   3.345   1.240 -1.3343  0.1538  0.7376
 1378SOL     OW 5746   0.192   3.283   2.863  0.3123 -0.6012  0.0737
 1378SOL    HW1 5747   0.250   3.243   2.929  2.2757  1.5184 -0.2567
 1378SOL    HW2 5748   0.164   3.365   2.902  0.5163  0.1159 -1.2445
 1379SOL     OW 5749   4.756   4.118   8.418 -0.5216  0.1294 -0.0784
 1379SOL    HW1 5750   4.694   4.135   8.489  0.0507  1.7795  0.0545
 1379SOL    HW2 5751   4.707   4.137   8.338 -0.4081  0.7582 -0.0031
 1380SOL     OW 5752   5.013   9.492   4.160 -0.0977 -0.1024 -0.0198
 1380SOL    HW1 5753   5.087   9.472   4.102 -0.2604  0.4075 -0.4120
 1380SOL    HW2 5754   4.970   9.566   4.119 -0.5434 -0.0827  0.4706
 1381SOL     OW 5755   9.728   8.265   6.546  0.1197 -0.5747  0.4895
 1381SOL    HW1 5756   9.791   8.335   6.563 -0.1384 -0.5153  1.2236
 1381SOL    HW2 5757   9.698   8.238   6.633 -0.8024 -0.6545  0.1582
 1382SOL     OW 5758   3.143   2.388   6.125 -0.1408  0.1577 -0.3160
 1382SOL    HW1 5759   3.198   2.309   6.121 -1.2639 -0.6019 -1.3504
 1382SOL    HW2 5760   3.118   2.394   6.217 -2.3606 -2.4100 -0.6058
 1383SOL     OW 5761   8.447   7.579   8.367 -0.2726  0.2428  0.8761
 1383SOL    HW1 5762   8.472   7.623   8.448 -1.5313 -0.6944  1.8195
 1383SOL    HW2 5763   8.378   7.517   8.393  0.5481 -1.3985 -0.5776
 1384SOL     OW 5764   5.295   7.917   0.034 -0.4288 -0.4927 -0.0923
 1384SOL    HW1 5765   5.345   7.845  -0.004  0.1734 -0.2885  0.2979
 1384SOL    HW2 5766   5.212   7.917  -0.015  0.2975 -0.2552 -1.3833
 1385SOL     OW 5767   5.749   8.049   3.638  0.1804  0.3897 -0.1686
 1385SOL    HW1 5768   5.772   8.087   3.723 -2.3466 -0.0102  0.7729
 1385SOL    HW2 5769   5.663   8.010   3.652  0.0316 -0.3448 -2.7390
 1386SOL     OW 5770   8.850   2.342   1.929 -0.3032 -0.1455  0.0111
 1386SOL    HW1 5771   8.851   2.278   1.858  0.1175 -0.7132  0.5174
 1386SOL    HW2 5772   8.849   2.427   1.885 -0.2685 -0.4929 -0.6682
 1387SOL     OW 5773   6.363   7.637   8.403  0.4363 -0.2642 -0.5136
 1387SOL    HW1 5774   6.289   7.577   8.397  0.8880 -0.7592 -1.2954
 1387SOL    HW2 5775   6.347   7.703   8.336  0.6909 -0.3712 -0.6843
 1388SOL     OW 5776   1.934   6.998   4.889 -0.2858 -0.0923 -0.0537
 1388SOL    HW1 5777   1.842   6.995   4.861 -0.4862 -1.4438  0.6301
 1388SOL    HW2 5778   1.936   7.064   4.958 -0.9170 -0.5649  0.4371
 1389SOL     OW 5779   2.338   7.340   7.587 -0.2842 -0.2786 -0.5971
 1389SOL    HW1 5780   2.420   7.312   7.546  1.1446  1.9349  0.5846
 1389SOL    HW2 5781   2.302   7.405   7.527 -0.0357  0.3539 -0.0659
 1390SOL     OW 5782   0.790   4.582   9.032  0.0938  0.0233 -0.2546
 1390SOL    HW1 5783   0.879   4.561   9.003  0.5544  1.3040  0.1218
 1390SOL    HW2 5784   0.772   4.667   8.991 -0.4862  0.3276  0.6009
 1391SOL     OW 5785   1.595   0.533   7.294  0.7602 -0.3300 -0.2360
 1391SOL    HW1 5786   1.539   0.536   7.217  0.6266  0.5346 -0.1079
 1391SOL    HW2 5787   1.536   0.545   7.368  0.9777 -0.4718 -0.0365
 1392SOL     OW 5788   8.834   1.322   3.646  0.5191  0.9579  0.3639
 1392SOL    HW1 5789   8.909   1.294   3.594  1.1933  2.8345  0.2371
 1392SOL    HW2 5790   8.768   1.254   3.633  0.7976  1.1296 -2.6401
 1393SOL     OW 5791   7.830   6.599   5.965  0.2817 -0.4380  0.3781
 1393SOL    HW1 5792   7.744   6.640   5.971  0.5139  0.3718 -1.1356
 1393SOL    HW2 5793   7.891   6.673   5.964  0.8560 -0.9101 -0.3127
 1394SOL     OW 5794   5.173   9.514   8.353  0.4180 -0.5701  0.2064
 1394SOL    HW1 5795   5.080   9.517   8.329  0.4305 -0.1448  0.2122
 1394SOL    HW2 5796   5.194   9.603   8.381  1.5755  0.1440 -2.5928
 1395SOL     OW 5797   3.951   5.266   9.468 -0.4746  0.2044  0.1615
 1395SOL    HW1 5798   3.927   5.251   9.377  4.0237  0.2339 -1.2708
 1395SOL    HW2 5799   3.906   5.197   9.517 -2.1051 -0.5209 -2.1848
 1396SOL     OW 5800   7.544   4.239   9.575 -0.2679  0.7052 -0.4206
 1396SOL    HW1 5801   7.522   4.165   9.519  0.0267  0.4223 -0.1694
 1396SOL    HW2 5802   7.598   4.296   9.520 -0.2377  0.5797 -0.5201
 1397SOL     OW 5803   3.825   3.959   1.236  0.2940 -0.6622  0.4410
 1397SOL    HW1 5804   3.878   3.898   1.184  2.7540 -0.9721  3.0618
 1397SOL    HW2 5805   3.740   3.916   1.244  0.2211 -1.1826 -2.1091
 1398SOL     OW 5806   3.148   0.704   9.309 -0.3615  0.2256  0.2287
 1398SOL    HW1 5807   3.226   0.650   9.315  0.2617  1.1726  1.1921
 1398SOL    HW2 5808   3.148   0.738   9.220  0.5686  0.5447  0.3393
 1399SOL     OW 5809   6.593   8.673   3.699  0.2449  0.3890 -0.6226
 1399SOL    HW1 5810   6.648   8.749   3.678  0.6065  0.0332 -0.9740
 1399SOL    HW2 5811   6.557   8.646   3.615  0.9819 -0.4928 -0.6664
 1400SOL     OW 5812   5.373   8.649   0.514  0.1614  0.3503 -0.1639
 1400SOL    HW1 5813   5.342   8.623   0.427 -0.5204  2.7355 -0.7163
 1400SOL    HW2 5814   5.317   8.601   0.574 -0.5074 -0.0381 -1.0654
 1401SOL     OW 5815   8.077   1.973   3.085  0.2417 -0.1487 -0.7176
 1401SOL    HW1 5816   8.125   1.946   3.006  2.0242 -0.8447  0.5335
 1401SOL    HW2 5817   8.142   1.966   3.155 -1.4525 -0.0930  0.9106
 1402SOL     OW 5818   5.984   0.658   6.080 -0.4546 -0.1551 -0.0252
 1402SOL    HW1 5819   5.929   0.580   6.080  0.5812 -0.9166  0.5110
 1402SOL    HW2 5820   6.009   0.669   6.171 -1.6728  1.6249  0.1352
 1403SOL     OW 5821   9.765   6.623   3.371  0.2182 -0.6398 -0.0791
 1403SOL    HW1 5822   9.776   6.547   3.313 -1.3745 -1.4355  0.6044
 1403SOL    HW2 5823   9.752   6.585   3.458  1.5964  0.5119  0.6756
 1404SOL     OW 5824   9.606   7.139   6.105 -0.0391  0.0905 -0.1795
 1404SOL    HW1 5825   9.692   7.149   6.145  0.4958 -1.1927 -0.9449
 1404SOL    HW2 5826   9.548   7.194   6.158  0.8611 -0.6115  1.6031
 1405SOL     OW 5827   2.666   3.637   2.454 -0.4185  0.1643 -0.3627
 1405SOL    HW1 5828   2.751   3.630   2.496 -1.0525  0.4524  1.0314
 1405SOL    HW2 5829   2.623   3.553   2.470 -0.7764  0.3784 -0.1635
 1406SOL     OW 5830   3.747   0.886   2.023  0.1997  0.7992  0.2513
 1406SOL    HW1 5831   3.803   0.814   1.994 -1.2682 -1.2031  2.0366
 1406SOL    HW2 5832   3.806   0.945   2.070  1.1311 -0.2934  0.5072
 1407SOL     OW 5833   5.275   9.065   7.742 -0.1337 -0.5589 -0.6784
 1407SOL    HW1 5834   5.289   8.977   7.777 -1.0207 -0.5578 -0.2881
 1407SOL    HW2 5835   5.227   9.111   7.812  0.8295  0.4178 -0.6384
 1408SOL     OW 5836   4.769   6.959   6.497 -0.2205  0.5769  0.1401
 1408SOL    HW1 5837   4.758   7.029   6.561 -0.1208 -0.0742  0.8871
 1408SOL    HW2 5838   4.861   6.967   6.469 -0.2111  0.7483  0.2187
 1409SOL     OW 5839   2.568   4.353   0.675 -0.1719 -0.4162 -0.7678
 1409SOL    HW1 5840   2.645   4.307   0.707 -0.6127 -0.6578 -0.0366
 1409SOL    HW2 5841   2.594   4.445   0.675 -0.2231 -0.3882  0.4928
 1410SOL     OW 5842   5.327   1.280   5.794 -0.1561 -0.1159  0.1371
 1410SOL    HW1 5843   5.411   1.240   5.815  0.1016  0.6534  0.6290
 1410SOL    HW2 5844   5.269   1.255   5.866 -0.5944 -1.3066 -0.5962
 1411SOL     OW 5845   1.388   2.608   6.413  0.2067  0.0746 -0.2444
 1411SOL    HW1 5846   1.349   2.579   6.496 -0.9181  2.5703  0.1786
 1411SOL    HW2 5847   1.328   2.575   6.346 -0.0269 -0.1619  0.0794
 1412SOL     OW 5848   3.764   0.684   5.979 -0.2214 -0.0185  0.0762
 1412SOL    HW1 5849   3.751   0.777   5.957  0.5024  0.2290  0.6543
 1412SOL    HW2 5850   3.675   0.648   5.980 -0.7829  1.2309  2.2724
 1413SOL     OW 5851   6.546   7.035   7.046 -0.2086 -0.3835 -0.2102
 1413SOL    HW1 5852   6.499   7.057   7.126 -0.0487  0.1604 -0.2595
 1413SOL    HW2 5853   6.633   7.073   7.058  0.6601 -2.4582  0.4009
 1414SOL     OW 5854   8.112   4.949   1.206  0.0953 -0.6749 -0.2931
 1414SOL    HW1 5855   8.059   4.889   1.153  0.2666 -0.2002 -1.0149
 1414SOL    HW2 5856   8.089   5.036   1.174 -0.2949 -0.3298  0.8785
 1415SOL     OW 5857   4.870   4.055   4.399  0.3268 -0.2618  0.1959
 1415SOL    HW1 5858   4.791   4.020   4.441  0.4127 -0.8323 -0.0991
 1415SOL    HW2 5859   4.914   3.978   4.362  0.6274  0.1345 -0.2997
 1416SOL     OW 5860   5.541   3.589   8.317 -0.7684  0.1178  0.4359
 1416SOL    HW1 5861   5.458   3.542   8.311 -1.8932  1.9367  1.1469
 1416SOL    HW2 5862   5.575   3.567   8.404  0.1344 -1.5596 -0.2898
 1417SOL     OW 5863   8.992   5.607   0.044 -0.0441  0.4015 -0.4321
 1417SOL    HW1 5864   9.053   5.619   0.116 -1.0792  1.3527  0.3130
 1417SOL    HW2 5865   9.018   5.672  -0.021  0.2521  0.2337 -0.4841
 1418SOL     OW 5866   9.372   5.809   9.772  0.2357  0.1726  0.1367
 1418SOL    HW1 5867   9.348   5.901   9.785 -0.4755 -0.4118  4.5828
 1418SOL    HW2 5868   9.462   5.803   9.802 -0.1190 -0.7362  1.0767
 1419SOL     OW 5869   5.325   8.283   4.955 -0.1635  0.5037 -0.3300
 1419SOL    HW1 5870   5.299   8.364   4.911 -0.5286  0.0425 -0.9775
 1419SOL    HW2 5871   5.362   8.312   5.038 -0.2402  1.3392 -0.5768
 1420SOL     OW 5872   6.640   5.963   5.393  0.2141 -0.1217 -0.4577
 1420SOL    HW1 5873   6.686   5.882   5.370 -0.0224 -0.5231  0.4410
 1420SOL    HW2 5874   6.548   5.938   5.401  0.2531  0.0344  0.6652
 1421SOL     OW 5875   7.901   6.574   2.167  0.1532 -0.1917 -0.6355
 1421SOL    HW1 5876   7.847   6.582   2.246  0.0182 -0.3274 -0.7134
 1421SOL    HW2 5877   7.920   6.481   2.161 -0.1104 -0.2285 -0.9420
 1422SOL     OW 5878   5.088   5.701   9.247  0.1739 -0.3194  0.2725
 1422SOL    HW1 5879   5.065   5.717   9.156 -0.0772 -2.1888 -0.0363
 1422SOL    HW2 5880   5.160   5.761   9.265  0.7707 -0.5025 -1.4099
 1423SOL     OW 5881   4.351   3.637   8.145  0.3315 -0.1199 -0.4278
 1423SOL    HW1 5882   4.302   3.682   8.213  1.1910  0.4349 -0.1635
 1423SOL    HW2 5883   4.295   3.642   8.068  0.0745  0.7060 -0.1948
 1424SOL     OW 5884   6.805   1.088   1.393 -0.0292 -0.3077 -0.2852
 1424SOL    HW1 5885   6.790   1.029   1.467 -0.4787  0.8130  0.5427
 1424SOL    HW2 5886   6.826   1.030   1.320 -1.7549 -1.5822  0.1585
 1425SOL     OW 5887   9.119   9.180   4.340  0.4322 -0.0904  0.3698
 1425SOL    HW1 5888   9.037   9.208   4.299  0.9454  0.9891  0.0641
 1425SOL    HW2 5889   9.138   9.247   4.405  1.6414  0.2443 -0.3195
 1426SOL     OW 5890   2.237   7.276   1.727 -0.1662 -0.4799 -0.4522
 1426SOL    HW1 5891   2.305   7.233   1.779 -0.0307 -2.2006 -1.9186
 1426SOL    HW2 5892   2.157   7.267   1.779  0.1855 -1.0706  0.0016
 1427SOL     OW 5893   3.588   3.764   5.638 -0.4265  0.4600  0.6000
 1427SOL    HW1 5894   3.594   3.858   5.623 -1.0030  0.3735 -0.2277
 1427SOL    HW2 5895   3.499   3.751   5.672 -0.3286  0.2192  0.7672
 1428SOL     OW 5896   1.313   6.928   0.325  0.4121 -0.7315 -0.0031
 1428SOL    HW1 5897   1.282   6.848   0.282 -0.5045 -0.4665  0.1406
 1428SOL    HW2 5898   1.240   6.989   0.318  2.2534  1.3894 -3.2436
 1429SOL     OW 5899   0.977   8.733   5.642 -0.0879  0.1396  0.3592
 1429SOL    HW1 5900   1.052   8.676   5.657 -0.2479  0.2498  1.7228
 1429SOL    HW2 5901   0.904   8.673   5.622 -0.2314 -0.1443  1.6765
 1430SOL     OW 5902   5.604   7.880   2.095  0.2676 -0.0997 -0.4305
 1430SOL    HW1 5903   5.545   7.901   2.167  0.5905  0.2618 -0.2754
 1430SOL    HW2 5904   5.599   7.784   2.088 -0.1480 -0.0931 -0.2580
 1431SOL     OW 5905   1.478   6.572   2.902  0.1442 -0.2471  0.1064
 1431SOL    HW1 5906   1.519   6.509   2.843 -0.7504 -0.6660 -0.0814
 1431SOL    HW2 5907   1.424   6.519   2.961  0.3616  0.2409  0.7583
 1432SOL     OW 5908   2.849   9.752   2.544 -0.2771  0.1742  0.3616
 1432SOL    HW1 5909   2.871   9.661   2.522  1.4005  0.6822 -0.2280
 1432SOL    HW2 5910   2.888   9.804   2.474 -0.1193  1.4374  1.3559
 1433SOL     OW 5911   8.106   0.451   5.018  0.8170 -0.1983  0.2580
 1433SOL    HW1 5912   8.185   0.415   5.058  1.1597 -0.4634 -0.6408
 1433SOL    HW2 5913   8.111   0.545   5.035  1.7320 -0.1002 -0.4667
 1434SOL     OW 5914   0.215   1.998   2.426  0.4201 -0.0813 -0.3307
 1434SOL    HW1 5915   0.259   2.001   2.511  0.0345 -1.3039 -0.0575
 1434SOL    HW2 5916   0.283   2.023   2.363  1.3203 -1.1917  0.1490
 1435SOL     OW 5917   0.871   6.065   5.904 -0.1165  0.2490  0.7298
 1435SOL    HW1 5918   0.933   6.067   5.831 -0.9691  1.4044 -0.0013
 1435SOL    HW2 5919   0.835   5.977   5.902 -0.8665  0.5428 -0.9365
 1436SOL     OW 5920   8.735   8.111   1.413 -0.4376 -0.1763 -0.3629
 1436SOL    HW1 5921   8.731   8.125   1.319  2.2991  0.5230 -0.4550
 1436SOL    HW2 5922   8.785   8.029   1.423  0.9282  0.7007  0.4405
 1437SOL     OW 5923   4.171   7.174   1.293 -0.1759 -0.0966  0.7553
 1437SOL    HW1 5924   4.139   7.198   1.207  0.0078  2.0487  1.2314
 1437SOL    HW2 5925   4.127   7.234   1.353  1.5466  0.1222  1.8814
 1438SOL     OW 5926   6.347   5.754   1.613  0.0941  0.6970  0.1160
 1438SOL    HW1 5927   6.305   5.803   1.684  0.4034  0.5656  0.3929
 1438SOL    HW2 5928   6.280   5.694   1.582 -0.5211  1.7866 -0.7109
 1439SOL     OW 5929   6.033   7.070   1.785  0.1023  0.3016  0.4515
 1439SOL    HW1 5930   6.058   6.991   1.738 -0.9609  0.6078 -0.6727
 1439SOL    HW2 5931   6.015   7.039   1.874 -0.8181 -0.8377 -0.0987
 1440SOL     OW 5932   3.532   2.390   2.848 -0.3648  0.3584  0.5190
 1440SOL    HW1 5933   3.466   2.328   2.818  1.3799 -1.2133 -0.3392
 1440SOL    HW2 5934   3.567   2.352   2.928 -1.0625  1.6318  1.4717
 1441SOL     OW 5935   3.154   4.899   8.473 -0.0690  0.1855  0.5927
 1441SOL    HW1 5936   3.150   4.906   8.378  3.0728 -2.0968  0.1250
 1441SOL    HW2 5937   3.214   4.969   8.500  3.5819 -2.4152  0.0256
 1442SOL     OW 5938   9.796   8.419   7.965  0.1491 -0.7186  0.1685
 1442SOL    HW1 5939   9.730   8.468   7.917  0.7265 -0.0773  0.0156
 1442SOL    HW2 5940   9.870   8.413   7.905  1.5959  1.6966  1.5720
 1443SOL     OW 5941   8.320   7.928   0.513 -0.3533 -0.2763 -0.3705
 1443SOL    HW1 5942   8.349   7.845   0.475 -0.7045 -0.0465 -1.1709
 1443SOL    HW2 5943   8.340   7.993   0.445 -0.1065  0.2869  0.2405
 1444SOL     OW 5944   8.188   6.289   4.159 -0.4388 -0.2932 -0.8916
 1444SOL    HW1 5945   8.120   6.281   4.092 -1.1704 -0.4182 -0.1353
 1444SOL    HW2 5946   8.207   6.199   4.185 -0.1893 -0.2400 -0.8853
 1445SOL     OW 5947   2.373   8.397   8.347 -0.0168 -0.5046  0.3190
 1445SOL    HW1 5948   2.400   8.434   8.431 -1.6482 -1.7233  1.4573
 1445SOL    HW2 5949   2.452   8.355   8.313  1.4582  2.4424 -0.2521
 1446SOL     OW 5950   6.908   5.868   2.601 -0.3590  0.6783 -0.4526
 1446SOL    HW1 5951   6.954   5.935   2.550  0.0714  0.5635 -0.2141
 1446SOL    HW2 5952   6.901   5.906   2.689  0.4115  0.1660 -0.1647
 1447SOL     OW 5953   5.062   6.812   6.026 -0.1797 -0.4535  0.3807
 1447SOL    HW1 5954   4.972   6.820   6.059 -0.2148 -1.1485  0.4597
 1447SOL    HW2 5955   5.080   6.718   6.027  0.5801 -0.3126  0.4430
 1448SOL     OW 5956   8.664   4.397   2.725  0.5682  0.5135  0.1507
 1448SOL    HW1 5957   8.749   4.382   2.686  0.0325 -0.2852 -0.7483
 1448SOL    HW2 5958   8.612   4.437   2.655  0.4869  1.9363  0.9924
 1449SOL     OW 5959   6.451   9.418   1.138 -0.1491 -0.2497 -0.8751
 1449SOL    HW1 5960   6.511   9.353   1.173 -1.7885 -1.4600 -0.1880
 1449SOL    HW2 5961   6.490   9.444   1.054  1.9490 -0.0034  0.1099
 1450SOL     OW 5962   3.170   0.898   2.928 -0.0704  0.2733 -0.0098
 1450SOL    HW1 5963   3.264   0.884   2.921 -0.3076 -1.4049 -0.3178
 1450SOL    HW2 5964   3.156   0.922   3.020  0.5372 -0.6664  0.3402
 1451SOL     OW 5965   6.317   3.833   7.762 -0.3931  0.0878 -0.2379
 1451SOL    HW1 5966   6.397   3.842   7.710 -0.3194 -0.8545 -0.3168
 1451SOL    HW2 5967   6.248   3.874   7.710 -0.0551  0.4442 -0.4051
 1452SOL     OW 5968   4.647   2.968   1.960 -0.1042  0.9374 -0.8421
 1452SOL    HW1 5969   4.722   2.939   1.909 -1.2689 -1.5704 -1.2936
 1452SOL    HW2 5970   4.572   2.927   1.917 -1.2587 -0.3292  2.1375
 1453SOL     OW 5971   7.695   5.071   6.778  0.1870  0.2367  0.3362
 1453SOL    HW1 5972   7.758   5.096   6.710  0.3384 -1.4942 -0.2031
 1453SOL    HW2 5973   7.719   4.981   6.801 -1.4094 -0.0700  0.9034
 1454SOL     OW 5974   3.753   1.814   7.476  0.1739 -0.2181  0.4535
 1454SOL    HW1 5975   3.807   1.884   7.512 -0.3906  0.6744 -0.3819
 1454SOL    HW2 5976   3.814   1.743   7.458  1.3052  1.1187 -1.4133
 1455SOL     OW 5977   6.312   3.723   7.352 -0.5802  0.2921  0.0244
 1455SOL    HW1 5978   6.239   3.699   7.295 -1.4550  0.6427  0.9874
 1455SOL    HW2 5979   6.274   3.782   7.417  1.0218  2.4469 -0.8587
 1456SOL     OW 5980   5.329   1.920   6.828  0.1699 -0.1541  0.5424
 1456SOL    HW1 5981   5.294   1.878   6.907  0.8288  0.5088  1.2153
 1456SOL    HW2 5982   5.381   1.994   6.862  1.5336 -0.6228 -0.4487
 1457SOL     OW 5983   2.541   0.293   5.603  0.5129  0.0076 -0.0201
 1457SOL    HW1 5984   2.549   0.265   5.694 -1.6173  0.5770  0.4195
 1457SOL    HW2 5985   2.539   0.389   5.608 -2.0136  0.0446 -0.3134
 1458SOL     OW 5986   5.788   2.325   3.230  0.2221 -0.1180  0.3461
 1458SOL    HW1 5987   5.727   2.294   3.162  0.0836  1.5660 -0.3410
 1458SOL    HW2 5988   5.739   2.318   3.311 -0.1737 -0.6541  0.0698
 1459SOL     OW 5989   6.440   2.966   5.263 -0.2849 -0.8277  0.5602
 1459SOL    HW1 5990   6.353   2.997   5.237 -0.0167 -0.8765 -0.4283
 1459SOL    HW2 5991   6.432   2.948   5.357 -1.6571 -1.8693  0.2696
 1460SOL     OW 5992   2.728   7.957   4.476  0.1843 -0.2184 -0.7852
 1460SOL    HW1 5993   2.680   8.029   4.434 -1.2986 -0.4100  0.4946
 1460SOL    HW2 5994   2.771   7.998   4.551  3.3542  0.2565 -2.6460
 1461SOL     OW 5995   9.824   6.096   0.914 -0.7198  0.2047  0.5744
 1461SOL    HW1 5996   9.777   6.019   0.947  0.0137 -0.2378  0.5850
 1461SOL    HW2 5997   9.782   6.169   0.959 -1.1245 -0.2233  0.9063
 1462SOL     OW 5998   5.198   8.662   3.915  0.0467  0.1718 -0.2572
 1462SOL    HW1 5999   5.231   8.675   4.003 -0.9778 -2.1512  0.5605
 1462SOL    HW2 6000   5.173   8.749   3.885  1.0597  1.0996  1.4741
 1463SOL     OW 6001   0.066   5.966   5.089  0.0031 -0.2071  0.3992
 1463SOL    HW1 6002   0.057   6.049   5.134  0.8989 -0.0110  0.2289
 1463SOL    HW2 6003  -0.023   5.931   5.086 -0.2212  0.2376  1.4147
 1464SOL     OW 6004   7.748   6.113   1.386 -0.4108 -0.1061 -0.4870
 1464SOL    HW1 6005   7.823   6.138   1.439 -1.2722  0.0905  0.6644
 1464SOL    HW2 6006   7.750   6.017   1.385 -1.6101 -0.1996  1.7517
 1465SOL     OW 6007   7.258   2.904   0.595 -0.2914 -0.3116  0.5984
 1465SOL    HW1 6008   7.235   2.922   0.504  0.5024 -0.2589  0.3967
 1465SOL    HW2 6009   7.179   2.865   0.633 -1.2139  1.2398  0.3639
 1466SOL     OW 6010   7.072   4.545   7.397  0.0386 -0.2154  0.0880
 1466SOL    HW1 6011   7.138   4.591   7.449  0.2745  0.2249 -0.5796
 1466SOL    HW2 6012   7.015   4.615   7.363 -0.0664 -0.4854 -0.2970
 1467SOL     OW 6013   3.698   7.644   0.710  0.1417  0.2099 -0.4059
 1467SOL    HW1 6014   3.743   7.697   0.777 -0.8163 -1.0026  1.2844
 1467SOL    HW2 6015   3.660   7.708   0.651  1.8355  1.3158 -0.3781
 1468SOL     OW 6016   7.677   1.406   1.000 -0.0496  0.0970  0.0907
 1468SOL    HW1 6017   7.750   1.344   1.001  1.4892  1.8461 -0.1492
 1468SOL    HW2 6018   7.671   1.436   0.909 -0.1475  1.0169  0.3908
 1469SOL     OW 6019   8.587   3.282   5.025 -0.2717  0.8112  0.1592
 1469SOL    HW1 6020   8.635   3.202   5.046  0.0848  1.0122  0.1126
 1469SOL    HW2 6021   8.509   3.251   4.978  0.2629  0.5306 -0.5774
 1470SOL     OW 6022   4.459   8.324   1.416  0.3200  0.3013  0.7324
 1470SOL    HW1 6023   4.502   8.257   1.470 -1.1992 -0.0110  1.6052
 1470SOL    HW2 6024   4.430   8.390   1.479 -4.2752 -1.5381  0.9409
 1471SOL     OW 6025   1.005   6.045   6.334 -0.2835 -0.1212  0.6953
 1471SOL    HW1 6026   0.926   5.994   6.315  1.1313 -1.9322 -0.6926
 1471SOL    HW2 6027   1.028   6.020   6.424  0.2932 -1.8998  0.1001
 1472SOL     OW 6028   6.977   5.902   5.298  0.1984  0.2000 -0.0777
 1472SOL    HW1 6029   6.911   5.898   5.229 -0.4317  0.1794  0.5137
 1472SOL    HW2 6030   7.016   5.989   5.289 -1.1853  0.9246  0.7175
 1473SOL     OW 6031   0.302   5.354   6.119 -0.1424 -0.5455 -0.3869
 1473SOL    HW1 6032   0.254   5.433   6.143  0.3656 -0.5016  0.5531
 1473SOL    HW2 6033   0.237   5.285   6.117 -0.1948 -0.5733  1.3022
 1474SOL     OW 6034   1.646   8.201   5.214  0.0471  0.0557  0.0212
 1474SOL    HW1 6035   1.643   8.215   5.309  1.4193 -0.5235  0.1772
 1474SOL    HW2 6036   1.597   8.120   5.201 -0.5079  0.3615  0.1799
 1475SOL     OW 6037   9.572   2.138   0.779 -0.4718 -0.3390 -0.1959
 1475SOL    HW1 6038   9.514   2.064   0.760 -2.7527  1.0151  1.1641
 1475SOL    HW2 6039   9.561   2.197   0.705 -1.3706  0.2218  0.3761
 1476SOL     OW 6040   8.560   6.450   5.541 -0.1530  0.4622  0.5329
 1476SOL    HW1 6041   8.546   6.365   5.582 -0.2740 -1.5596 -3.2696
 1476SOL    HW2 6042   8.477   6.496   5.553 -1.7867 -1.8247 -1.1739
 1477SOL     OW 6043   1.401   1.525   8.043 -0.1442 -0.2272  0.0879
 1477SOL    HW1 6044   1.322   1.520   7.990 -0.9395  1.0803  1.1038
 1477SOL    HW2 6045   1.414   1.436   8.075 -1.4494 -0.3666  0.2572
 1478SOL     OW 6046   5.200   2.371   0.101  0.2334 -0.3659 -0.5002
 1478SOL    HW1 6047   5.254   2.435   0.148  1.9127  0.3487 -3.1500
 1478SOL    HW2 6048   5.258   2.296   0.089  0.0169 -0.3490 -1.7556
 1479SOL     OW 6049   7.047   8.717   2.045  0.6332 -0.0570  0.0898
 1479SOL    HW1 6050   7.121   8.657   2.042  0.7727  0.1155  0.0827
 1479SOL    HW2 6051   7.085   8.802   2.067  0.4877  0.1112 -0.2922
 1480SOL     OW 6052   2.181   0.276   9.241 -0.1270 -0.1121 -0.0190
 1480SOL    HW1 6053   2.270   0.261   9.210 -0.2117 -1.7426  0.4201
 1480SOL    HW2 6054   2.132   0.199   9.213 -0.9082 -0.2177  1.4985
 1481SOL     OW 6055   3.637   5.581   7.550 -0.5157  0.1371  0.0114
 1481SOL    HW1 6056   3.714   5.624   7.586 -1.4350  1.3205  0.6433
 1481SOL    HW2 6057   3.565   5.611   7.606 -1.4508 -0.8377 -0.6421
 1482SOL     OW 6058   7.102   4.019   7.245  0.0231  0.6988 -0.0129
 1482SOL    HW1 6059   7.104   4.114   7.256  0.1818  0.9063 -1.5787
 1482SOL    HW2 6060   7.194   3.992   7.248  0.0528  0.7316 -0.4659
 1483SOL     OW 6061   8.218   0.009   5.324  0.7288 -0.2761  0.5186
 1483SOL    HW1 6062   8.228   0.105   5.326 -0.4035 -0.1628  1.8734
 1483SOL    HW2 6063   8.124  -0.005   5.314  0.8387 -1.2557  0.8447
 1484SOL     OW 6064   4.730   5.802   9.306 -0.0359 -0.4575  0.0464
 1484SOL    HW1 6065   4.647   5.768   9.274 -0.6114  0.5604  0.4032
 1484SOL    HW2 6066   4.743   5.883   9.258  0.0714  0.0772  0.9496
 1485SOL     OW 6067   4.534   1.928   2.555  0.1814 -0.1220  0.0697
 1485SOL    HW1 6068   4.567   1.843   2.526  0.7300 -0.0242  0.4054
 1485SOL    HW2 6069   4.556   1.987   2.483  2.0500  0.2346  0.8745
 1486SOL     OW 6070   8.318   2.208   4.759  0.2201  0.4341 -0.6299
 1486SOL    HW1 6071   8.319   2.142   4.691 -2.7176 -0.7417  0.3171
 1486SOL    HW2 6072   8.232   2.198   4.801  0.4550  3.5257  0.8600
 1487SOL     OW 6073   4.725   1.161   3.754 -0.3888 -0.2735  0.3612
 1487SOL    HW1 6074   4.752   1.138   3.666 -1.2056  0.4598 -0.0975
 1487SOL    HW2 6075   4.806   1.164   3.804 -0.1926 -6.2016  1.1094
 1488SOL     OW 6076   3.354   2.171   2.631 -0.1781  0.1654  0.1276
 1488SOL    HW1 6077   3.315   2.173   2.718  0.1832  0.7234  0.2802
 1488SOL    HW2 6078   3.281   2.149   2.573 -0.0523 -2.0955  0.7545
 1489SOL     OW 6079   3.006   0.244   6.792  0.0660 -0.1893 -0.4230
 1489SOL    HW1 6080   2.983   0.235   6.699 -0.7851 -0.8253 -0.1694
 1489SOL    HW2 6081   3.041   0.333   6.800 -0.7810  0.2309 -1.1785
 1490SOL     OW 6082   6.480   5.794   8.565  0.4950  0.2857  0.2450
 1490SOL    HW1 6083   6.561   5.750   8.592 -0.5770 -1.9929 -0.0085
 1490SOL    HW2 6084   6.411   5.737   8.597 -1.0549  2.1204  0.3512
 1491SOL     OW 6085   3.759   1.126   1.615  0.3233  0.4812 -0.2736
 1491SOL    HW1 6086   3.672   1.120   1.653 -0.0559  0.8115 -1.0650
 1491SOL    HW2 6087   3.805   1.049   1.648  0.6634  1.7253  2.4035
 1492SOL     OW 6088   3.924   1.287   9.112  0.7008 -0.1423 -0.5191
 1492SOL    HW1 6089   3.872   1.326   9.041 -1.7446 -0.7596  0.8121
 1492SOL    HW2 6090   3.949   1.201   9.078  0.3577 -0.0661 -0.9769
 1493SOL     OW 6091   5.013   4.995   4.602 -0.0116 -0.4271 -0.8026
 1493SOL    HW1 6092   4.985   4.955   4.519 -1.1840 -0.1278 -0.5742
 1493SOL    HW2 6093   5.084   5.054   4.576 -0.3918 -0.2992 -1.6099
 1494SOL     OW 6094   2.538   3.435   7.932 -0.0200 -0.2766  0.1939
 1494SOL    HW1 6095   2.458   3.485   7.945  1.3677  2.5931 -1.2304
 1494SOL    HW2 6096   2.608   3.501   7.934  2.0291 -2.2171 -1.4500
 1495SOL     OW 6097   3.164   3.236   3.207 -0.5014 -0.2878  0.0571
 1495SOL    HW1 6098   3.235   3.197   3.155 -0.2674  1.5957 -1.1443
 1495SOL    HW2 6099   3.209   3.271   3.284 -0.2620  0.0681 -0.2388
 1496SOL     OW 6100   5.096   4.210   1.749  0.3414 -0.8349  0.2648
 1496SOL    HW1 6101   5.083   4.252   1.664  2.0938 -0.9245 -0.0871
 1496SOL    HW2 6102   5.061   4.273   1.812 -0.5636 -0.5668 -0.4816
 1497SOL     OW 6103   4.139   3.644   8.841 -0.0199  0.0075 -0.2296
 1497SOL    HW1 6104   4.071   3.581   8.815 -2.3307  1.9009  0.8777
 1497SOL    HW2 6105   4.141   3.707   8.769 -1.1750  1.2337  0.7669
 1498SOL     OW 6106   8.569   0.767   9.476  0.6680 -0.1821 -0.4895
 1498SOL    HW1 6107   8.654   0.723   9.490 -0.3771 -2.2363 -0.1763
 1498SOL    HW2 6108   8.508   0.719   9.532 -0.9054  0.5707 -1.4846
 1499SOL     OW 6109   2.361   7.718   5.212 -0.0892  0.7853  0.0182
 1499SOL    HW1 6110   2.392   7.756   5.294 -0.6874  0.6917  0.2927
 1499SOL    HW2 6111   2.439   7.711   5.157 -0.1362  3.5768 -0.5302
 1500SOL     OW 6112   3.949   6.798   1.899  0.5425 -0.5802 -0.0309
 1500SOL    HW1 6113   3.977   6.862   1.834 -0.0525 -0.7846 -0.5026
 1500SOL    HW2 6114   4.025   6.742   1.912  0.8332 -0.2224 -0.1559
 1501SOL     OW 6115   5.317   7.466   0.814  0.0824 -0.1872 -0.0745
 1501SOL    HW1 6116   5.390   7.404   0.821 -0.6655 -0.9175  3.0231
 1501SOL    HW2 6117   5.318   7.514   0.897 -1.9635  0.9298 -0.6248
 1502SOL     OW 6118   2.529   8.814   3.276 -0.1407  0.0668 -0.2002
 1502SOL    HW1 6119   2.595   8.876   3.305 -2.0716  2.0860  0.0927
 1502SOL    HW2 6120   2.485   8.786   3.356 -0.0829 -0.7835 -0.4510
 1503SOL     OW 6121   8.536   9.379   0.002 -0.4544 -0.0197 -0.2075
 1503SOL    HW1 6122   8.523   9.285  -0.010  0.5848 -0.3417  0.8908
 1503SOL    HW2 6123   8.629   9.393  -0.016 -0.7132  0.9079 -0.9177
 1504SOL     OW 6124   4.475   6.722   5.699 -0.3736 -0.0984  0.0313
 1504SOL    HW1 6125   4.535   6.659   5.739 -2.3537 -1.4798  1.0061
 1504SOL    HW2 6126   4.447   6.682   5.617 -1.5653 -0.5007  0.6049
 1505SOL     OW 6127   8.958   9.212   3.975  0.4878 -0.0384  0.1709
 1505SOL    HW1 6128   8.925   9.237   4.062 -0.6951 -0.2916 -0.1877
 1505SOL    HW2 6129   9.016   9.283   3.950 -0.3936  0.8164  0.5005
 1506SOL     OW 6130   6.196   6.971   6.720 -0.2251  0.7190  0.2246
 1506SOL    HW1 6131   6.288   6.954   6.702 -0.7339 -0.2822 -1.6287
 1506SOL    HW2 6132   6.160   7.000   6.636 -1.6339  0.9723  0.8901
 1507SOL     OW 6133   1.286   3.334   5.174  0.2458  0.4325  0.1587
 1507SOL    HW1 6134   1.267   3.246   5.206 -0.1874 -0.3174 -1.9553
 1507SOL    HW2 6135   1.371   3.325   5.129 -0.0794  0.9242 -0.5819
 1508SOL     OW 6136   1.857   5.254   1.594 -0.3540 -0.2960  0.1531
 1508SOL    HW1 6137   1.806   5.174   1.603  0.7506 -0.9478  0.7672
 1508SOL    HW2 6138   1.894   5.269   1.681  1.5584 -0.5687 -0.5764
 1509SOL     OW 6139   2.666   3.141   4.616  0.0248 -0.1076  0.0648
 1509SOL    HW1 6140   2.696   3.151   4.707  0.0567 -0.6976  0.1290
 1509SOL    HW2 6141   2.582   3.095   4.624 -0.7597  1.2581 -0.1329
 1510SOL     OW 6142   5.739   1.709   8.444 -0.1651  0.9693 -0.1016
 1510SOL    HW1 6143   5.792   1.770   8.392 -1.1035  1.2797 -0.7121
 1510SOL    HW2 6144   5.698   1.764   8.510 -1.0184  1.0125 -0.6568
 1511SOL     OW 6145   9.232   0.427   9.394  0.1747 -0.6887 -0.7767
 1511SOL    HW1 6146   9.155   0.370   9.389 -0.6204  0.1209  1.1348
 1511SOL    HW2 6147   9.285   0.402   9.319 -0.7186 -3.0807 -0.6990
 1512SOL     OW 6148   0.044   2.050   0.664 -0.6339 -0.3206  0.1189
 1512SOL    HW1 6149   0.111   2.114   0.687  2.3813 -3.0028 -0.3059
 1512SOL    HW2 6150  -0.004   2.090   0.592  0.0529  1.9982  0.8646
 1513SOL     OW 6151   1.611   0.846   5.703 -0.3104  0.3635  0.5695
 1513SOL    HW1 6152   1.528   0.832   5.747 -0.3773 -0.0683  0.3101
 1513SOL    HW2 6153   1.656   0.912   5.756 -1.0549  1.0267  0.3882
 1514SOL     OW 6154   7.673   6.022   0.099  0.1176  0.1174  0.1923
 1514SOL    HW1 6155   7.691   5.950   0.039  3.3170 -0.2605  1.3919
 1514SOL    HW2 6156   7.697   5.987   0.186 -2.5100  1.2516  1.4700
 1515SOL     OW 6157   6.940   5.327   9.006  0.3575  0.0660  0.2924
 1515SOL    HW1 6158   6.983   5.295   9.085  0.7602  2.1650  0.9949
 1515SOL    HW2 6159   6.870   5.383   9.038  1.1264  1.7231 -0.7902
 1516SOL     OW 6160   9.347   0.824   6.351  0.5284  0.0224  0.6262
 1516SOL    HW1 6161   9.255   0.842   6.334  0.2893 -0.4731  1.3331
 1516SOL    HW2 6162   9.395   0.890   6.301 -0.1298 -1.1087 -1.5945
 1517SOL     OW 6163   3.810   4.662   2.550 -0.4140  0.0152 -0.2368
 1517SOL    HW1 6164   3.815   4.722   2.476  0.9017 -0.2764 -0.4032
 1517SOL    HW2 6165   3.824   4.575   2.512  0.8608 -0.0839  0.4101
 1518SOL     OW 6166   9.760   2.099   4.986 -0.2793 -0.2092 -1.1865
 1518SOL    HW1 6167   9.719   2.091   5.072  0.6390  0.7254 -0.6420
 1518SOL    HW2 6168   9.719   2.030   4.933  1.0386 -2.6182  0.7130
 1519SOL     OW 6169   7.248   1.810   5.734  0.0910 -0.0203  0.4772
 1519SOL    HW1 6170   7.255   1.856   5.818  0.5383  1.3718 -0.2886
 1519SOL    HW2 6171   7.337   1.811   5.699  0.7178 -3.8286  1.5586
 1520SOL     OW 6172   3.158   6.671   9.472  0.5534  0.0899 -0.3506
 1520SOL    HW1 6173   3.146   6.734   9.401  1.8966  0.7874  0.0227
 1520SOL    HW2 6174   3.209   6.600   9.433  2.3049  1.0117  0.1712
 1521SOL     OW 6175   5.869   8.848   0.972  0.0902 -0.2989  0.0788
 1521SOL    HW1 6176   5.884   8.899   0.893  3.1918  1.7732  1.8033
 1521SOL    HW2 6177   5.807   8.899   1.024  0.1628 -0.2861  0.1533
 1522SOL     OW 6178   6.465   2.703   3.572 -0.1194 -0.1152 -0.0815
 1522SOL    HW1 6179   6.373   2.687   3.549 -0.2226 -0.8219  0.7649
 1522SOL    HW2 6180   6.508   2.619   3.556  0.8336  0.7457 -2.4415
 1523SOL     OW 6181   3.944   7.376   9.616 -0.0850  0.0350 -0.1334
 1523SOL    HW1 6182   3.866   7.383   9.561  0.5836  2.0362 -0.9110
 1523SOL    HW2 6183   4.017   7.389   9.555  0.9948 -2.8027  0.3764
 1524SOL     OW 6184   7.557   2.985   5.882 -0.2743 -0.6652 -0.0086
 1524SOL    HW1 6185   7.487   3.003   5.945  0.7154  2.0580  0.4599
 1524SOL    HW2 6186   7.512   2.943   5.808 -2.0683 -0.7348  1.0584
 1525SOL     OW 6187   5.272   7.932   5.869 -0.4885  0.5143  0.5496
 1525SOL    HW1 6188   5.313   7.847   5.853  0.5849  0.9025  1.1460
 1525SOL    HW2 6189   5.182   7.922   5.837 -0.4538 -0.9205  0.8483
 1526SOL     OW 6190   1.200   3.874   7.526 -0.6432 -0.6120 -0.1283
 1526SOL    HW1 6191   1.155   3.791   7.513 -0.7295 -0.4888 -0.6732
 1526SOL    HW2 6192   1.130   3.938   7.537 -0.5902 -0.5145 -0.3540
 1527SOL     OW 6193   1.675   6.116   8.522 -0.4429  0.2565 -0.0142
 1527SOL    HW1 6194   1.640   6.125   8.611  0.5981  0.5069  0.3859
 1527SOL    HW2 6195   1.692   6.023   8.511  2.5289  0.5111  1.3324
 1528SOL     OW 6196   3.689   0.969   7.887 -0.1614  0.3784 -0.3101
 1528SOL    HW1 6197   3.712   1.028   7.959 -0.0835  1.2674 -1.0413
 1528SOL    HW2 6198   3.769   0.920   7.869  0.2494  1.1756 -0.7219
 1529SOL     OW 6199   7.711   2.538   6.104  0.1900 -0.0156  0.0073
 1529SOL    HW1 6200   7.620   2.566   6.098 -0.2911 -0.8716  2.2477
 1529SOL    HW2 6201   7.723   2.480   6.029 -1.1334  0.0619 -0.2873
 1530SOL     OW 6202   5.931   3.310   9.462  0.4098  0.3646 -0.4730
 1530SOL    HW1 6203   5.880   3.276   9.535  1.7995 -1.1627 -0.1660
 1530SOL    HW2 6204   5.900   3.260   9.386  2.0346 -1.3062 -0.1215
 1531SOL     OW 6205   7.204   5.532   9.242 -0.4623  0.2358  0.3279
 1531SOL    HW1 6206   7.190   5.565   9.331  1.0393  1.0585  0.3077
 1531SOL    HW2 6207   7.160   5.596   9.186  1.7624  1.8898  0.3340
 1532SOL     OW 6208   3.759   2.390   6.803  0.3840  0.3801 -0.2454
 1532SOL    HW1 6209   3.745   2.295   6.810  0.2038  0.2762 -1.6429
 1532SOL    HW2 6210   3.848   2.399   6.769  0.1392  0.6735 -0.8278
 1533SOL     OW 6211   1.230   9.594   9.115  0.3716  0.1687 -0.0705
 1533SOL    HW1 6212   1.298   9.639   9.065 -1.3381  0.8064 -1.9542
 1533SOL    HW2 6213   1.207   9.519   9.061  0.4753 -0.7955  1.1936
 1534SOL     OW 6214   8.540   1.555   3.378 -0.7109  0.0149  0.2700
 1534SOL    HW1 6215   8.620   1.513   3.408 -0.2837 -0.8493 -1.8817
 1534SOL    HW2 6216   8.559   1.649   3.381 -0.2607 -0.0960  1.3861
 1535SOL     OW 6217   1.100   5.855   3.834  0.3734 -0.1246  0.1462
 1535SOL    HW1 6218   1.145   5.800   3.769 -1.2414 -2.5405  0.9444
 1535SOL    HW2 6219   1.037   5.797   3.875 -0.0772  1.8628  2.4951
 1536SOL     OW 6220   0.792   5.400   2.103  0.1183 -0.5144 -0.3968
 1536SOL    HW1 6221   0.797   5.304   2.108  1.4070 -0.4127  0.9180
 1536SOL    HW2 6222   0.852   5.422   2.031  1.8122 -0.5978  0.9205
 1537SOL     OW 6223   1.956   2.305   8.312 -0.2137 -0.4865 -0.1899
 1537SOL    HW1 6224   1.903   2.226   8.306 -1.9275  0.6391 -0.3885
 1537SOL    HW2 6225   1.979   2.325   8.222 -1.3820  0.2727 -0.3323
 1538SOL     OW 6226   9.367   8.978   3.294 -0.7101  0.3953  0.3397
 1538SOL    HW1 6227   9.458   8.947   3.300 -0.7938  0.1020  0.1120
 1538SOL    HW2 6228   9.314   8.899   3.306 -0.9620  0.7446  1.6811
 1539SOL     OW 6229   6.695   8.870   9.642  0.7260 -0.1569 -0.4226
 1539SOL    HW1 6230   6.663   8.911   9.723 -1.3191 -3.2919  0.5526
 1539SOL    HW2 6231   6.616   8.857   9.589  1.5306 -1.2235 -1.4199
 1540SOL     OW 6232   8.511   6.196   6.645 -0.2676  0.0604  0.0082
 1540SOL    HW1 6233   8.436   6.199   6.705 -0.1014  1.7587  0.1780
 1540SOL    HW2 6234   8.490   6.125   6.585 -1.7698  0.1394  0.3776
 1541SOL     OW 6235   2.467   8.909   3.042  0.1199  0.2773 -0.1786
 1541SOL    HW1 6236   2.510   8.870   3.118 -0.5643 -0.4445 -0.1470
 1541SOL    HW2 6237   2.397   8.848   3.020 -1.1961  1.6307  0.0489
 1542SOL     OW 6238   3.804   8.934   4.608 -0.1211  0.2197 -0.5934
 1542SOL    HW1 6239   3.787   9.022   4.576 -0.9230 -0.4433 -2.1072
 1542SOL    HW2 6240   3.894   8.937   4.642 -0.2972  1.7029 -0.2295
 1543SOL     OW 6241   5.427   5.750   4.526 -0.4080 -0.0876  0.3328
 1543SOL    HW1 6242   5.379   5.808   4.585 -1.9167 -1.1700  0.2404
 1543SOL    HW2 6243   5.455   5.806   4.454 -1.7348  0.5701  0.3010
 1544SOL     OW 6244   2.038   1.150   9.597  0.1591 -0.0791  0.7635
 1544SOL    HW1 6245   1.994   1.074   9.635  0.7896 -1.4660 -1.1315
 1544SOL    HW2 6246   2.075   1.118   9.515  1.2398  2.0639  0.3390
 1545SOL     OW 6247   1.156   5.426   5.870  0.4787 -0.0816 -0.0180
 1545SOL    HW1 6248   1.086   5.362   5.856  1.1306 -1.0559  1.0363
 1545SOL    HW2 6249   1.147   5.451   5.962  2.6133 -1.5839  0.6441
 1546SOL     OW 6250   2.586   9.535   6.189  0.1146 -0.1792  0.2787
 1546SOL    HW1 6251   2.597   9.453   6.238  0.3063 -0.2221  0.1659
 1546SOL    HW2 6252   2.663   9.587   6.210 -0.0981  0.0512  0.4959
 1547SOL     OW 6253   4.234   3.494   5.514  0.2268  0.1043 -0.1147
 1547SOL    HW1 6254   4.200   3.514   5.427  2.6972  1.0362 -0.9415
 1547SOL    HW2 6255   4.206   3.403   5.530  0.7380 -0.5274 -2.4151
 1548SOL     OW 6256   4.679   8.870   9.438  0.1794  0.0618 -0.2443
 1548SOL    HW1 6257   4.746   8.912   9.491  0.0189  0.5024 -0.3861
 1548SOL    HW2 6258   4.596   8.896   9.478  0.0643  0.2132 -0.5744
 1549SOL     OW 6259   9.457   4.691   0.811  0.3471  0.2011 -0.2019
 1549SOL    HW1 6260   9.481   4.645   0.891  1.4341  1.7529  0.4185
 1549SOL    HW2 6261   9.382   4.744   0.835  0.6127  0.5928 -0.2262
 1550SOL     OW 6262   6.205   1.232   8.778  0.7633  0.3224 -0.8661
 1550SOL    HW1 6263   6.253   1.230   8.695  1.1189  0.3898 -0.6618
 1550SOL    HW2 6264   6.252   1.170   8.834 -0.4622 -1.0133 -1.2495
 1551SOL     OW 6265   5.290   0.800   9.753  0.9286 -0.4887 -0.4542
 1551SOL    HW1 6266   5.362   0.794   9.817 -0.3636 -3.8536  0.8937
 1551SOL    HW2 6267   5.218   0.838   9.803  1.1775  1.2190 -1.3187
 1552SOL     OW 6268   1.520   5.162   1.172  0.3249  0.3443 -0.3431
 1552SOL    HW1 6269   1.520   5.233   1.236  2.2760  1.8376 -1.8707
 1552SOL    HW2 6270   1.611   5.154   1.145 -0.1358 -1.5653 -1.5231
 1553SOL     OW 6271   7.082   5.326   6.780  0.6817  0.2627 -0.2923
 1553SOL    HW1 6272   7.108   5.379   6.856  1.8287 -0.0073 -0.4736
 1553SOL    HW2 6273   7.014   5.378   6.737  0.8752  0.9913  0.2583
 1554SOL     OW 6274   1.404   8.656   6.169  0.2955 -0.1114  0.3947
 1554SOL    HW1 6275   1.489   8.691   6.144  0.8633 -1.2395  0.6699
 1554SOL    HW2 6276   1.412   8.562   6.154 -0.5405 -0.3638  1.4145
 1555SOL     OW 6277   2.190   7.428   6.307  0.6362  0.3082  0.0935
 1555SOL    HW1 6278   2.186   7.467   6.394  0.2573  0.5842 -0.0406
 1555SOL    HW2 6279   2.100   7.433   6.275  0.4905 -1.0507  0.2283
 1556SOL     OW 6280   4.953   4.198   9.035  0.0974  0.0900 -0.1640
 1556SOL    HW1 6281   4.882   4.259   9.015 -0.4256 -0.2354  0.6393
 1556SOL    HW2 6282   4.945   4.129   8.969 -0.6062 -0.1571  0.1670
 1557SOL     OW 6283   8.673   7.937   4.656  0.2028 -0.1754 -0.0050
 1557SOL    HW1 6284   8.661   8.028   4.630  1.6045  0.4982  1.5544
 1557SOL    HW2 6285   8.663   7.887   4.575 -3.0412  1.0824 -0.5144
 1558SOL     OW 6286   8.141   8.848   0.339 -0.3832  0.0599 -0.7061
 1558SOL    HW1 6287   8.219   8.826   0.390 -0.2594 -0.2129 -1.0104
 1558SOL    HW2 6288   8.068   8.811   0.389 -0.3187  0.3141 -0.4217
 1559SOL     OW 6289   4.244   1.187   8.846 -0.0228  0.2198  0.0434
 1559SOL    HW1 6290   4.164   1.148   8.881 -0.2825  0.5112 -0.2172
 1559SOL    HW2 6291   4.242   1.164   8.753  0.2931  0.0686  0.0730
 1560SOL     OW 6292   9.698   7.581   6.422  0.2312 -0.5792 -0.1907
 1560SOL    HW1 6293   9.704   7.669   6.459  0.9187 -0.9859  0.7220
 1560SOL    HW2 6294   9.769   7.576   6.358 -1.5255  0.4359 -2.3317
 1561SOL     OW 6295   4.570   7.620   8.586 -0.1573  0.0414  0.0067
 1561SOL    HW1 6296   4.603   7.576   8.507 -0.7041 -1.2641  0.4844
 1561SOL    HW2 6297   4.555   7.550   8.649 -0.1689  1.0192  1.1333
 1562SOL     OW 6298   8.830   3.720   5.211 -0.6901 -0.3137 -0.4360
 1562SOL    HW1 6299   8.735   3.728   5.204 -0.5942  1.0466 -0.4457
 1562SOL    HW2 6300   8.843   3.647   5.272 -1.8389  1.4604  2.1381
 1563SOL     OW 6301   1.009   4.209   7.948  0.0950 -0.1813 -0.3695
 1563SOL    HW1 6302   1.054   4.259   7.879 -0.6882  0.0635 -0.7162
 1563SOL    HW2 6303   0.943   4.158   7.901 -0.8797  0.4711  0.2437
 1564SOL     OW 6304   3.612   4.038   1.542 -0.7913 -0.2375 -0.2228
 1564SOL    HW1 6305   3.520   4.029   1.517 -1.9384 -1.0053  3.6684
 1564SOL    HW2 6306   3.642   3.949   1.556  0.4614  0.0414 -0.9328
 1565SOL     OW 6307   7.347   5.401   0.488 -0.4283 -0.7150  0.6872
 1565SOL    HW1 6308   7.255   5.412   0.510 -0.5655  0.2215 -0.2713
 1565SOL    HW2 6309   7.383   5.489   0.492  0.1089 -0.8764 -0.2595
 1566SOL     OW 6310   3.976   4.024   0.434  0.5714 -0.1549  0.5493
 1566SOL    HW1 6311   3.936   4.111   0.437  2.1695  0.5843  1.3600
 1566SOL    HW2 6312   3.954   3.984   0.518 -1.4848 -1.2288 -0.3937
 1567SOL     OW 6313   8.661   0.821   7.450  0.1188 -0.3392  0.3342
 1567SOL    HW1 6314   8.752   0.796   7.438  0.1649  0.5006 -1.3156
 1567SOL    HW2 6315   8.611   0.753   7.404  0.0895  0.7315 -1.2948
 1568SOL     OW 6316   8.406   6.187   7.185  0.1014 -0.4412 -0.1469
 1568SOL    HW1 6317   8.431   6.279   7.187  0.2482 -0.4556 -0.9015
 1568SOL    HW2 6318   8.311   6.188   7.173  0.2871 -0.3681 -1.8569
 1569SOL     OW 6319   0.094   5.126   5.770  0.0148 -0.0974  0.2019
 1569SOL    HW1 6320   0.147   5.090   5.841 -0.9141 -0.5116  0.7104
 1569SOL    HW2 6321   0.025   5.061   5.757  1.5743 -1.3185 -2.8635
 1570SOL     OW 6322   6.882   1.291   3.404 -0.0671 -0.0176 -0.4714
 1570SOL    HW1 6323   6.800   1.308   3.451  0.1955  0.3236 -0.1302
 1570SOL    HW2 6324   6.941   1.360   3.434  0.4393 -0.4378 -0.4889
 1571SOL     OW 6325   6.762   0.773   9.389  0.8367 -0.6835  0.3961
 1571SOL    HW1 6326   6.821   0.722   9.444  0.2491  2.3216  4.1628
 1571SOL    HW2 6327   6.813   0.849   9.362 -0.2825  0.2462  0.8360
 1572SOL     OW 6328   0.296   9.014   3.891 -0.4387  0.0726 -0.0301
 1572SOL    HW1 6329   0.369   8.956   3.914 -0.4123  0.0106 -0.2698
 1572SOL    HW2 6330   0.264   8.981   3.807 -0.8560 -0.0088  0.1557
 1573SOL     OW 6331   6.999   4.379   1.069  0.3735  0.3641  0.1076
 1573SOL    HW1 6332   7.075   4.368   1.011  0.2400  1.1102 -0.2215
 1573SOL    HW2 6333   7.023   4.331   1.148 -0.6819 -3.3528 -1.5911
 1574SOL     OW 6334   9.316   9.809   6.206 -0.6134 -0.0591  0.0262
 1574SOL    HW1 6335   9.333   9.777   6.295  0.5751  2.5482  0.8457
 1574SOL    HW2 6336   9.261   9.887   6.218  0.6961  1.1632 -1.3312
 1575SOL     OW 6337   6.622   2.594   4.558  0.0674 -0.6788 -0.2021
 1575SOL    HW1 6338   6.703   2.547   4.575  0.3579  0.4509  2.0291
 1575SOL    HW2 6339   6.553   2.527   4.560  0.7550 -1.3871 -0.1752
 1576SOL     OW 6340   1.652   9.842   6.011  0.8244  0.1543 -0.2207
 1576SOL    HW1 6341   1.636   9.896   6.089  0.3236 -0.8044  0.3529
 1576SOL    HW2 6342   1.716   9.777   6.040 -0.9301 -1.5486  0.0618
 1577SOL     OW 6343   7.191   5.798   4.102  0.3540  0.5213 -0.1799
 1577SOL    HW1 6344   7.180   5.815   4.195 -1.0334  1.9613 -0.5605
 1577SOL    HW2 6345   7.150   5.712   4.088 -0.0008  0.5863  0.4220
 1578SOL     OW 6346   9.217   9.794   7.719  0.7228  0.6088  0.0390
 1578SOL    HW1 6347   9.274   9.839   7.656  0.2654 -0.3530 -1.1114
 1578SOL    HW2 6348   9.179   9.722   7.669  0.7283 -0.5172  1.5712
 1579SOL     OW 6349   0.078   1.904   6.736 -0.1989 -0.0949  0.3937
 1579SOL    HW1 6350   0.049   1.987   6.699  2.1026  1.3144  1.5136
 1579SOL    HW2 6351   0.073   1.917   6.831  0.3428 -1.1712  0.5908
 1580SOL     OW 6352   1.232   4.393   5.351  0.7464 -0.0124 -0.3489
 1580SOL    HW1 6353   1.243   4.300   5.369 -1.5062 -0.1695  0.5332
 1580SOL    HW2 6354   1.143   4.401   5.319  0.6159  1.9290  0.3558
 1581SOL     OW 6355   2.329   5.408   5.465 -0.1460  0.3665  0.1601
 1581SOL    HW1 6356   2.249   5.419   5.517  0.8905  0.2503  1.8415
 1581SOL    HW2 6357   2.302   5.351   5.392 -1.8016  1.1011  0.1456
 1582SOL     OW 6358   0.528   8.290   3.503  0.1141  0.4644  0.5236
 1582SOL    HW1 6359   0.485   8.293   3.588 -1.9937  1.2426 -0.4940
 1582SOL    HW2 6360   0.460   8.258   3.443  2.0363 -1.8333 -0.6161
 1583SOL     OW 6361   2.537   6.037   1.968  0.1031  0.3734 -0.3195
 1583SOL    HW1 6362   2.510   5.994   1.887  1.2573  0.4702 -0.7751
 1583SOL    HW2 6363   2.560   6.126   1.941 -1.1079  0.9230  0.4112
 1584SOL     OW 6364   2.570   3.792   3.602  0.5081  0.0142  0.0550
 1584SOL    HW1 6365   2.509   3.865   3.591  0.0057 -0.3766  0.2269
 1584SOL    HW2 6366   2.656   3.833   3.609  0.0740  0.6861  1.7316
 1585SOL     OW 6367   2.311   0.448   4.980  0.0626 -0.0179  0.3476
 1585SOL    HW1 6368   2.297   0.441   4.885 -0.1115 -2.4241  0.5051
 1585SOL    HW2 6369   2.404   0.473   4.988  0.1271  0.0481 -0.4374
 1586SOL     OW 6370   5.597   5.090   3.195 -0.5915  0.3542 -0.0966
 1586SOL    HW1 6371   5.658   5.018   3.209 -1.0484 -0.1101 -0.4383
 1586SOL    HW2 6372   5.512   5.047   3.185 -1.0609  1.0147  0.8917
 1587SOL     OW 6373   0.313   6.055   8.074 -0.6780 -0.6177  0.6358
 1587SOL    HW1 6374   0.240   6.116   8.083 -0.7204 -0.5210 -0.2748
 1587SOL    HW2 6375   0.295   6.008   7.992  0.5977 -0.1524  0.0641
 1588SOL     OW 6376   3.569   5.326   3.167 -0.6669 -0.0815 -0.0045
 1588SOL    HW1 6377   3.530   5.386   3.231 -2.0785  0.7063 -1.5207
 1588SOL    HW2 6378   3.660   5.356   3.158 -0.5447  0.0047  1.3489
 1589SOL     OW 6379   6.373   0.136   5.029 -0.1204 -0.2053 -0.1126
 1589SOL    HW1 6380   6.463   0.154   5.004  0.0792 -0.1306  0.6358
 1589SOL    HW2 6381   6.361   0.182   5.112 -0.8997 -0.0821 -0.2806
 1590SOL     OW 6382   5.198   3.623   9.527  0.1177  0.0760  0.1372
 1590SOL    HW1 6383   5.247   3.572   9.591 -0.7056 -0.8140  0.0905
 1590SOL    HW2 6384   5.217   3.581   9.443 -0.4750 -0.0823  0.0792
 1591SOL     OW 6385   6.809   1.035   6.662  0.5408 -0.6297 -0.5486
 1591SOL    HW1 6386   6.838   0.962   6.607  0.3658 -1.7408  0.7793
 1591SOL    HW2 6387   6.882   1.096   6.660  1.3498 -1.5584 -0.4630
 1592SOL     OW 6388   0.230   7.607   4.483  0.0218 -0.5611  0.4207
 1592SOL    HW1 6389   0.195   7.531   4.530  0.6837 -1.0567  0.1225
 1592SOL    HW2 6390   0.321   7.584   4.464  0.3490  0.4857  0.6921
 1593SOL     OW 6391   6.999   1.395   8.615 -0.1299 -0.0140 -0.1222
 1593SOL    HW1 6392   7.011   1.344   8.534 -1.3008  0.0633 -0.3609
 1593SOL    HW2 6393   6.991   1.485   8.585  0.9668  0.2112  0.2233
 1594SOL     OW 6394   7.260   7.095   6.835  0.3571  0.1512 -0.0256
 1594SOL    HW1 6395   7.230   7.034   6.902 -1.4934  0.2165 -0.7529
 1594SOL    HW2 6396   7.250   7.181   6.875  0.8131  0.1183  0.1744
 1595SOL     OW 6397   3.024   8.447   1.687 -0.1122  0.6010 -0.2092
 1595SOL    HW1 6398   3.075   8.488   1.618  1.5222 -2.2434 -0.8641
 1595SOL    HW2 6399   2.948   8.410   1.642 -0.4595  1.0489  0.0022
 1596SOL     OW 6400   0.749   6.690   5.020 -0.3246  0.2906 -0.1996
 1596SOL    HW1 6401   0.689   6.744   5.072 -0.5635  0.6278 -0.8052
 1596SOL    HW2 6402   0.694   6.622   4.982 -0.4743  0.9847 -1.2862
 1597SOL     OW 6403   2.673   5.478   0.194  0.0058  0.2383  0.4569
 1597SOL    HW1 6404   2.727   5.426   0.253  0.9812 -1.2484 -1.5967
 1597SOL    HW2 6405   2.587   5.436   0.196 -0.3293  0.9631  1.7253
 1598SOL     OW 6406   8.469   2.037   7.154  0.1121 -0.1587  0.6955
 1598SOL    HW1 6407   8.393   1.988   7.187 -0.5750  2.0880  2.7698
 1598SOL    HW2 6408   8.501   2.085   7.230 -0.1008  3.6063 -1.3656
 1599SOL     OW 6409   5.320   2.726   6.868  0.2418 -0.0682 -0.1027
 1599SOL    HW1 6410   5.257   2.667   6.828 -0.0210 -2.9174  3.8564
 1599SOL    HW2 6411   5.399   2.718   6.814 -0.8741 -1.3330 -1.6223
 1600SOL     OW 6412   8.174   7.847   2.537 -0.0907  0.6549 -0.2980
 1600SOL    HW1 6413   8.232   7.788   2.489  0.3249 -0.7376  1.7748
 1600SOL    HW2 6414   8.192   7.829   2.629  0.6701  4.6800  0.5059
 1601SOL     OW 6415   6.713   1.562   1.049 -0.5244 -0.1568 -0.3439
 1601SOL    HW1 6416   6.675   1.485   1.090  2.8066 -1.7540  0.1278
 1601SOL    HW2 6417   6.761   1.605   1.120 -0.6664  1.2194 -1.0449
 1602SOL     OW 6418   0.624   1.443   1.356 -0.2680  0.2284  0.9413
 1602SOL    HW1 6419   0.567   1.520   1.356 -0.8799 -0.2000  0.1507
 1602SOL    HW2 6420   0.584   1.384   1.420 -1.2335 -0.4144 -0.2110
 1603SOL     OW 6421   3.111   3.432   0.823  0.5424 -0.0272  0.4047
 1603SOL    HW1 6422   3.153   3.434   0.736 -0.1458  0.8874  0.0777
 1603SOL    HW2 6423   3.129   3.344   0.856  1.4001 -0.1638 -0.3758
 1604SOL     OW 6424   5.683   7.196   7.626 -0.0007 -0.9354  0.5744
 1604SOL    HW1 6425   5.738   7.265   7.664 -1.3020  0.9018 -0.6970
 1604SOL    HW2 6426   5.746   7.138   7.582  1.0605  0.4099  0.2122
 1605SOL     OW 6427   0.891   8.699   5.050  0.2252  0.2629 -0.0568
 1605SOL    HW1 6428   0.891   8.699   4.954 -1.4216 -1.7371 -0.1373
 1605SOL    HW2 6429   0.890   8.791   5.074 -0.6815  0.8245 -2.0064
 1606SOL     OW 6430   6.701   7.989   4.587  0.1539 -0.0179 -0.6056
 1606SOL    HW1 6431   6.609   8.012   4.596 -0.3081 -1.8952 -0.1198
 1606SOL    HW2 6432   6.716   7.986   4.492 -0.6410 -0.9117 -0.7214
 1607SOL     OW 6433   7.645   6.868   2.434 -0.0797 -0.0438  0.4380
 1607SOL    HW1 6434   7.551   6.884   2.425  0.1511  0.9175 -0.5670
 1607SOL    HW2 6435   7.679   6.947   2.477  0.5782  0.6849 -1.3295
 1608SOL     OW 6436   2.515   4.099   8.656 -0.7055  0.2162 -0.2201
 1608SOL    HW1 6437   2.519   4.013   8.697 -1.2883  0.4646  0.3784
 1608SOL    HW2 6438   2.599   4.108   8.610 -0.2973 -0.3230  0.4089
 1609SOL     OW 6439   0.100   0.260   2.157  0.6576  0.2332 -0.2117
 1609SOL    HW1 6440   0.176   0.249   2.100  0.2289 -0.3441 -0.6847
 1609SOL    HW2 6441   0.027   0.274   2.097  0.0463 -1.2917  0.1371
 1610SOL     OW 6442   4.211   2.579   1.933  0.0595 -0.6070  0.3387
 1610SOL    HW1 6443   4.239   2.492   1.961 -0.6022 -1.4129 -1.3862
 1610SOL    HW2 6444   4.118   2.570   1.913  0.6377 -0.4444 -3.0461
 1611SOL     OW 6445   3.627   4.172   7.180 -0.3312 -0.1185 -0.1722
 1611SOL    HW1 6446   3.661   4.205   7.097  0.4338 -0.5518 -0.0447
 1611SOL    HW2 6447   3.646   4.241   7.243 -0.7889  0.1528 -0.3318
 1612SOL     OW 6448   8.156   7.407   2.309  0.0393  0.5197 -0.3366
 1612SOL    HW1 6449   8.227   7.372   2.363 -0.2423  0.5361  0.0454
 1612SOL    HW2 6450   8.128   7.332   2.256 -1.2853 -0.1757  1.2381
 1613SOL     OW 6451   3.453   4.660   8.430  0.2758  0.1191 -0.0732
 1613SOL    HW1 6452   3.441   4.567   8.407 -1.2241  0.7708 -2.2164
 1613SOL    HW2 6453   3.386   4.676   8.497  2.4303 -0.9547  2.5345
 1614SOL     OW 6454   5.875   8.121   1.087 -0.2434 -0.4917  0.0050
 1614SOL    HW1 6455   5.792   8.169   1.098  0.2389  0.2347  0.6018
 1614SOL    HW2 6456   5.942   8.190   1.085  0.5896 -1.1541  2.0749
 1615SOL     OW 6457   6.314   1.028   3.349 -0.5343 -0.4970 -0.4876
 1615SOL    HW1 6458   6.302   1.052   3.441  0.4779  0.2620 -0.5357
 1615SOL    HW2 6459   6.225   1.022   3.314 -0.8897  1.0004  0.0902
 1616SOL     OW 6460   4.531   4.915   5.358 -0.4498  0.4858  0.4206
 1616SOL    HW1 6461   4.504   4.885   5.271 -0.1522 -0.1405  0.5397
 1616SOL    HW2 6462   4.561   5.005   5.343  2.4189 -0.5417 -0.7370
 1617SOL     OW 6463   2.616   9.045   7.956 -0.2890 -0.3252 -0.1549
 1617SOL    HW1 6464   2.628   9.115   7.891 -1.2699 -1.3471 -1.5007
 1617SOL    HW2 6465   2.623   9.089   8.040  1.3514  0.9965 -0.9310
 1618SOL     OW 6466   7.074   2.084   0.413  0.3602 -0.1418 -0.0498
 1618SOL    HW1 6467   7.098   2.059   0.324  0.4781  0.3778 -0.1724
 1618SOL    HW2 6468   7.025   2.010   0.448 -1.0536  0.2530 -1.0927
 1619SOL     OW 6469   9.672   2.613   1.486  0.3930  0.3185 -0.5381
 1619SOL    HW1 6470   9.650   2.699   1.522  0.2805  0.7387 -1.5924
 1619SOL    HW2 6471   9.680   2.557   1.563  1.5320  1.5059  0.2606
 1620SOL     OW 6472   7.981   9.424   0.300  0.4637 -0.4175 -0.1514
 1620SOL    HW1 6473   8.072   9.424   0.271  0.2143  1.5860 -1.0960
 1620SOL    HW2 6474   7.942   9.349   0.257  1.3512 -0.4886 -0.8738
 1621SOL     OW 6475   9.011   6.441   8.190  0.1492  0.0827  0.3333
 1621SOL    HW1 6476   8.985   6.426   8.281 -1.6942 -1.5822 -0.3973
 1621SOL    HW2 6477   9.003   6.536   8.177 -1.5586  0.1081  1.3566
 1622SOL     OW 6478   7.352   9.726   2.787 -0.4521 -0.4781 -0.3276
 1622SOL    HW1 6479   7.324   9.738   2.696 -0.9957 -1.6881 -0.3321
 1622SOL    HW2 6480   7.433   9.676   2.780 -0.2220 -0.1344 -0.1559
 1623SOL     OW 6481   4.962   5.291   4.423  0.2134 -0.2880  0.0086
 1623SOL    HW1 6482   4.995   5.307   4.511  0.3170 -0.9266  0.0867
 1623SOL    HW2 6483   4.872   5.262   4.436 -0.0938  0.5496 -0.1547
 1624SOL     OW 6484   6.658   6.268   7.712  0.0215  0.2957  0.2939
 1624SOL    HW1 6485   6.647   6.207   7.785  1.4993 -0.8295 -0.3960
 1624SOL    HW2 6486   6.667   6.354   7.754  1.1457 -0.3744  1.4589
 1625SOL     OW 6487   8.121   4.941   0.758 -0.3254 -0.3906  0.1617
 1625SOL    HW1 6488   8.110   4.885   0.682 -0.5877 -1.7370  1.1507
 1625SOL    HW2 6489   8.202   4.910   0.799 -0.1301  0.3869  0.3931
 1626SOL     OW 6490   1.413   0.349   9.713 -0.7014  0.0299 -0.8878
 1626SOL    HW1 6491   1.498   0.304   9.710 -1.2642 -1.1806  0.2190
 1626SOL    HW2 6492   1.435   0.441   9.704  1.0513  0.0217  1.9668
 1627SOL     OW 6493   6.169   5.265   8.009  0.1802 -0.1089  0.4969
 1627SOL    HW1 6494   6.077   5.284   7.989  0.5493  1.5601  0.2378
 1627SOL    HW2 6495   6.184   5.309   8.093  0.9078  0.1529  0.2334
 1628SOL     OW 6496   1.989   6.954   5.740 -0.0421 -0.4904 -0.3220
 1628SOL    HW1 6497   2.054   6.893   5.706  0.0494 -0.7879  0.3649
 1628SOL    HW2 6498   1.969   7.012   5.667 -0.1584 -1.3666 -0.9932
 1629SOL     OW 6499   1.573   2.411   6.416 -0.1010 -0.2073 -0.2264
 1629SOL    HW1 6500   1.510   2.479   6.392  0.6919  0.2753 -0.9978
 1629SOL    HW2 6501   1.606   2.439   6.502 -1.0330 -0.5510  0.2627
 1630SOL     OW 6502   6.156   7.696   7.355 -0.0035 -0.0641  0.1266
 1630SOL    HW1 6503   6.120   7.608   7.345  0.7011 -0.3907  0.4306
 1630SOL    HW2 6504   6.191   7.717   7.268 -0.3120 -0.0217  0.0123
 1631SOL     OW 6505   5.023   1.788   6.987 -0.4134  0.3273  0.0189
 1631SOL    HW1 6506   5.019   1.810   6.894 -1.1634 -1.5230 -0.4226
 1631SOL    HW2 6507   4.937   1.813   7.022 -0.0075  1.3535  0.3152
 1632SOL     OW 6508   3.450   8.125   3.744 -0.2007 -0.2797 -0.4531
 1632SOL    HW1 6509   3.506   8.141   3.668  0.9698  0.6848  0.5498
 1632SOL    HW2 6510   3.457   8.206   3.795 -2.3108 -0.2469 -0.1343
 1633SOL     OW 6511   1.633   0.635   3.560  0.3928  0.6644 -0.1033
 1633SOL    HW1 6512   1.720   0.675   3.558  0.4562  0.5188 -0.3588
 1633SOL    HW2 6513   1.640   0.560   3.502  0.0559  0.7313 -0.2340
 1634SOL     OW 6514   6.415   2.011   1.947  0.2763  0.2733  0.1979
 1634SOL    HW1 6515   6.471   1.964   2.009 -0.7660  0.8368  1.6376
 1634SOL    HW2 6516   6.379   1.943   1.890  0.6368 -0.3754  0.7299
 1635SOL     OW 6517   9.419   0.094   1.568  0.3671 -0.5299  0.0173
 1635SOL    HW1 6518   9.426   0.009   1.524 -0.9626 -0.4419 -0.3982
 1635SOL    HW2 6519   9.448   0.156   1.501  1.3874 -0.6362  0.3368
 1636SOL     OW 6520   3.165   8.975   0.452  0.5008 -0.1021  0.6492
 1636SOL    HW1 6521   3.197   9.015   0.371  1.6120 -1.6042  0.2989
 1636SOL    HW2 6522   3.193   9.035   0.521  3.3300 -0.8232  0.2631
 1637SOL     OW 6523   7.824   0.781   5.286 -0.2168  0.0431 -0.7921
 1637SOL    HW1 6524   7.838   0.863   5.333  0.9872 -0.1799 -0.7118
 1637SOL    HW2 6525   7.901   0.773   5.230  0.7907 -2.0711  0.7689
 1638SOL     OW 6526   8.280   8.621   4.005 -0.0685 -0.6755  0.3822
 1638SOL    HW1 6527   8.276   8.697   3.947  0.9998 -0.5175  0.4922
 1638SOL    HW2 6528   8.357   8.637   4.060 -0.1746 -1.5527  0.7947
 1639SOL     OW 6529   4.403   3.816   1.849  0.1609  0.9963  0.0225
 1639SOL    HW1 6530   4.429   3.727   1.873 -1.3477  0.7413  0.8652
 1639SOL    HW2 6531   4.482   3.869   1.860  0.6539  0.0512  1.1751
 1640SOL     OW 6532   8.199   8.964   5.385  0.0015  0.0085  0.2868
 1640SOL    HW1 6533   8.241   9.050   5.386 -0.5987  0.3188  1.6988
 1640SOL    HW2 6534   8.106   8.982   5.401 -0.2170 -0.8611  0.0706
 1641SOL     OW 6535   7.721   6.251   3.417  0.2275 -0.6557  0.5233
 1641SOL    HW1 6536   7.808   6.211   3.416  0.3650 -0.3846 -0.8723
 1641SOL    HW2 6537   7.734   6.336   3.461  1.2972  0.5925 -1.9892
 1642SOL     OW 6538   7.077   9.739   0.166  0.6266 -0.5844  0.3031
 1642SOL    HW1 6539   7.154   9.683   0.152 -0.1859 -1.3148 -1.5093
 1642SOL    HW2 6540   7.012   9.706   0.105 -1.0585  0.2170  1.5996
 1643SOL     OW 6541   4.875   2.889   7.861  0.5162 -0.1446 -0.6974
 1643SOL    HW1 6542   4.896   2.941   7.784  0.6010 -0.8247 -1.1488
 1643SOL    HW2 6543   4.797   2.839   7.836 -0.3555  0.7217  0.1873
 1644SOL     OW 6544   0.678   5.254   3.585  0.0260 -1.0610  0.0578
 1644SOL    HW1 6545   0.724   5.171   3.598  2.0097 -0.2869 -1.5286
 1644SOL    HW2 6546   0.593   5.229   3.549  1.2788 -2.4129 -2.1969
 1645SOL     OW 6547   4.401   1.042   9.573 -0.0552 -0.1696 -0.2929
 1645SOL    HW1 6548   4.389   0.950   9.548  1.6968  0.0192 -2.0305
 1645SOL    HW2 6549   4.331   1.089   9.528 -0.1805 -0.4958 -0.4389
 1646SOL     OW 6550   5.320   1.538   7.922  0.0175  0.3961  0.3148
 1646SOL    HW1 6551   5.296   1.630   7.934  1.5032  0.7381  0.8681
 1646SOL    HW2 6552   5.295   1.496   8.004  1.1632  0.7203  0.8347
 1647SOL     OW 6553   4.099   5.405   5.099 -0.0007 -0.1604 -0.2676
 1647SOL    HW1 6554   4.194   5.399   5.092 -0.1370 -0.6095 -2.9656
 1647SOL    HW2 6555   4.075   5.339   5.164  1.3538 -2.1109 -1.6507
 1648SOL     OW 6556   3.135   6.414   4.540 -0.1840  0.2459 -0.0700
 1648SOL    HW1 6557   3.154   6.434   4.449 -1.7853  0.3866 -0.4078
 1648SOL    HW2 6558   3.099   6.325   4.538  1.7004 -0.5915  0.7180
 1649SOL     OW 6559   4.030   3.344   4.643 -0.2923 -0.1923  0.0399
 1649SOL    HW1 6560   3.949   3.386   4.615 -0.1572  0.1281  0.1289
 1649SOL    HW2 6561   4.094   3.368   4.576  0.5052  2.0916  1.4929
 1650SOL     OW 6562   5.578   3.575   8.688  0.0560  0.3064 -0.6545
 1650SOL    HW1 6563   5.641   3.546   8.621  1.0221  1.0057 -0.0829
 1650SOL    HW2 6564   5.529   3.497   8.711  1.6873 -0.6016 -0.1086
 1651SOL     OW 6565   7.444   7.995   1.896  0.1273 -1.0806  0.3514
 1651SOL    HW1 6566   7.508   7.983   1.826 -3.0489 -0.1155 -3.0527
 1651SOL    HW2 6567   7.399   7.910   1.902 -1.3590 -0.4198 -0.8052
 1652SOL     OW 6568   9.320   3.166   7.651 -0.1231  0.0075  0.0295
 1652SOL    HW1 6569   9.268   3.237   7.688  0.4031  0.1810  0.4482
 1652SOL    HW2 6570   9.403   3.170   7.697 -0.1012 -0.9217  0.0991
 1653SOL     OW 6571   8.580   2.024   0.702 -0.2968 -0.3664  0.4852
 1653SOL    HW1 6572   8.647   2.068   0.754 -1.3693  1.9962 -0.0315
 1653SOL    HW2 6573   8.520   2.093   0.676 -0.7700 -1.7107 -2.4256
 1654SOL     OW 6574   1.952   8.556   8.167 -0.0375  0.9461  0.2431
 1654SOL    HW1 6575   1.982   8.642   8.194  1.1816  0.8534 -0.7566
 1654SOL    HW2 6576   2.023   8.497   8.190  0.5788  0.7092 -2.0822
 1655SOL     OW 6577   6.515   1.881   7.494  0.3767 -0.0774 -0.4454
 1655SOL    HW1 6578   6.554   1.803   7.455  3.2342  1.8101 -1.7258
 1655SOL    HW2 6579   6.477   1.929   7.421  0.3319  0.6170  0.0201
 1656SOL     OW 6580   7.580   5.178   1.419  0.3050 -0.2226  0.4250
 1656SOL    HW1 6581   7.511   5.123   1.455 -1.4645  1.3732 -0.3953
 1656SOL    HW2 6582   7.569   5.262   1.463 -1.4030  1.5479 -2.9942
 1657SOL     OW 6583   7.626   4.341   2.853  0.2957  0.0869 -0.1182
 1657SOL    HW1 6584   7.701   4.375   2.901 -0.6745 -0.3622  1.8138
 1657SOL    HW2 6585   7.596   4.266   2.904 -1.8040  0.6005 -0.5100
 1658SOL     OW 6586   8.122   3.703   3.042 -0.4310 -0.1755 -0.2799
 1658SOL    HW1 6587   8.065   3.745   3.107  0.9015  0.8124  0.2873
 1658SOL    HW2 6588   8.064   3.643   2.994 -1.7103  0.0265  0.9637
 1659SOL     OW 6589   0.677   3.721   7.693 -0.4202  0.1896 -0.3340
 1659SOL    HW1 6590   0.660   3.737   7.601 -0.3871 -0.1984 -0.4070
 1659SOL    HW2 6591   0.652   3.630   7.707  1.5387 -0.3965 -0.4425
 1660SOL     OW 6592   6.453   4.606   4.929 -0.5268 -0.2538 -0.2849
 1660SOL    HW1 6593   6.535   4.655   4.942 -0.1507 -0.3735 -2.0370
 1660SOL    HW2 6594   6.434   4.614   4.836 -1.5547 -1.7503 -0.2386
 1661SOL     OW 6595   2.879   9.146   9.538  0.2824  0.4095 -0.3586
 1661SOL    HW1 6596   2.897   9.071   9.594  0.2162 -0.6338 -1.6560
 1661SOL    HW2 6597   2.956   9.202   9.545  0.7417 -0.2527 -0.0950
 1662SOL     OW 6598   5.450   7.026   3.121 -0.0856 -0.4054  0.3953
 1662SOL    HW1 6599   5.489   7.103   3.081 -1.2248  0.5727  1.0950
 1662SOL    HW2 6600   5.458   7.041   3.215  2.5165 -2.6515  0.6542
 1663SOL     OW 6601   5.034   4.793   7.683 -0.6926  0.2860  0.1695
 1663SOL    HW1 6602   5.126   4.811   7.660 -0.6362 -1.3361 -1.0520
 1663SOL    HW2 6603   4.998   4.879   7.704  0.3741  1.4076 -2.1496
 1664SOL     OW 6604   0.673   0.523   1.926  0.0421  0.0471 -0.0089
 1664SOL    HW1 6605   0.697   0.615   1.923 -1.1471  0.3819  0.1673
 1664SOL    HW2 6606   0.622   0.509   1.846  2.0810 -1.0357 -1.1859
 1665SOL     OW 6607   6.968   7.888   6.405 -0.7169 -0.3199  0.3088
 1665SOL    HW1 6608   6.931   7.804   6.377 -0.4811 -0.1590 -0.5040
 1665SOL    HW2 6609   6.963   7.885   6.501 -1.6448 -0.8337  0.2618
 1666SOL     OW 6610   8.576   6.396   3.348 -0.1667 -0.1935  0.1903
 1666SOL    HW1 6611   8.624   6.431   3.273 -0.8815 -1.5972 -0.9749
 1666SOL    HW2 6612   8.559   6.472   3.404 -0.3249  1.0204 -1.4508
 1667SOL     OW 6613   7.706   8.674   7.531  0.0062  0.1701  0.4997
 1667SOL    HW1 6614   7.779   8.659   7.471  0.2218  1.0125  0.5407
 1667SOL    HW2 6615   7.630   8.690   7.474  0.0565  0.2300  0.4496
 1668SOL     OW 6616   2.396   8.133   6.947  0.1977  0.3310 -0.5427
 1668SOL    HW1 6617   2.412   8.211   6.893  0.1229  0.8609  0.1845
 1668SOL    HW2 6618   2.399   8.060   6.885  1.0973  0.8283 -1.1126
 1669SOL     OW 6619   6.399   0.964   5.472  0.0642 -0.0212 -0.1468
 1669SOL    HW1 6620   6.482   1.011   5.480 -0.2067  0.5108 -0.4043
 1669SOL    HW2 6621   6.403   0.921   5.386  1.1952 -2.2455  0.9163
 1670SOL     OW 6622   3.952   2.192   3.370  0.1598  0.4410  0.2395
 1670SOL    HW1 6623   4.026   2.204   3.311 -0.4708 -0.6754 -0.8256
 1670SOL    HW2 6624   3.978   2.237   3.450  2.7042 -1.2518  0.4911
 1671SOL     OW 6625   0.572   4.077   7.921 -0.0499  0.4282 -0.0546
 1671SOL    HW1 6626   0.594   4.119   7.838  1.6269  0.9042  0.5998
 1671SOL    HW2 6627   0.592   4.143   7.987 -0.5024 -0.2690  0.7868
 1672SOL     OW 6628   4.041   2.374   9.260  0.0399 -0.3632 -0.5329
 1672SOL    HW1 6629   4.073   2.363   9.170 -0.9585  0.3027 -0.9897
 1672SOL    HW2 6630   4.045   2.287   9.298 -1.6752 -1.1253 -1.9647
 1673SOL     OW 6631   7.388   4.852   8.917 -0.0632 -0.0478 -0.4676
 1673SOL    HW1 6632   7.333   4.793   8.968 -0.2892  0.4522 -0.1243
 1673SOL    HW2 6633   7.464   4.800   8.894 -1.4010 -1.2700 -2.3575
 1674SOL     OW 6634   1.665   3.154   6.141 -0.0253 -0.2517  0.6316
 1674SOL    HW1 6635   1.756   3.160   6.170 -0.3687 -0.1664  1.7169
 1674SOL    HW2 6636   1.661   3.072   6.091  0.4449 -0.7044  1.3326
 1675SOL     OW 6637   7.734   3.025   4.119 -0.3532  0.4873 -0.1541
 1675SOL    HW1 6638   7.739   2.999   4.027 -0.3444 -0.7039  0.1768
 1675SOL    HW2 6639   7.667   2.969   4.157 -0.3746  0.9885  0.5694
 1676SOL     OW 6640   7.337   9.484   9.302  0.1486 -1.1387 -0.3157
 1676SOL    HW1 6641   7.250   9.488   9.261 -0.3534 -0.3965  0.7694
 1676SOL    HW2 6642   7.392   9.539   9.246 -0.9509  1.3871  0.9250
 1677SOL     OW 6643   6.729   3.257   6.506 -0.0078 -0.0189  0.9443
 1677SOL    HW1 6644   6.769   3.274   6.591 -1.2975  0.3322  1.5007
 1677SOL    HW2 6645   6.635   3.248   6.524  0.0242 -3.2076  0.0115
 1678SOL     OW 6646   6.637   2.826   1.533  0.1591 -0.3911 -0.3207
 1678SOL    HW1 6647   6.711   2.770   1.510  0.1025 -0.9854  0.9060
 1678SOL    HW2 6648   6.674   2.889   1.595 -0.4994 -1.1253  0.8423
 1679SOL     OW 6649   2.603   8.280   2.713  0.4583  0.3017  0.0516
 1679SOL    HW1 6650   2.629   8.314   2.627  0.6558 -1.3391 -0.5621
 1679SOL    HW2 6651   2.668   8.317   2.773  0.6514  1.0137 -0.5781
 1680SOL     OW 6652   1.499   3.717   6.627 -0.1149  0.6641 -0.0606
 1680SOL    HW1 6653   1.429   3.727   6.691 -1.1561  1.3747 -1.2454
 1680SOL    HW2 6654   1.532   3.628   6.640  1.5614  1.6194  3.2071
 1681SOL     OW 6655   6.506   0.411   2.839 -0.0708 -0.3408  0.0564
 1681SOL    HW1 6656   6.434   0.452   2.791 -1.1806 -1.6385  0.5550
 1681SOL    HW2 6657   6.497   0.318   2.822  0.3377 -0.7041  1.6667
 1682SOL     OW 6658   8.369   3.107   2.293 -0.4141 -0.0272 -0.1442
 1682SOL    HW1 6659   8.432   3.171   2.260 -0.8330  0.7237  0.4687
 1682SOL    HW2 6660   8.330   3.150   2.370 -3.3702  0.5548 -1.7995
 1683SOL     OW 6661   0.174   1.240   3.668  0.2842 -0.2180  0.2176
 1683SOL    HW1 6662   0.207   1.304   3.732  1.8048  0.0071 -0.7333
 1683SOL    HW2 6663   0.203   1.155   3.703  0.6378 -0.1412  0.1205
 1684SOL     OW 6664   0.357   6.160   0.117 -0.2034  0.0192  0.0973
 1684SOL    HW1 6665   0.274   6.181   0.073 -0.7159  0.0636  1.0504
 1684SOL    HW2 6666   0.330   6.125   0.202  0.7043 -1.6560 -0.2453
 1685SOL     OW 6667   8.877   1.670   4.517  0.0476  0.2907  0.1933
 1685SOL    HW1 6668   8.790   1.639   4.491 -0.3262  2.0367 -0.7587
 1685SOL    HW2 6669   8.933   1.651   4.441  0.2499  0.2081  0.3610
 1686SOL     OW 6670   7.571   3.594   9.769  0.5359 -0.7030  0.2888
 1686SOL    HW1 6671   7.538   3.515   9.812 -2.7784  0.2081 -0.3149
 1686SOL    HW2 6672   7.549   3.582   9.677  1.1101  0.3902  0.0002
 1687SOL     OW 6673   1.403   7.471   0.660  0.7387  0.2569  0.4639
 1687SOL    HW1 6674   1.330   7.410   0.669 -0.0137  1.1494  0.6344
 1687SOL    HW2 6675   1.431   7.488   0.750 -0.4720  1.7829  0.6039
 1688SOL     OW 6676   0.107   5.990   9.670  0.1636 -0.4339 -0.0761
 1688SOL    HW1 6677   0.077   5.925   9.734 -3.2887  1.7516  0.7618
 1688SOL    HW2 6678   0.104   6.073   9.717 -0.8292  1.0340 -2.5442
 1689SOL     OW 6679   7.939   8.813   5.361 -0.2235  0.3604 -0.2078
 1689SOL    HW1 6680   7.901   8.731   5.393 -2.4795  0.7477 -1.6273
 1689SOL    HW2 6681   7.878   8.881   5.390  1.4203  1.5329  0.6413
 1690SOL     OW 6682   2.833   2.977   2.159  0.2114 -0.6725  0.2071
 1690SOL    HW1 6683   2.916   2.985   2.207  0.4054  0.0640 -0.2342
 1690SOL    HW2 6684   2.844   3.035   2.083 -0.5116 -0.9749 -0.1344
 1691SOL     OW 6685   8.610   0.096   8.253 -0.2777  0.0025  0.3877
 1691SOL    HW1 6686   8.638   0.161   8.317 -1.1229  0.0434  0.7288
 1691SOL    HW2 6687   8.524   0.067   8.283  0.3101 -1.7036  0.5535
 1692SOL     OW 6688   0.077   8.466   7.186 -0.3892 -0.0661 -0.1421
 1692SOL    HW1 6689   0.153   8.524   7.189 -1.5746  1.5418 -0.0758
 1692SOL    HW2 6690   0.114   8.379   7.166  1.2666  1.0330 -2.2283
 1693SOL     OW 6691   3.504   0.288   6.720 -0.1067  0.7359 -0.3103
 1693SOL    HW1 6692   3.424   0.252   6.683  0.1439  0.4055 -0.5419
 1693SOL    HW2 6693   3.477   0.328   6.802 -0.1316 -1.5288  0.8727
 1694SOL     OW 6694   0.063   6.665   0.028 -0.3413 -0.1652  0.1428
 1694SOL    HW1 6695   0.074   6.677  -0.066  1.1379 -0.2595  0.2710
 1694SOL    HW2 6696   0.014   6.742   0.057  0.9865  0.9297 -0.4213
 1695SOL     OW 6697   8.204   7.508   5.627 -1.2329 -0.0837 -0.1242
 1695SOL    HW1 6698   8.160   7.456   5.560 -1.5566  0.5682 -0.4249
 1695SOL    HW2 6699   8.143   7.578   5.648 -0.3569  0.8432 -0.5545
 1696SOL     OW 6700   2.089   0.142   0.466 -0.0716 -0.3426  1.2868
 1696SOL    HW1 6701   2.026   0.071   0.457 -0.9073  0.3424  1.5852
 1696SOL    HW2 6702   2.174   0.099   0.468 -0.5002 -1.2639  0.5296
 1697SOL     OW 6703   9.162   6.478   8.652  0.4333  0.3799 -0.4853
 1697SOL    HW1 6704   9.161   6.555   8.595  0.9327 -0.0618 -1.0992
 1697SOL    HW2 6705   9.095   6.497   8.719 -0.7781  0.5333 -1.6976
 1698SOL     OW 6706   5.689   3.072   0.182  0.2539  0.3107  0.0531
 1698SOL    HW1 6707   5.671   3.015   0.107  0.7777 -0.2552  0.3604
 1698SOL    HW2 6708   5.673   3.161   0.148  3.5152  0.3741 -1.7121
 1699SOL     OW 6709   8.549   2.507   7.504  0.5939 -0.6296  0.0259
 1699SOL    HW1 6710   8.551   2.530   7.597  0.2209  2.1811 -0.5623
 1699SOL    HW2 6711   8.498   2.577   7.463  3.2354 -0.0816 -2.6814
 1700SOL     OW 6712   2.912   4.608   7.900 -0.3091  0.6976 -0.0567
 1700SOL    HW1 6713   2.959   4.557   7.967  0.6467  1.6635  0.0328
 1700SOL    HW2 6714   2.973   4.610   7.826 -1.1398  0.0989 -0.7708
 1701SOL     OW 6715   2.388   6.389   2.667 -0.2158 -0.4761  0.2678
 1701SOL    HW1 6716   2.337   6.348   2.598  1.2605 -0.3013 -0.9890
 1701SOL    HW2 6717   2.331   6.458   2.702 -1.4092 -1.3199  0.0250
 1702SOL     OW 6718   3.799   5.542   0.005 -0.1381 -0.0016 -0.0564
 1702SOL    HW1 6719   3.771   5.466  -0.045 -0.8157 -0.5369  1.1060
 1702SOL    HW2 6720   3.890   5.524   0.028 -0.9219 -1.6025  2.1745
 1703SOL     OW 6721   7.088   6.347   0.109 -0.2223 -0.4585  0.1119
 1703SOL    HW1 6722   7.001   6.382   0.092  0.2975  0.9172  0.2133
 1703SOL    HW2 6723   7.115   6.308   0.026 -0.3225  0.4597 -0.3536
 1704SOL     OW 6724   8.071   9.235   6.768  0.2762 -0.2459 -0.1702
 1704SOL    HW1 6725   8.111   9.307   6.720 -0.4902  0.5425  0.3547
 1704SOL    HW2 6726   8.008   9.276   6.827 -2.4669 -1.4985 -2.0151
 1705SOL     OW 6727   5.336   2.364   1.514  0.1345  0.4306 -0.3545
 1705SOL    HW1 6728   5.259   2.405   1.475 -3.0416 -2.3582  2.3356
 1705SOL    HW2 6729   5.352   2.287   1.459 -0.0201  0.1488 -0.0049
 1706SOL     OW 6730   8.219   3.045   8.892 -0.6332  0.2650 -0.0579
 1706SOL    HW1 6731   8.142   3.017   8.842 -0.9965 -0.5285  0.9134
 1706SOL    HW2 6732   8.187   3.053   8.982  0.4469 -0.1856  0.3832
 1707SOL     OW 6733   6.800   0.354   2.271 -0.6030 -0.4048  0.1870
 1707SOL    HW1 6734   6.748   0.404   2.334  1.7013  3.1716 -0.4397
 1707SOL    HW2 6735   6.870   0.315   2.323  0.0644  0.7361  0.1695
 1708SOL     OW 6736   1.523   9.434   3.953  0.3081 -0.1572  0.3176
 1708SOL    HW1 6737   1.501   9.391   4.036  1.0462  2.3561  1.9540
 1708SOL    HW2 6738   1.587   9.376   3.912 -1.7687 -2.5947  0.3258
 1709SOL     OW 6739   4.445   4.239   1.237  0.2537 -0.0631 -0.2551
 1709SOL    HW1 6740   4.358   4.214   1.269 -0.2002 -0.7202 -1.9068
 1709SOL    HW2 6741   4.505   4.196   1.298 -0.5694 -0.3217  0.4003
 1710SOL     OW 6742   1.088   2.259   5.517  0.4180 -0.4603 -0.4507
 1710SOL    HW1 6743   1.006   2.215   5.540  0.2431 -0.0360 -0.2596
 1710SOL    HW2 6744   1.153   2.189   5.518  0.0358 -0.8288 -0.7438
 1711SOL     OW 6745   0.289   3.245   1.958  0.0949  0.3389  0.3956
 1711SOL    HW1 6746   0.343   3.178   1.918  0.8913  1.1523  0.0877
 1711SOL    HW2 6747   0.248   3.201   2.033  0.2770 -0.5892 -0.0346
 1712SOL     OW 6748   5.114   0.163   0.444 -0.1927 -0.2127 -0.0934
 1712SOL    HW1 6749   5.103   0.176   0.350 -1.6925 -0.8418 -0.0316
 1712SOL    HW2 6750   5.198   0.117   0.453 -0.3377 -0.7010 -1.1646
 1713SOL     OW 6751   8.707   8.721   4.435  0.0264  0.0873  0.0563
 1713SOL    HW1 6752   8.750   8.706   4.519  2.2657 -0.5941 -1.1431
 1713SOL    HW2 6753   8.720   8.639   4.387  0.3282  1.0654 -1.5853
 1714SOL     OW 6754   8.194   0.466   1.414 -0.0645 -0.3279  0.4206
 1714SOL    HW1 6755   8.288   0.450   1.423 -0.0780  0.2965  1.9460
 1714SOL    HW2 6756   8.156   0.432   1.495 -0.7555  2.1294  1.2058
 1715SOL     OW 6757   3.129   1.551   0.791 -0.1068 -0.2184 -0.1260
 1715SOL    HW1 6758   3.154   1.631   0.745  0.0058  0.7752  1.5626
 1715SOL    HW2 6759   3.200   1.537   0.854 -0.8286 -0.8282  0.5702
 1716SOL     OW 6760   1.561   4.776   2.734  0.2737  0.1440  0.1199
 1716SOL    HW1 6761   1.631   4.711   2.734  0.9011  0.8022 -0.8020
 1716SOL    HW2 6762   1.606   4.860   2.740 -0.5184  0.5226  1.0425
 1717SOL     OW 6763   5.469   1.074   9.050  0.5463 -0.3624  0.2315
 1717SOL    HW1 6764   5.471   1.132   8.973  2.1162  0.8249  1.1084
 1717SOL    HW2 6765   5.385   1.029   9.043 -0.0991  0.9475 -1.2862
 1718SOL     OW 6766   0.081   6.402   0.136  0.1621 -0.1004  0.4818
 1718SOL    HW1 6767   0.064   6.495   0.119 -1.5029 -0.4890 -0.1423
 1718SOL    HW2 6768   0.103   6.399   0.229 -1.4412  0.7357  0.9181
 1719SOL     OW 6769   3.399   1.700   7.357  0.2513  0.0195 -0.3521
 1719SOL    HW1 6770   3.436   1.666   7.276  0.4791 -0.1453 -0.1806
 1719SOL    HW2 6771   3.435   1.788   7.365 -0.6674  0.4557 -1.0088
 1720SOL     OW 6772   7.531   4.812   3.866  0.3002 -0.3779  0.5312
 1720SOL    HW1 6773   7.559   4.867   3.793  0.5617  0.1199  1.0031
 1720SOL    HW2 6774   7.442   4.841   3.885  0.5001  0.0041  0.8919
 1721SOL     OW 6775   2.759   9.108   3.980 -0.0817 -0.0111  0.2041
 1721SOL    HW1 6776   2.731   9.025   4.017  1.4495  0.1377  1.8209
 1721SOL    HW2 6777   2.763   9.168   4.056 -1.5878  1.6965 -0.9655
 1722SOL     OW 6778   2.579   0.212   5.877  0.3593 -0.4263 -0.3493
 1722SOL    HW1 6779   2.634   0.136   5.897 -0.5149 -1.3452 -1.2777
 1722SOL    HW2 6780   2.551   0.244   5.963  1.1251 -0.8468  0.0788
 1723SOL     OW 6781   9.196   0.835   0.477  0.0347  0.4072 -0.5885
 1723SOL    HW1 6782   9.126   0.900   0.470 -0.9565 -0.5823 -0.1806
 1723SOL    HW2 6783   9.207   0.801   0.389 -0.7380 -0.1627 -0.4777
 1724SOL     OW 6784   4.322   9.118   6.814  0.0153 -0.2285  0.2087
 1724SOL    HW1 6785   4.403   9.091   6.858  0.3632 -0.4413 -0.5411
 1724SOL    HW2 6786   4.305   9.206   6.848  0.4291 -0.2754  0.5529
 1725SOL     OW 6787   3.630   2.624   7.192 -0.3584 -0.0132  0.7505
 1725SOL    HW1 6788   3.685   2.696   7.222  1.0393 -0.7059 -0.0153
 1725SOL    HW2 6789   3.541   2.648   7.219  0.2777  1.2506  1.8419
 1726SOL     OW 6790   2.840   5.752   3.559  0.2745  0.1738 -0.5905
 1726SOL    HW1 6791   2.894   5.781   3.486 -1.5567  1.6890 -1.4310
 1726SOL    HW2 6792   2.900   5.702   3.615  1.9051 -0.3643 -2.6938
 1727SOL     OW 6793   3.615   1.885   0.636  0.0766 -0.1511  0.3870
 1727SOL    HW1 6794   3.612   1.972   0.677 -0.5059  0.2939 -0.5567
 1727SOL    HW2 6795   3.604   1.903   0.542  0.5605 -1.2033  0.1144
 1728SOL     OW 6796   7.289   0.305   8.364  0.4566 -0.1244  0.1317
 1728SOL    HW1 6797   7.253   0.349   8.441  1.0772  0.1400  0.2797
 1728SOL    HW2 6798   7.214   0.293   8.305  0.2630  1.1273  0.0956
 1729SOL     OW 6799   0.456   0.192   8.055 -0.3037  0.1455 -0.1096
 1729SOL    HW1 6800   0.484   0.253   7.987 -1.2915  1.0172  0.2367
 1729SOL    HW2 6801   0.532   0.183   8.111  0.0309  0.6487 -0.4680
 1730SOL     OW 6802   4.215   1.951   3.070 -0.3779  0.4872 -0.0468
 1730SOL    HW1 6803   4.228   1.925   2.979  1.0135 -1.1405  0.5577
 1730SOL    HW2 6804   4.153   2.024   3.066 -1.4631 -0.4661 -2.1832
 1731SOL     OW 6805   5.214   5.945   7.938  0.4888 -0.0881 -0.4411
 1731SOL    HW1 6806   5.234   6.034   7.909  0.8718  0.3736  1.1394
 1731SOL    HW2 6807   5.201   5.953   8.032  1.0444 -1.8015 -0.1877
 1732SOL     OW 6808   1.901   7.339   9.218 -0.3227 -0.2428  0.2607
 1732SOL    HW1 6809   1.906   7.261   9.163 -0.9111  0.1768 -0.4096
 1732SOL    HW2 6810   1.875   7.409   9.158  1.8077  0.8420  0.4764
 1733SOL     OW 6811   3.018   1.181   7.266 -0.0837 -0.9258 -0.0761
 1733SOL    HW1 6812   2.928   1.214   7.271 -0.1893 -1.0668 -0.9706
 1733SOL    HW2 6813   3.061   1.219   7.343 -0.8891 -0.8163  0.3344
 1734SOL     OW 6814   6.912   1.291   0.978 -0.4950  0.0742  0.2206
 1734SOL    HW1 6815   6.995   1.281   0.931  0.9526 -1.6136  2.8567
 1734SOL    HW2 6816   6.857   1.220   0.944  0.5106 -1.1020  0.9431
 1735SOL     OW 6817   8.218   0.261   6.464 -0.1777  0.4784 -0.4537
 1735SOL    HW1 6818   8.298   0.250   6.515 -1.6464 -0.9964  1.6795
 1735SOL    HW2 6819   8.217   0.187   6.403  0.0960  0.5088 -0.4922
 1736SOL     OW 6820   1.591   5.765   1.341  0.3008  0.2904  0.3264
 1736SOL    HW1 6821   1.679   5.797   1.360  0.5291  0.5700 -1.0709
 1736SOL    HW2 6822   1.539   5.790   1.417  1.4470  0.0111  1.2264
 1737SOL     OW 6823   7.530   2.708   9.810 -0.9860  0.2343 -0.3840
 1737SOL    HW1 6824   7.614   2.755   9.804 -0.8760  0.2337  0.8332
 1737SOL    HW2 6825   7.545   2.642   9.877 -1.5322 -0.7430 -1.2010
 1738SOL     OW 6826   8.908   1.462   9.082  0.1728 -0.0086  0.3058
 1738SOL    HW1 6827   8.971   1.391   9.077  1.0513  0.8202 -0.8680
 1738SOL    HW2 6828   8.960   1.539   9.104 -1.0258  0.0036  3.7729
 1739SOL     OW 6829   3.364   5.782   3.256 -0.0339 -0.5110 -0.0773
 1739SOL    HW1 6830   3.391   5.873   3.263  0.5009 -0.7465  1.0121
 1739SOL    HW2 6831   3.278   5.779   3.299 -1.3146 -0.0387 -2.3657
 1740SOL     OW 6832   8.480   1.401   8.369  0.2266 -0.2549 -0.2075
 1740SOL    HW1 6833   8.554   1.380   8.424  0.5848 -0.2288 -0.6735
 1740SOL    HW2 6834   8.419   1.446   8.427  1.1657  0.9664 -0.1230
 1741SOL     OW 6835   8.957   8.562   7.654  0.0253  0.2203 -0.4636
 1741SOL    HW1 6836   8.905   8.639   7.678  0.6170  0.6935 -0.6783
 1741SOL    HW2 6837   8.945   8.501   7.727 -0.0219  0.7286 -0.0386
 1742SOL     OW 6838   2.378   7.338   8.593  0.0719 -0.0723  0.4969
 1742SOL    HW1 6839   2.293   7.298   8.575 -0.0756 -1.0447  2.9010
 1742SOL    HW2 6840   2.359   7.431   8.602 -0.1585  0.1772 -1.9122
 1743SOL     OW 6841   0.457   8.752   7.537  0.2843 -0.4082  0.5556
 1743SOL    HW1 6842   0.533   8.771   7.592  0.4585 -1.3259  0.6492
 1743SOL    HW2 6843   0.494   8.701   7.464 -0.0092  0.4277 -0.1863
 1744SOL     OW 6844   2.008   5.119   8.735 -0.4684  0.0259  0.4711
 1744SOL    HW1 6845   2.104   5.111   8.737 -0.4976 -0.2510  1.1859
 1744SOL    HW2 6846   1.978   5.063   8.806 -1.1583  0.2235  0.3432
 1745SOL     OW 6847   1.570   0.460   6.152  0.8106 -0.4293  0.1363
 1745SOL    HW1 6848   1.496   0.455   6.092 -0.3570  2.5013  1.1585
 1745SOL    HW2 6849   1.615   0.376   6.141 -1.3801 -1.4479 -2.1270
 1746SOL     OW 6850   2.089   7.429   4.905 -0.6244  0.0211 -0.2861
 1746SOL    HW1 6851   2.102   7.485   4.982 -2.1562  0.1273 -0.0575
 1746SOL    HW2 6852   1.998   7.400   4.913 -0.3768 -1.0905 -1.3365
 1747SOL     OW 6853   6.938   8.774   6.135  0.2913  0.0240  0.6233
 1747SOL    HW1 6854   6.933   8.867   6.158  0.4270 -0.2058  1.6234
 1747SOL    HW2 6855   6.903   8.769   6.046  0.7287  1.0974  0.3789
 1748SOL     OW 6856   3.181   7.791   1.973 -0.2134  0.0266 -0.3634
 1748SOL    HW1 6857   3.173   7.825   2.062  0.0421  0.5997 -0.5500
 1748SOL    HW2 6858   3.099   7.744   1.958  0.2196 -1.0743  0.5772
 1749SOL     OW 6859   5.945   5.770   4.468  0.0920  0.6413 -0.3368
 1749SOL    HW1 6860   5.934   5.739   4.558 -0.1619  0.8791 -0.2847
 1749SOL    HW2 6861   6.040   5.780   4.457  0.0873  1.3030  0.1415
 1750SOL     OW 6862   3.455   3.213   6.922 -0.2083 -0.5110 -0.5350
 1750SOL    HW1 6863   3.404   3.177   6.849  0.0391 -1.5048 -0.2303
 1750SOL    HW2 6864   3.543   3.227   6.885  0.1457 -1.7971 -0.2325
 1751SOL     OW 6865   2.690   7.070   7.306  0.5614 -0.2399 -0.0837
 1751SOL    HW1 6866   2.648   6.994   7.346 -0.4968  0.5685  0.3961
 1751SOL    HW2 6867   2.784   7.052   7.313  0.3413 -1.4167  0.1667
 1752SOL     OW 6868   8.181   0.958   3.667  0.0460  0.3443  0.8532
 1752SOL    HW1 6869   8.160   1.051   3.662 -0.1433  0.2528 -0.2173
 1752SOL    HW2 6870   8.266   0.956   3.711 -0.3244  0.9581  1.6347
 1753SOL     OW 6871   2.578   7.623   5.062 -0.4432 -0.4830 -0.8354
 1753SOL    HW1 6872   2.605   7.574   4.984  0.6366  0.2195 -0.9303
 1753SOL    HW2 6873   2.659   7.633   5.113 -1.2697 -1.5704  0.7486
 1754SOL     OW 6874   3.183   8.050   0.209  0.4092  0.1328  0.0423
 1754SOL    HW1 6875   3.164   7.993   0.283  1.2405 -0.4663 -0.1896
 1754SOL    HW2 6876   3.229   7.994   0.146 -1.1283  0.3718 -1.3714
 1755SOL     OW 6877   4.772   0.673   2.635  0.0837 -0.1094 -0.4275
 1755SOL    HW1 6878   4.717   0.624   2.696  0.0852 -0.9831 -1.1011
 1755SOL    HW2 6879   4.822   0.605   2.588  3.4017  0.6466  1.6443
 1756SOL     OW 6880   9.759   7.134   5.502 -0.3515 -0.3949  0.0068
 1756SOL    HW1 6881   9.759   7.222   5.539 -1.6302 -0.6442  0.6453
 1756SOL    HW2 6882   9.706   7.141   5.423  0.4240 -0.3777 -0.5245
 1757SOL     OW 6883   3.378   6.867   3.212  0.0690 -0.1914 -0.5580
 1757SOL    HW1 6884   3.307   6.925   3.238  0.9215  1.6074 -2.0571
 1757SOL    HW2 6885   3.408   6.901   3.128  0.3723 -3.0588 -1.7407
 1758SOL     OW 6886   1.152   2.983   2.650  0.3006 -0.3949  0.6408
 1758SOL    HW1 6887   1.180   3.071   2.676 -2.8740  0.9704 -0.1292
 1758SOL    HW2 6888   1.148   2.934   2.731  1.3874  0.3825  1.1882
 1759SOL     OW 6889   4.035   3.103   7.377 -0.1683 -0.1736  0.2997
 1759SOL    HW1 6890   4.022   3.041   7.449  0.1444  0.6402  1.0707
 1759SOL    HW2 6891   4.089   3.056   7.315  0.3307 -0.5757  1.0197
 1760SOL     OW 6892   4.061   0.562   1.567 -0.1306 -0.4788 -0.1750
 1760SOL    HW1 6893   4.062   0.562   1.471  3.0638  0.6373 -0.2476
 1760SOL    HW2 6894   4.082   0.652   1.592 -2.2832 -0.3795  1.6823
 1761SOL     OW 6895   1.420   6.895   2.380  0.1759 -0.1046  0.7924
 1761SOL    HW1 6896   1.365   6.821   2.405 -0.2878  0.6759  2.2004
 1761SOL    HW2 6897   1.377   6.933   2.304 -0.4282 -0.3763  0.9913
 1762SOL     OW 6898   4.614   2.149   9.571 -0.3683  0.8446  0.5782
 1762SOL    HW1 6899   4.588   2.241   9.563 -1.5085  0.3671 -2.0753
 1762SOL    HW2 6900   4.533   2.102   9.589 -0.3361  0.0649 -1.1285
 1763SOL     OW 6901   2.369   0.124   3.830 -0.3515  0.0359  0.4645
 1763SOL    HW1 6902   2.324   0.163   3.905 -0.7079  1.0454 -0.2491
 1763SOL    HW2 6903   2.408   0.199   3.784 -1.1569 -0.4049 -1.0086
 1764SOL     OW 6904   2.827   3.075   5.160 -0.6969  0.4512  0.2833
 1764SOL    HW1 6905   2.773   3.054   5.084 -1.2260  2.1964  0.1325
 1764SOL    HW2 6906   2.895   3.008   5.161  0.1009  1.1132 -2.4923
 1765SOL     OW 6907   8.187   2.542   2.537 -0.0400 -0.3207 -0.1027
 1765SOL    HW1 6908   8.095   2.533   2.564  0.1595  0.1657  0.7830
 1765SOL    HW2 6909   8.233   2.473   2.585  0.1788 -0.0596  0.0607
 1766SOL     OW 6910   4.329   9.172   1.717 -1.1474  0.4791 -0.2154
 1766SOL    HW1 6911   4.396   9.200   1.655 -1.7647  0.9464 -0.6824
 1766SOL    HW2 6912   4.337   9.232   1.791  0.3687 -0.7952  0.7202
 1767SOL     OW 6913   6.771   1.296   6.800 -0.1317 -0.0193 -0.1461
 1767SOL    HW1 6914   6.693   1.256   6.761 -1.9512  2.9294  0.1277
 1767SOL    HW2 6915   6.827   1.316   6.725  0.3962 -2.0861 -0.3581
 1768SOL     OW 6916   0.600   8.829   6.409 -0.3961 -0.7962 -0.0338
 1768SOL    HW1 6917   0.614   8.736   6.424  0.4846 -0.6750 -0.0004
 1768SOL    HW2 6918   0.566   8.863   6.492 -0.1926 -0.9920  0.1312
 1769SOL     OW 6919   1.792   4.463   8.612  0.2513 -0.7011  0.5548
 1769SOL    HW1 6920   1.878   4.492   8.582 -0.4122  0.8059 -0.0069
 1769SOL    HW2 6921   1.788   4.370   8.588  0.6310 -0.1161 -2.1181
 1770SOL     OW 6922   7.381   0.059   0.738 -0.4015  0.4673 -0.2152
 1770SOL    HW1 6923   7.334   0.135   0.773  0.7687 -0.1487  3.0701
 1770SOL    HW2 6924   7.471   0.072   0.767  0.3822 -0.9338 -1.8795
 1771SOL     OW 6925   8.097   1.860   1.459 -0.0605 -0.5065 -0.1698
 1771SOL    HW1 6926   8.037   1.832   1.528 -0.5898  2.3573  0.6342
 1771SOL    HW2 6927   8.042   1.873   1.382  0.4025 -2.8535 -0.9787
 1772SOL     OW 6928   5.755   0.767   5.348 -0.1976  0.7336  0.1758
 1772SOL    HW1 6929   5.669   0.743   5.313 -0.9935  2.9032  0.5019
 1772SOL    HW2 6930   5.747   0.754   5.442  0.8070 -1.7270  0.0031
 1773SOL     OW 6931   1.215   8.594   4.819  0.0459  0.0278 -0.3597
 1773SOL    HW1 6932   1.295   8.591   4.871 -0.2532 -2.1471  0.1031
 1773SOL    HW2 6933   1.232   8.533   4.747 -0.8564  0.2529 -0.7742
 1774SOL     OW 6934   0.505   4.678   6.244 -0.2649  0.1929 -0.0589
 1774SOL    HW1 6935   0.479   4.653   6.333 -0.4415 -0.4808 -0.2981
 1774SOL    HW2 6936   0.567   4.610   6.216  0.8835  1.1474  0.0604
 1775SOL     OW 6937   3.893   2.979   6.459 -0.3882 -0.3305  0.2927
 1775SOL    HW1 6938   3.814   3.014   6.416 -0.1558  0.7354  0.7123
 1775SOL    HW2 6939   3.960   2.981   6.390 -0.4154 -0.1036  0.2736
 1776SOL     OW 6940   9.255   5.859   3.038 -0.4149  0.3271  0.2308
 1776SOL    HW1 6941   9.317   5.929   3.019 -1.7626  1.6532  0.5691
 1776SOL    HW2 6942   9.232   5.823   2.952  2.9744 -2.2200  0.2016
 1777SOL     OW 6943   4.447   5.264   1.647 -0.4363 -0.5914  0.1862
 1777SOL    HW1 6944   4.482   5.351   1.667  2.1392 -0.9180 -2.2747
 1777SOL    HW2 6945   4.523   5.207   1.650 -1.4629 -2.1321 -1.6343
 1778SOL     OW 6946   9.413   1.205   9.141  0.0244 -0.5732 -0.0312
 1778SOL    HW1 6947   9.367   1.196   9.224  2.1532 -4.0009  1.0132
 1778SOL    HW2 6948   9.496   1.247   9.165 -1.5135  3.9148 -1.5916
 1779SOL     OW 6949   4.948   1.953   1.079 -0.3807 -0.1614  0.2706
 1779SOL    HW1 6950   4.893   2.000   1.017  0.7583  0.4616 -0.3078
 1779SOL    HW2 6951   5.033   1.944   1.035  0.7521  1.0886  2.0200
 1780SOL     OW 6952   0.973   9.108   2.072 -0.0392 -0.0989 -0.3253
 1780SOL    HW1 6953   0.903   9.057   2.032 -0.0139 -0.4283  0.0545
 1780SOL    HW2 6954   1.047   9.097   2.013  0.0820 -0.8181 -0.0397
 1781SOL     OW 6955   0.262   7.426   6.073 -0.3436  0.3777  0.1625
 1781SOL    HW1 6956   0.247   7.374   5.995 -1.2476  0.6343  0.1566
 1781SOL    HW2 6957   0.348   7.397   6.105 -0.3711 -0.3652 -0.4103
 1782SOL     OW 6958   8.967   2.771   5.680  0.3788 -0.3980  0.3352
 1782SOL    HW1 6959   8.951   2.865   5.684  0.7056 -0.3644  1.2004
 1782SOL    HW2 6960   8.951   2.741   5.770  2.8415 -0.7241  0.7395
 1783SOL     OW 6961   4.335   4.628   2.508  0.1947  0.7274  0.0151
 1783SOL    HW1 6962   4.409   4.647   2.451  0.5677  0.2106  0.3174
 1783SOL    HW2 6963   4.258   4.645   2.454  0.5290 -0.7567 -1.0082
 1784SOL     OW 6964   0.737   2.292   6.753  0.2298  0.1262  0.6112
 1784SOL    HW1 6965   0.693   2.242   6.822  0.9679  0.1076  1.0760
 1784SOL    HW2 6966   0.666   2.322   6.696 -0.2671 -1.0810  0.5652
 1785SOL     OW 6967   2.251   5.600   4.827  0.6086 -0.1073  0.1742
 1785SOL    HW1 6968   2.268   5.592   4.733 -0.6122 -1.5537  0.0238
 1785SOL    HW2 6969   2.160   5.572   4.837  0.6303  0.2895  1.7635
 1786SOL     OW 6970   5.144   0.533   7.488 -0.5142  0.0153 -1.0434
 1786SOL    HW1 6971   5.172   0.476   7.416  1.5116  1.9793 -1.9212
 1786SOL    HW2 6972   5.084   0.596   7.447  0.0616  0.6809 -0.8833
 1787SOL     OW 6973   8.008   9.235   9.720 -0.6124 -0.1569  0.4433
 1787SOL    HW1 6974   7.945   9.164   9.706 -1.0374  0.2417  0.3288
 1787SOL    HW2 6975   7.965   9.293   9.784  0.5476 -1.0120  2.0846
 1788SOL     OW 6976   7.335   8.188   6.269 -0.4080  0.3085  0.1446
 1788SOL    HW1 6977   7.277   8.138   6.325  1.6589  0.0690  2.2459
 1788SOL    HW2 6978   7.338   8.275   6.309 -0.2264  0.6529 -0.6020
 1789SOL     OW 6979   8.455   3.821   8.759 -0.1756  0.0790 -0.3667
 1789SOL    HW1 6980   8.457   3.725   8.756 -0.0415  0.0778 -0.2743
 1789SOL    HW2 6981   8.503   3.849   8.681  0.3728  0.0663 -0.0387
 1790SOL     OW 6982   8.424   4.693   2.885  0.1290 -0.3278 -0.7559
 1790SOL    HW1 6983   8.351   4.639   2.917 -0.8859  2.0631  1.3803
 1790SOL    HW2 6984   8.503   4.645   2.910 -0.7099 -1.5414 -0.3434
 1791SOL     OW 6985   1.880   0.902   3.809  0.1547  0.0904 -0.1424
 1791SOL    HW1 6986   1.866   0.828   3.750 -1.7883 -0.4715  0.9178
 1791SOL    HW2 6987   1.798   0.951   3.806  0.5023  0.7935  1.0626
 1792SOL     OW 6988   0.119   0.756   5.391  0.0621  0.9021 -0.2304
 1792SOL    HW1 6989   0.039   0.766   5.442  0.4747 -0.1606  0.6710
 1792SOL    HW2 6990   0.111   0.820   5.321 -1.6259  0.7375 -0.2262
 1793SOL     OW 6991   4.513   2.475   7.968  0.0359 -0.1121 -0.0225
 1793SOL    HW1 6992   4.475   2.394   7.935 -0.7933 -0.1874  1.0341
 1793SOL    HW2 6993   4.535   2.456   8.060 -0.4225  0.9223  0.3249
 1794SOL     OW 6994   8.481   1.821   8.895 -0.0623 -0.4275 -0.0234
 1794SOL    HW1 6995   8.463   1.893   8.955 -1.6278 -0.7572 -0.0425
 1794SOL    HW2 6996   8.575   1.808   8.900  0.2462  1.5836  0.0171
 1795SOL     OW 6997   6.644   7.571   1.079  0.2234 -0.1584  0.2019
 1795SOL    HW1 6998   6.658   7.637   1.011  0.3638  2.9441  2.9888
 1795SOL    HW2 6999   6.554   7.585   1.108  0.5636 -0.5062  1.4908
 1796SOL     OW 7000   4.547   1.055   0.744  0.1325  0.3257 -0.2504
 1796SOL    HW1 7001   4.484   1.019   0.806  0.4883 -0.1387 -0.1485
 1796SOL    HW2 7002   4.498   1.119   0.693 -0.5544 -0.4296 -0.5447
 1797SOL     OW 7003   5.095   3.714   8.883 -0.0551 -0.0432 -0.2918
 1797SOL    HW1 7004   5.128   3.803   8.873 -0.4162  0.1108 -0.1540
 1797SOL    HW2 7005   5.153   3.660   8.830  1.3945 -0.0184  1.1654
 1798SOL     OW 7006   7.442   2.663   2.758  0.0892  0.1013  0.0102
 1798SOL    HW1 7007   7.490   2.727   2.705  2.2936 -2.6014 -1.5475
 1798SOL    HW2 7008   7.371   2.633   2.701 -1.9035  2.0604  1.2878
 1799SOL     OW 7009   5.302   5.257   4.034  0.1295 -0.2354  0.2279
 1799SOL    HW1 7010   5.251   5.188   4.076 -0.4312 -0.4168 -0.7288
 1799SOL    HW2 7011   5.327   5.315   4.106 -0.1812 -0.9335  0.9098
 1800SOL     OW 7012   6.856   6.615   0.225 -0.0481 -0.0617 -0.3069
 1800SOL    HW1 7013   6.855   6.588   0.317  1.4825  1.3558  0.1604
 1800SOL    HW2 7014   6.844   6.533   0.176 -2.3895 -0.6828  1.1186
 1801SOL     OW 7015   0.416   7.765   9.789  0.1754 -0.1896  0.5913
 1801SOL    HW1 7016   0.500   7.720   9.788 -0.0275 -0.5855  1.0404
 1801SOL    HW2 7017   0.409   7.800   9.878  0.6507  1.3530  0.0441
 1802SOL     OW 7018   3.303   2.847   2.134 -0.6128 -0.0036  0.8296
 1802SOL    HW1 7019   3.321   2.834   2.227 -2.1221 -2.8788  0.8240
 1802SOL    HW2 7020   3.390   2.856   2.094  0.4397 -3.4939  1.9977
 1803SOL     OW 7021   1.849   6.262   6.188 -0.3139  0.3312 -0.0051
 1803SOL    HW1 7022   1.783   6.218   6.134  0.3399  0.4535 -0.9419
 1803SOL    HW2 7023   1.916   6.196   6.203 -0.0816  0.5480 -0.0760
 1804SOL     OW 7024   9.138   6.426   5.838  0.4067 -0.1675  0.2365
 1804SOL    HW1 7025   9.130   6.355   5.902 -1.3748  0.3707  0.6664
 1804SOL    HW2 7026   9.181   6.386   5.763 -0.0844 -1.5723  0.6775
 1805SOL     OW 7027   8.427   2.700   9.753 -0.6294  0.5495  0.2299
 1805SOL    HW1 7028   8.461   2.632   9.695 -1.6780 -1.4743  1.8566
 1805SOL    HW2 7029   8.459   2.782   9.716  1.9151 -0.9028 -1.0117
 1806SOL     OW 7030   6.323   3.137   4.123  0.1774  0.5740 -0.1584
 1806SOL    HW1 7031   6.292   3.076   4.056 -0.7026  2.5631 -1.6628
 1806SOL    HW2 7032   6.375   3.082   4.182 -0.4332 -1.5891 -1.4798
 1807SOL     OW 7033   4.323   0.481   1.350  0.7798 -0.7754  0.4004
 1807SOL    HW1 7034   4.366   0.496   1.266  0.6628  1.2634  0.6415
 1807SOL    HW2 7035   4.231   0.497   1.333  0.5943 -1.4905  0.6918
 1808SOL     OW 7036   2.088   4.981   9.570  0.2943  0.5474  0.3101
 1808SOL    HW1 7037   2.173   4.938   9.558 -0.3528 -0.4317 -1.0698
 1808SOL    HW2 7038   2.026   4.924   9.524 -1.0233  1.5512  0.7854
 1809SOL     OW 7039   6.787   7.112   8.060 -0.2523 -0.0052  0.2699
 1809SOL    HW1 7040   6.806   7.204   8.042  0.8998 -0.1588  0.5769
 1809SOL    HW2 7041   6.871   7.068   8.045 -0.5992 -0.8885  0.8869
 1810SOL     OW 7042   3.861   6.772   7.042  0.2381 -0.6773  0.0019
 1810SOL    HW1 7043   3.886   6.851   6.995  0.3034 -0.2365  0.7693
 1810SOL    HW2 7044   3.945   6.731   7.065  0.3158  0.5362  2.1257
 1811SOL     OW 7045   7.728   1.398   9.202  0.0514  0.2288 -0.4967
 1811SOL    HW1 7046   7.801   1.359   9.250  0.2808  0.8318 -0.3374
 1811SOL    HW2 7047   7.654   1.339   9.217  0.3113  0.0223 -0.0164
 1812SOL     OW 7048   6.644   2.369   9.028  0.1987  0.6702 -0.2858
 1812SOL    HW1 7049   6.684   2.367   9.115 -1.0378 -0.5993  0.2860
 1812SOL    HW2 7050   6.693   2.436   8.981  0.5149  1.7918  1.5591
 1813SOL     OW 7051   0.151   3.925   1.293  0.7712  0.0994 -0.2517
 1813SOL    HW1 7052   0.123   3.968   1.212 -0.6450  0.6233  0.4801
 1813SOL    HW2 7053   0.174   3.836   1.266  1.2224  0.5380 -1.3695
 1814SOL     OW 7054   8.285   7.382   2.950 -0.0348 -0.2703 -0.2221
 1814SOL    HW1 7055   8.310   7.298   2.988 -0.9913 -1.3039 -1.7440
 1814SOL    HW2 7056   8.362   7.437   2.961  2.5168 -2.7827 -3.2669
 1815SOL     OW 7057   5.792   7.880   5.869  0.1306 -0.2201  0.0236
 1815SOL    HW1 7058   5.819   7.875   5.961  2.2973  0.9248 -0.4904
 1815SOL    HW2 7059   5.739   7.960   5.864 -0.7994 -0.7953  0.4356
 1816SOL     OW 7060   4.471   2.463   2.204  0.4093 -0.2626  0.3049
 1816SOL    HW1 7061   4.432   2.412   2.133 -0.6051 -1.8522  1.9324
 1816SOL    HW2 7062   4.421   2.544   2.205  0.2427 -0.3382 -0.5959
 1817SOL     OW 7063   3.919   7.115   0.657  0.0437 -0.1183 -0.0012
 1817SOL    HW1 7064   3.859   7.059   0.706 -0.2857 -0.7106 -1.0352
 1817SOL    HW2 7065   3.899   7.095   0.565  1.7980 -0.3038 -0.3668
 1818SOL     OW 7066   0.320   4.172   2.379  0.0882 -0.2456  0.6206
 1818SOL    HW1 7067   0.314   4.145   2.288  1.2692  0.5330  0.2970
 1818SOL    HW2 7068   0.305   4.266   2.378  1.0403 -0.0722  1.1010
 1819SOL     OW 7069   4.014   2.806   8.376 -0.0973  0.4038  0.2528
 1819SOL    HW1 7070   3.950   2.771   8.313  0.7685 -1.2440  0.2113
 1819SOL    HW2 7071   4.090   2.829   8.322  0.9060 -1.6428  0.6832
 1820SOL     OW 7072   2.132   2.335   4.635 -0.2102 -0.2030  0.1374
 1820SOL    HW1 7073   2.217   2.308   4.599  0.5065 -0.9308  2.1958
 1820SOL    HW2 7074   2.137   2.311   4.728 -2.2017  0.8973  0.5885
 1821SOL     OW 7075   4.937   3.323   0.976 -0.0996  0.4231  0.4296
 1821SOL    HW1 7076   4.906   3.407   0.942 -1.0477  0.0953  0.4504
 1821SOL    HW2 7077   4.997   3.347   1.047  0.4277  1.0905 -0.2306
 1822SOL     OW 7078   2.545   6.842   8.023 -0.5946 -0.0281 -0.1396
 1822SOL    HW1 7079   2.554   6.776   8.092 -0.9923 -0.3257 -0.3691
 1822SOL    HW2 7080   2.572   6.924   8.065  0.3044 -0.3972  0.0298
 1823SOL     OW 7081   4.315   4.665   8.327  0.1971 -0.2054  0.8342
 1823SOL    HW1 7082   4.322   4.717   8.246  2.0587 -2.7777 -0.8144
 1823SOL    HW2 7083   4.224   4.637   8.330  0.3870 -1.2251 -1.2210
 1824SOL     OW 7084   4.114   8.025   8.477 -0.1063  0.2427  0.0174
 1824SOL    HW1 7085   4.063   7.945   8.486 -1.1584  0.9833  0.9713
 1824SOL    HW2 7086   4.082   8.066   8.397  0.3860 -0.2417 -0.4347
 1825SOL     OW 7087   3.023   8.476   1.989 -0.2949  0.1474  0.0818
 1825SOL    HW1 7088   3.014   8.493   1.895  0.9856 -0.0829 -0.0970
 1825SOL    HW2 7089   2.934   8.457   2.018 -0.8013  0.8633 -0.9553
 1826SOL     OW 7090   5.612   9.618   4.764 -0.0272 -0.1141 -0.1261
 1826SOL    HW1 7091   5.630   9.656   4.849  1.8056  1.7478 -1.2654
 1826SOL    HW2 7092   5.673   9.545   4.756  0.5763  0.3971 -0.2576
 1827SOL     OW 7093   7.724   0.804   8.604 -0.0250  0.6573  0.3262
 1827SOL    HW1 7094   7.715   0.879   8.545 -0.5140  0.2071 -0.1725
 1827SOL    HW2 7095   7.648   0.750   8.587  0.2733  0.0866  0.7602
 1828SOL     OW 7096   5.326   5.453   7.884  0.0294  0.2098  0.0030
 1828SOL    HW1 7097   5.274   5.505   7.945  1.4558 -0.5623  1.9865
 1828SOL    HW2 7098   5.323   5.364   7.919  2.9585  0.1970  0.5234
 1829SOL     OW 7099   7.357   9.522   8.556  0.1424 -0.4559 -0.3568
 1829SOL    HW1 7100   7.410   9.444   8.575 -0.6043 -0.7230  0.8059
 1829SOL    HW2 7101   7.398   9.592   8.607 -1.2504 -0.9350  1.5583
 1830SOL     OW 7102   0.995   5.358   8.008  0.2855  0.0004 -0.2123
 1830SOL    HW1 7103   1.077   5.317   8.036  0.2075 -0.7500 -1.0263
 1830SOL    HW2 7104   0.974   5.420   8.078  0.8955 -0.6860  0.6023
 1831SOL     OW 7105   1.475   8.321   8.136  0.4486 -0.8513  0.4034
 1831SOL    HW1 7106   1.548   8.332   8.196  0.3026  0.2706  0.3898
 1831SOL    HW2 7107   1.401   8.362   8.181  0.0511 -1.1135 -0.0035
 1832SOL     OW 7108   4.447   1.417   2.510 -0.3658  0.2847  0.1719
 1832SOL    HW1 7109   4.490   1.461   2.584 -1.2264  0.8113  0.3746
 1832SOL    HW2 7110   4.355   1.410   2.537 -0.2137 -1.9054  0.2638
 1833SOL     OW 7111   2.009   3.895   2.039 -0.0635 -0.0291  0.4292
 1833SOL    HW1 7112   2.012   3.957   1.966 -0.2193 -1.4679 -0.8338
 1833SOL    HW2 7113   2.100   3.888   2.068  0.1266 -0.0728 -0.1675
 1834SOL     OW 7114   1.453   1.429   5.577  0.4729  0.7650 -0.0166
 1834SOL    HW1 7115   1.432   1.338   5.560  0.2313  0.7716  0.2372
 1834SOL    HW2 7116   1.422   1.445   5.666  0.4031  1.1283 -0.1030
 1835SOL     OW 7117   9.277   5.534   4.871  0.1221 -0.7908 -0.1678
 1835SOL    HW1 7118   9.288   5.550   4.965  1.4628 -0.0377 -0.4232
 1835SOL    HW2 7119   9.240   5.616   4.837  1.3328 -0.3811 -0.5539
 1836SOL     OW 7120   0.572   7.105   0.674  0.1652 -0.0787  0.0817
 1836SOL    HW1 7121   0.570   7.144   0.761 -0.5543  0.9080 -0.3605
 1836SOL    HW2 7122   0.569   7.179   0.614  0.9362 -0.7321 -0.7992
 1837SOL     OW 7123   9.837   9.208   9.565 -0.2774  0.1645  0.2520
 1837SOL    HW1 7124   9.876   9.295   9.555  1.0781 -0.5735 -1.3825
 1837SOL    HW2 7125   9.749   9.226   9.599  0.6705  2.0151  1.9732
 1838SOL     OW 7126   9.766   4.543   8.955  0.1399 -0.0400  0.3893
 1838SOL    HW1 7127   9.857   4.525   8.935  0.0775  0.2592 -0.1945
 1838SOL    HW2 7128   9.767   4.582   9.043  0.5921  0.1514  0.3007
 1839SOL     OW 7129   0.115   7.510   7.628  0.3747  0.1297 -0.1496
 1839SOL    HW1 7130   0.061   7.515   7.707 -0.6506  0.2016 -0.8328
 1839SOL    HW2 7131   0.088   7.585   7.575  0.5538 -0.2864 -0.8576
 1840SOL     OW 7132   1.459   0.991   3.977 -0.7170  0.5279 -0.0479
 1840SOL    HW1 7133   1.428   0.964   4.064 -0.9447  2.0356  0.3799
 1840SOL    HW2 7134   1.438   0.918   3.920 -0.5409 -0.5189  1.1661
 1841SOL     OW 7135   0.934   7.620   3.653 -0.2554  0.1136 -0.4128
 1841SOL    HW1 7136   0.936   7.661   3.566  3.9752  1.7398  0.1926
 1841SOL    HW2 7137   0.899   7.688   3.710 -1.1461 -0.2449 -0.5090
 1842SOL     OW 7138   1.500   3.337   4.203 -0.3928  0.2719  0.1963
 1842SOL    HW1 7139   1.472   3.428   4.212  2.1733  1.0573  0.9118
 1842SOL    HW2 7140   1.501   3.303   4.292  1.0537  0.3584  0.2416
 1843SOL     OW 7141   1.017   4.354   9.374  0.1089 -0.8071  0.2569
 1843SOL    HW1 7142   0.969   4.294   9.317  1.6600 -2.2160  0.3421
 1843SOL    HW2 7143   0.971   4.351   9.457 -1.0593 -0.2126 -0.3471
 1844SOL     OW 7144   1.090   8.418   2.640 -0.0712 -0.0817 -0.0149
 1844SOL    HW1 7145   1.111   8.398   2.731  1.7648  0.6245 -0.2528
 1844SOL    HW2 7146   1.034   8.495   2.644 -1.9097 -1.3897  0.5906
 1845SOL     OW 7147   9.136   3.126   9.247  0.0269  0.3568 -0.0333
 1845SOL    HW1 7148   9.142   3.062   9.176  2.6122  0.8569 -0.3391
 1845SOL    HW2 7149   9.191   3.199   9.220  0.4536  0.9160  2.1295
 1846SOL     OW 7150   7.666   7.309   2.874 -0.0218 -0.0320 -0.1167
 1846SOL    HW1 7151   7.611   7.254   2.817  0.5976 -0.1650 -0.5981
 1846SOL    HW2 7152   7.608   7.333   2.947 -0.9187  0.3791 -0.9385
 1847SOL     OW 7153   5.340   5.621   4.892 -0.7453  0.2798  0.5033
 1847SOL    HW1 7154   5.394   5.678   4.947 -1.2890  1.1951  0.1168
 1847SOL    HW2 7155   5.255   5.665   4.888 -0.2470  1.1842 -2.4464
 1848SOL     OW 7156   8.186   4.244   5.498 -0.1710 -0.3487 -0.4663
 1848SOL    HW1 7157   8.190   4.285   5.585  0.0882 -1.4351  0.0493
 1848SOL    HW2 7158   8.093   4.233   5.481 -0.2035 -1.3162  0.2594
 1849SOL     OW 7159   2.059   2.044   6.110 -0.5941 -0.5090  0.0317
 1849SOL    HW1 7160   2.052   2.029   6.016  0.7825 -4.0494  0.3352
 1849SOL    HW2 7161   2.153   2.034   6.129 -0.7009  1.0489  1.6980
 1850SOL     OW 7162   6.728   3.742   5.849 -0.0761 -0.0586  0.5452
 1850SOL    HW1 7163   6.675   3.764   5.926 -1.3010 -0.4912 -0.1462
 1850SOL    HW2 7164   6.711   3.649   5.834  1.9016 -0.5478  1.0563
 1851SOL     OW 7165   7.611   6.994   2.020 -0.6304 -0.3345 -0.2512
 1851SOL    HW1 7166   7.689   7.039   1.988  0.7298 -2.1778  0.3300
 1851SOL    HW2 7167   7.586   7.041   2.100 -1.1325  1.2535 -1.2863
 1852SOL     OW 7168   3.124   8.170   4.133  0.1244  0.7548 -0.0007
 1852SOL    HW1 7169   3.071   8.227   4.077 -0.7933  0.7977  0.8615
 1852SOL    HW2 7170   3.214   8.198   4.119  0.0104  0.2008 -2.0596
 1853SOL     OW 7171   1.289   0.432   2.064  0.5708 -0.4488  0.2020
 1853SOL    HW1 7172   1.217   0.408   2.007 -1.3197 -1.0130  2.6383
 1853SOL    HW2 7173   1.300   0.526   2.051 -1.0995 -0.2193  0.2191
 1854SOL     OW 7174   3.640   6.009   0.805  0.5790  0.0726  0.4924
 1854SOL    HW1 7175   3.610   6.093   0.770 -1.0329 -0.3227  0.8325
 1854SOL    HW2 7176   3.569   5.979   0.861  0.9559 -1.6892  0.1128
 1855SOL     OW 7177   7.004   4.965   3.295  0.8214 -0.3781 -0.1102
 1855SOL    HW1 7178   7.046   5.030   3.239 -0.4085  0.9030  0.3840
 1855SOL    HW2 7179   6.917   4.955   3.257  1.1957 -2.2443 -0.5434
 1856SOL     OW 7180   1.353   1.238   3.860 -0.3486 -0.0360 -0.1474
 1856SOL    HW1 7181   1.391   1.153   3.879 -0.0910  0.3061  1.0034
 1856SOL    HW2 7182   1.384   1.294   3.931 -1.4452  0.7265 -0.2350
 1857SOL     OW 7183   1.852   9.779   2.323 -0.0567 -0.1067 -0.1862
 1857SOL    HW1 7184   1.878   9.816   2.407  0.0911  2.0668 -1.1369
 1857SOL    HW2 7185   1.765   9.814   2.306  0.0523 -0.2474 -1.0908
 1858SOL     OW 7186   1.755   3.609   4.545 -0.1849 -0.0399  0.2742
 1858SOL    HW1 7187   1.836   3.637   4.588 -1.0635  0.3348  1.7617
 1858SOL    HW2 7188   1.780   3.531   4.495  1.0359 -0.0957  0.9383
 1859SOL     OW 7189   0.703   3.442   4.406 -0.2890  0.0796  0.3167
 1859SOL    HW1 7190   0.745   3.361   4.378 -0.8590  0.3478 -1.4539
 1859SOL    HW2 7191   0.620   3.444   4.358 -0.3900  1.6085  0.4962
 1860SOL     OW 7192   1.645   8.594   5.592  0.3357  0.1084  0.3962
 1860SOL    HW1 7193   1.738   8.576   5.604  0.4835  0.8888  0.4728
 1860SOL    HW2 7194   1.631   8.584   5.498 -0.1975 -3.0976  0.7077
 1861SOL     OW 7195   0.215   2.773   8.582 -0.1484  0.1067 -0.2784
 1861SOL    HW1 7196   0.180   2.862   8.593  1.2746  0.6492  0.1395
 1861SOL    HW2 7197   0.141   2.722   8.549 -0.6341  1.7630 -1.9205
 1862SOL     OW 7198   9.514   2.095   1.061  0.2890  0.0542  0.5605
 1862SOL    HW1 7199   9.543   2.149   1.134 -0.2206  0.1859  0.6740
 1862SOL    HW2 7200   9.563   2.127   0.985  1.0479 -0.2900  0.9017
 1863SOL     OW 7201   7.761   2.710   0.996  0.5208 -0.1828  0.2056
 1863SOL    HW1 7202   7.689   2.760   0.958 -0.4852 -2.0899 -0.5423
 1863SOL    HW2 7203   7.824   2.702   0.924 -0.8088 -2.6995 -0.7950
 1864SOL     OW 7204   3.957   7.093   1.115  0.1646  0.2803  0.0348
 1864SOL    HW1 7205   3.897   7.162   1.143 -0.0733  0.3282 -0.5901
 1864SOL    HW2 7206   3.901   7.022   1.086  0.4032  0.3949 -0.7265
 1865SOL     OW 7207   0.006   2.336   3.387  0.2813  0.0761  0.0423
 1865SOL    HW1 7208   0.003   2.334   3.291  1.8461 -0.3908 -0.0108
 1865SOL    HW2 7209   0.019   2.428   3.409 -0.6691  0.2742 -0.1436
 1866SOL     OW 7210   8.319   9.090   0.287 -0.5342 -0.3315  0.3635
 1866SOL    HW1 7211   8.278   9.072   0.371 -0.6557  0.0870  0.3940
 1866SOL    HW2 7212   8.341   9.004   0.252 -0.5835 -0.5105  0.7720
 1867SOL     OW 7213   1.916   5.892   5.891  0.5328  0.2569 -0.2812
 1867SOL    HW1 7214   1.841   5.929   5.937  0.0643 -0.5194 -0.4209
 1867SOL    HW2 7215   1.959   5.836   5.956  2.5694  2.7384  0.6732
 1868SOL     OW 7216   4.420   1.662   8.441 -0.2181 -0.4714 -0.8957
 1868SOL    HW1 7217   4.377   1.746   8.455 -0.5043 -0.6706 -0.5428
 1868SOL    HW2 7218   4.477   1.652   8.517 -0.3093 -0.6685 -0.8525
 1869SOL     OW 7219   9.482   5.467   3.562 -0.0539  0.0391  0.0133
 1869SOL    HW1 7220   9.446   5.400   3.503  0.1974 -1.5432  1.5654
 1869SOL    HW2 7221   9.574   5.472   3.539  0.2779 -1.3506  0.9037
 1870SOL     OW 7222   3.261   7.263   2.795 -0.4822  0.1341 -0.3492
 1870SOL    HW1 7223   3.265   7.272   2.700 -0.5059 -1.2792 -0.5009
 1870SOL    HW2 7224   3.350   7.282   2.825 -0.2718 -0.2548 -0.7289
 1871SOL     OW 7225   7.202   2.484   4.104  0.2657  0.6210  0.0791
 1871SOL    HW1 7226   7.231   2.438   4.183 -1.4469 -0.4459  0.1595
 1871SOL    HW2 7227   7.242   2.435   4.032  1.4805  1.3294  0.2585
 1872SOL     OW 7228   8.208   9.378   1.390  0.1406 -0.0961 -0.3202
 1872SOL    HW1 7229   8.220   9.387   1.484  2.2155 -3.0926 -0.1477
 1872SOL    HW2 7230   8.142   9.309   1.380  0.2024 -0.0642 -1.0709
 1873SOL     OW 7231   4.711   8.448   6.628 -0.3634 -0.3543 -0.7187
 1873SOL    HW1 7232   4.728   8.542   6.626 -1.7300 -0.0545  0.5876
 1873SOL    HW2 7233   4.648   8.433   6.558 -1.1905 -0.0450 -0.0618
 1874SOL     OW 7234   3.960   0.104   1.691  0.2177  0.0552 -0.9426
 1874SOL    HW1 7235   3.966   0.172   1.757 -1.3826 -0.2632 -0.4078
 1874SOL    HW2 7236   4.029   0.124   1.628  0.0951  1.8688 -0.5301
 1875SOL     OW 7237   8.137   9.002   4.280 -0.9155 -0.0732 -0.1563
 1875SOL    HW1 7238   8.210   9.013   4.342  0.4268  0.2256 -1.7097
 1875SOL    HW2 7239   8.061   8.985   4.335 -0.4235  3.0952  1.7618
 1876SOL     OW 7240   4.787   6.131   5.701 -0.3806  0.0359  0.0164
 1876SOL    HW1 7241   4.792   6.226   5.703  0.9822  0.0012 -0.9600
 1876SOL    HW2 7242   4.749   6.108   5.786 -0.2709  1.4172  0.4667
 1877SOL     OW 7243   2.128   6.218   1.663  0.3436  0.3633 -0.4318
 1877SOL    HW1 7244   2.119   6.143   1.722  1.1207  0.6256  0.0267
 1877SOL    HW2 7245   2.203   6.197   1.607 -1.1394 -0.4585 -2.2266
 1878SOL     OW 7246   3.597   5.291   9.023  0.0987  0.3090  0.5656
 1878SOL    HW1 7247   3.667   5.356   9.022 -1.3264  1.8798 -0.2801
 1878SOL    HW2 7248   3.530   5.326   8.965 -1.1653 -1.4342  0.8942
 1879SOL     OW 7249   6.390   3.370   1.041  0.0895  0.5793 -0.5947
 1879SOL    HW1 7250   6.357   3.413   1.119 -0.0103  1.4947 -1.1341
 1879SOL    HW2 7251   6.315   3.364   0.982  0.6035  1.6721 -1.3875
 1880SOL     OW 7252   4.353   9.238   0.719 -0.3541  0.2313 -0.7890
 1880SOL    HW1 7253   4.333   9.147   0.740  1.0976 -0.2517 -1.4149
 1880SOL    HW2 7254   4.288   9.288   0.768 -0.3372 -1.0666  0.6490
 1881SOL     OW 7255   3.959   3.462   6.916 -0.4221 -0.0777 -0.4268
 1881SOL    HW1 7256   3.878   3.500   6.950 -0.9597 -2.1729  0.7925
 1881SOL    HW2 7257   4.020   3.535   6.913 -1.9161  1.2460  0.0545
 1882SOL     OW 7258   5.535   6.256   6.303 -0.4739  0.0226 -0.4582
 1882SOL    HW1 7259   5.456   6.311   6.305 -0.2973  0.2564  0.1710
 1882SOL    HW2 7260   5.604   6.312   6.340 -0.5875 -1.1029  1.5631
 1883SOL     OW 7261   4.447   6.461   2.587 -0.0089 -0.0295 -0.1000
 1883SOL    HW1 7262   4.375   6.495   2.535 -0.3119  1.0451  0.9925
 1883SOL    HW2 7263   4.405   6.423   2.664  0.4673 -1.1769 -0.3887
 1884SOL     OW 7264   9.271   4.290   7.450  0.2179  0.1369  0.6253
 1884SOL    HW1 7265   9.332   4.277   7.377 -0.4073  2.6827 -0.4558
 1884SOL    HW2 7266   9.211   4.358   7.419 -1.3424 -0.1716  2.7851
 1885SOL     OW 7267   1.168   4.729   3.257  0.0153  0.2476  0.2241
 1885SOL    HW1 7268   1.255   4.717   3.218 -0.7921 -0.2674 -1.5048
 1885SOL    HW2 7269   1.121   4.648   3.238  0.1823 -0.9820  4.1933
 1886SOL     OW 7270   7.754   3.669   2.064  0.0211 -0.1666  0.1168
 1886SOL    HW1 7271   7.689   3.600   2.068 -0.6272  0.4532  0.4638
 1886SOL    HW2 7272   7.831   3.628   2.025 -0.8583 -0.6909 -1.1051
 1887SOL     OW 7273   7.966   4.671   5.645  0.9504  0.0091  0.0274
 1887SOL    HW1 7274   7.930   4.614   5.713 -0.0029  0.6687  0.1007
 1887SOL    HW2 7275   8.054   4.637   5.629  0.6071 -1.1360  0.4584
 1888SOL     OW 7276   2.613   4.861   1.286  0.4825 -0.4759  0.6732
 1888SOL    HW1 7277   2.706   4.874   1.265  0.3679  0.1690  0.5452
 1888SOL    HW2 7278   2.566   4.895   1.210  0.1572 -2.0216  0.1418
 1889SOL     OW 7279   5.132   4.709   0.307 -0.1225  0.2343  0.5210
 1889SOL    HW1 7280   5.133   4.623   0.349  0.7465  0.1483  0.3349
 1889SOL    HW2 7281   5.127   4.690   0.213 -0.0826  0.3924  0.4866
 1890SOL     OW 7282   9.709   2.670   7.326  0.2889 -0.5309  0.7353
 1890SOL    HW1 7283   9.662   2.597   7.367 -0.5855 -1.2840 -1.4432
 1890SOL    HW2 7284   9.795   2.634   7.303 -0.1320 -0.9103 -0.3130
 1891SOL     OW 7285   1.223   8.707   3.961 -0.4964  0.2088 -0.2925
 1891SOL    HW1 7286   1.266   8.788   3.933  0.1030  0.1699  0.4952
 1891SOL    HW2 7287   1.256   8.640   3.902  2.8690 -0.4116  2.0602
 1892SOL     OW 7288   5.785   9.145   6.467 -0.4010 -0.2368  0.0273
 1892SOL    HW1 7289   5.707   9.200   6.461  0.1385  0.3614 -2.9032
 1892SOL    HW2 7290   5.821   9.164   6.554 -1.1613  2.7772 -0.2120
 1893SOL     OW 7291   0.591   7.724   3.961 -0.3695 -0.5339  0.5335
 1893SOL    HW1 7292   0.650   7.693   4.030  1.2238 -1.4965 -1.1765
 1893SOL    HW2 7293   0.556   7.644   3.922  1.1699 -0.1667 -1.7418
 1894SOL     OW 7294   3.446   3.151   8.476  0.1561 -0.4800 -0.1373
 1894SOL    HW1 7295   3.388   3.075   8.475  0.5513 -0.8133  1.3119
 1894SOL    HW2 7296   3.521   3.125   8.528 -0.2464  1.2864  1.4507
 1895SOL     OW 7297   4.792   8.204   6.009 -0.2131  0.3406  0.1454
 1895SOL    HW1 7298   4.784   8.236   5.919  2.3538  0.4546 -0.1151
 1895SOL    HW2 7299   4.822   8.114   6.000  2.2342  1.0239  0.8154
 1896SOL     OW 7300   9.209   0.079   9.522  0.3892 -1.0648 -0.1618
 1896SOL    HW1 7301   9.282   0.141   9.527 -0.6696  0.1375  1.1690
 1896SOL    HW2 7302   9.152   0.114   9.454 -0.3113 -0.4451  0.7333
 1897SOL     OW 7303   2.104   4.579   4.946  0.0253  0.4537  0.0705
 1897SOL    HW1 7304   2.102   4.664   4.902  1.3973  0.5320  0.1299
 1897SOL    HW2 7305   2.064   4.519   4.883  0.3521  0.8883 -0.5639
 1898SOL     OW 7306   1.729   4.675   5.658  0.1606 -0.0507  0.0448
 1898SOL    HW1 7307   1.795   4.605   5.657 -1.5756 -1.7848  0.0528
 1898SOL    HW2 7308   1.665   4.649   5.592 -0.7154  1.3764  0.2824
 1899SOL     OW 7309   8.129   8.383   4.038  0.3520  0.4511 -0.2481
 1899SOL    HW1 7310   8.180   8.464   4.039  1.1712 -0.0567  0.7881
 1899SOL    HW2 7311   8.140   8.349   3.949 -1.4511  2.3295 -1.2733
 1900SOL     OW 7312   4.406   2.332   4.580 -0.0343  0.1911  0.1819
 1900SOL    HW1 7313   4.491   2.343   4.623 -0.1068  0.4858  0.2520
 1900SOL    HW2 7314   4.355   2.280   4.642  0.4205 -0.8604 -0.2993
 1901SOL     OW 7315   4.427   0.103   7.005  0.0114 -0.0813 -1.0039
 1901SOL    HW1 7316   4.474   0.059   6.934 -1.3017 -1.6424 -0.9758
 1901SOL    HW2 7317   4.402   0.187   6.968  1.4979  0.1585 -1.5201
 1902SOL     OW 7318   4.238   8.524   1.392 -0.1667 -0.3433  0.1054
 1902SOL    HW1 7319   4.217   8.522   1.486 -0.3384  1.1323  0.1261
 1902SOL    HW2 7320   4.154   8.509   1.349 -0.5984  1.4822  0.2116
 1903SOL     OW 7321   5.344   8.127   7.210  0.1487  0.4506 -0.2551
 1903SOL    HW1 7322   5.388   8.050   7.245 -1.5174 -0.7987 -0.7514
 1903SOL    HW2 7323   5.413   8.177   7.166  1.5359  0.0693  1.4165
 1904SOL     OW 7324   4.362   6.670   2.306  0.3184 -0.2831  0.1679
 1904SOL    HW1 7325   4.309   6.596   2.276  1.7321 -1.6685  0.9362
 1904SOL    HW2 7326   4.312   6.705   2.380 -1.5614  1.1220 -1.6495
 1905SOL     OW 7327   7.087   0.308   9.411  0.3732  0.1004  0.0166
 1905SOL    HW1 7328   7.077   0.361   9.490 -0.6167  1.0716 -0.7289
 1905SOL    HW2 7329   7.146   0.237   9.437 -0.4817 -0.0004  1.8051
 1906SOL     OW 7330   7.686   0.232   7.474 -0.7583 -0.0581  0.1386
 1906SOL    HW1 7331   7.624   0.166   7.506  0.1926 -1.4918 -0.8221
 1906SOL    HW2 7332   7.667   0.310   7.525 -2.4086 -0.8666  0.8414
 1907SOL     OW 7333   4.934   1.220   8.002  0.6198 -0.5793 -0.4212
 1907SOL    HW1 7334   5.012   1.261   8.040  1.0362  0.1517 -2.0036
 1907SOL    HW2 7335   4.861   1.266   8.044  0.9840 -1.4413  1.2629
 1908SOL     OW 7336   7.057   8.483   0.214  0.0728  0.1101  0.2668
 1908SOL    HW1 7337   7.056   8.410   0.152  1.4703  1.6923 -1.7637
 1908SOL    HW2 7338   7.120   8.457   0.281 -0.1191 -0.9146  0.0583
 1909SOL     OW 7339   6.925   7.644   5.670  0.0322  0.6176 -0.4457
 1909SOL    HW1 7340   6.945   7.712   5.605  0.2387  0.7183 -0.2797
 1909SOL    HW2 7341   6.974   7.671   5.747  0.1589  0.2428 -0.3985
 1910SOL     OW 7342   6.718   4.348   6.357  0.5912 -0.0418  0.6686
 1910SOL    HW1 7343   6.766   4.343   6.274 -2.0232 -2.1665 -0.8825
 1910SOL    HW2 7344   6.709   4.442   6.373  0.6927  0.4636 -1.7727
 1911SOL     OW 7345   3.732   1.027   6.500  0.0976 -0.5699 -0.1269
 1911SOL    HW1 7346   3.730   0.974   6.421  1.2011 -1.0276  0.1351
 1911SOL    HW2 7347   3.715   0.965   6.571  0.0527 -0.3360  0.0695
 1912SOL     OW 7348   7.395   1.773   0.409  0.1400  0.2499 -0.0561
 1912SOL    HW1 7349   7.403   1.701   0.346 -0.3393 -0.5797  0.8078
 1912SOL    HW2 7350   7.322   1.747   0.466  0.9770  0.6712  1.2517
 1913SOL     OW 7351   8.166   9.313   4.920  0.1722 -0.0543 -0.0779
 1913SOL    HW1 7352   8.121   9.240   4.879  0.6257  0.0265 -0.7349
 1913SOL    HW2 7353   8.209   9.274   4.996 -0.4373 -0.2596  0.1674
 1914SOL     OW 7354   3.451   2.150   4.652 -0.3027 -0.3060 -0.0703
 1914SOL    HW1 7355   3.543   2.155   4.625  0.3573 -1.9413  1.6168
 1914SOL    HW2 7356   3.414   2.235   4.627  1.3289 -0.0584 -1.8811
 1915SOL     OW 7357   4.775   2.219   1.870  0.2095 -0.1133  0.0451
 1915SOL    HW1 7358   4.800   2.223   1.778  0.0944  0.3261  0.0321
 1915SOL    HW2 7359   4.730   2.135   1.879  1.0709 -0.6038 -0.0780
 1916SOL     OW 7360   5.705   2.817   8.197 -0.6026  0.2261  0.7491
 1916SOL    HW1 7361   5.767   2.881   8.233  0.2745  0.3445 -0.8885
 1916SOL    HW2 7362   5.756   2.770   8.131 -1.4997 -1.5442  1.2659
 1917SOL     OW 7363   3.772   8.853   1.200  0.1404 -0.2367 -0.0668
 1917SOL    HW1 7364   3.782   8.943   1.230  1.2151  0.4750 -2.3330
 1917SOL    HW2 7365   3.814   8.800   1.268 -0.0799  0.9872  1.0652
 1918SOL     OW 7366   0.154   1.085   0.183  0.0667  0.1561 -0.3698
 1918SOL    HW1 7367   0.174   1.071   0.091 -0.1471 -2.3602 -0.0984
 1918SOL    HW2 7368   0.059   1.077   0.189  0.2318 -2.1730  0.3332
 1919SOL     OW 7369   0.871   0.614   4.759  0.0463  0.2908  0.0043
 1919SOL    HW1 7370   0.786   0.644   4.727  0.5855  2.0185  0.0719
 1919SOL    HW2 7371   0.850   0.556   4.831 -1.0903  1.0293  0.3010
 1920SOL     OW 7372   4.336   8.260   5.473  0.4328 -0.1155  0.8721
 1920SOL    HW1 7373   4.297   8.315   5.405  0.6393  0.8007  1.4730
 1920SOL    HW2 7374   4.338   8.317   5.550  0.4165 -1.0617  1.5792
 1921SOL     OW 7375   0.796   6.612   1.350 -0.0565  0.0382  0.6050
 1921SOL    HW1 7376   0.888   6.619   1.322 -1.0074 -1.8467 -3.6277
 1921SOL    HW2 7377   0.765   6.703   1.349  1.4175  0.5910  0.9921
 1922SOL     OW 7378   2.517   2.997   4.948 -0.6200  0.0449  0.2268
 1922SOL    HW1 7379   2.442   2.982   4.890 -1.0378 -1.0574  1.0254
 1922SOL    HW2 7380   2.491   2.958   5.031  1.1635 -1.0883  0.2971
 1923SOL     OW 7381   9.058   2.772   9.161 -0.5220  0.2077 -0.2487
 1923SOL    HW1 7382   8.999   2.827   9.213 -1.7125  1.1391 -2.4221
 1923SOL    HW2 7383   9.012   2.688   9.153 -0.0839 -0.1228  0.6178
 1924SOL     OW 7384   1.608   5.878   3.944 -0.0982 -0.6247 -0.0821
 1924SOL    HW1 7385   1.572   5.837   4.023  1.6121  0.2017  1.2002
 1924SOL    HW2 7386   1.703   5.879   3.959  0.1599  0.8153 -1.5409
 1925SOL     OW 7387   7.725   5.472   5.806 -0.1210 -0.5405 -0.5030
 1925SOL    HW1 7388   7.696   5.410   5.739  0.6668 -0.4942 -0.8893
 1925SOL    HW2 7389   7.726   5.557   5.763 -0.1831 -0.4145 -0.2627
 1926SOL     OW 7390   2.550   6.547   2.146  0.0895  0.1141  0.4109
 1926SOL    HW1 7391   2.526   6.625   2.196  1.4369  0.5127  0.4751
 1926SOL    HW2 7392   2.646   6.547   2.146  0.1242 -1.5698  0.4498
 1927SOL     OW 7393   1.730   5.131   9.091  0.0596  0.9883  0.3403
 1927SOL    HW1 7394   1.696   5.061   9.145  1.0321 -1.0417 -1.5230
 1927SOL    HW2 7395   1.659   5.151   9.029  0.9300 -0.8948 -1.3768
 1928SOL     OW 7396   7.221   5.366   4.656 -0.3855  0.5084  0.1644
 1928SOL    HW1 7397   7.215   5.273   4.635  0.0645 -0.0645  2.2809
 1928SOL    HW2 7398   7.182   5.411   4.581 -2.7440 -1.4913  0.0742
 1929SOL     OW 7399   2.923   9.712   3.432  0.4896 -0.1744  0.2977
 1929SOL    HW1 7400   2.925   9.793   3.483  0.9162 -0.4079  0.6608
 1929SOL    HW2 7401   2.875   9.735   3.353  0.1908  0.3099  0.6107
 1930SOL     OW 7402   4.780   1.987   0.569  0.2160 -0.0607 -0.4618
 1930SOL    HW1 7403   4.867   1.978   0.530 -0.5778 -2.2722 -1.9533
 1930SOL    HW2 7404   4.720   1.988   0.495 -1.1356 -0.3151  0.5865
 1931SOL     OW 7405   3.147   3.013   9.213  0.4903  0.0286 -0.1280
 1931SOL    HW1 7406   3.166   3.097   9.171 -1.2243  0.1487 -0.7701
 1931SOL    HW2 7407   3.228   2.963   9.205  0.7804  0.7124 -2.0299
 1932SOL     OW 7408   9.827   3.146   5.561  0.5151 -0.0758  0.0157
 1932SOL    HW1 7409   9.903   3.131   5.617  0.4071 -1.0010 -0.0778
 1932SOL    HW2 7410   9.818   3.241   5.558  0.3455 -0.0086  1.8109
 1933SOL     OW 7411   1.715   5.346   7.852 -0.2906  0.0949  0.6714
 1933SOL    HW1 7412   1.790   5.291   7.872 -0.9011 -0.3009  1.9654
 1933SOL    HW2 7413   1.740   5.392   7.772  2.0492  1.2695  1.9657
 1934SOL     OW 7414   5.711   8.073   7.220  0.1607  0.3803 -0.3370
 1934SOL    HW1 7415   5.657   8.146   7.252 -1.1850  0.0530 -1.7477
 1934SOL    HW2 7416   5.652   7.998   7.218  0.8028 -0.1186 -1.4148
 1935SOL     OW 7417   2.555   0.683   7.088 -0.2152 -0.3467  0.3589
 1935SOL    HW1 7418   2.530   0.621   7.020  0.4200  1.0145 -1.1907
 1935SOL    HW2 7419   2.482   0.745   7.092  0.6814  0.8463 -0.7217
 1936SOL     OW 7420   4.805   5.310   2.861 -0.0628 -0.1628 -0.4445
 1936SOL    HW1 7421   4.781   5.273   2.776  0.1441  0.1520 -0.6432
 1936SOL    HW2 7422   4.893   5.276   2.879 -0.6207 -1.2808  0.2621
 1937SOL     OW 7423   0.016   6.530   1.234  0.3869 -0.2168 -0.1017
 1937SOL    HW1 7424   0.079   6.481   1.287 -1.0494 -1.0371  0.8951
 1937SOL    HW2 7425  -0.032   6.583   1.298 -1.0693 -0.8768 -0.6220
 1938SOL     OW 7426   3.501   9.670   7.595  0.1651 -0.2003  0.2377
 1938SOL    HW1 7427   3.497   9.727   7.518 -0.8266 -2.0133 -1.1305
 1938SOL    HW2 7428   3.539   9.589   7.563  0.6289 -0.6744  1.9040
 1939SOL     OW 7429   1.245   0.920   9.622  0.5494 -0.1250  0.2194
 1939SOL    HW1 7430   1.152   0.935   9.642  0.8885  1.6072  0.6512
 1939SOL    HW2 7431   1.284   0.897   9.706  0.4523 -1.3245 -0.0450
 1940SOL     OW 7432   5.300   0.813   2.885 -0.6458  0.0985  0.0344
 1940SOL    HW1 7433   5.340   0.897   2.903 -0.9363  0.0239  1.0733
 1940SOL    HW2 7434   5.373   0.751   2.881 -0.5668  0.1287  0.9140
 1941SOL     OW 7435   0.396   2.017   6.178 -0.1360  0.0142  0.3517
 1941SOL    HW1 7436   0.305   1.988   6.175  0.1153 -0.7056 -0.8615
 1941SOL    HW2 7437   0.424   1.998   6.267 -0.6491 -1.4372  0.2250
 1942SOL     OW 7438   6.719   2.641   0.453 -0.0450 -0.4676 -1.0705
 1942SOL    HW1 7439   6.811   2.645   0.424 -0.3191  0.2625 -1.8816
 1942SOL    HW2 7440   6.672   2.693   0.389 -0.8473  0.3091  0.1133
 1943SOL     OW 7441   4.861   9.149   8.470 -0.3339  0.0540  0.0485
 1943SOL    HW1 7442   4.842   9.057   8.455 -0.4272  0.1017 -0.1255
 1943SOL    HW2 7443   4.944   9.164   8.424 -0.4676  0.1274 -0.1696
 1944SOL     OW 7444   0.577   0.310   3.580 -0.4687 -0.5041  0.9622
 1944SOL    HW1 7445   0.672   0.294   3.579 -0.0952  1.4060  0.5288
 1944SOL    HW2 7446   0.566   0.378   3.646 -1.3742  0.0721  0.2352
 1945SOL     OW 7447   6.021   6.507   4.689  0.5013 -0.0100 -0.6690
 1945SOL    HW1 7448   6.063   6.582   4.647  0.7888 -0.1120 -0.5704
 1945SOL    HW2 7449   5.928   6.530   4.692  0.4591 -0.0687 -1.4841
 1946SOL     OW 7450   7.590   8.420   0.586  0.3171  0.4637 -0.0092
 1946SOL    HW1 7451   7.596   8.342   0.531  0.1437  0.7278 -0.4069
 1946SOL    HW2 7452   7.548   8.391   0.666 -1.9721  0.6344 -1.0876
 1947SOL     OW 7453   1.949   4.921   2.687  0.1199  0.6452 -0.5721
 1947SOL    HW1 7454   1.891   4.888   2.756  0.5551 -1.1327 -1.0037
 1947SOL    HW2 7455   1.969   4.844   2.634  2.3920  1.3293 -0.8018
 1948SOL     OW 7456   3.235   8.722   6.382  0.1059  0.2331  0.2607
 1948SOL    HW1 7457   3.322   8.704   6.417 -0.2031 -1.0893  0.3959
 1948SOL    HW2 7458   3.177   8.717   6.458 -0.3673 -1.1266 -0.1667
 1949SOL     OW 7459   7.092   6.000   5.960  0.3083  0.2482 -0.4042
 1949SOL    HW1 7460   7.119   6.066   5.897 -3.1273  0.7931 -1.5620
 1949SOL    HW2 7461   7.097   6.043   6.045  1.5557  0.7396 -0.7156
 1950SOL     OW 7462   5.853   0.380   8.084  0.2676 -0.1806  0.5701
 1950SOL    HW1 7463   5.844   0.470   8.114  1.5461  0.1924 -0.1014
 1950SOL    HW2 7464   5.890   0.387   7.996  3.2908 -1.3783  1.6086
 1951SOL     OW 7465   2.168   2.563   5.462  0.6336  0.4017  0.1693
 1951SOL    HW1 7466   2.091   2.619   5.475  0.6021  0.0069  2.0673
 1951SOL    HW2 7467   2.153   2.520   5.378 -1.6536 -0.2720  0.8285
 1952SOL     OW 7468   1.708   1.875   5.385 -0.1755 -0.3259 -0.4566
 1952SOL    HW1 7469   1.645   1.809   5.415 -0.6165  0.8257  1.3144
 1952SOL    HW2 7470   1.726   1.851   5.294 -0.1553 -2.9949  0.1492
 1953SOL     OW 7471   6.209   1.817   2.655 -0.5936 -0.2346 -0.4938
 1953SOL    HW1 7472   6.213   1.771   2.571  1.6195 -0.4034 -0.3626
 1953SOL    HW2 7473   6.220   1.747   2.720  0.2257  0.1861 -0.1787
 1954SOL     OW 7474   1.038   3.859   5.198 -0.5005  0.5311 -0.2551
 1954SOL    HW1 7475   1.041   3.839   5.292  2.6491  0.3681 -0.2747
 1954SOL    HW2 7476   1.100   3.798   5.159 -1.5871  0.7518 -2.4516
 1955SOL     OW 7477   2.730   6.360   9.258 -0.9003  0.0755 -0.0170
 1955SOL    HW1 7478   2.704   6.329   9.171 -1.2897 -0.5516  0.3114
 1955SOL    HW2 7479   2.653   6.344   9.312 -0.5865  0.2650  0.4897
 1956SOL     OW 7480   4.320   7.938   8.717  0.2920 -0.2310 -0.0789
 1956SOL    HW1 7481   4.363   7.893   8.645  1.6781 -0.0995  0.6258
 1956SOL    HW2 7482   4.249   7.879   8.743 -0.7973  0.1198 -2.0732
 1957SOL     OW 7483   4.522   5.998   5.598  0.1150  0.3106  0.7606
 1957SOL    HW1 7484   4.477   6.059   5.656 -1.2669  0.1896 -0.1399
 1957SOL    HW2 7485   4.571   5.941   5.657  0.7155  1.7091  1.6619
 1958SOL     OW 7486   3.967   0.401   1.083  0.8868  0.0383  0.1789
 1958SOL    HW1 7487   4.050   0.417   1.038  0.4285  1.8460 -0.0652
 1958SOL    HW2 7488   3.900   0.415   1.017  0.2933  0.7636  0.9159
 1959SOL     OW 7489   3.233   4.805   8.843  0.1124  0.2227  0.3795
 1959SOL    HW1 7490   3.151   4.848   8.870 -0.3651 -1.1330  1.1765
 1959SOL    HW2 7491   3.299   4.839   8.904 -0.0711  0.5073  0.4214
 1960SOL     OW 7492   7.113   3.306   7.485 -0.2806 -0.4679  0.0279
 1960SOL    HW1 7493   7.089   3.345   7.569 -1.3705 -0.3633 -0.3058
 1960SOL    HW2 7494   7.048   3.341   7.423 -0.8170 -2.1689 -0.4399
 1961SOL     OW 7495   7.023   4.174   4.005 -0.5383  0.1436  0.2230
 1961SOL    HW1 7496   7.024   4.082   3.979  0.7035  0.9190 -2.8459
 1961SOL    HW2 7497   7.115   4.196   4.018 -0.8694  0.8409  1.5210
 1962SOL     OW 7498   6.268   1.518   5.949 -0.3687  0.5426  0.1029
 1962SOL    HW1 7499   6.309   1.598   5.915  1.0590 -0.6756 -1.1748
 1962SOL    HW2 7500   6.186   1.512   5.900  0.3674  0.2920 -1.1421
 1963SOL     OW 7501   3.563   1.590   7.127 -0.1950  0.3085  0.0675
 1963SOL    HW1 7502   3.610   1.562   7.205 -1.2620 -1.2175  0.1951
 1963SOL    HW2 7503   3.630   1.634   7.073  1.3142 -1.4650  0.3904
 1964SOL     OW 7504   5.976   3.564   7.396  0.7097 -0.1166  0.1088
 1964SOL    HW1 7505   5.882   3.555   7.411  0.8178 -0.7391  0.4437
 1964SOL    HW2 7506   6.017   3.529   7.475  1.2294 -0.1791 -0.1776
 1965SOL     OW 7507   1.066   6.372   8.388 -0.1626 -0.2106 -0.1077
 1965SOL    HW1 7508   1.136   6.352   8.451  0.8860  1.9155 -0.5025
 1965SOL    HW2 7509   0.985   6.353   8.435  0.6493 -0.8450  1.0759
 1966SOL     OW 7510   9.148   0.062   5.428  0.1348 -0.1187  0.3120
 1966SOL    HW1 7511   9.195   0.104   5.500  2.0599  0.8906 -1.4254
 1966SOL    HW2 7512   9.074   0.120   5.409  1.3727  1.2909 -0.4579
 1967SOL     OW 7513   8.297   4.814   1.348  0.1928 -0.2967  0.2330
 1967SOL    HW1 7514   8.229   4.855   1.294 -0.6160 -0.9401  0.7293
 1967SOL    HW2 7515   8.331   4.742   1.295 -0.9883 -1.2790  0.7458
 1968SOL     OW 7516   4.793   7.820   1.184  0.3625 -0.9813  0.3921
 1968SOL    HW1 7517   4.863   7.773   1.229 -0.6444 -1.4302  1.5730
 1968SOL    HW2 7518   4.827   7.909   1.173  1.0848 -1.1630  1.0507
 1969SOL     OW 7519   4.362   9.260   5.479  0.3754  0.1757  0.0702
 1969SOL    HW1 7520   4.403   9.222   5.401  1.4130 -0.8931  1.0856
 1969SOL    HW2 7521   4.389   9.202   5.550  0.0931  1.5535  1.3451
 1970SOL     OW 7522   3.679   7.884   8.651  0.3987  0.2351  0.1748
 1970SOL    HW1 7523   3.626   7.808   8.626  1.3402 -0.1521 -0.7128
 1970SOL    HW2 7524   3.759   7.846   8.687  0.2406  0.8190  1.1922
 1971SOL     OW 7525   2.999   1.511   5.763 -0.2846  0.3618 -0.2675
 1971SOL    HW1 7526   3.070   1.462   5.722  0.3278  0.7267  0.3324
 1971SOL    HW2 7527   2.971   1.456   5.837  1.2403  1.4156  1.1706
 1972SOL     OW 7528   9.589   8.650   6.805  0.1965  0.4138 -0.3503
 1972SOL    HW1 7529   9.668   8.675   6.852  0.6443  0.7909 -1.2860
 1972SOL    HW2 7530   9.606   8.673   6.714 -1.5312  1.8390 -0.3744
 1973SOL     OW 7531   9.466   3.807   2.515  0.1909  0.1699  0.2186
 1973SOL    HW1 7532   9.475   3.832   2.423  1.4766 -0.2213  0.2219
 1973SOL    HW2 7533   9.377   3.834   2.538  0.0524  0.8156 -0.9690
 1974SOL     OW 7534   3.643   7.434   8.782  0.1146  0.1048 -0.2110
 1974SOL    HW1 7535   3.631   7.389   8.698  1.8690  0.0110 -0.4400
 1974SOL    HW2 7536   3.693   7.373   8.836  1.6587  1.3288 -0.1749
 1975SOL     OW 7537   6.954   4.628   9.575  0.0897 -0.4210 -0.0934
 1975SOL    HW1 7538   6.958   4.670   9.488 -0.1971 -1.7077 -0.7552
 1975SOL    HW2 7539   6.869   4.583   9.575  0.5748 -1.3554  0.4069
 1976SOL     OW 7540   2.306   9.162   1.114  0.2449  0.2607  0.2682
 1976SOL    HW1 7541   2.389   9.114   1.116 -0.3109 -0.7764 -0.5238
 1976SOL    HW2 7542   2.244   9.103   1.156 -0.0271  1.2063  1.2272
 1977SOL     OW 7543   5.923   8.787   7.222 -0.0080  0.1792  0.4492
 1977SOL    HW1 7544   5.978   8.774   7.299 -0.5408  0.8120  0.9498
 1977SOL    HW2 7545   5.970   8.850   7.168 -0.0241  0.3822  0.6679
 1978SOL     OW 7546   3.607   2.703   8.394  0.3897 -0.3294 -0.1324
 1978SOL    HW1 7547   3.567   2.625   8.432 -1.2341  1.1815  1.5073
 1978SOL    HW2 7548   3.546   2.774   8.415  0.8452  1.1391 -3.1785
 1979SOL     OW 7549   4.946   0.032   7.936  0.4037 -0.0239  0.0776
 1979SOL    HW1 7550   5.039   0.041   7.913  0.4518 -0.0254  0.2733
 1979SOL    HW2 7551   4.916   0.121   7.951  0.1771  0.0500 -0.7458
 1980SOL     OW 7552   9.419   8.002   9.205  0.3498  0.5306  0.0835
 1980SOL    HW1 7553   9.436   7.937   9.273  1.6310  1.8510  1.1153
 1980SOL    HW2 7554   9.506   8.020   9.167  0.2642  2.4805  0.6852
 1981SOL     OW 7555   1.878   7.934   4.338  0.3377 -0.6058  0.0884
 1981SOL    HW1 7556   1.810   7.867   4.333 -0.2751  0.0697 -0.7760
 1981SOL    HW2 7557   1.955   7.886   4.369 -0.5041 -1.3820  1.0416
 1982SOL     OW 7558   4.669   2.829   8.482 -0.6076 -0.1654  0.5628
 1982SOL    HW1 7559   4.600   2.844   8.547  1.5275 -0.1299  2.9957
 1982SOL    HW2 7560   4.719   2.911   8.481 -1.1331  0.2005 -1.9515
 1983SOL     OW 7561   7.658   2.117   7.787  0.0007 -0.0850 -0.0205
 1983SOL    HW1 7562   7.619   2.190   7.837 -1.0731 -0.1903 -0.6765
 1983SOL    HW2 7563   7.682   2.053   7.853  1.5096  1.0942  0.6311
 1984SOL     OW 7564   6.908   4.575   4.100  0.0507 -0.5027 -0.1727
 1984SOL    HW1 7565   6.990   4.530   4.119 -0.8002 -1.9871  0.0899
 1984SOL    HW2 7566   6.934   4.666   4.085  1.6151 -0.7229  0.9517
 1985SOL     OW 7567   8.856   0.091   3.051  0.8242 -0.4390  0.3003
 1985SOL    HW1 7568   8.921   0.021   3.046  2.1010  0.7912 -2.2469
 1985SOL    HW2 7569   8.860   0.133   2.966 -0.6386  2.1041  1.3867
 1986SOL     OW 7570   5.299   5.320   2.305  0.0960 -0.0589  0.0136
 1986SOL    HW1 7571   5.257   5.292   2.223  0.2401 -0.4132  0.0587
 1986SOL    HW2 7572   5.229   5.360   2.356  0.1796  1.0054 -0.6553
 1987SOL     OW 7573   8.535   6.638   7.329  0.1459  1.0605  0.5607
 1987SOL    HW1 7574   8.501   6.573   7.391  1.3463  0.2407  0.4049
 1987SOL    HW2 7575   8.586   6.699   7.383  1.1591  0.3686  0.4320
 1988SOL     OW 7576   3.791   9.736   8.172  0.6029  0.0254  0.5491
 1988SOL    HW1 7577   3.733   9.785   8.114 -0.7633 -1.2601  0.7555
 1988SOL    HW2 7578   3.749   9.741   8.258  1.9394  0.8470  1.1966
 1989SOL     OW 7579   5.966   1.233   8.042 -0.2962  0.5335  0.0383
 1989SOL    HW1 7580   5.953   1.297   8.112 -1.6374 -0.9852  1.2630
 1989SOL    HW2 7581   6.012   1.160   8.084 -0.9347 -0.3125 -0.6828
 1990SOL     OW 7582   5.856   7.631   2.995  0.5011  0.0579 -0.2086
 1990SOL    HW1 7583   5.905   7.553   2.967  0.2028 -0.3491  0.3829
 1990SOL    HW2 7584   5.907   7.704   2.962  1.4870 -0.3629  0.3263
 1991SOL     OW 7585   2.287   2.091   4.271 -0.1570 -0.3630  0.4437
 1991SOL    HW1 7586   2.202   2.049   4.264 -0.7224  0.9425 -1.0512
 1991SOL    HW2 7587   2.347   2.032   4.225 -0.3766 -0.9410  0.8906
 1992SOL     OW 7588   1.656   8.677   1.424  0.7631 -0.1493  0.6341
 1992SOL    HW1 7589   1.730   8.672   1.485  0.1387  0.6026  1.4776
 1992SOL    HW2 7590   1.591   8.618   1.462  0.7796 -0.5168  0.0974
 1993SOL     OW 7591   5.728   1.977   3.657  0.5780 -0.2727 -0.4871
 1993SOL    HW1 7592   5.745   2.068   3.682 -1.7090 -0.2008  1.1368
 1993SOL    HW2 7593   5.802   1.928   3.694  1.3718  0.8112 -0.5966
 1994SOL     OW 7594   8.482   1.443   7.560 -0.0071 -0.5541 -0.3402
 1994SOL    HW1 7595   8.547   1.372   7.552  0.4725 -0.0448 -1.0487
 1994SOL    HW2 7596   8.408   1.413   7.508 -0.5884 -1.3950  0.9318
 1995SOL     OW 7597   2.007   5.497   0.864  0.0491  0.1497  0.0535
 1995SOL    HW1 7598   2.091   5.470   0.826  0.3329  0.9531  0.0955
 1995SOL    HW2 7599   2.011   5.592   0.864 -1.4166  0.2495 -1.2079
 1996SOL     OW 7600   9.193   3.397   7.743 -0.2331  0.0535  0.7605
 1996SOL    HW1 7601   9.104   3.430   7.754 -0.7953 -1.7444  2.0952
 1996SOL    HW2 7602   9.249   3.472   7.761 -1.4484  0.7183  1.9418
 1997SOL     OW 7603   1.285   1.646   2.319  0.1137 -0.5751 -0.5965
 1997SOL    HW1 7604   1.203   1.653   2.369 -0.2249 -0.5667 -1.1446
 1997SOL    HW2 7605   1.273   1.569   2.264 -0.0119  0.0930 -1.5408
 1998SOL     OW 7606   0.072   8.019   1.975  0.1118  0.6385 -0.0311
 1998SOL    HW1 7607   0.166   8.020   1.959  0.1388  0.2821  0.1001
 1998SOL    HW2 7608   0.039   7.945   1.923  0.2735 -0.9022  1.8998
 1999SOL     OW 7609   0.101   2.215   2.889 -0.9399  0.2008 -0.4433
 1999SOL    HW1 7610   0.141   2.297   2.862 -0.7270  0.7649  1.4142
 1999SOL    HW2 7611   0.145   2.148   2.836  0.6422  1.0566 -0.2747
 2000SOL     OW 7612   5.318   6.540   1.958 -0.8635 -0.5299  0.2065
 2000SOL    HW1 7613   5.293   6.469   1.899  1.4394 -0.0781 -1.4539
 2000SOL    HW2 7614   5.235   6.576   1.989 -2.1499 -1.5814 -1.8053
 2001SOL     OW 7615   0.286   0.078   0.385 -0.9128  0.1656 -0.1563
 2001SOL    HW1 7616   0.243   0.014   0.442  0.8568 -0.0332  1.0044
 2001SOL    HW2 7617   0.215   0.138   0.361 -1.7132  0.4504  2.5048
 2002SOL     OW 7618   9.773   0.619   9.449 -0.0723 -0.4131  0.8426
 2002SOL    HW1 7619   9.711   0.617   9.522  0.6549 -0.3483  1.4704
 2002SOL    HW2 7620   9.777   0.711   9.423  1.5021 -0.0140  2.3376
 2003SOL     OW 7621   7.912   0.012   9.754  0.3618  0.5658 -0.5035
 2003SOL    HW1 7622   7.893  -0.038   9.834 -1.3601 -0.7652 -1.6717
 2003SOL    HW2 7623   7.845   0.080   9.752  0.8969  1.0988 -0.4212
 2004SOL     OW 7624   2.599   8.514   1.034 -0.0160 -0.1353  0.2701
 2004SOL    HW1 7625   2.685   8.542   1.003 -0.6126 -0.3368 -1.7264
 2004SOL    HW2 7626   2.579   8.436   0.981 -1.6292  0.1976  0.3441
 2005SOL     OW 7627   7.387   3.709   0.089 -0.1058 -0.2018  0.0671
 2005SOL    HW1 7628   7.482   3.695   0.085 -0.2446 -1.0950 -0.2696
 2005SOL    HW2 7629   7.371   3.781   0.028  0.1796 -1.0834 -1.0910
 2006SOL     OW 7630   0.287   5.301   2.099  0.7451  0.1657 -0.1123
 2006SOL    HW1 7631   0.361   5.304   2.159 -0.6913  0.6976  1.7559
 2006SOL    HW2 7632   0.309   5.361   2.029  1.9178  0.5803  0.5971
 2007SOL     OW 7633   2.928   1.602   8.925  0.1968  0.0982  0.6702
 2007SOL    HW1 7634   2.917   1.566   8.837 -2.2152 -0.0105  0.9629
 2007SOL    HW2 7635   2.866   1.555   8.979  0.6828  1.0993  2.1759
 2008SOL     OW 7636   6.209   6.724   4.338  0.3064 -0.3371 -0.0827
 2008SOL    HW1 7637   6.158   6.643   4.341 -1.2369  0.5897  2.4064
 2008SOL    HW2 7638   6.276   6.713   4.406 -1.6418  1.3527  2.3187
 2009SOL     OW 7639   6.546   2.845   4.509  0.3819  0.2047 -0.1819
 2009SOL    HW1 7640   6.565   2.755   4.534  0.9991  0.4066  0.0814
 2009SOL    HW2 7641   6.584   2.898   4.579  0.4565  0.6916 -0.5870
 2010SOL     OW 7642   4.622   4.057   0.383  0.3593  0.5384  0.3687
 2010SOL    HW1 7643   4.682   4.118   0.340  0.0547  1.4377  1.1894
 2010SOL    HW2 7644   4.609   4.094   0.471  0.1050 -0.6671  0.8583
 2011SOL     OW 7645   5.331   7.215   1.989  0.6367  0.8308  0.6978
 2011SOL    HW1 7646   5.340   7.150   2.058 -0.4696  0.3489  0.4108
 2011SOL    HW2 7647   5.265   7.276   2.021  0.3318  0.7684  0.2032
 2012SOL     OW 7648   9.151   7.706   6.446  0.0243  0.2553  0.0982
 2012SOL    HW1 7649   9.100   7.643   6.497  0.2060  0.4788  0.5568
 2012SOL    HW2 7650   9.115   7.791   6.469  0.0045  0.3488 -0.2675
 2013SOL     OW 7651   8.797   8.032   8.454 -0.3384 -0.2568  0.0675
 2013SOL    HW1 7652   8.817   7.948   8.412  1.0905  0.6351 -1.1416
 2013SOL    HW2 7653   8.847   8.031   8.535  0.4796 -0.1719 -0.4305
 2014SOL     OW 7654   7.428   0.858   1.313  0.1841 -0.4282  0.8973
 2014SOL    HW1 7655   7.389   0.877   1.398 -0.6608 -1.7143  0.8309
 2014SOL    HW2 7656   7.484   0.782   1.328  0.7837 -0.0718  0.4934
 2015SOL     OW 7657   0.514   8.566   5.936 -0.7055  0.2720 -0.2613
 2015SOL    HW1 7658   0.469   8.631   5.881 -0.4981  0.2405 -0.4733
 2015SOL    HW2 7659   0.556   8.618   6.005 -2.9681  0.1161  1.3337
 2016SOL     OW 7660   4.100   5.823   2.741  0.0926 -0.0078 -0.5757
 2016SOL    HW1 7661   4.044   5.846   2.668 -1.1931 -0.6109  0.1831
 2016SOL    HW2 7662   4.135   5.736   2.719 -2.3235 -1.3701  0.5933
 2017SOL     OW 7663   9.726   1.194   8.831 -0.2556  0.5411  0.2709
 2017SOL    HW1 7664   9.684   1.147   8.760 -0.7278  1.3310  0.0182
 2017SOL    HW2 7665   9.819   1.195   8.807 -0.4868  1.3336 -0.6621
 2018SOL     OW 7666   4.721   7.611   3.863 -0.2309 -0.3419 -0.5865
 2018SOL    HW1 7667   4.751   7.633   3.951  0.7928 -1.4378 -0.6245
 2018SOL    HW2 7668   4.753   7.521   3.849  0.4041  0.1155 -2.3980
 2019SOL     OW 7669   3.600   3.909   6.350 -0.3900 -0.0574  0.4637
 2019SOL    HW1 7670   3.654   3.935   6.275 -0.8341 -1.3972 -0.3689
 2019SOL    HW2 7671   3.657   3.918   6.426  0.7270 -0.5590 -0.2873
 2020SOL     OW 7672   8.360   6.559   6.575 -0.4607 -0.3861  0.0245
 2020SOL    HW1 7673   8.278   6.600   6.601 -0.4377 -1.3812  1.8799
 2020SOL    HW2 7674   8.419   6.573   6.649  0.4496 -1.2546 -0.4975
 2021SOL     OW 7675   1.871   7.322   7.150  0.1891  0.0380 -0.5085
 2021SOL    HW1 7676   1.963   7.301   7.133  0.2218  0.6315 -1.0952
 2021SOL    HW2 7677   1.874   7.409   7.190 -0.0492 -0.3958  0.4856
 2022SOL     OW 7678   6.968   2.442   1.408  0.2421 -0.3605 -0.0267
 2022SOL    HW1 7679   7.059   2.470   1.419  0.2764  0.0811 -1.2769
 2022SOL    HW2 7680   6.974   2.352   1.378  0.2045 -0.8457  1.3464
 2023SOL     OW 7681   6.700   4.255   7.763 -0.0304  0.6613 -0.2061
 2023SOL    HW1 7682   6.726   4.170   7.727 -3.0429  0.3307 -1.9484
 2023SOL    HW2 7683   6.694   4.313   7.686 -1.5629  1.3800  0.4046
 2024SOL     OW 7684   0.571   4.393   9.207  0.4416  0.6128 -0.4413
 2024SOL    HW1 7685   0.551   4.381   9.114 -0.3953  1.1351 -0.3362
 2024SOL    HW2 7686   0.661   4.425   9.208  0.3025  1.0401 -1.1010
 2025SOL     OW 7687   7.465   8.891   2.558  0.4241  0.1599 -0.0853
 2025SOL    HW1 7688   7.373   8.911   2.571  0.5949  0.2994  0.9997
 2025SOL    HW2 7689   7.509   8.976   2.557  0.4981  0.1325 -1.1400
 2026SOL     OW 7690   4.528   8.580   4.015  0.4851 -0.1755 -0.2487
 2026SOL    HW1 7691   4.578   8.579   3.932  1.1202 -0.2757  0.1262
 2026SOL    HW2 7692   4.474   8.659   4.009 -0.9601 -1.2140 -1.6107
 2027SOL     OW 7693   3.692   1.172   0.555  0.4387 -0.1567 -0.0574
 2027SOL    HW1 7694   3.657   1.156   0.643  0.2934  0.5817  0.0198
 2027SOL    HW2 7695   3.631   1.126   0.497  0.4428 -0.5119  0.2137
 2028SOL     OW 7696   5.734   3.510   5.808  0.4454 -0.4024  0.8195
 2028SOL    HW1 7697   5.807   3.493   5.867  0.9954 -2.1320 -0.2763
 2028SOL    HW2 7698   5.775   3.550   5.731 -0.0237  0.3112  0.9397
 2029SOL     OW 7699   9.406   0.757   6.854  0.1146 -0.5003 -0.4909
 2029SOL    HW1 7700   9.399   0.725   6.764  1.4191 -2.5784  0.0780
 2029SOL    HW2 7701   9.355   0.694   6.905  0.0836  0.1888  0.3431
 2030SOL     OW 7702   9.458   7.230   4.996 -0.0967  0.9860  0.2630
 2030SOL    HW1 7703   9.381   7.241   5.051 -1.2745 -0.7610 -0.9319
 2030SOL    HW2 7704   9.462   7.309   4.942 -1.0243  1.1080  0.3666
 2031SOL     OW 7705   9.495   7.327   0.735 -0.2215 -0.0902  0.0320
 2031SOL    HW1 7706   9.538   7.318   0.820  1.9219 -1.9769 -1.1483
 2031SOL    HW2 7707   9.530   7.408   0.698  0.7160 -0.5046 -0.0185
 2032SOL     OW 7708   5.890   2.200   2.829  0.4257  0.4165 -0.7412
 2032SOL    HW1 7709   5.982   2.221   2.844  0.5750 -0.1611 -0.8260
 2032SOL    HW2 7710   5.859   2.268   2.769  0.0819  2.1875  1.3218
 2033SOL     OW 7711   1.062   4.196   7.149  0.1796 -0.2007  0.1705
 2033SOL    HW1 7712   1.143   4.200   7.201 -0.8789 -0.9213  1.9691
 2033SOL    HW2 7713   1.060   4.106   7.116  0.3752 -0.0249 -0.3215
 2034SOL     OW 7714   2.987   6.439   6.069 -0.0012  0.1546 -0.2979
 2034SOL    HW1 7715   2.965   6.524   6.107  0.4601  1.2157 -2.2812
 2034SOL    HW2 7716   2.910   6.415   6.018  0.4451  0.1567 -0.9888
 2035SOL     OW 7717   0.771   1.475   6.416 -0.0560  1.0990 -0.3634
 2035SOL    HW1 7718   0.744   1.392   6.455 -0.2995  0.6549 -1.4174
 2035SOL    HW2 7719   0.755   1.463   6.322  1.1230  1.8687 -0.6889
 2036SOL     OW 7720   4.478   6.980   3.246 -0.0313 -0.3397  0.1212
 2036SOL    HW1 7721   4.567   7.013   3.230  0.7581 -2.1385  0.5693
 2036SOL    HW2 7722   4.462   6.918   3.175 -0.7381 -0.4032  0.3289
 2037SOL     OW 7723   8.976   8.870   3.272  0.3731  0.6962 -0.2347
 2037SOL    HW1 7724   8.883   8.852   3.252  0.5870 -0.8204 -0.0090
 2037SOL    HW2 7725   8.973   8.928   3.348 -0.4003  0.5144 -0.1108
 2038SOL     OW 7726   1.470   1.910   9.063 -0.0151 -0.3486  0.4515
 2038SOL    HW1 7727   1.444   1.979   9.003 -0.7576 -0.7364  0.3273
 2038SOL    HW2 7728   1.559   1.935   9.090  1.0718 -1.0790 -2.1464
 2039SOL     OW 7729   2.902   5.558   1.032  0.0690  0.1685 -0.5448
 2039SOL    HW1 7730   2.832   5.516   0.983 -0.5916  0.6462 -0.0327
 2039SOL    HW2 7731   2.901   5.514   1.117  2.1604 -1.6734 -1.3688
 2040SOL     OW 7732   8.201   0.005   6.056 -0.1681 -0.4601  0.7040
 2040SOL    HW1 7733   8.226   0.097   6.048 -1.1875 -0.1489  0.9992
 2040SOL    HW2 7734   8.207  -0.029   5.966 -0.8667  0.1796  0.4093
 2041SOL     OW 7735   7.456   7.699   5.763 -0.6091 -0.2093  0.2461
 2041SOL    HW1 7736   7.371   7.656   5.749 -1.3596  1.4753 -0.7310
 2041SOL    HW2 7737   7.516   7.655   5.703 -1.1668 -0.4106 -0.1721
 2042SOL     OW 7738   9.381   5.231   9.185 -0.3910 -0.4221  0.3048
 2042SOL    HW1 7739   9.452   5.215   9.124  0.1137  1.5910  0.2830
 2042SOL    HW2 7740   9.417   5.209   9.271 -1.0392 -3.0631 -0.0015
 2043SOL     OW 7741   2.513   8.571   1.274 -0.2566  0.5937  0.2964
 2043SOL    HW1 7742   2.572   8.560   1.199  0.9122 -1.3751  1.4172
 2043SOL    HW2 7743   2.427   8.586   1.235  0.1961 -1.0613 -1.4705
 2044SOL     OW 7744   9.405   5.190   8.546 -0.7080  0.0259 -0.0322
 2044SOL    HW1 7745   9.393   5.111   8.493  0.0121  1.0864 -1.8730
 2044SOL    HW2 7746   9.342   5.252   8.510 -0.8095  0.5150  0.9603
 2045SOL     OW 7747   3.010   6.635   4.235 -0.0694 -0.1147  0.2909
 2045SOL    HW1 7748   2.941   6.595   4.182 -1.9331 -0.3362  2.6962
 2045SOL    HW2 7749   3.066   6.562   4.261  0.3031 -0.1416 -0.5653
 2046SOL     OW 7750   4.465   1.298   1.371 -0.1481  0.5644 -0.3882
 2046SOL    HW1 7751   4.445   1.225   1.429  1.1620  0.4204 -0.0780
 2046SOL    HW2 7752   4.460   1.375   1.428 -2.3940  0.8625 -0.9039
 2047SOL     OW 7753   9.826   4.593   7.062  0.4515  0.3915  0.0299
 2047SOL    HW1 7754   9.757   4.537   7.097  0.2816  0.1125 -0.7277
 2047SOL    HW2 7755   9.789   4.682   7.064  0.3822  0.3537  0.3914
 2048SOL     OW 7756   4.673   0.721   3.065 -0.1864  0.3182 -0.2311
 2048SOL    HW1 7757   4.595   0.750   3.113  0.2348 -0.3090  0.8664
 2048SOL    HW2 7758   4.720   0.802   3.045 -2.0954  0.9188 -2.7277
 2049SOL     OW 7759   3.247   3.493   4.892 -0.0623 -0.2940 -0.1819
 2049SOL    HW1 7760   3.235   3.552   4.966 -0.9840 -0.1922 -0.3984
 2049SOL    HW2 7761   3.159   3.463   4.870  0.2472 -0.7088 -0.9245
 2050SOL     OW 7762   6.324   8.235   1.222 -0.1985 -0.1794  0.1492
 2050SOL    HW1 7763   6.275   8.308   1.261 -0.3890 -0.0455 -0.3234
 2050SOL    HW2 7764   6.314   8.248   1.127  1.1671  0.1292  0.0259
 2051SOL     OW 7765   0.769   0.624   3.944 -0.8196 -0.6651  0.1265
 2051SOL    HW1 7766   0.714   0.686   3.993 -0.2421  0.1090 -0.1894
 2051SOL    HW2 7767   0.856   0.636   3.981  0.4414  2.5078 -3.3042
 2052SOL     OW 7768   2.989   0.782   6.972  0.0632 -0.1333  0.1666
 2052SOL    HW1 7769   2.922   0.842   6.941  2.0393  1.9056 -0.4371
 2052SOL    HW2 7770   3.027   0.825   7.048 -0.3300 -2.0154  1.4983
 2053SOL     OW 7771   2.829   2.157   2.518  0.6091 -0.2585 -0.3354
 2053SOL    HW1 7772   2.765   2.179   2.450 -0.4643 -0.2630  0.6354
 2053SOL    HW2 7773   2.848   2.064   2.505  0.0299 -0.3815 -0.3296
 2054SOL     OW 7774   2.382   2.367   3.165  0.3163  0.4767 -0.1678
 2054SOL    HW1 7775   2.389   2.450   3.118  0.1892  0.6725  0.1531
 2054SOL    HW2 7776   2.331   2.389   3.244 -3.4772 -0.6748 -2.0268
 2055SOL     OW 7777   3.616   3.837   9.167  0.1911  0.1099  0.5152
 2055SOL    HW1 7778   3.699   3.820   9.211  1.0209 -0.2353 -1.0837
 2055SOL    HW2 7779   3.563   3.759   9.185  1.3792 -1.1102 -0.9556
 2056SOL     OW 7780   8.155   2.621   2.179 -0.3728  0.7653 -0.1075
 2056SOL    HW1 7781   8.106   2.610   2.097  1.1749  2.7633 -1.4021
 2056SOL    HW2 7782   8.180   2.713   2.180 -0.1259  0.7491  2.5461
 2057SOL     OW 7783   5.875   5.800   8.258  0.2938 -0.2240  0.4793
 2057SOL    HW1 7784   5.801   5.856   8.234  0.9714  0.6983  0.5020
 2057SOL    HW2 7785   5.856   5.772   8.347  1.1087  1.9684  1.4021
 2058SOL     OW 7786   0.107   5.858   3.225  0.3851 -0.1200  0.7439
 2058SOL    HW1 7787   0.106   5.866   3.130  1.5230  0.6638  0.7852
 2058SOL    HW2 7788   0.102   5.948   3.257  0.8417 -0.3266  1.4173
 2059SOL     OW 7789   8.264   8.116   8.627  0.1160  0.4095 -0.2881
 2059SOL    HW1 7790   8.306   8.053   8.685  1.4610  2.2713  0.8750
 2059SOL    HW2 7791   8.332   8.181   8.608 -1.4770  2.0920 -0.5534
 2060SOL     OW 7792   0.113   9.504   4.618  0.0302 -0.5265  0.5922
 2060SOL    HW1 7793   0.184   9.440   4.629  0.7204  0.2837  0.9916
 2060SOL    HW2 7794   0.091   9.499   4.525  0.5751 -0.8319  0.4699
 2061SOL     OW 7795   2.850   3.033   5.716  0.2773 -0.5540  1.1837
 2061SOL    HW1 7796   2.936   3.004   5.746  0.0954 -0.3717  1.9147
 2061SOL    HW2 7797   2.797   2.953   5.713  0.7535 -0.8497 -0.3461
 2062SOL     OW 7798   3.575   2.409   0.705 -0.0217  0.3104 -0.1254
 2062SOL    HW1 7799   3.567   2.447   0.617 -1.2479 -1.0941 -0.6652
 2062SOL    HW2 7800   3.538   2.475   0.763  0.5246  1.1337 -0.6937
 2063SOL     OW 7801   1.267   7.782   7.809 -0.2284  0.3203 -0.6277
 2063SOL    HW1 7802   1.222   7.818   7.885  1.5153  0.0129  0.6117
 2063SOL    HW2 7803   1.201   7.730   7.764 -0.8536 -1.0815  1.7371
 2064SOL     OW 7804   3.439   8.562   1.103  0.4665 -0.8082  0.0729
 2064SOL    HW1 7805   3.383   8.496   1.143 -1.1853  0.9712  0.8387
 2064SOL    HW2 7806   3.435   8.637   1.162  0.0711  0.9741 -2.0559
 2065SOL     OW 7807   2.744   8.139   3.426  0.4577  0.4406  0.2925
 2065SOL    HW1 7808   2.662   8.170   3.388  0.4388 -2.5747 -2.6380
 2065SOL    HW2 7809   2.718   8.095   3.507 -0.7310  0.2329 -0.1782
 2066SOL     OW 7810   5.326   4.162   3.918  0.2035  0.3512  0.0216
 2066SOL    HW1 7811   5.402   4.108   3.940 -1.0509 -0.9264  1.5667
 2066SOL    HW2 7812   5.278   4.171   4.001 -0.8161  1.9775 -0.6769
 2067SOL     OW 7813   4.104   1.476   3.507  0.0552  0.0550  0.6238
 2067SOL    HW1 7814   4.025   1.445   3.462  0.7138  0.1257 -0.6552
 2067SOL    HW2 7815   4.091   1.570   3.517 -0.1947  0.0034  0.7864
 2068SOL     OW 7816   5.927   9.445   3.511 -0.0505  0.4237  0.4477
 2068SOL    HW1 7817   5.994   9.505   3.479 -0.3521  0.0672 -0.8998
 2068SOL    HW2 7818   5.845   9.483   3.480 -0.2328 -0.7739 -0.6019
 2069SOL     OW 7819   3.916   3.789   9.719  0.0707 -1.0520  0.2504
 2069SOL    HW1 7820   3.970   3.857   9.679  0.3527 -0.5362  1.4677
 2069SOL    HW2 7821   3.970   3.753   9.789 -0.7663 -1.2397  0.8204
 2070SOL     OW 7822   7.326   3.630   9.313  0.8488 -0.0642 -0.6153
 2070SOL    HW1 7823   7.234   3.616   9.333  1.3941 -1.1799  1.4970
 2070SOL    HW2 7824   7.327   3.667   9.225 -1.6493  0.8822 -0.3253
 2071SOL     OW 7825   3.621   8.381   3.391  0.0545  0.5253 -0.2555
 2071SOL    HW1 7826   3.552   8.419   3.337 -0.1558  0.1108 -0.2818
 2071SOL    HW2 7827   3.694   8.443   3.383 -0.1989  0.7997 -0.4873
 2072SOL     OW 7828   5.222   8.233   9.801 -0.1475 -0.7270  0.0966
 2072SOL    HW1 7829   5.221   8.214   9.707 -2.0664 -0.0725 -0.0570
 2072SOL    HW2 7830   5.144   8.285   9.815  0.7823  0.2542  1.8694
 2073SOL     OW 7831   0.409   4.140   1.931  0.0482 -0.0968  0.1877
 2073SOL    HW1 7832   0.497   4.115   1.904 -0.1336 -0.7424  0.1797
 2073SOL    HW2 7833   0.382   4.207   1.868  0.4398 -0.0649  0.0506
 2074SOL     OW 7834   3.660   9.180   2.462  0.1539  0.2494 -0.2961
 2074SOL    HW1 7835   3.650   9.255   2.403 -0.2341  1.7533  1.6006
 2074SOL    HW2 7836   3.573   9.140   2.466 -0.0742  0.7855  0.0853
 2075SOL     OW 7837   5.968   3.593   8.453 -0.6380 -0.4748  0.2404
 2075SOL    HW1 7838   6.045   3.556   8.497  0.1338 -0.9238 -1.4130
 2075SOL    HW2 7839   5.975   3.687   8.469 -1.0169 -0.7107  2.0196
 2076SOL     OW 7840   8.719   8.216   8.827 -0.0965  0.2891  0.1395
 2076SOL    HW1 7841   8.674   8.152   8.882 -0.5926  0.8015  0.3510
 2076SOL    HW2 7842   8.812   8.198   8.839 -0.1548  0.9074  1.8111
 2077SOL     OW 7843   6.619   5.292   4.121  0.4685 -0.1025 -0.1157
 2077SOL    HW1 7844   6.546   5.312   4.062  0.2034  0.7918  0.4986
 2077SOL    HW2 7845   6.627   5.369   4.177  1.0697 -0.7090  0.6636
 2078SOL     OW 7846   4.076   3.668   9.427  0.2049 -0.2280  0.7752
 2078SOL    HW1 7847   4.114   3.672   9.515 -0.2635  0.5125  0.9585
 2078SOL    HW2 7848   4.136   3.718   9.372 -0.3632  0.7612  1.0227
 2079SOL     OW 7849   1.541   4.298   8.884  0.3645 -0.0660 -0.7017
 2079SOL    HW1 7850   1.461   4.264   8.844  0.1487 -1.7744  1.0456
 2079SOL    HW2 7851   1.514   4.330   8.969  1.4852 -0.4653 -0.1743
 2080SOL     OW 7852   3.999   3.337   9.025 -0.6262 -0.1523  0.6057
 2080SOL    HW1 7853   3.975   3.380   8.943  0.8846  0.9069  0.6833
 2080SOL    HW2 7854   4.095   3.344   9.029 -0.4334 -2.3929  1.2693
 2081SOL     OW 7855   4.880   2.942   1.249  0.0520  0.1157  0.0686
 2081SOL    HW1 7856   4.864   2.968   1.158 -0.8175  0.3148  0.2715
 2081SOL    HW2 7857   4.922   3.018   1.289 -0.4293  0.3776  0.0779
 2082SOL     OW 7858   3.421   6.443   6.807  0.2612 -0.4482  0.1556
 2082SOL    HW1 7859   3.470   6.514   6.764 -0.2480 -0.3936 -0.3562
 2082SOL    HW2 7860   3.424   6.465   6.900  0.5682 -0.0406  0.0532
 2083SOL     OW 7861   8.502   8.225   5.049 -0.2620  0.2990 -0.5526
 2083SOL    HW1 7862   8.470   8.164   5.116  0.4294 -0.7109 -1.1206
 2083SOL    HW2 7863   8.503   8.310   5.092  1.2044 -0.4919  1.0868
 2084SOL     OW 7864   4.726   2.882   0.192 -0.1095  0.1155 -0.1429
 2084SOL    HW1 7865   4.634   2.870   0.216 -0.1470 -0.6472 -0.6259
 2084SOL    HW2 7866   4.741   2.818   0.122  0.1840  1.7725 -1.6772
 2085SOL     OW 7867   9.097   2.343   5.979 -1.5288 -0.3487  0.1938
 2085SOL    HW1 7868   9.125   2.337   5.888  2.1319 -3.1704  1.2548
 2085SOL    HW2 7869   9.145   2.418   6.014 -2.9664  0.7608 -0.1267
 2086SOL     OW 7870   1.639   4.474   2.066  0.3622  0.2552  0.1712
 2086SOL    HW1 7871   1.622   4.564   2.093 -1.9649 -0.0778  0.0169
 2086SOL    HW2 7872   1.688   4.436   2.139  0.8766  1.4727  0.4839
 2087SOL     OW 7873   0.643   4.191   1.482  0.3903 -0.4916 -0.2258
 2087SOL    HW1 7874   0.688   4.261   1.530  2.6155 -0.0949 -2.6554
 2087SOL    HW2 7875   0.555   4.225   1.466  0.3854  0.3488  1.3932
 2088SOL     OW 7876   5.334   8.650   2.453  0.1005 -0.8901  0.5226
 2088SOL    HW1 7877   5.298   8.621   2.369  1.5609  1.4115 -1.0117
 2088SOL    HW2 7878   5.413   8.699   2.430  0.0273  0.6836  3.1967
 2089SOL     OW 7879   6.166   2.246   2.877 -0.0968 -0.2789 -0.4442
 2089SOL    HW1 7880   6.182   2.334   2.912  0.8890 -0.2355 -0.9801
 2089SOL    HW2 7881   6.239   2.193   2.911 -0.7618 -0.9363 -0.0030
 2090SOL     OW 7882   1.601   5.691   6.220 -0.0712  0.2748  0.5985
 2090SOL    HW1 7883   1.508   5.675   6.238 -0.6974  1.7953 -1.0007
 2090SOL    HW2 7884   1.611   5.786   6.230  1.5133  0.0461  1.4957
 2091SOL     OW 7885   5.569   3.375   5.957 -0.0464  0.7052 -0.1823
 2091SOL    HW1 7886   5.629   3.435   5.912 -0.0817 -0.1514 -1.4216
 2091SOL    HW2 7887   5.539   3.316   5.888  1.0938 -1.6766  1.2690
 2092SOL     OW 7888   6.959   6.141   0.299 -0.2831 -0.4025 -0.1356
 2092SOL    HW1 7889   7.012   6.175   0.226  0.2238  0.4913  0.6221
 2092SOL    HW2 7890   6.953   6.047   0.282 -0.1332 -0.2231 -1.3008
 2093SOL     OW 7891   8.520   4.040   4.547 -0.0310  0.0762 -0.0779
 2093SOL    HW1 7892   8.448   4.096   4.519  0.3168  1.6843  2.0352
 2093SOL    HW2 7893   8.477   3.965   4.589 -0.4606  0.0323 -0.5851
 2094SOL     OW 7894   0.889   8.385   0.884 -0.0212 -0.1728 -0.0059
 2094SOL    HW1 7895   0.941   8.308   0.906 -0.5923 -0.2831  1.0225
 2094SOL    HW2 7896   0.828   8.395   0.957 -0.0048  1.2246 -0.1544
 2095SOL     OW 7897   6.506   4.998   0.715 -0.2259  0.2871  0.1682
 2095SOL    HW1 7898   6.588   4.961   0.682 -0.5453 -0.5691  0.3176
 2095SOL    HW2 7899   6.476   4.935   0.780 -1.5334  0.0648 -0.6272
 2096SOL     OW 7900   8.231   4.698   7.961  0.3652  0.3303 -0.3448
 2096SOL    HW1 7901   8.247   4.785   7.996 -1.8663  0.6523  0.0165
 2096SOL    HW2 7902   8.255   4.639   8.033  3.3411  0.4503 -1.0946
 2097SOL     OW 7903   2.140   6.402   3.356 -0.4147 -0.4577  0.0813
 2097SOL    HW1 7904   2.057   6.366   3.386  0.1561 -1.6961  0.2325
 2097SOL    HW2 7905   2.157   6.358   3.272 -0.6830  0.9806 -0.7668
 2098SOL     OW 7906   1.485   5.138   1.868 -0.5047 -0.3041 -0.0489
 2098SOL    HW1 7907   1.425   5.085   1.816 -0.9880  0.2478 -0.0627
 2098SOL    HW2 7908   1.428   5.195   1.920 -0.0128 -0.3459  0.5483
 2099SOL     OW 7909   5.516   9.332   3.480  0.8704  0.3270 -0.3577
 2099SOL    HW1 7910   5.531   9.353   3.572  2.0991 -0.5892 -0.3154
 2099SOL    HW2 7911   5.422   9.345   3.466  0.1911 -1.7913  1.6613
 2100SOL     OW 7912   2.527   3.311   7.655  0.7927  0.0510  0.3677
 2100SOL    HW1 7913   2.499   3.238   7.710 -1.8445  0.3104 -0.5099
 2100SOL    HW2 7914   2.509   3.389   7.709 -2.5935  0.3611 -0.9980
 2101SOL     OW 7915   0.672   5.375   5.379 -0.2607  0.3051 -0.8887
 2101SOL    HW1 7916   0.694   5.341   5.466 -0.4124 -0.1838 -1.0383
 2101SOL    HW2 7917   0.752   5.366   5.329  0.5899  2.8672 -0.1328
 2102SOL     OW 7918   5.602   1.988   2.238  0.0267  0.2602  0.2983
 2102SOL    HW1 7919   5.512   2.016   2.224 -0.7522 -1.8247  0.7448
 2102SOL    HW2 7920   5.629   1.951   2.154  0.3062  0.4249  0.3138
 2103SOL     OW 7921   0.567   8.746   1.393 -0.0009  0.2072 -0.1581
 2103SOL    HW1 7922   0.570   8.821   1.452 -1.8855 -1.5931  2.4819
 2103SOL    HW2 7923   0.653   8.704   1.403  0.3677  0.9457 -0.1783
 2104SOL     OW 7924   7.540   4.187   3.909  0.1494  0.0732 -0.6777
 2104SOL    HW1 7925   7.483   4.234   3.848  0.1772 -0.2413 -0.9535
 2104SOL    HW2 7926   7.629   4.202   3.876  0.2708  0.9872  0.0491
 2105SOL     OW 7927   8.133   1.210   2.652  0.0355  0.0423 -0.1997
 2105SOL    HW1 7928   8.083   1.189   2.573  0.1668  1.3099 -0.6273
 2105SOL    HW2 7929   8.070   1.255   2.709  0.4020  0.6930 -0.3048
 2106SOL     OW 7930   7.938   0.781   1.837 -0.4737  0.1471 -0.2738
 2106SOL    HW1 7931   7.910   0.839   1.909  0.7608 -0.5373  0.8049
 2106SOL    HW2 7932   7.910   0.694   1.864  2.3015 -0.5274  0.7316
 2107SOL     OW 7933   8.144   1.557   9.057 -0.0084 -0.1543  0.0418
 2107SOL    HW1 7934   8.199   1.531   8.983  0.0197  1.4813 -0.5452
 2107SOL    HW2 7935   8.198   1.617   9.108 -0.1463 -1.0024  1.2456
 2108SOL     OW 7936   1.456   6.482   6.507 -0.0004 -0.0290  0.1263
 2108SOL    HW1 7937   1.543   6.448   6.487 -0.6501 -1.9559  0.3662
 2108SOL    HW2 7938   1.402   6.458   6.432 -0.5763  0.1285  0.4814
 2109SOL     OW 7939   9.743   9.552   5.189  0.0349  0.2914  0.1329
 2109SOL    HW1 7940   9.652   9.524   5.188  0.0525  0.2287 -0.6027
 2109SOL    HW2 7941   9.741   9.644   5.164  0.0623  0.6880  1.5452
 2110SOL     OW 7942   7.221   4.405   7.668 -0.4919  0.3921 -0.2307
 2110SOL    HW1 7943   7.312   4.400   7.699 -0.6554 -1.9865  0.0494
 2110SOL    HW2 7944   7.180   4.470   7.725  0.7518  0.6380  0.4190
 2111SOL     OW 7945   5.512   2.098   1.415 -0.2694 -0.4056 -0.1019
 2111SOL    HW1 7946   5.582   2.135   1.469 -0.4881  0.3872 -0.3647
 2111SOL    HW2 7947   5.497   2.011   1.454 -0.1596 -0.0027  0.8819
 2112SOL     OW 7948   8.728   0.836   5.113 -0.0439 -0.7410 -0.2652
 2112SOL    HW1 7949   8.804   0.793   5.153  1.4040  0.7655 -1.2406
 2112SOL    HW2 7950   8.763   0.919   5.079 -1.9461 -0.3984 -1.5477
 2113SOL     OW 7951   5.036   0.677   0.827  0.6102  0.4591 -0.7303
 2113SOL    HW1 7952   5.004   0.764   0.803  0.9851  1.1164  0.9922
 2113SOL    HW2 7953   5.102   0.694   0.894  0.1493 -1.1913  0.1877
 2114SOL     OW 7954   5.022   3.547   9.832  0.1534  0.5082 -0.3805
 2114SOL    HW1 7955   5.041   3.627   9.883  0.6007  0.3900 -0.3623
 2114SOL    HW2 7956   4.984   3.580   9.750 -0.0696  0.7218 -0.1951
 2115SOL     OW 7957   1.396   9.255   6.829 -0.0810 -0.0974  0.3681
 2115SOL    HW1 7958   1.399   9.229   6.736  2.1704  0.6387  0.1648
 2115SOL    HW2 7959   1.425   9.346   6.829 -1.4303  0.3650  1.7005
 2116SOL     OW 7960   7.045   3.987   0.059  0.2943 -0.4964 -0.4824
 2116SOL    HW1 7961   7.095   4.006  -0.021 -0.2420 -0.5684 -0.8338
 2116SOL    HW2 7962   6.969   4.044   0.055 -0.7453 -1.8484 -0.9883
 2117SOL     OW 7963   7.610   8.513   5.573 -0.2328  0.5244 -0.6035
 2117SOL    HW1 7964   7.572   8.545   5.655 -0.3692 -1.4417  0.1629
 2117SOL    HW2 7965   7.608   8.588   5.514 -2.8352  1.2227  0.2436
 2118SOL     OW 7966   4.630   8.707   8.488 -0.0497 -0.1087 -0.2214
 2118SOL    HW1 7967   4.569   8.780   8.498  3.1310  2.9947 -1.2522
 2118SOL    HW2 7968   4.613   8.674   8.400  0.6138  1.7192 -1.0918
 2119SOL     OW 7969   2.500   2.771   8.256 -0.4170 -0.0555 -0.5771
 2119SOL    HW1 7970   2.576   2.738   8.208  0.2803 -0.2842  0.6391
 2119SOL    HW2 7971   2.451   2.692   8.280 -0.4433  0.0161 -0.3964
 2120SOL     OW 7972   4.491   8.883   3.134  0.6769 -0.1547 -0.7403
 2120SOL    HW1 7973   4.557   8.893   3.066  0.7232 -0.8858 -0.8097
 2120SOL    HW2 7974   4.540   8.855   3.211  0.5642  0.2190 -0.5263
 2121SOL     OW 7975   7.622   5.050   7.476  0.4980  0.0474 -0.2912
 2121SOL    HW1 7976   7.528   5.063   7.461  0.1861 -1.0907  0.4727
 2121SOL    HW2 7977   7.641   5.101   7.554  0.8150  1.2879 -1.1550
 2122SOL     OW 7978   6.465   9.765   7.241  0.0454  0.9551 -0.0823
 2122SOL    HW1 7979   6.462   9.684   7.190  2.3380  0.6565  0.1729
 2122SOL    HW2 7980   6.498   9.738   7.327 -2.8987  1.5954  1.3739
 2123SOL     OW 7981   9.769   1.780   8.038  0.6645 -0.0684  0.3119
 2123SOL    HW1 7982   9.723   1.827   8.109  0.4934 -0.9164  0.7721
 2123SOL    HW2 7983   9.827   1.846   8.000 -0.8393  1.0102 -0.2118
 2124SOL     OW 7984   3.321   1.442   5.130 -0.1256 -0.3523  0.6293
 2124SOL    HW1 7985   3.397   1.388   5.153  1.1202  1.5417  1.2110
 2124SOL    HW2 7986   3.300   1.488   5.211 -0.2124  1.1040 -0.1854
 2125SOL     OW 7987   7.524   3.022   1.400 -0.4795  0.6457 -0.3623
 2125SOL    HW1 7988   7.550   2.932   1.379  0.5779  1.1285 -1.1822
 2125SOL    HW2 7989   7.436   3.013   1.437 -0.2894 -0.7498 -0.1957
 2126SOL     OW 7990   2.145   8.476   0.970  0.0941  0.3341 -0.0496
 2126SOL    HW1 7991   2.135   8.437   1.057  1.5148 -0.2107 -0.0877
 2126SOL    HW2 7992   2.100   8.560   0.975 -3.6548 -1.5013 -0.1517
 2127SOL     OW 7993   7.911   0.187   8.713  0.4595 -0.0814 -0.2766
 2127SOL    HW1 7994   8.001   0.162   8.693  0.7259  0.9525 -0.4096
 2127SOL    HW2 7995   7.909   0.194   8.808  0.8896  1.2062 -0.3490
 2128SOL     OW 7996   2.698   8.613   8.785 -0.5102  0.4596 -0.2248
 2128SOL    HW1 7997   2.676   8.569   8.867 -1.8444 -1.3472 -1.4522
 2128SOL    HW2 7998   2.792   8.601   8.776 -0.2475  1.1963  1.2887
 2129SOL     OW 7999   7.256   0.911   5.690 -0.2191  0.4430 -0.3887
 2129SOL    HW1 8000   7.308   0.991   5.681 -1.2990  1.4396  1.6119
 2129SOL    HW2 8001   7.287   0.854   5.620  1.4001  2.1633 -1.1424
 2130SOL     OW 8002   8.089   0.334   3.266  0.2990  0.2229 -0.8849
 2130SOL    HW1 8003   8.152   0.353   3.335  0.1196 -0.1110 -0.6267
 2130SOL    HW2 8004   8.031   0.411   3.265 -0.5490 -0.3799  0.2995
 2131SOL     OW 8005   1.204   7.462   8.082  0.4694 -0.3755  0.6272
 2131SOL    HW1 8006   1.159   7.404   8.144  0.0797 -0.2644  0.4499
 2131SOL    HW2 8007   1.243   7.530   8.137 -1.8066  1.0458  0.6153
 2132SOL     OW 8008   2.910   2.171   1.748 -0.5655  0.6213  0.4714
 2132SOL    HW1 8009   2.836   2.113   1.728 -0.6784  1.1657 -0.7462
 2132SOL    HW2 8010   2.869   2.247   1.791 -0.9920  1.7407 -1.7770
 2133SOL     OW 8011   5.756   6.555   4.730 -0.0494 -0.2643 -0.4758
 2133SOL    HW1 8012   5.685   6.618   4.720  1.2596  1.0651 -2.0459
 2133SOL    HW2 8013   5.740   6.513   4.814 -1.5294  1.4654  0.1593
 2134SOL     OW 8014   6.481   6.961   9.055  0.6612 -0.3616  0.4430
 2134SOL    HW1 8015   6.466   7.054   9.067  1.3338 -0.1419 -0.2707
 2134SOL    HW2 8016   6.530   6.934   9.132 -1.3105 -0.6014  1.6738
 2135SOL     OW 8017   4.896   2.268   7.243 -1.0479  0.7217  0.4848
 2135SOL    HW1 8018   4.882   2.254   7.337 -0.6845  1.8498  0.7218
 2135SOL    HW2 8019   4.824   2.222   7.200 -0.1604 -1.4774  1.2090
 2136SOL     OW 8020   9.827   6.923   7.189  0.4223 -0.1921  0.1930
 2136SOL    HW1 8021   9.861   6.975   7.116  1.9832 -1.3911  0.0116
 2136SOL    HW2 8022   9.892   6.854   7.201 -1.2267 -1.6833  0.8781
 2137SOL     OW 8023   9.044   7.765   5.437 -0.6252  0.0434  0.0219
 2137SOL    HW1 8024   9.035   7.670   5.428 -2.8831  0.3195 -1.3922
 2137SOL    HW2 8025   8.960   7.793   5.473 -0.0993  1.5484  0.1285
 2138SOL     OW 8026   8.282   9.656   5.539  0.2297  0.1442  0.5716
 2138SOL    HW1 8027   8.236   9.611   5.468 -1.6679  0.6694  1.3936
 2138SOL    HW2 8028   8.272   9.749   5.519 -0.2285  0.2945  1.4577
 2139SOL     OW 8029   9.292   2.215   3.400 -0.3157  0.2664 -0.5475
 2139SOL    HW1 8030   9.299   2.310   3.414 -1.5444  0.5179 -1.4555
 2139SOL    HW2 8031   9.383   2.184   3.404 -0.0574  1.0164  2.5626
 2140SOL     OW 8032   6.386   9.411   8.348  0.3458  0.0937  0.2081
 2140SOL    HW1 8033   6.298   9.386   8.377  0.0375 -1.5934 -1.9306
 2140SOL    HW2 8034   6.380   9.505   8.333 -1.5532 -0.1878 -1.2230
 2141SOL     OW 8035   7.448   4.673   9.823 -0.4686 -0.7631  0.0783
 2141SOL    HW1 8036   7.503   4.607   9.865 -0.3689 -0.1153  1.0020
 2141SOL    HW2 8037   7.497   4.755   9.832 -0.9272 -0.4278 -0.3848
 2142SOL     OW 8038   5.317   8.963   1.651 -0.1510  0.4164 -0.4402
 2142SOL    HW1 8039   5.264   8.905   1.706  0.4490  1.3521  1.1519
 2142SOL    HW2 8040   5.343   8.907   1.577 -2.6022 -0.3183 -0.8496
 2143SOL     OW 8041   8.383   2.938   6.386 -0.3373 -0.0113  0.0832
 2143SOL    HW1 8042   8.461   2.992   6.396 -1.4423  1.2941  2.5375
 2143SOL    HW2 8043   8.350   2.960   6.298  1.8738 -0.4467 -0.9076
 2144SOL     OW 8044   4.188   7.289   6.477  0.1406  0.2699  0.1491
 2144SOL    HW1 8045   4.157   7.346   6.406 -0.1134 -0.7530 -0.5953
 2144SOL    HW2 8046   4.183   7.342   6.556  0.3429  1.4146 -0.5910
 2145SOL     OW 8047   0.593   9.756   3.569 -0.1184 -0.0642  0.0210
 2145SOL    HW1 8048   0.534   9.804   3.627 -0.8671 -0.2508 -0.5654
 2145SOL    HW2 8049   0.535   9.701   3.516  0.6047 -0.4381 -0.4010
 2146SOL     OW 8050   1.326   1.542   0.523 -0.0402  0.1949  0.0905
 2146SOL    HW1 8051   1.328   1.462   0.471  2.1005  0.1092  0.2301
 2146SOL    HW2 8052   1.392   1.599   0.482 -0.0703  1.0776  1.2227
 2147SOL     OW 8053   8.568   8.439   9.393  0.4644 -0.0173  0.4782
 2147SOL    HW1 8054   8.637   8.375   9.411  0.5821 -0.4777 -1.3671
 2147SOL    HW2 8055   8.615   8.522   9.382  0.5510 -0.0369  0.6862
 2148SOL     OW 8056   9.474   8.939   8.375 -0.2646  0.0434  0.1337
 2148SOL    HW1 8057   9.449   8.848   8.392  0.7230 -0.7235 -2.1619
 2148SOL    HW2 8058   9.547   8.933   8.314  0.5714  2.3848  0.7935
 2149SOL     OW 8059   7.746   8.099   4.200  0.2584  0.2780 -0.3415
 2149SOL    HW1 8060   7.703   8.119   4.284 -1.2989  1.6529 -1.3871
 2149SOL    HW2 8061   7.766   8.185   4.164 -0.1116 -0.2522 -1.8667
 2150SOL     OW 8062   8.631   5.456   8.394 -0.1052  0.1747  0.2668
 2150SOL    HW1 8063   8.690   5.512   8.443 -1.8655  1.3096  1.1959
 2150SOL    HW2 8064   8.607   5.507   8.316 -0.8897  0.2948  0.5799
 2151SOL     OW 8065   2.771   7.022   9.042  0.2374  0.7233 -0.0839
 2151SOL    HW1 8066   2.746   7.086   8.976 -1.1598  0.1162 -0.1825
 2151SOL    HW2 8067   2.741   7.060   9.125 -1.4357 -0.1674 -0.2410
 2152SOL     OW 8068   8.280   3.215   5.989  0.5873  0.2880  0.1810
 2152SOL    HW1 8069   8.222   3.282   5.954  0.9660  0.5964  0.1408
 2152SOL    HW2 8070   8.332   3.187   5.914  0.8327  0.3618  0.3229
 2153SOL     OW 8071   4.924   4.623   4.765 -0.7368 -0.0292  0.0999
 2153SOL    HW1 8072   4.850   4.590   4.712 -0.7905 -1.5281  1.0389
 2153SOL    HW2 8073   5.001   4.588   4.720 -0.7488 -0.7154  0.5991
 2154SOL     OW 8074   2.713   5.190   9.118  0.0422  0.1143  0.2299
 2154SOL    HW1 8075   2.705   5.137   9.039 -1.4561 -0.1636  0.5278
 2154SOL    HW2 8076   2.796   5.162   9.158  0.2094 -0.6141 -0.6057
 2155SOL     OW 8077   0.566   6.898   7.260 -0.4031 -0.0335  0.0624
 2155SOL    HW1 8078   0.637   6.835   7.249  1.1739  1.6550  0.1092
 2155SOL    HW2 8079   0.579   6.934   7.348 -1.5519  0.0308  0.2185
 2156SOL     OW 8080   6.535   0.663   0.979  0.0845  0.4448  0.1007
 2156SOL    HW1 8081   6.580   0.580   0.990  0.5376  0.9336  2.2364
 2156SOL    HW2 8082   6.452   0.639   0.937 -0.4438 -1.3132  1.9749
 2157SOL     OW 8083   3.420   0.491   3.272  0.5404 -0.2279  0.4114
 2157SOL    HW1 8084   3.387   0.576   3.303  2.6981  0.8160 -0.0100
 2157SOL    HW2 8085   3.491   0.469   3.331  1.0858 -0.9417 -0.4823
 2158SOL     OW 8086   8.539   0.622   8.297 -0.5867 -0.4655 -0.1750
 2158SOL    HW1 8087   8.454   0.660   8.276  0.0348  2.3992  1.9482
 2158SOL    HW2 8088   8.597   0.653   8.227 -0.4472  1.2038  0.6416
 2159SOL     OW 8089   4.277   1.550   3.236 -0.3518  0.3568  0.3870
 2159SOL    HW1 8090   4.216   1.493   3.191 -0.4288  1.7101 -1.3295
 2159SOL    HW2 8091   4.363   1.517   3.213 -0.3968  0.8825 -0.5698
 2160SOL     OW 8092   1.049   7.245   6.989 -0.5934  0.0040 -0.3587
 2160SOL    HW1 8093   1.042   7.171   7.049  0.3056  0.0354 -0.2035
 2160SOL    HW2 8094   1.130   7.229   6.941 -0.1596  1.1007 -0.0252
 2161SOL     OW 8095   0.065   9.510   0.976 -0.1374  0.3826  0.2339
 2161SOL    HW1 8096   0.060   9.501   0.881 -1.1356 -0.6896  0.3522
 2161SOL    HW2 8097   0.117   9.436   1.005  0.1984  0.7272  0.5243
 2162SOL     OW 8098   4.388   5.036   9.235  0.0561  0.3375  0.4611
 2162SOL    HW1 8099   4.351   4.981   9.304  2.1871  0.6739  1.9581
 2162SOL    HW2 8100   4.446   5.096   9.280  1.6653  0.4753 -1.6326
 2163SOL     OW 8101   5.155   2.192   0.532  0.3926  0.1800  0.1036
 2163SOL    HW1 8102   5.112   2.233   0.457  2.2902  2.9817  0.3607
 2163SOL    HW2 8103   5.164   2.100   0.508 -1.2000  0.5118 -2.0254
 2164SOL     OW 8104   9.759   9.021   2.810 -0.1981 -0.2482  0.0117
 2164SOL    HW1 8105   9.755   8.987   2.721  1.0202 -0.4576  0.0205
 2164SOL    HW2 8106   9.679   9.072   2.820 -0.9813 -1.2815 -0.7553
 2165SOL     OW 8107   1.057   8.580   2.048 -0.6396 -0.2271  0.0824
 2165SOL    HW1 8108   1.083   8.597   2.139  2.0482 -0.0655 -0.6340
 2165SOL    HW2 8109   1.045   8.485   2.044 -0.3350 -0.2873  0.5098
 2166SOL     OW 8110   2.749   6.876   8.392 -0.6428 -0.2685 -0.2480
 2166SOL    HW1 8111   2.757   6.949   8.330  0.0057  0.4504  0.6499
 2166SOL    HW2 8112   2.713   6.804   8.340  2.5630 -0.6443 -2.2672
 2167SOL     OW 8113   8.678   5.484   6.724  0.2749 -0.4490 -0.1589
 2167SOL    HW1 8114   8.735   5.548   6.681  0.3517 -1.1138 -1.1078
 2167SOL    HW2 8115   8.735   5.408   6.737  0.3786 -0.0908  1.6137
 2168SOL     OW 8116   4.531   4.781   9.732  0.1474 -0.2200  0.0391
 2168SOL    HW1 8117   4.475   4.744   9.801 -2.2223  0.5395 -1.3475
 2168SOL    HW2 8118   4.563   4.705   9.684 -1.4272 -0.6602 -0.3772
 2169SOL     OW 8119   5.425   8.636   1.691  0.2145  0.0384 -0.2057
 2169SOL    HW1 8120   5.445   8.677   1.607 -0.4038 -1.1909 -0.9968
 2169SOL    HW2 8121   5.445   8.543   1.677 -0.4728 -0.2814  0.8053
 2170SOL     OW 8122   5.341   0.791   8.074  0.3271  0.0810  0.2380
 2170SOL    HW1 8123   5.392   0.745   8.007  0.5732  0.7555 -0.0474
 2170SOL    HW2 8124   5.250   0.772   8.051  0.4243 -0.2473  0.1160
 2171SOL     OW 8125   3.602   7.648   1.931  0.1333  0.1120  0.5350
 2171SOL    HW1 8126   3.629   7.587   1.862  0.2846 -0.6065  1.2110
 2171SOL    HW2 8127   3.557   7.718   1.885 -0.4862 -0.7612 -0.2219
 2172SOL     OW 8128   4.424   9.183   3.325 -0.3075 -0.5701  0.2648
 2172SOL    HW1 8129   4.436   9.165   3.418 -1.2516  0.4646  0.6118
 2172SOL    HW2 8130   4.513   9.198   3.292  0.0181 -0.6643  1.0646
 2173SOL     OW 8131   4.947   5.958   2.033 -0.5248  0.0435 -0.9519
 2173SOL    HW1 8132   4.879   5.975   2.098 -1.0975 -1.3077 -1.1828
 2173SOL    HW2 8133   5.021   5.926   2.084 -0.7731 -0.4592 -0.9064
 2174SOL     OW 8134   9.407   5.622   0.336  0.3497 -0.0974 -0.0191
 2174SOL    HW1 8135   9.345   5.586   0.272  0.5815 -1.0236  0.2626
 2174SOL    HW2 8136   9.353   5.644   0.412  0.4040 -1.1965  0.3445
 2175SOL     OW 8137   8.268   9.553   2.265 -0.3549  0.5238 -0.4221
 2175SOL    HW1 8138   8.271   9.550   2.169 -0.7747  0.1802 -0.4273
 2175SOL    HW2 8139   8.288   9.644   2.286  1.7114  0.2001 -0.7406
 2176SOL     OW 8140   0.241   9.062   0.445  0.6298 -0.1934  0.0695
 2176SOL    HW1 8141   0.326   9.061   0.401  1.3175  0.0881  1.3288
 2176SOL    HW2 8142   0.230   8.974   0.479  1.1843  0.1768  1.2637
 2177SOL     OW 8143   1.973   2.198   4.370 -0.1560  0.1224 -0.1955
 2177SOL    HW1 8144   1.965   2.107   4.340  2.5609  0.2782 -1.7878
 2177SOL    HW2 8145   1.942   2.196   4.460 -0.5542 -2.3203 -0.3024
 2178SOL     OW 8146   7.817   2.726   2.964  0.3223  0.0658  0.0851
 2178SOL    HW1 8147   7.795   2.742   3.056 -0.4623  1.3700 -0.2932
 2178SOL    HW2 8148   7.764   2.651   2.939  1.0056 -0.6840  0.8572
 2179SOL     OW 8149   0.504   4.698   3.947  0.4787 -0.1351 -0.0771
 2179SOL    HW1 8150   0.591   4.675   3.980  0.3106 -2.0891 -0.8155
 2179SOL    HW2 8151   0.474   4.618   3.905 -1.3731  0.7504 -0.5111
 2180SOL     OW 8152   6.220   5.854   1.178 -0.2912  0.2401 -0.4359
 2180SOL    HW1 8153   6.256   5.897   1.256  0.0822  1.6389 -1.3409
 2180SOL    HW2 8154   6.128   5.881   1.177 -0.9124 -1.6226  0.7163
 2181SOL     OW 8155   8.657   5.453   7.240  0.2479  0.4392  0.8339
 2181SOL    HW1 8156   8.616   5.375   7.276  0.9527  0.2250  1.1859
 2181SOL    HW2 8157   8.742   5.458   7.284  1.5562 -0.3422 -1.4546
 2182SOL     OW 8158   1.729   2.020   9.471  0.2751  0.6353  0.2709
 2182SOL    HW1 8159   1.700   1.975   9.551  0.9269  0.0276  0.1718
 2182SOL    HW2 8160   1.785   2.091   9.503  1.4771 -0.3125  0.3172
 2183SOL     OW 8161   2.654   9.816   0.954 -0.0453 -0.3365 -0.3003
 2183SOL    HW1 8162   2.698   9.876   0.894  2.1182  1.5256  2.8879
 2183SOL    HW2 8163   2.710   9.738   0.955 -0.1467 -0.4196 -0.6993
 2184SOL     OW 8164   3.073   6.097   3.763  0.1086  0.2558 -0.5287
 2184SOL    HW1 8165   3.050   6.023   3.820 -0.1536  0.9075  0.2313
 2184SOL    HW2 8166   2.996   6.109   3.707 -1.2546  2.0173  1.5738
 2185SOL     OW 8167   7.956   7.711   5.657  0.1354 -0.0865 -0.2994
 2185SOL    HW1 8168   7.861   7.704   5.656  0.1617 -0.4623 -0.1394
 2185SOL    HW2 8169   7.979   7.734   5.567 -0.0953 -0.1419 -0.3737
 2186SOL     OW 8170   1.401   8.985   6.244  0.0873 -0.2386  0.6303
 2186SOL    HW1 8171   1.367   8.921   6.307  0.5318 -0.9234  0.1871
 2186SOL    HW2 8172   1.461   8.935   6.189  1.2177  0.7637  0.8956
 2187SOL     OW 8173   3.323   2.180   2.900 -0.1237 -0.0881  0.4683
 2187SOL    HW1 8174   3.399   2.132   2.933  0.5863  0.6713 -0.0271
 2187SOL    HW2 8175   3.258   2.112   2.880  0.9987 -0.8914 -0.5858
 2188SOL     OW 8176   9.264   2.490   7.537  0.2514  0.3309 -0.0471
 2188SOL    HW1 8177   9.177   2.483   7.498  0.3088 -0.2834 -0.0660
 2188SOL    HW2 8178   9.284   2.584   7.534 -0.9609  0.6610  1.1521
 2189SOL     OW 8179   3.999   1.909   4.350  0.2836 -0.1281  0.1873
 2189SOL    HW1 8180   4.095   1.916   4.354  0.4833 -2.1526 -0.1570
 2189SOL    HW2 8181   3.977   1.842   4.414 -1.1524  1.6051  1.6411
 2190SOL     OW 8182   6.429   8.354   4.200  0.1032  0.4177 -0.5805
 2190SOL    HW1 8183   6.463   8.266   4.185  0.7174  0.6074 -0.3272
 2190SOL    HW2 8184   6.420   8.360   4.295  0.0983  0.6435 -0.5953
 2191SOL     OW 8185   1.775   7.274   2.555  0.0841  0.2042 -0.2526
 2191SOL    HW1 8186   1.843   7.279   2.488 -0.1533 -0.0518 -0.5191
 2191SOL    HW2 8187   1.818   7.234   2.630  0.6539  1.5181  0.1518
 2192SOL     OW 8188   5.845   4.147   4.556  0.1592 -0.4663  0.1375
 2192SOL    HW1 8189   5.792   4.215   4.515 -2.0027 -1.6143  0.8738
 2192SOL    HW2 8190   5.878   4.094   4.482 -0.5694 -0.3153 -0.3072
 2193SOL     OW 8191   3.449   5.797   4.184 -0.3998  0.3514  0.3564
 2193SOL    HW1 8192   3.509   5.871   4.189 -1.2437  0.9723  2.0871
 2193SOL    HW2 8193   3.504   5.721   4.202  0.8581  0.2272 -3.2706
 2194SOL     OW 8194   5.628   4.121   0.106 -0.2899 -0.1334  0.1967
 2194SOL    HW1 8195   5.709   4.142   0.153  0.0819  0.8771 -0.8525
 2194SOL    HW2 8196   5.647   4.039   0.062 -0.0173 -0.1798  0.3954
 2195SOL     OW 8197   1.951   5.656   6.737 -0.5313 -0.5555 -0.2060
 2195SOL    HW1 8198   1.992   5.582   6.782  0.6699 -0.4690 -1.1205
 2195SOL    HW2 8199   1.860   5.629   6.724 -0.1006 -1.8806 -0.5667
 2196SOL     OW 8200   3.785   2.766   0.854 -0.6729 -0.0313  0.1983
 2196SOL    HW1 8201   3.712   2.811   0.811 -0.8182 -0.8499 -0.4392
 2196SOL    HW2 8202   3.747   2.685   0.887  0.1359 -0.9393 -1.0107
 2197SOL     OW 8203   8.594   9.365   2.205  0.5298  0.3633 -0.0596
 2197SOL    HW1 8204   8.628   9.392   2.291 -0.3529  1.5597 -0.0519
 2197SOL    HW2 8205   8.618   9.437   2.147  2.0517 -0.9103 -1.0952
 2198SOL     OW 8206   4.802   5.078   9.096 -0.2088 -0.1074  0.0974
 2198SOL    HW1 8207   4.828   5.104   9.008 -3.9364 -1.0365 -1.4493
 2198SOL    HW2 8208   4.731   5.015   9.083 -0.4183 -0.8747  3.7941
 2199SOL     OW 8209   4.245   5.493   5.499  0.0304 -0.2583  0.1008
 2199SOL    HW1 8210   4.183   5.523   5.566  0.1213 -1.5732  0.8135
 2199SOL    HW2 8211   4.240   5.397   5.503  1.4096 -0.3840 -0.4827
 2200SOL     OW 8212   8.989   3.527   6.425  0.2972 -0.3053 -0.1675
 2200SOL    HW1 8213   9.063   3.575   6.462  1.0451 -0.6913 -1.1042
 2200SOL    HW2 8214   8.989   3.443   6.472  1.0726 -0.6880 -0.8262
 2201SOL     OW 8215   4.768   0.416   0.246  0.1435 -0.1508 -0.1166
 2201SOL    HW1 8216   4.809   0.479   0.306  0.2701  0.5824 -0.9391
 2201SOL    HW2 8217   4.842   0.378   0.198 -0.0334  0.3894 -0.8534
 2202SOL     OW 8218   9.606   3.016   8.550  0.2595  0.0699 -0.3467
 2202SOL    HW1 8219   9.531   2.995   8.607 -1.2308 -0.2138 -2.3002
 2202SOL    HW2 8220   9.630   3.106   8.574  1.5575 -0.9313  2.6214
 2203SOL     OW 8221   1.638   1.478   4.372  0.2218  0.1298 -0.0532
 2203SOL    HW1 8222   1.611   1.408   4.313  0.7411 -0.2082  0.1022
 2203SOL    HW2 8223   1.719   1.445   4.413 -1.3272 -0.6935  2.6337
 2204SOL     OW 8224   3.608   6.390   3.729 -0.4943 -0.1550 -0.4120
 2204SOL    HW1 8225   3.650   6.463   3.775  2.2626 -2.3228  0.7433
 2204SOL    HW2 8226   3.637   6.400   3.638 -0.7074  0.5596 -0.4080
 2205SOL     OW 8227   1.705   8.574   9.841  0.0262 -0.0176  0.0775
 2205SOL    HW1 8228   1.686   8.536   9.755 -0.2356 -0.3213  0.2694
 2205SOL    HW2 8229   1.775   8.638   9.824 -0.9489  0.9119 -0.5881
 2206SOL     OW 8230   1.539   4.077   8.261 -0.6470 -0.4204  0.3188
 2206SOL    HW1 8231   1.448   4.071   8.290 -0.4914  1.3712  1.3368
 2206SOL    HW2 8232   1.555   4.171   8.253  1.2986 -0.6860  0.7397
 2207SOL     OW 8233   5.033   9.684   4.381  0.0660 -0.1052  0.2742
 2207SOL    HW1 8234   5.034   9.670   4.286  1.0751  0.5929  0.1711
 2207SOL    HW2 8235   4.964   9.626   4.413  2.1617 -3.2221 -0.4318
 2208SOL     OW 8236   0.430   2.561   2.048 -0.4418  0.3627  0.9856
 2208SOL    HW1 8237   0.477   2.622   1.991  0.5364 -0.0073  1.3647
 2208SOL    HW2 8238   0.382   2.618   2.109 -0.8405  0.7526  0.3162
 2209SOL     OW 8239   1.281   8.501   8.266  0.5151  0.1583 -0.0394
 2209SOL    HW1 8240   1.229   8.580   8.255 -0.2249 -0.3964 -0.6244
 2209SOL    HW2 8241   1.314   8.507   8.356 -1.2502  0.1376  0.6574
 2210SOL     OW 8242   2.624   7.221   3.806  0.8295  0.0786  0.5129
 2210SOL    HW1 8243   2.638   7.127   3.804 -1.2635 -0.3614  2.1733
 2210SOL    HW2 8244   2.695   7.258   3.754  1.1231 -2.4610 -1.0426
 2211SOL     OW 8245   9.302   5.199   6.443  0.3396 -0.4442 -0.1182
 2211SOL    HW1 8246   9.235   5.134   6.426  0.7416 -0.6738 -0.8741
 2211SOL    HW2 8247   9.306   5.251   6.362  1.0689 -0.4428 -0.0858
 2212SOL     OW 8248   2.973   9.416   4.277 -0.0008  0.1792  0.2678
 2212SOL    HW1 8249   3.028   9.375   4.344 -0.6705 -1.2723 -0.0316
 2212SOL    HW2 8250   2.918   9.477   4.326 -0.2569 -0.6223  1.0087
 2213SOL     OW 8251   7.995   3.920   1.939  0.1936  0.1836 -0.2290
 2213SOL    HW1 8252   7.979   4.004   1.982  2.5720  0.9543 -0.6997
 2213SOL    HW2 8253   7.936   3.920   1.863  1.1102  2.0637 -0.9889
 2214SOL     OW 8254   2.679   2.401   7.126 -0.1598  0.0639 -0.0788
 2214SOL    HW1 8255   2.585   2.385   7.113 -0.2787  1.0585 -0.5718
 2214SOL    HW2 8256   2.682   2.475   7.186  0.3112 -0.0621  0.0515
 2215SOL     OW 8257   6.918   6.210   0.711  0.3022  0.0161 -0.1036
 2215SOL    HW1 8258   6.912   6.261   0.631 -1.8264 -0.2509 -0.1825
 2215SOL    HW2 8259   6.864   6.132   0.694  1.7802 -1.2652  0.7461
 2216SOL     OW 8260   5.348   3.845   3.769 -0.6899 -0.1956 -0.1181
 2216SOL    HW1 8261   5.368   3.756   3.797  2.9788 -0.1463 -1.9710
 2216SOL    HW2 8262   5.390   3.901   3.834 -0.6637  0.1115 -0.3923
 2217SOL     OW 8263   7.023   1.074   5.261 -0.4606 -0.4915  0.4446
 2217SOL    HW1 8264   7.090   1.059   5.194 -0.4485  0.6383  0.2011
 2217SOL    HW2 8265   6.965   0.998   5.254  0.5792 -1.3142  0.4195
 2218SOL     OW 8266   7.341   4.484   2.900 -0.6298 -0.3411 -0.3963
 2218SOL    HW1 8267   7.419   4.428   2.899 -1.5389 -1.6547 -0.0331
 2218SOL    HW2 8268   7.366   4.561   2.849  1.4403  0.0167  1.0270
 2219SOL     OW 8269   5.656   2.648   3.875 -0.4017  0.6389  0.1535
 2219SOL    HW1 8270   5.585   2.597   3.913  0.5560  0.2817  1.5351
 2219SOL    HW2 8271   5.614   2.728   3.843 -1.3848  0.5837  1.2248
 2220SOL     OW 8272   8.278   4.106   4.406  0.1268  0.6927  0.1321
 2220SOL    HW1 8273   8.265   4.118   4.312 -0.7740 -0.4422  0.0840
 2220SOL    HW2 8274   8.211   4.161   4.447 -0.6498 -0.1547  0.0431
 2221SOL     OW 8275   8.315   1.512   8.174 -0.3651 -0.2001  0.0065
 2221SOL    HW1 8276   8.393   1.506   8.228 -0.6079 -1.1883  0.2644
 2221SOL    HW2 8277   8.345   1.494   8.085 -0.1081  0.5890 -0.0714
 2222SOL     OW 8278   4.775   1.913   5.846 -0.3740  0.1331  0.4090
 2222SOL    HW1 8279   4.781   1.819   5.862  0.0989  0.3635  1.7204
 2222SOL    HW2 8280   4.699   1.922   5.788 -0.6393 -1.0235  0.5418
 2223SOL     OW 8281   7.889   1.003   5.481  0.3069 -0.0082  0.2104
 2223SOL    HW1 8282   7.959   0.948   5.515  0.0323 -1.0920 -0.8977
 2223SOL    HW2 8283   7.816   0.990   5.541  0.7389  0.3608  0.8185
 2224SOL     OW 8284   5.737   5.783   1.503  0.2135 -0.7592  0.0827
 2224SOL    HW1 8285   5.806   5.812   1.562 -0.4444  1.0103  0.0575
 2224SOL    HW2 8286   5.736   5.850   1.434 -1.1272 -1.0661 -0.2203
 2225SOL     OW 8287   1.513   4.163   4.430  0.1003  0.1267 -0.0858
 2225SOL    HW1 8288   1.545   4.203   4.510  0.9179  0.4293 -0.5488
 2225SOL    HW2 8289   1.434   4.116   4.456  0.9190 -0.6460  1.0921
 2226SOL     OW 8290   8.374   6.058   3.076 -0.0187 -0.2779 -0.1043
 2226SOL    HW1 8291   8.346   6.035   3.164 -3.4896  0.8052 -0.7831
 2226SOL    HW2 8292   8.434   6.132   3.088  0.9970 -1.2625  1.3395
 2227SOL     OW 8293   1.105   6.103   3.934  0.2943 -0.1519 -0.4414
 2227SOL    HW1 8294   1.091   6.099   4.029 -2.4088  1.6210 -0.6330
 2227SOL    HW2 8295   1.099   6.013   3.904  1.4629 -0.7691  1.0754
 2228SOL     OW 8296   7.462   1.014   4.116  0.1215 -0.3508  0.0755
 2228SOL    HW1 8297   7.515   0.939   4.089 -0.1752 -0.3930 -0.4021
 2228SOL    HW2 8298   7.512   1.090   4.087  1.3162 -0.2599  2.1280
 2229SOL     OW 8299   3.521   2.373   4.315 -0.5032 -1.3389  0.4763
 2229SOL    HW1 8300   3.525   2.278   4.298 -0.2929 -1.3593  0.6396
 2229SOL    HW2 8301   3.597   2.390   4.370  0.4778 -0.7768 -0.9742
 2230SOL     OW 8302   4.900   4.615   5.494  0.3835  0.1216  0.6413
 2230SOL    HW1 8303   4.927   4.526   5.472 -1.3628 -0.5065  0.9212
 2230SOL    HW2 8304   4.860   4.649   5.414 -1.7528 -0.5041  1.3631
 2231SOL     OW 8305   6.042   8.405   1.803 -0.3121  0.0784  0.0653
 2231SOL    HW1 8306   6.049   8.384   1.710 -0.2357  1.6030 -0.3110
 2231SOL    HW2 8307   6.132   8.413   1.832 -0.2318 -2.9066  0.9597
 2232SOL     OW 8308   7.016   0.690   9.557  0.5689  0.5753  0.3985
 2232SOL    HW1 8309   6.962   0.696   9.637 -1.9351  0.5940 -1.1811
 2232SOL    HW2 8310   7.102   0.663   9.589 -1.0226 -2.2828  2.8946
 2233SOL     OW 8311   4.375   4.821   3.744 -0.7484 -0.1576  0.2007
 2233SOL    HW1 8312   4.334   4.906   3.725  2.0446  1.3930  0.6030
 2233SOL    HW2 8313   4.400   4.787   3.658 -1.9743 -0.6995  0.0280
 2234SOL     OW 8314   4.991   2.832   4.226 -0.0597  0.2332  0.1144
 2234SOL    HW1 8315   5.000   2.910   4.172  0.5858 -0.8127 -1.3609
 2234SOL    HW2 8316   5.044   2.850   4.303  2.4456  0.1942 -1.4933
 2235SOL     OW 8317   9.679   9.061   3.840 -0.3905 -0.3853 -0.2650
 2235SOL    HW1 8318   9.627   9.061   3.921 -1.5167  0.4316 -0.9550
 2235SOL    HW2 8319   9.730   8.981   3.844 -1.6052 -1.1483  0.5344
 2236SOL     OW 8320   6.512   2.997   8.278  0.4414 -0.0720 -0.0597
 2236SOL    HW1 8321   6.417   2.988   8.289 -0.1511  1.2501 -3.1315
 2236SOL    HW2 8322   6.535   2.934   8.210  1.4954  0.5998 -0.3531
 2237SOL     OW 8323   4.556   3.319   4.550 -0.2906  0.2806 -0.4488
 2237SOL    HW1 8324   4.584   3.378   4.619 -0.4417 -1.8211  1.5281
 2237SOL    HW2 8325   4.461   3.311   4.561 -0.3305 -0.0144 -0.9326
 2238SOL     OW 8326   9.633   9.131   5.982 -0.5000  0.1521  0.1011
 2238SOL    HW1 8327   9.550   9.165   6.015  0.6244  2.8667  0.3530
 2238SOL    HW2 8328   9.697   9.200   6.000  1.2537 -0.5214 -2.7689
 2239SOL     OW 8329   2.986   6.001   3.468 -0.2169 -0.4802  0.5015
 2239SOL    HW1 8330   2.921   6.045   3.523 -0.1012 -1.0049  1.0717
 2239SOL    HW2 8331   2.995   6.058   3.392  0.2133  0.6880  1.3885
 2240SOL     OW 8332   1.919   6.997   4.436  0.3082 -0.6096 -0.2706
 2240SOL    HW1 8333   1.975   7.011   4.359 -1.5024  0.2614 -1.5037
 2240SOL    HW2 8334   1.968   7.037   4.508  1.0283  0.6658 -1.4184
 2241SOL     OW 8335   6.469   1.852   3.928  0.3438 -0.0081 -0.4421
 2241SOL    HW1 8336   6.523   1.909   3.982  0.5740 -0.2569 -0.4108
 2241SOL    HW2 8337   6.424   1.912   3.867  0.5742  0.2044 -0.4033
 2242SOL     OW 8338   0.889   9.308   0.998  0.1589  0.0919 -0.1244
 2242SOL    HW1 8339   0.897   9.273   0.910 -0.9084 -2.0113  0.5504
 2242SOL    HW2 8340   0.904   9.402   0.988 -0.9463  0.0611 -2.6866
 2243SOL     OW 8341   0.917   6.092   8.174 -0.0141  0.5111  0.1203
 2243SOL    HW1 8342   0.878   6.141   8.102  1.0018 -0.6600 -1.2949
 2243SOL    HW2 8343   0.847   6.033   8.203 -0.3260  0.7368 -0.1682
 2244SOL     OW 8344   7.294   5.890   7.919 -0.1973  0.4148 -0.0045
 2244SOL    HW1 8345   7.207   5.858   7.894  0.2247 -0.1905 -0.7488
 2244SOL    HW2 8346   7.334   5.916   7.836  0.9354 -0.8734  0.1103
 2245SOL     OW 8347   2.975   5.078   3.167  0.0955  0.4071 -0.0895
 2245SOL    HW1 8348   2.906   5.011   3.162  0.6523 -0.0883 -1.8182
 2245SOL    HW2 8349   2.955   5.126   3.247 -1.2505 -0.8204  0.3706
 2246SOL     OW 8350   0.606   0.388   8.599 -0.0593 -0.4395  0.2054
 2246SOL    HW1 8351   0.641   0.323   8.660 -0.9935 -1.6127 -0.4505
 2246SOL    HW2 8352   0.667   0.386   8.525 -0.5260 -1.2006 -0.1743
 2247SOL     OW 8353   0.038   0.798   9.252 -0.0700  0.2438 -0.7181
 2247SOL    HW1 8354   0.085   0.817   9.333 -2.8719  0.0264  1.0813
 2247SOL    HW2 8355   0.105   0.804   9.184  2.2862  1.0393  1.5050
 2248SOL     OW 8356   0.862   5.341   0.859  0.0288  0.3638  0.2326
 2248SOL    HW1 8357   0.948   5.372   0.887  0.1996  0.6018 -0.5360
 2248SOL    HW2 8358   0.881   5.282   0.785 -0.2772 -1.5941  1.6315
 2249SOL     OW 8359   6.015   2.283   5.998 -0.0938  0.4951 -0.1147
 2249SOL    HW1 8360   6.075   2.292   5.924  0.3526  2.1574  0.4137
 2249SOL    HW2 8361   5.928   2.280   5.958  0.0195  3.0037 -0.6814
 2250SOL     OW 8362   3.246   5.013   2.392 -0.2408  0.0462  0.7403
 2250SOL    HW1 8363   3.308   4.979   2.327 -0.4892  0.8528  0.0685
 2250SOL    HW2 8364   3.296   5.015   2.473 -0.2497 -2.0149  0.8404
 2251SOL     OW 8365   8.707   0.573   4.378 -0.0689 -0.1671 -0.2886
 2251SOL    HW1 8366   8.689   0.617   4.462  1.5651 -1.0162  0.5649
 2251SOL    HW2 8367   8.717   0.645   4.315  2.9683  0.8746  1.1511
 2252SOL     OW 8368   0.570   1.281   7.014 -0.4643  1.0591  0.2229
 2252SOL    HW1 8369   0.593   1.201   7.061  0.5218 -0.8788 -3.2280
 2252SOL    HW2 8370   0.477   1.294   7.032 -1.4210 -2.5922 -1.2443
 2253SOL     OW 8371   0.417   0.892   4.631 -0.0677  0.0133 -1.0636
 2253SOL    HW1 8372   0.402   0.924   4.720 -0.2585  1.5006 -1.5870
 2253SOL    HW2 8373   0.340   0.924   4.582  1.0152  1.0349 -2.1733
 2254SOL     OW 8374   8.414   3.975   7.401 -0.5688 -1.2211  1.2099
 2254SOL    HW1 8375   8.495   3.944   7.441  0.7206 -1.4913 -1.4005
 2254SOL    HW2 8376   8.424   4.070   7.397 -0.7479 -1.1840  1.5932
 2255SOL     OW 8377   7.896   3.457   0.565 -0.1262 -0.3649 -0.0477
 2255SOL    HW1 8378   7.888   3.521   0.636  3.6826  0.1343  0.1342
 2255SOL    HW2 8379   7.898   3.372   0.610 -1.1796 -0.3635  0.0478
 2256SOL     OW 8380   1.033   5.132   5.014 -0.4883 -0.2601 -0.2085
 2256SOL    HW1 8381   1.080   5.194   4.959  0.5806 -1.4981 -0.7318
 2256SOL    HW2 8382   0.994   5.186   5.083 -0.9592  1.1766 -1.5598
 2257SOL     OW 8383   7.966   4.792   0.987  0.0604  0.6925  0.2214
 2257SOL    HW1 8384   7.964   4.786   0.891 -1.9933 -0.2361  0.2684
 2257SOL    HW2 8385   8.046   4.745   1.012  0.8061  1.2429 -1.0292
 2258SOL     OW 8386   7.531   3.867   5.181  0.4873 -0.5835  0.0908
 2258SOL    HW1 8387   7.455   3.826   5.140  1.3554 -2.1853  0.0159
 2258SOL    HW2 8388   7.529   3.958   5.150 -1.4799 -0.5225  0.2442
 2259SOL     OW 8389   9.096   7.835   8.329 -0.2533  0.2151  0.6470
 2259SOL    HW1 8390   9.090   7.874   8.242  1.1173 -0.5176  0.1937
 2259SOL    HW2 8391   9.190   7.825   8.345 -0.4748  0.3323  2.2155
 2260SOL     OW 8392   5.609   9.277   1.545 -0.5877  0.3294  0.0758
 2260SOL    HW1 8393   5.527   9.320   1.521 -0.9829 -1.6668 -2.5222
 2260SOL    HW2 8394   5.675   9.319   1.490 -0.4235 -0.1522 -0.1023
 2261SOL     OW 8395   4.824   9.564   7.498 -0.8434 -0.0982 -0.2853
 2261SOL    HW1 8396   4.864   9.501   7.437 -1.7683  0.2889 -1.3095
 2261SOL    HW2 8397   4.899   9.610   7.536 -0.2441 -0.3780 -1.0904
 2262SOL     OW 8398   9.018   2.824   1.233  0.3691  0.1855 -0.3356
 2262SOL    HW1 8399   8.952   2.876   1.187  0.0221 -0.9980 -1.2213
 2262SOL    HW2 8400   8.969   2.780   1.302  0.4502  0.2016 -0.2691
 2263SOL     OW 8401   0.234   4.741   2.194 -0.4425  0.7379  0.4745
 2263SOL    HW1 8402   0.312   4.763   2.142 -0.4034  0.6616  0.5005
 2263SOL    HW2 8403   0.246   4.786   2.277 -0.9213  1.5722  0.0999
 2264SOL     OW 8404   3.188   5.876   4.526 -0.6068  0.2312  0.0156
 2264SOL    HW1 8405   3.260   5.938   4.518 -0.2977  0.0460  1.2141
 2264SOL    HW2 8406   3.110   5.927   4.503 -0.0350  0.1521 -2.4069
 2265SOL     OW 8407   4.364   5.599   1.039 -0.2769  0.1359 -0.5561
 2265SOL    HW1 8408   4.366   5.673   0.977  0.2139  2.4002  1.9716
 2265SOL    HW2 8409   4.450   5.602   1.081 -1.3734  0.2172  1.8465
 2266SOL     OW 8410   3.569   2.878   6.603 -0.2530  0.4635  0.1720
 2266SOL    HW1 8411   3.607   2.945   6.660  2.8558 -1.1463  0.1960
 2266SOL    HW2 8412   3.489   2.852   6.647  0.3510  1.5936  2.0727
 2267SOL     OW 8413   3.869   6.755   9.069 -0.2854 -0.0905 -0.1162
 2267SOL    HW1 8414   3.927   6.770   9.144 -1.9373  0.0038  1.1918
 2267SOL    HW2 8415   3.929   6.731   8.998  1.3186 -0.5416  1.3013
 2268SOL     OW 8416   9.072   1.988   1.932 -0.0401  0.5037 -0.3465
 2268SOL    HW1 8417   8.997   2.047   1.938 -1.4213 -1.1504  5.2408
 2268SOL    HW2 8418   9.138   2.029   1.988  1.1370 -0.5918 -0.9080
 2269SOL     OW 8419   2.250   0.183   1.102  0.4566  0.3531 -0.3312
 2269SOL    HW1 8420   2.228   0.258   1.158 -2.7262 -0.0816 -0.7968
 2269SOL    HW2 8421   2.254   0.108   1.161  1.9789  0.5876 -0.0964
 2270SOL     OW 8422   6.985   1.124   7.299 -0.7220 -0.6568  0.2802
 2270SOL    HW1 8423   7.069   1.077   7.292 -1.0674 -1.0764 -1.4422
 2270SOL    HW2 8424   6.929   1.082   7.234 -1.4659  1.2755 -0.3771
 2271SOL     OW 8425   1.827   6.523   9.453 -0.3662  1.0492  0.1681
 2271SOL    HW1 8426   1.807   6.464   9.380 -0.3906 -0.9261  1.6929
 2271SOL    HW2 8427   1.741   6.557   9.480 -0.6190  0.1522  0.5509
 2272SOL     OW 8428   6.166   6.928   0.922 -0.2886  0.0034  0.5501
 2272SOL    HW1 8429   6.241   6.895   0.872 -0.3159 -0.5598  0.8713
 2272SOL    HW2 8430   6.110   6.969   0.856  0.8930  1.5905  0.4697
 2273SOL     OW 8431   8.092   3.661   8.328  0.2391  0.9510  0.5336
 2273SOL    HW1 8432   7.998   3.677   8.339 -0.0264 -0.1199 -0.0053
 2273SOL    HW2 8433   8.122   3.731   8.270 -0.6782  0.1476 -0.9922
 2274SOL     OW 8434   0.829   2.012   0.283  0.0726  0.5483  0.4394
 2274SOL    HW1 8435   0.922   2.031   0.273  0.1231  0.4124  0.6421
 2274SOL    HW2 8436   0.812   2.024   0.377 -0.2628  1.2394  0.3029
 2275SOL     OW 8437   8.260   9.499   0.342  0.0905  0.0980 -0.2078
 2275SOL    HW1 8438   8.268   9.516   0.435 -2.6353 -1.3911  0.3957
 2275SOL    HW2 8439   8.334   9.441   0.322  1.1686  1.0726  0.7994
 2276SOL     OW 8440   5.807   3.000   7.011  0.6610 -0.4156 -0.1401
 2276SOL    HW1 8441   5.720   2.986   6.973 -0.4457 -2.8388  2.8540
 2276SOL    HW2 8442   5.809   3.093   7.032 -0.2389  0.1503 -2.2908
 2277SOL     OW 8443   7.364   7.830   1.517 -0.0002  0.3983  0.2128
 2277SOL    HW1 8444   7.435   7.872   1.468 -0.5787 -0.9189 -1.9164
 2277SOL    HW2 8445   7.302   7.802   1.449 -0.6690 -1.9235  1.6679
 2278SOL     OW 8446   5.172   5.907   5.125  0.1369  0.3589 -0.0341
 2278SOL    HW1 8447   5.198   5.879   5.213 -1.2512 -0.5853  0.1066
 2278SOL    HW2 8448   5.077   5.919   5.130 -0.1094 -0.5887 -1.6146
 2279SOL     OW 8449   4.767   0.491   4.996  0.0653 -0.0019 -0.3035
 2279SOL    HW1 8450   4.782   0.540   4.915 -0.5234 -0.1196 -0.4914
 2279SOL    HW2 8451   4.687   0.528   5.032  1.1980  1.1747  1.1070
 2280SOL     OW 8452   3.959   6.490   2.953  0.0298  0.5630 -0.0823
 2280SOL    HW1 8453   3.882   6.499   2.897  1.3514  2.4100 -1.7373
 2280SOL    HW2 8454   4.013   6.566   2.932  1.7851 -0.0394  1.8857
 2281SOL     OW 8455   0.973   0.209   5.041  0.4488  0.1537  0.3936
 2281SOL    HW1 8456   0.992   0.151   4.967  0.2570  0.1422  0.3523
 2281SOL    HW2 8457   1.057   0.252   5.060  1.1344 -1.6445  1.7481
 2282SOL     OW 8458   1.011   7.642   2.522 -0.1924  0.0067  1.0309
 2282SOL    HW1 8459   1.088   7.586   2.515 -0.9825 -0.9806  0.1297
 2282SOL    HW2 8460   0.958   7.601   2.590 -0.9262 -0.5479  0.1385
 2283SOL     OW 8461   8.326   4.766   7.426  0.0380 -0.1675 -0.3129
 2283SOL    HW1 8462   8.385   4.785   7.499  0.4428  2.7618 -1.2724
 2283SOL    HW2 8463   8.241   4.799   7.454 -0.2082 -0.6249 -0.5078
 2284SOL     OW 8464   1.086   3.087   3.321  0.2381  0.0102  0.4942
 2284SOL    HW1 8465   1.119   3.097   3.410  0.2266 -3.5665  1.0704
 2284SOL    HW2 8466   1.036   3.005   3.323  1.7042 -1.2106 -3.1576
 2285SOL     OW 8467   8.747   8.750   8.162 -0.1045  0.3505 -0.3124
 2285SOL    HW1 8468   8.766   8.808   8.236  0.2889  1.4014 -1.2067
 2285SOL    HW2 8469   8.832   8.734   8.121 -0.3441 -0.0600 -0.6600
 2286SOL     OW 8470   9.580   5.720   3.696  0.4798  0.2279  0.2419
 2286SOL    HW1 8471   9.528   5.648   3.660 -1.6396  0.6186  2.2567
 2286SOL    HW2 8472   9.657   5.677   3.734 -0.3886 -0.9206  0.7634
 2287SOL     OW 8473   3.206   9.271   6.909 -0.2597  0.3201  0.1234
 2287SOL    HW1 8474   3.209   9.362   6.880 -1.5185  0.0763 -0.9030
 2287SOL    HW2 8475   3.115   9.244   6.893 -0.2065 -0.7821  1.4839
 2288SOL     OW 8476   1.654   0.301   4.090 -0.2752  0.2423 -0.1892
 2288SOL    HW1 8477   1.729   0.332   4.040  2.8270 -0.6344  3.4439
 2288SOL    HW2 8478   1.586   0.367   4.077  1.7973  2.1438 -2.0759
 2289SOL     OW 8479   6.763   6.385   5.277 -0.1182  0.3279  0.2468
 2289SOL    HW1 8480   6.699   6.429   5.221  2.1610  1.0753 -1.9468
 2289SOL    HW2 8481   6.769   6.296   5.241 -0.5252 -0.0293  1.0221
 2290SOL     OW 8482   6.770   1.339   5.064 -0.0224 -0.9439  0.2946
 2290SOL    HW1 8483   6.847   1.305   5.018 -0.0031 -0.2105 -0.2398
 2290SOL    HW2 8484   6.806   1.386   5.139  0.1801  0.5385 -0.6688
 2291SOL     OW 8485   9.262   7.997   5.413  0.6248 -0.6281 -0.0434
 2291SOL    HW1 8486   9.231   7.975   5.326 -0.3422 -0.4013  0.2270
 2291SOL    HW2 8487   9.183   7.993   5.468  0.6304  2.0883  0.2846
 2292SOL     OW 8488   1.513   1.288   3.218  0.3277 -0.7173  0.1349
 2292SOL    HW1 8489   1.464   1.283   3.301  1.2580 -1.1601  0.6774
 2292SOL    HW2 8490   1.474   1.221   3.163 -0.3644 -0.3540  0.1799
 2293SOL     OW 8491   0.662   4.543   5.346  0.5597 -0.5391  0.6220
 2293SOL    HW1 8492   0.682   4.570   5.256  0.4498 -2.1902  0.0681
 2293SOL    HW2 8493   0.627   4.454   5.337 -2.6646  0.4741  2.0023
 2294SOL     OW 8494   2.232   8.773   0.106  0.8108 -0.2002 -0.0343
 2294SOL    HW1 8495   2.309   8.725   0.075  1.2873  0.7639 -0.3995
 2294SOL    HW2 8496   2.262   8.815   0.187 -0.3165 -2.4223  1.6592
 2295SOL     OW 8497   7.256   6.044   9.802  0.2746  0.0345  0.0934
 2295SOL    HW1 8498   7.176   6.006   9.837  1.4433 -1.0955  1.6823
 2295SOL    HW2 8499   7.324   6.019   9.865  2.2426 -0.7777 -2.1980
 2296SOL     OW 8500   5.139   9.306   6.608 -0.0843  0.1978 -0.7060
 2296SOL    HW1 8501   5.176   9.287   6.521 -1.2595 -0.7165 -1.0244
 2296SOL    HW2 8502   5.047   9.280   6.601 -0.1622 -0.0035  0.8692
 2297SOL     OW 8503   1.232   7.817   5.925 -0.2109  0.1521  0.1136
 2297SOL    HW1 8504   1.198   7.831   5.836  2.6450 -1.7876 -1.4356
 2297SOL    HW2 8505   1.265   7.727   5.924  0.0427  0.1051  3.1585
 2298SOL     OW 8506   4.577   6.166   2.697 -0.0656 -0.0033 -0.0902
 2298SOL    HW1 8507   4.618   6.252   2.697  0.1991 -0.0652  2.0056
 2298SOL    HW2 8508   4.483   6.184   2.696 -0.0407  0.4033  1.6551
 2299SOL     OW 8509   1.118   0.388   8.760 -0.2349 -1.0004  0.0027
 2299SOL    HW1 8510   1.177   0.365   8.688 -0.8600 -0.0442 -0.8518
 2299SOL    HW2 8511   1.137   0.480   8.778 -1.2589 -0.7493 -0.1147
 2300SOL     OW 8512   3.533   1.081   8.515 -0.1518  0.1834  0.2806
 2300SOL    HW1 8513   3.553   1.139   8.589 -1.0151 -0.1538  0.7891
 2300SOL    HW2 8514   3.618   1.047   8.489 -0.0192 -1.7702  2.8314
 2301SOL     OW 8515   2.344   1.125   6.644  0.2705 -0.4690 -0.2500
 2301SOL    HW1 8516   2.308   1.112   6.557  0.9297 -1.7811 -0.3481
 2301SOL    HW2 8517   2.299   1.060   6.698 -0.4486  0.6094  0.5108
 2302SOL     OW 8518   5.002   1.237   6.642  0.6163  0.0509  0.2195
 2302SOL    HW1 8519   5.050   1.199   6.716  2.0540 -0.2280 -0.7959
 2302SOL    HW2 8520   5.059   1.221   6.567 -1.6765 -1.5075 -1.3238
 2303SOL     OW 8521   8.122   0.828   1.402 -0.4082 -0.2724  0.0253
 2303SOL    HW1 8522   8.086   0.857   1.486 -0.3118  1.0906 -0.3795
 2303SOL    HW2 8523   8.204   0.783   1.425 -1.0415 -1.1078  0.7436
 2304SOL     OW 8524   3.654   3.060   1.287 -0.0610 -0.0973 -0.0095
 2304SOL    HW1 8525   3.563   3.031   1.296 -0.7867  1.7330 -0.9866
 2304SOL    HW2 8526   3.705   2.979   1.290 -1.6504 -1.1299  1.1205
 2305SOL     OW 8527   6.926   6.286   5.032  0.1748 -0.1404  0.2904
 2305SOL    HW1 8528   6.937   6.243   4.947  0.5414  1.1493 -0.3453
 2305SOL    HW2 8529   6.867   6.228   5.080 -1.3592 -0.1216 -1.4383
 2306SOL     OW 8530   4.397   9.020   4.802  0.0138 -0.4916 -0.2362
 2306SOL    HW1 8531   4.348   8.938   4.804  0.4413 -0.7536 -0.2421
 2306SOL    HW2 8532   4.330   9.088   4.798 -0.4313 -0.7563  1.6794
 2307SOL     OW 8533   0.302   7.753   7.243 -0.8777  0.6953  0.5154
 2307SOL    HW1 8534   0.237   7.770   7.175 -2.9686  1.2642  2.5658
 2307SOL    HW2 8535   0.346   7.837   7.256  0.3242  0.3186 -0.8448
 2308SOL     OW 8536   2.056   5.363   2.393 -0.0142 -0.4529  0.6017
 2308SOL    HW1 8537   2.116   5.355   2.468  1.4730 -0.1628 -0.5240
 2308SOL    HW2 8538   2.000   5.286   2.400  0.7505 -0.9569  1.4559
 2309SOL     OW 8539   8.771   9.802   3.454  0.1695 -0.2931 -0.4975
 2309SOL    HW1 8540   8.686   9.758   3.459 -0.2908  0.6692  2.3309
 2309SOL    HW2 8541   8.832   9.740   3.495  0.9063 -0.9789 -2.5141
 2310SOL     OW 8542   4.649   3.240   5.793  0.0056 -0.1908  0.1425
 2310SOL    HW1 8543   4.620   3.226   5.703 -0.8641 -1.7846  0.6288
 2310SOL    HW2 8544   4.641   3.335   5.806 -0.8284 -0.0598 -1.1338
 2311SOL     OW 8545   2.900   8.224   0.676 -0.0287  0.3448  0.1004
 2311SOL    HW1 8546   2.850   8.297   0.714  0.9881  0.8796  0.4714
 2311SOL    HW2 8547   2.983   8.224   0.725 -0.1640 -1.3301  0.3784
 2312SOL     OW 8548   3.579   2.538   6.283  0.4484  0.4828 -0.1723
 2312SOL    HW1 8549   3.492   2.557   6.249  1.1017  0.9659 -1.6458
 2312SOL    HW2 8550   3.603   2.616   6.332 -1.0051 -0.6950  2.6240
 2313SOL     OW 8551   4.002   6.958   0.246  0.1555  0.0128  0.2832
 2313SOL    HW1 8552   3.945   7.023   0.286  0.9450 -0.1157  1.6877
 2313SOL    HW2 8553   4.083   7.005   0.226  0.3831 -0.3191  0.4131
 2314SOL     OW 8554   0.289   1.475   4.112  0.4052 -0.1737 -0.2358
 2314SOL    HW1 8555   0.207   1.472   4.064  0.5393  0.5263 -0.5266
 2314SOL    HW2 8556   0.333   1.554   4.080  1.2533 -0.6045 -0.1841
 2315SOL     OW 8557   6.847   8.279   8.483 -0.1261 -0.6669  0.2598
 2315SOL    HW1 8558   6.797   8.199   8.496 -0.8931 -0.2068  0.2298
 2315SOL    HW2 8559   6.781   8.348   8.477  0.5290  0.0182  0.6532
 2316SOL     OW 8560   7.257   2.352   1.016  0.2262 -0.2051 -0.2826
 2316SOL    HW1 8561   7.194   2.295   0.973 -0.0015 -0.6161  0.5621
 2316SOL    HW2 8562   7.214   2.438   1.017 -0.5779 -0.5920  0.7559
 2317SOL     OW 8563   6.895   4.603   5.743 -0.0157  0.2085  0.2103
 2317SOL    HW1 8564   6.968   4.638   5.692 -0.9550 -0.2590 -1.5281
 2317SOL    HW2 8565   6.926   4.519   5.775  0.0232 -0.2933 -1.0685
 2318SOL     OW 8566   5.464   9.500   6.039  1.0413  0.0117  0.0627
 2318SOL    HW1 8567   5.452   9.425   6.098 -1.1703 -0.1683 -0.5479
 2318SOL    HW2 8568   5.403   9.566   6.071  2.2123  1.2016 -0.0574
 2319SOL     OW 8569   1.543   2.687   4.394 -0.4288  0.3498  0.6427
 2319SOL    HW1 8570   1.628   2.653   4.365 -1.0040 -0.9395  0.4228
 2319SOL    HW2 8571   1.515   2.744   4.322 -0.0302  0.3080  0.4489
 2320SOL     OW 8572   7.166   1.044   4.274  0.6481 -0.3245  0.9618
 2320SOL    HW1 8573   7.213   1.092   4.205 -0.4374  1.3974  1.3572
 2320SOL    HW2 8574   7.189   0.952   4.259  0.8896  0.0496 -1.3504
 2321SOL     OW 8575   2.304   1.381   5.971  0.1738  0.1095  0.3023
 2321SOL    HW1 8576   2.209   1.383   5.982  0.2378 -1.5887  1.6613
 2321SOL    HW2 8577   2.328   1.472   5.957 -1.6739  0.5485 -0.3604
 2322SOL     OW 8578   6.537   9.192   5.500 -0.0406 -0.4357  0.2382
 2322SOL    HW1 8579   6.482   9.270   5.507  2.1970  1.3365 -0.5692
 2322SOL    HW2 8580   6.557   9.186   5.406 -0.6088 -2.3579  0.1966
 2323SOL     OW 8581   4.264   9.231   2.890 -0.0810 -0.4824  0.5334
 2323SOL    HW1 8582   4.353   9.196   2.899 -0.5427 -1.4395  1.5953
 2323SOL    HW2 8583   4.270   9.320   2.926  0.4324 -0.5630  0.6578
 2324SOL     OW 8584   7.558   7.778   2.538  0.3844  0.1440  0.2969
 2324SOL    HW1 8585   7.557   7.776   2.442 -2.2317  0.8500  0.2393
 2324SOL    HW2 8586   7.533   7.867   2.560  0.8731 -0.0434  1.6590
 2325SOL     OW 8587   8.407   6.857   8.748 -0.0600  0.0415 -0.9202
 2325SOL    HW1 8588   8.391   6.937   8.798  2.0028 -0.2132  0.3054
 2325SOL    HW2 8589   8.497   6.867   8.716  0.5020 -2.0044 -0.1903
 2326SOL     OW 8590   2.520   3.593   5.961 -0.3303 -0.2138  0.1000
 2326SOL    HW1 8591   2.526   3.542   5.880 -1.0198 -0.0989 -0.0337
 2326SOL    HW2 8592   2.486   3.678   5.933  0.8852  0.3642  0.3060
 2327SOL     OW 8593   9.476   0.395   7.528 -0.6078  0.2643  0.2014
 2327SOL    HW1 8594   9.497   0.473   7.579 -0.6007  1.7415 -1.9008
 2327SOL    HW2 8595   9.554   0.378   7.475 -0.8330 -0.8098  0.1843
 2328SOL     OW 8596   6.458   1.447   0.643 -0.0357  0.5727  0.2419
 2328SOL    HW1 8597   6.374   1.409   0.618  0.7629  0.0827 -1.9119
 2328SOL    HW2 8598   6.438   1.539   0.658 -0.8126  0.6897 -1.2737
 2329SOL     OW 8599   7.703   4.300   4.119  0.3061 -0.2754 -0.3954
 2329SOL    HW1 8600   7.741   4.214   4.104 -1.7123 -1.0050 -1.7391
 2329SOL    HW2 8601   7.611   4.290   4.096 -0.2699  1.9197  0.7003
 2330SOL     OW 8602   7.847   6.511   5.133  0.0467  0.1572  0.0998
 2330SOL    HW1 8603   7.880   6.508   5.223  0.6004 -1.4920 -0.1116
 2330SOL    HW2 8604   7.810   6.598   5.123  2.1642  1.2458  1.1657
 2331SOL     OW 8605   8.971   3.067   5.730  0.4961  0.5170 -0.5713
 2331SOL    HW1 8606   9.057   3.031   5.750  0.2682 -0.0310 -0.5719
 2331SOL    HW2 8607   8.943   3.111   5.810  1.2259  1.6002 -0.8976
 2332SOL     OW 8608   0.765   8.834   1.038 -0.2525  0.0570  0.4402
 2332SOL    HW1 8609   0.812   8.869   0.962 -2.3478  0.3532 -0.8015
 2332SOL    HW2 8610   0.823   8.767   1.073  0.5831 -0.4360 -1.7299
 2333SOL     OW 8611   2.602   2.976   2.483  0.3458 -0.5894 -0.0148
 2333SOL    HW1 8612   2.647   2.898   2.452  0.7826 -1.3378  2.2721
 2333SOL    HW2 8613   2.639   2.991   2.570 -0.5950  1.4775  0.0858
 2334SOL     OW 8614   9.760   0.577   5.632  0.7001 -0.3861  0.6116
 2334SOL    HW1 8615   9.744   0.518   5.706  1.4371 -0.2569  0.8812
 2334SOL    HW2 8616   9.853   0.566   5.612  0.1782 -1.7958 -1.4835
 2335SOL     OW 8617   3.527   7.802   2.211  0.9032  0.4767 -0.4486
 2335SOL    HW1 8618   3.467   7.856   2.159 -0.1903 -0.8710 -0.6429
 2335SOL    HW2 8619   3.585   7.761   2.147 -0.8039 -1.6266 -0.7462
 2336SOL     OW 8620   8.510   8.669   4.154 -0.4044 -0.1711 -0.2566
 2336SOL    HW1 8621   8.496   8.730   4.227 -0.1213  0.5558 -0.7895
 2336SOL    HW2 8622   8.562   8.598   4.191  1.0953  0.9549 -0.0836
 2337SOL     OW 8623   2.712   7.842   8.397  0.1991  0.1970  0.8410
 2337SOL    HW1 8624   2.727   7.922   8.448  1.3785 -0.2861  1.2801
 2337SOL    HW2 8625   2.710   7.772   8.463  0.5699 -0.2992  0.3326
 2338SOL     OW 8626   6.103   6.160   7.713 -0.6599 -0.4556 -0.8928
 2338SOL    HW1 8627   6.119   6.255   7.712 -1.3872 -0.3316 -1.5434
 2338SOL    HW2 8628   6.188   6.122   7.736 -1.1795  0.5045  3.4057
 2339SOL     OW 8629   4.331   4.433   9.568  0.1242 -0.5414  0.0896
 2339SOL    HW1 8630   4.381   4.478   9.636 -0.0555  2.6623 -1.7083
 2339SOL    HW2 8631   4.244   4.474   9.571 -0.0409 -0.6877 -1.7170
 2340SOL     OW 8632   4.005   2.989   7.929 -0.1049 -0.3179 -0.2792
 2340SOL    HW1 8633   4.033   3.002   8.020  0.1392 -1.7064 -0.1359
 2340SOL    HW2 8634   3.936   3.054   7.916 -0.0308  0.0087  0.8455
 2341SOL     OW 8635   2.323   3.668   4.418 -0.0501 -0.2725 -0.4482
 2341SOL    HW1 8636   2.303   3.690   4.510 -1.1000 -2.8139  0.0112
 2341SOL    HW2 8637   2.362   3.581   4.422 -0.7485 -0.7253 -2.4677
 2342SOL     OW 8638   0.451   5.784   9.338 -0.3116 -0.0124 -0.0426
 2342SOL    HW1 8639   0.464   5.748   9.250 -0.5367  0.1140 -0.1292
 2342SOL    HW2 8640   0.506   5.863   9.340  0.3574 -0.4743  0.2224
 2343SOL     OW 8641   1.103   6.896   4.511 -0.0544 -0.1290 -0.0011
 2343SOL    HW1 8642   1.052   6.919   4.434  0.0411 -1.8064 -0.5952
 2343SOL    HW2 8643   1.078   6.961   4.577 -0.6779  0.8839 -1.2031
 2344SOL     OW 8644   3.089   9.752   8.462 -0.1597  0.1230 -0.2334
 2344SOL    HW1 8645   3.147   9.693   8.511 -0.0516  1.2783  1.1098
 2344SOL    HW2 8646   3.001   9.721   8.483 -0.1064  0.4434  0.5219
 2345SOL     OW 8647   4.042   1.965   9.828  0.5716 -0.5266  0.0165
 2345SOL    HW1 8648   4.105   1.957   9.900 -0.5415  1.2721  1.2617
 2345SOL    HW2 8649   3.957   1.957   9.870 -0.0958 -0.0014 -1.2063
 2346SOL     OW 8650   2.833   5.390   2.849 -0.2232  0.7397  0.9546
 2346SOL    HW1 8651   2.838   5.476   2.806 -1.1813  1.1979  1.7286
 2346SOL    HW2 8652   2.917   5.382   2.894  0.9967  0.0519 -1.2928
 2347SOL     OW 8653   3.404   7.106   3.480 -0.3148  0.6131  0.4245
 2347SOL    HW1 8654   3.492   7.114   3.517 -0.2724 -1.0014  0.7505
 2347SOL    HW2 8655   3.348   7.155   3.540  0.3328  1.6514  0.2165
 2348SOL     OW 8656   3.894   8.715   7.998  0.1095  0.0324  0.5406
 2348SOL    HW1 8657   3.803   8.746   8.007  0.5549  1.2621  1.0783
 2348SOL    HW2 8658   3.914   8.728   7.905 -0.1421  0.1275  0.4973
 2349SOL     OW 8659   8.510   3.864   3.740 -0.3289 -0.5756  0.2583
 2349SOL    HW1 8660   8.557   3.940   3.772 -0.3095  0.0146 -1.0958
 2349SOL    HW2 8661   8.549   3.846   3.654 -0.0807 -2.3406  0.6900
 2350SOL     OW 8662   0.461   1.536   2.182  0.4297  0.0568 -0.6649
 2350SOL    HW1 8663   0.397   1.593   2.225 -0.5568 -0.9040 -0.8353
 2350SOL    HW2 8664   0.422   1.449   2.185  2.4628 -0.8803  0.7343
 2351SOL     OW 8665   0.619   6.906   3.898 -0.2540 -0.1114  0.2786
 2351SOL    HW1 8666   0.629   6.904   3.993 -0.1686 -1.6935  0.2727
 2351SOL    HW2 8667   0.537   6.860   3.882 -0.1662 -0.0304 -0.4198
 2352SOL     OW 8668   8.301   0.327   3.995 -0.2380  0.1516 -0.1279
 2352SOL    HW1 8669   8.379   0.368   4.033  0.6151 -0.4449 -1.1849
 2352SOL    HW2 8670   8.331   0.241   3.965 -1.3883 -0.2182 -0.2687
 2353SOL     OW 8671   5.869   4.356   3.353 -0.5309 -0.2006 -0.2927
 2353SOL    HW1 8672   5.961   4.368   3.377 -0.3013 -0.6217 -0.9242
 2353SOL    HW2 8673   5.872   4.301   3.274 -1.2806  0.5124 -0.8393
 2354SOL     OW 8674   3.539   2.246   6.286  0.1024 -0.2870  0.4704
 2354SOL    HW1 8675   3.576   2.330   6.259  2.0333 -0.5883  2.0144
 2354SOL    HW2 8676   3.611   2.183   6.277 -0.7337 -1.3969  1.2270
 2355SOL     OW 8677   6.687   9.308   0.686 -0.0723 -0.0611  0.2496
 2355SOL    HW1 8678   6.777   9.342   0.689 -0.2219  0.4170 -0.5903
 2355SOL    HW2 8679   6.681   9.252   0.763  0.0501  2.1651  2.0000
 2356SOL     OW 8680   5.634   2.483   6.511  0.1038 -0.0848 -0.1596
 2356SOL    HW1 8681   5.631   2.442   6.424 -0.4554 -3.3477  1.2413
 2356SOL    HW2 8682   5.726   2.477   6.537 -0.0160 -0.6742  0.1351
 2357SOL     OW 8683   1.003   1.696   8.011 -0.1953  0.4688  0.2916
 2357SOL    HW1 8684   0.917   1.681   7.971  0.2159  1.8485 -1.2322
 2357SOL    HW2 8685   1.064   1.649   7.953  0.4532  2.7731 -1.0001
 2358SOL     OW 8686   4.367   5.393   9.370  0.0145 -0.5029 -0.3572
 2358SOL    HW1 8687   4.385   5.309   9.413  0.9147  0.9576  2.4105
 2358SOL    HW2 8688   4.273   5.405   9.379 -0.3473 -1.7446 -1.9800
 2359SOL     OW 8689   6.679   2.894   3.965 -0.1799  0.8173  0.4933
 2359SOL    HW1 8690   6.667   2.986   3.989  0.7361  1.0372  0.1429
 2359SOL    HW2 8691   6.637   2.846   4.036  1.0667  1.4801  1.7452
 2360SOL     OW 8692   8.112   3.305   1.846 -0.0294 -0.4768 -0.4100
 2360SOL    HW1 8693   8.102   3.210   1.839 -1.1192 -0.5558  1.5236
 2360SOL    HW2 8694   8.205   3.318   1.865  0.1908 -1.1090 -0.9948
 2361SOL     OW 8695   4.434   7.839   0.778  0.0528 -0.0891  0.0443
 2361SOL    HW1 8696   4.526   7.820   0.800  0.0709 -0.4799 -0.3659
 2361SOL    HW2 8697   4.411   7.913   0.835  0.6664  0.1104  0.0437
 2362SOL     OW 8698   6.765   5.700   4.803 -0.0325  0.1758 -0.1608
 2362SOL    HW1 8699   6.827   5.658   4.862  0.6186  3.0830  1.4477
 2362SOL    HW2 8700   6.679   5.676   4.837  0.3178  0.0495  0.6509
 2363SOL     OW 8701   5.026   9.457   5.231  0.0012 -0.0493 -0.2320
 2363SOL    HW1 8702   4.968   9.462   5.155 -0.0249  2.5915 -0.1449
 2363SOL    HW2 8703   5.022   9.544   5.270 -2.4744 -2.0086  4.7454
 2364SOL     OW 8704   0.787   1.487   8.433  0.1163 -0.5746  0.1248
 2364SOL    HW1 8705   0.716   1.532   8.388  0.4684  1.5149  1.4887
 2364SOL    HW2 8706   0.743   1.434   8.499 -0.2536 -0.7463 -0.2560
 2365SOL     OW 8707   3.373   7.176   3.215  0.2881  0.1221 -0.2730
 2365SOL    HW1 8708   3.383   7.167   3.309  0.7341 -0.9540 -0.4093
 2365SOL    HW2 8709   3.396   7.267   3.196 -1.9693  1.0119  0.9155
 2366SOL     OW 8710   8.250   9.250   3.161 -0.2914  0.5478  0.7201
 2366SOL    HW1 8711   8.220   9.172   3.113 -0.1591  1.2717 -0.5989
 2366SOL    HW2 8712   8.289   9.305   3.093  0.1886  1.4856  1.7407
 2367SOL     OW 8713   8.733   8.317   5.460 -0.2383  0.2950 -0.4499
 2367SOL    HW1 8714   8.644   8.320   5.495  0.5355  3.2865  1.7364
 2367SOL    HW2 8715   8.737   8.391   5.399  0.5316 -0.3281 -1.1784
 2368SOL     OW 8716   4.041   8.074   0.536 -0.2281  0.6010  0.0341
 2368SOL    HW1 8717   4.133   8.088   0.559 -0.1353  0.0454  0.0120
 2368SOL    HW2 8718   4.027   8.131   0.460  0.1647  0.5062 -0.1149
 2369SOL     OW 8719   1.520   2.373   1.712 -0.7428 -0.1022  0.1918
 2369SOL    HW1 8720   1.586   2.381   1.781  0.6536 -0.9953 -0.9693
 2369SOL    HW2 8721   1.439   2.405   1.752  0.3184  0.7677  1.7706
 2370SOL     OW 8722   8.977   7.663   6.931  0.2341  0.5272  0.4661
 2370SOL    HW1 8723   8.890   7.663   6.891  0.4395  0.2500  0.0108
 2370SOL    HW2 8724   8.966   7.715   7.011 -0.3148  0.6146  0.3429
 2371SOL     OW 8725   9.580   5.842   4.851  0.2831  0.2001 -0.3305
 2371SOL    HW1 8726   9.542   5.904   4.789  0.2192  1.1576  0.6273
 2371SOL    HW2 8727   9.672   5.835   4.825  0.1101  0.0719 -0.9287
 2372SOL     OW 8728   9.334   2.748   9.195  0.0099  0.2682 -0.0988
 2372SOL    HW1 8729   9.239   2.753   9.187  0.1217  0.8469 -1.5073
 2372SOL    HW2 8730   9.366   2.787   9.113  1.4543  0.1187  0.3732
 2373SOL     OW 8731   7.508   1.915   7.637  0.1787  0.1710  0.6262
 2373SOL    HW1 8732   7.511   1.996   7.687 -1.1267  0.4736  0.2564
 2373SOL    HW2 8733   7.415   1.892   7.634  0.6474 -2.3130  2.2567
 2374SOL     OW 8734   8.009   4.911   6.596  0.7798 -0.2323  0.1415
 2374SOL    HW1 8735   7.970   4.995   6.572 -1.4499 -1.3813 -0.5707
 2374SOL    HW2 8736   8.043   4.877   6.513  1.3265 -0.2094  0.3552
 2375SOL     OW 8737   5.599   9.527   2.109  0.0739  0.7592  0.4638
 2375SOL    HW1 8738   5.515   9.484   2.093 -0.4600  1.2360  1.8404
 2375SOL    HW2 8739   5.591   9.562   2.198  1.7041  0.8673  0.5923
 2376SOL     OW 8740   6.679   9.808   3.802 -0.1867  0.9454  0.4255
 2376SOL    HW1 8741   6.752   9.850   3.847  1.5306 -0.3106 -1.0658
 2376SOL    HW2 8742   6.659   9.867   3.729  0.3130  0.5995  0.0021
 2377SOL     OW 8743   1.221   1.953   9.275 -0.7684 -0.4494 -0.3160
 2377SOL    HW1 8744   1.258   1.962   9.362 -2.8786 -0.4334  0.6464
 2377SOL    HW2 8745   1.267   1.879   9.236 -1.4370 -2.0456  1.7662
 2378SOL     OW 8746   9.085   0.250   3.624 -0.0741 -0.0078  0.3951
 2378SOL    HW1 8747   8.999   0.209   3.621 -0.0148 -0.0622 -1.7684
 2378SOL    HW2 8748   9.070   0.334   3.667 -1.2754  0.0966 -0.2073
 2379SOL     OW 8749   8.576   8.510   0.861  0.2528 -0.2697  0.0959
 2379SOL    HW1 8750   8.501   8.471   0.816  0.5168 -2.7979  1.6565
 2379SOL    HW2 8751   8.653   8.469   0.820  0.5819 -0.7366  1.1434
 2380SOL     OW 8752   8.368   3.806   0.173  0.0211  0.0424 -0.2758
 2380SOL    HW1 8753   8.438   3.870   0.186  1.7414 -1.3868 -1.9124
 2380SOL    HW2 8754   8.408   3.722   0.197 -1.9225 -0.5725  1.0476
 2381SOL     OW 8755   6.382   0.074   5.492  0.0217  0.0618 -0.5380
 2381SOL    HW1 8756   6.319   0.145   5.481  1.8744  2.3220  2.0253
 2381SOL    HW2 8757   6.439   0.080   5.415  0.7475  2.1108  0.0945
 2382SOL     OW 8758   1.392   2.417   7.778  0.0193  0.2053 -0.5881
 2382SOL    HW1 8759   1.448   2.467   7.718  0.0574 -1.5916 -2.1330
 2382SOL    HW2 8760   1.429   2.329   7.777 -2.3324 -0.8317 -0.9770
 2383SOL     OW 8761   6.210   1.375   3.005  0.3178  0.0198  0.6321
 2383SOL    HW1 8762   6.116   1.363   2.994  0.3237  1.4895 -1.5871
 2383SOL    HW2 8763   6.249   1.303   2.955  0.4030 -0.4730  1.3874
 2384SOL     OW 8764   7.111   7.112   1.885 -0.3851 -0.9187 -0.1200
 2384SOL    HW1 8765   7.018   7.125   1.900 -0.2751  0.2301 -0.3516
 2384SOL    HW2 8766   7.116   7.071   1.799 -0.6827 -1.0470 -0.0769
 2385SOL     OW 8767   7.452   5.465   9.117 -0.2239  0.6609  0.1343
 2385SOL    HW1 8768   7.417   5.418   9.041 -0.1830  1.4622 -0.3915
 2385SOL    HW2 8769   7.376   5.482   9.172  0.0053 -1.6749  1.2886
 2386SOL     OW 8770   0.719   1.299   9.780  0.7251 -0.3181 -0.6402
 2386SOL    HW1 8771   0.756   1.214   9.803  0.6669  0.0969  1.0870
 2386SOL    HW2 8772   0.682   1.286   9.692  1.0767 -1.9445 -0.5763
 2387SOL     OW 8773   1.616   9.471   0.006 -0.1631  0.0631 -0.0067
 2387SOL    HW1 8774   1.687   9.487   0.069 -0.4947 -1.3953  0.7695
 2387SOL    HW2 8775   1.646   9.397  -0.046 -0.7943 -0.0787 -0.1776
 2388SOL     OW 8776   6.918   5.908   3.842 -0.2334  0.3117 -0.0542
 2388SOL    HW1 8777   6.844   5.876   3.791 -0.2082  0.8690 -0.4464
 2388SOL    HW2 8778   6.890   5.900   3.933 -1.5325  2.2722 -0.2279
 2389SOL     OW 8779   4.686   1.809   8.761  0.4611 -0.0197  0.4342
 2389SOL    HW1 8780   4.735   1.786   8.840  0.4247  0.0131  0.4666
 2389SOL    HW2 8781   4.692   1.732   8.705  2.3833  0.7150 -0.4816
 2390SOL     OW 8782   6.550   9.528   6.083  0.0821  0.8823  0.6381
 2390SOL    HW1 8783   6.487   9.530   6.011 -0.3827  0.0625  0.9982
 2390SOL    HW2 8784   6.521   9.597   6.143  0.8963  2.0614 -0.2787
 2391SOL     OW 8785   8.876   4.538   8.182  0.8146  0.4116 -0.1523
 2391SOL    HW1 8786   8.928   4.544   8.262  0.9949  1.1025 -0.3104
 2391SOL    HW2 8787   8.906   4.458   8.139 -0.2078 -0.6767  1.0991
 2392SOL     OW 8788   1.565   3.412   3.806  0.2342 -0.9085 -0.3239
 2392SOL    HW1 8789   1.548   3.473   3.878 -0.6704  0.2633 -1.4767
 2392SOL    HW2 8790   1.659   3.397   3.808  0.7205  1.6201 -0.7929
 2393SOL     OW 8791   0.105   9.528   6.431  0.4284  0.1694 -0.2372
 2393SOL    HW1 8792   0.184   9.475   6.420 -0.2295 -0.7315 -0.7095
 2393SOL    HW2 8793   0.137   9.612   6.465  2.0097  1.1373 -3.7251
 2394SOL     OW 8794   7.746   6.560   3.270  0.4352 -0.3719  0.0343
 2394SOL    HW1 8795   7.788   6.476   3.286  1.6900  0.4122  1.0302
 2394SOL    HW2 8796   7.728   6.560   3.176  2.0020 -1.0461 -0.2947
 2395SOL     OW 8797   2.770   4.493   7.690  0.3333 -0.2352 -0.3546
 2395SOL    HW1 8798   2.815   4.550   7.752 -2.8186  1.8453  0.2377
 2395SOL    HW2 8799   2.788   4.531   7.604 -1.1210  1.3297 -0.0218
 2396SOL     OW 8800   1.923   2.975   8.466  0.1830  0.2510 -0.5094
 2396SOL    HW1 8801   1.871   3.040   8.418 -0.7473 -1.2327 -1.6273
 2396SOL    HW2 8802   1.906   2.994   8.558 -1.5823  0.4468 -0.8394
 2397SOL     OW 8803   7.012   3.288   8.756  0.0558  0.2531  0.1150
 2397SOL    HW1 8804   6.948   3.342   8.802 -1.0654 -1.3716  0.5394
 2397SOL    HW2 8805   6.969   3.263   8.674  0.8209  0.5645 -0.3863
 2398SOL     OW 8806   2.852   8.635   2.952 -0.3606  0.0230 -0.0304
 2398SOL    HW1 8807   2.764   8.673   2.959 -0.0027  0.8723 -0.0138
 2398SOL    HW2 8808   2.897   8.665   3.031  1.1094  2.7794 -1.7506
 2399SOL     OW 8809   8.057   4.906   9.408  0.1127 -0.8833  0.1746
 2399SOL    HW1 8810   8.146   4.937   9.426  0.2307 -0.8203 -0.4604
 2399SOL    HW2 8811   8.064   4.811   9.412  1.0787 -1.1020 -3.3365
 2400SOL     OW 8812   1.409   0.165   8.687  0.0635  0.1067 -0.1695
 2400SOL    HW1 8813   1.358   0.160   8.606 -1.2160  1.0637  0.5334
 2400SOL    HW2 8814   1.345   0.151   8.757  1.2002 -1.0158  0.6952
 2401SOL     OW 8815   7.960   7.644   9.270  0.0589  0.2479  0.3931
 2401SOL    HW1 8816   8.035   7.604   9.315  0.0009 -0.5006 -0.1457
 2401SOL    HW2 8817   7.952   7.731   9.309  0.5198 -0.0707  1.2398
 2402SOL     OW 8818   3.845   1.146   0.170 -0.0089  0.2671 -0.2112
 2402SOL    HW1 8819   3.827   1.239   0.155  0.2520  0.3083 -0.2741
 2402SOL    HW2 8820   3.938   1.143   0.192 -0.2379  0.1294  0.7560
 2403SOL     OW 8821   9.388   2.025   3.093  0.3362 -0.7038 -0.1772
 2403SOL    HW1 8822   9.299   2.031   3.130  0.5449  0.0765  0.2312
 2403SOL    HW2 8823   9.374   2.010   3.000 -0.2619  0.5336 -0.3147
 2404SOL     OW 8824   1.994   9.168   8.720 -0.2721 -0.3871 -0.3132
 2404SOL    HW1 8825   2.057   9.101   8.744  1.1489  1.1050  0.2672
 2404SOL    HW2 8826   1.952   9.193   8.802  1.6872  1.8210  0.1237
 2405SOL     OW 8827   2.963   8.002   5.045  0.4150  0.5962 -0.4902
 2405SOL    HW1 8828   2.992   7.946   5.118 -1.2836  1.3679  0.8561
 2405SOL    HW2 8829   3.036   8.000   4.983  2.4032  0.7259  1.6792
 2406SOL     OW 8830   2.961   0.362   7.172  0.3076  0.4813 -0.1244
 2406SOL    HW1 8831   2.887   0.317   7.133 -0.2993  1.2313  0.1220
 2406SOL    HW2 8832   2.965   0.446   7.125  1.5657  0.0942 -0.7521
 2407SOL     OW 8833   3.123   9.229   2.107 -0.4973  0.4008 -0.5330
 2407SOL    HW1 8834   3.075   9.288   2.165 -0.8159  1.2554 -1.6358
 2407SOL    HW2 8835   3.162   9.164   2.166 -0.7650  1.2676  0.6360
 2408SOL     OW 8836   2.317   5.861   2.606  0.3082 -0.2070 -0.1608
 2408SOL    HW1 8837   2.375   5.929   2.571 -0.2548  0.5578  0.3597
 2408SOL    HW2 8838   2.241   5.909   2.640  1.8729 -0.5327  4.5114
 2409SOL     OW 8839   5.553   4.390   4.242 -0.3021 -0.1028 -0.5646
 2409SOL    HW1 8840   5.602   4.443   4.305 -1.9471  0.9330 -0.0726
 2409SOL    HW2 8841   5.612   4.378   4.168  0.4763  1.5879 -0.2499
 2410SOL     OW 8842   6.936   3.781   0.298  0.2080 -0.2994 -0.1946
 2410SOL    HW1 8843   7.008   3.739   0.252 -0.5400  0.2462 -1.9576
 2410SOL    HW2 8844   6.931   3.869   0.261 -0.9115 -0.0831  0.3923
 2411SOL     OW 8845   7.446   5.935   5.389 -0.2407 -0.2034 -0.1079
 2411SOL    HW1 8846   7.497   5.861   5.356  0.5689 -0.6315  1.9370
 2411SOL    HW2 8847   7.506   5.979   5.450 -1.0439  1.5805 -0.5433
 2412SOL     OW 8848   9.654   5.747   5.647  0.3626 -0.2257  0.0678
 2412SOL    HW1 8849   9.631   5.839   5.640  0.6044 -0.0476  1.3188
 2412SOL    HW2 8850   9.657   5.715   5.557  0.8123  1.1137 -0.4065
 2413SOL     OW 8851   8.163   6.856   4.432  0.0459 -0.0957  0.1064
 2413SOL    HW1 8852   8.102   6.783   4.418 -1.0958  0.9922 -0.8063
 2413SOL    HW2 8853   8.107   6.929   4.458  1.0863  0.6661  0.2430
 2414SOL     OW 8854   4.316   2.137   6.598  0.0038 -0.4517 -0.2337
 2414SOL    HW1 8855   4.343   2.133   6.689  2.1030  2.8273 -0.5627
 2414SOL    HW2 8856   4.397   2.126   6.548 -1.1976 -2.8853 -1.8091
 2415SOL     OW 8857   7.008   1.183   9.496  0.5899  0.4858  0.6266
 2415SOL    HW1 8858   6.936   1.149   9.549 -0.8225  0.8669 -0.9412
 2415SOL    HW2 8859   6.992   1.147   9.409  1.7126  1.4357 -0.0026
 2416SOL     OW 8860   6.645   1.562   7.081  0.6750  0.4173  0.4996
 2416SOL    HW1 8861   6.683   1.584   6.996  0.6104  1.4578  0.7317
 2416SOL    HW2 8862   6.711   1.506   7.123  0.7309 -0.0577 -0.1986
 2417SOL     OW 8863   4.750   5.180   0.346 -0.0542 -0.2173 -0.5039
 2417SOL    HW1 8864   4.771   5.273   0.345  0.3673 -0.3115 -0.7403
 2417SOL    HW2 8865   4.670   5.174   0.398  0.6115  0.1306  0.5964
 2418SOL     OW 8866   1.004   0.825   4.133  0.3601  0.3343 -0.0483
 2418SOL    HW1 8867   0.945   0.874   4.076  1.2666  1.4662 -0.0363
 2418SOL    HW2 8868   0.948   0.792   4.203 -0.4321  0.4926 -0.5893
 2419SOL     OW 8869   0.627   4.122   5.564 -0.2940  0.3562 -0.4794
 2419SOL    HW1 8870   0.598   4.037   5.533  0.4314 -0.5459  1.1811
 2419SOL    HW2 8871   0.721   4.111   5.582 -0.3410  1.2618  0.4332
 2420SOL     OW 8872   6.443   5.137   9.045  0.1014  0.0327  0.1057
 2420SOL    HW1 8873   6.434   5.049   9.083  3.1123  0.1512  1.3961
 2420SOL    HW2 8874   6.478   5.121   8.958  0.6032 -0.0830  0.3216
 2421SOL     OW 8875   3.094   7.735   1.419  0.1903  0.0386  0.6030
 2421SOL    HW1 8876   3.018   7.722   1.475 -0.8928  0.9059 -0.6114
 2421SOL    HW2 8877   3.058   7.762   1.334  1.8609  0.9046  0.1113
 2422SOL     OW 8878   2.302   6.329   3.594  0.1529  0.2576  0.4092
 2422SOL    HW1 8879   2.273   6.343   3.504 -3.0399  2.2161  1.5538
 2422SOL    HW2 8880   2.234   6.273   3.632  1.1483 -0.0951  1.7404
 2423SOL     OW 8881   6.268   0.237   0.450  0.3425  0.8116  0.3671
 2423SOL    HW1 8882   6.300   0.267   0.364  0.0166 -4.2368 -1.9006
 2423SOL    HW2 8883   6.348   0.213   0.497  0.4286  1.0723  0.3563
 2424SOL     OW 8884   0.515   8.828   3.912 -0.0235  0.6695  0.0142
 2424SOL    HW1 8885   0.598   8.847   3.869 -0.0001 -1.0594 -0.7921
 2424SOL    HW2 8886   0.540   8.797   3.999  0.1823  0.3259 -0.1628
 2425SOL     OW 8887   3.970   9.743   6.979  0.0623  0.1331  0.1743
 2425SOL    HW1 8888   3.886   9.712   6.944  0.3395  0.0071 -0.3848
 2425SOL    HW2 8889   4.013   9.784   6.905  0.1756  0.8785  0.6412
 2426SOL     OW 8890   6.774   0.351   2.736 -0.2004  0.0520 -0.0646
 2426SOL    HW1 8891   6.801   0.437   2.704 -0.6356  0.5703  0.9223
 2426SOL    HW2 8892   6.704   0.369   2.799  0.2949 -0.9564  0.8202
 2427SOL     OW 8893   2.781   4.419   7.258  0.5573 -0.4159 -0.0672
 2427SOL    HW1 8894   2.775   4.499   7.205 -0.1632 -1.6382 -1.9117
 2427SOL    HW2 8895   2.817   4.353   7.199 -0.2726 -1.8507  0.9555
 2428SOL     OW 8896   0.971   7.187   1.019 -0.1102  0.5423  0.9256
 2428SOL    HW1 8897   0.948   7.231   1.101  1.3892 -0.1379  1.7615
 2428SOL    HW2 8898   0.997   7.257   0.960 -1.6916  1.0846  0.8431
 2429SOL     OW 8899   0.136   1.679   8.875  0.5840 -0.3177  0.8103
 2429SOL    HW1 8900   0.152   1.584   8.873 -2.6136 -0.9727 -0.4684
 2429SOL    HW2 8901   0.220   1.718   8.853  1.5620 -2.9728 -0.6230
 2430SOL     OW 8902   9.551   0.660   7.586 -0.2573  0.4370  0.3954
 2430SOL    HW1 8903   9.527   0.709   7.507  3.2345 -0.9468 -1.7312
 2430SOL    HW2 8904   9.636   0.696   7.611 -0.6006 -0.2027  2.7247
 2431SOL     OW 8905   8.506   5.358   8.888 -0.0734  0.1735 -0.6732
 2431SOL    HW1 8906   8.551   5.441   8.905 -0.7421  0.2390  1.0679
 2431SOL    HW2 8907   8.518   5.342   8.794  1.7443  1.2255 -0.6638
 2432SOL     OW 8908   8.779   4.411   5.805 -0.7007  0.0323 -0.0791
 2432SOL    HW1 8909   8.803   4.501   5.782 -1.9836  0.3626 -0.2105
 2432SOL    HW2 8910   8.746   4.373   5.724 -0.2259 -0.5448 -0.0076
 2433SOL     OW 8911   6.060   6.921   4.055 -0.0409  0.4696 -0.3075
 2433SOL    HW1 8912   6.119   6.918   3.980  0.2160 -0.9045 -0.0763
 2433SOL    HW2 8913   5.985   6.867   4.029 -0.0621  0.1870  0.3137
 2434SOL     OW 8914   8.946   8.759   3.920  0.0553  0.3599 -0.1854
 2434SOL    HW1 8915   8.948   8.690   3.986 -0.6492 -0.1015 -0.6203
 2434SOL    HW2 8916   9.001   8.828   3.955 -1.0571  0.5291  1.3354
 2435SOL     OW 8917   6.457   8.229   1.483  0.4804  0.2244 -0.1030
 2435SOL    HW1 8918   6.386   8.241   1.420 -0.7798 -2.7515  0.5385
 2435SOL    HW2 8919   6.413   8.192   1.560  2.5235 -0.1616  0.9329
 2436SOL     OW 8920   9.180   1.475   2.755  0.1007 -0.3681 -0.2932
 2436SOL    HW1 8921   9.221   1.438   2.832  0.3991  0.5909  0.0135
 2436SOL    HW2 8922   9.146   1.399   2.707 -0.8322 -0.9192  1.1892
 2437SOL     OW 8923   4.675   7.436   8.386  0.1071  0.2966 -0.6796
 2437SOL    HW1 8924   4.762   7.470   8.369  1.1835 -1.8917  0.0920
 2437SOL    HW2 8925   4.632   7.433   8.301  0.3791  2.3032 -0.9354
 2438SOL     OW 8926   9.443   8.201   1.900  0.0972  0.2584 -0.1686
 2438SOL    HW1 8927   9.527   8.204   1.855  0.5302  0.4360  0.6445
 2438SOL    HW2 8928   9.389   8.143   1.845  1.9421 -3.0608  1.2788
 2439SOL     OW 8929   2.932   0.378   5.745 -0.2332  0.3958 -0.2739
 2439SOL    HW1 8930   2.848   0.354   5.705  0.2169  0.4845 -1.3107
 2439SOL    HW2 8931   2.930   0.337   5.831 -0.9790 -0.3477 -0.6289
 2440SOL     OW 8932   8.702   4.181   1.683  0.0762 -0.2894  0.7035
 2440SOL    HW1 8933   8.709   4.201   1.589 -2.1896 -1.3974  0.2246
 2440SOL    HW2 8934   8.610   4.158   1.696  0.1875  0.4440  3.3603
 2441SOL     OW 8935   4.473   7.073   5.144  0.7903 -0.0224 -0.1376
 2441SOL    HW1 8936   4.464   7.134   5.071  1.2213  0.5303  0.2679
 2441SOL    HW2 8937   4.480   6.987   5.102 -0.7536  0.0824 -0.6833
 2442SOL     OW 8938   0.928   4.510   1.166  0.0759 -0.0953 -0.2666
 2442SOL    HW1 8939   0.871   4.586   1.156 -1.3950 -1.1785 -0.3728
 2442SOL    HW2 8940   0.999   4.526   1.104 -0.1155  1.2598 -0.1762
 2443SOL     OW 8941   5.401   5.606   3.308  0.3833 -0.7865  0.7018
 2443SOL    HW1 8942   5.407   5.619   3.403 -1.2713 -1.9356  1.0140
 2443SOL    HW2 8943   5.464   5.535   3.290  2.8535  1.3448  0.4057
 2444SOL     OW 8944   4.802   0.460   6.657  0.7303  0.3741  0.3176
 2444SOL    HW1 8945   4.796   0.500   6.571  0.0808  0.5351  0.4335
 2444SOL    HW2 8946   4.715   0.470   6.695 -0.1030 -2.9031 -0.4030
 2445SOL     OW 8947   8.050   2.521   1.812  0.2912  0.4520 -0.1041
 2445SOL    HW1 8948   7.994   2.497   1.886 -0.1124  1.4941 -0.0641
 2445SOL    HW2 8949   8.004   2.489   1.735  0.4933 -0.2315  0.0468
 2446SOL     OW 8950   7.703   5.059   0.061  0.4835 -0.1877  0.5838
 2446SOL    HW1 8951   7.619   5.103   0.074  0.0266 -0.5630 -0.9085
 2446SOL    HW2 8952   7.703   4.988   0.126 -0.8553 -0.8695 -0.1330
 2447SOL     OW 8953   6.822   4.851   5.786  0.3680 -0.0321 -0.4329
 2447SOL    HW1 8954   6.900   4.901   5.810 -0.0840  2.0777 -2.9539
 2447SOL    HW2 8955   6.854   4.762   5.770  1.9228  0.3782  0.1910
 2448SOL     OW 8956   4.330   5.487   8.891 -0.0977 -0.2912 -0.3689
 2448SOL    HW1 8957   4.328   5.507   8.798  1.4166  0.5114 -0.2621
 2448SOL    HW2 8958   4.383   5.407   8.898  0.0289 -0.1930 -0.1784
 2449SOL     OW 8959   8.839   9.470   9.804  0.8813  0.0709  0.0263
 2449SOL    HW1 8960   8.868   9.400   9.862 -0.7346 -0.5618  0.1149
 2449SOL    HW2 8961   8.856   9.550   9.854  2.2027 -0.2683  0.1614
 2450SOL     OW 8962   0.758   9.837   9.338 -0.5547 -0.5004  0.0326
 2450SOL    HW1 8963   0.711   9.844   9.255  1.2112  3.0080 -0.8725
 2450SOL    HW2 8964   0.714   9.900   9.396 -0.3677 -1.2587  1.0199
 2451SOL     OW 8965   6.917   1.447   9.506 -1.0215  0.2865 -0.0389
 2451SOL    HW1 8966   6.855   1.448   9.578 -0.7134 -1.7983  0.3345
 2451SOL    HW2 8967   6.951   1.357   9.506  1.7006  1.2327 -0.4610
 2452SOL     OW 8968   2.091   6.755   8.871  0.0568  0.2691  0.3451
 2452SOL    HW1 8969   2.096   6.802   8.788 -0.4591  0.4934  0.4392
 2452SOL    HW2 8970   2.182   6.740   8.895  0.2145  0.5397 -0.0691
 2453SOL     OW 8971   4.725   3.183   6.697 -0.7689  0.0173 -0.0835
 2453SOL    HW1 8972   4.775   3.144   6.768 -0.7296  0.5676  0.1953
 2453SOL    HW2 8973   4.757   3.273   6.692  0.0580 -0.3318 -1.5690
 2454SOL     OW 8974   8.282   2.955   4.085 -0.2518  0.0934  0.6507
 2454SOL    HW1 8975   8.353   3.011   4.116 -1.2311  0.3050  2.7066
 2454SOL    HW2 8976   8.207   3.014   4.075 -1.0230 -0.6376  1.8640
 2455SOL     OW 8977   1.488   9.535   0.897 -0.2043  0.1640 -0.3813
 2455SOL    HW1 8978   1.494   9.529   0.992 -1.6545  3.9325  0.1159
 2455SOL    HW2 8979   1.543   9.610   0.874  0.4323 -0.9048 -2.6082
 2456SOL     OW 8980   0.405   4.508   8.744 -0.5625 -0.2579  0.3726
 2456SOL    HW1 8981   0.464   4.581   8.758  0.7641 -0.9562 -1.2061
 2456SOL    HW2 8982   0.371   4.486   8.831 -0.0810  1.4587  1.0208
 2457SOL     OW 8983   8.852   5.377   4.607 -0.1052 -0.2353 -0.5576
 2457SOL    HW1 8984   8.872   5.311   4.541 -1.7086  0.4464 -1.7975
 2457SOL    HW2 8985   8.774   5.421   4.574 -0.8625  0.2692  1.7221
 2458SOL     OW 8986   3.850   5.121   7.144  0.2661  0.5515 -0.1509
 2458SOL    HW1 8987   3.771   5.158   7.105  0.3080 -0.3582 -1.1584
 2458SOL    HW2 8988   3.921   5.153   7.090  0.7533  2.2805  1.4167
 2459SOL     OW 8989   8.075   3.447   6.266  0.0943 -0.3693 -0.3772
 2459SOL    HW1 8990   8.026   3.366   6.256 -1.1236  0.3654 -0.6357
 2459SOL    HW2 8991   8.166   3.422   6.254 -0.2267 -1.7418 -0.1494
 2460SOL     OW 8992   6.848   5.590   3.238 -0.6698 -0.5401  0.3832
 2460SOL    HW1 8993   6.756   5.612   3.255 -0.3790  1.4673 -0.3285
 2460SOL    HW2 8994   6.898   5.644   3.299  0.0652 -1.1327  0.3230
 2461SOL     OW 8995   5.080   9.245   1.932  0.3016 -0.0897  0.0200
 2461SOL    HW1 8996   5.051   9.326   1.973 -0.4681  0.4496 -1.4991
 2461SOL    HW2 8997   5.001   9.206   1.895  0.9698 -0.3548 -1.2223
 2462SOL     OW 8998   6.019   6.794   7.013  0.1435 -0.1437  0.3431
 2462SOL    HW1 8999   6.069   6.722   7.051  0.6405 -1.6019 -2.7972
 2462SOL    HW2 9000   5.928   6.765   7.018  0.1191  0.0219  1.0218
 2463SOL     OW 9001   3.863   1.388   3.385  0.7083  0.2562 -0.1479
 2463SOL    HW1 9002   3.788   1.436   3.351  1.0935  1.5252  0.7451
 2463SOL    HW2 9003   3.841   1.296   3.371 -0.4307  0.6551 -1.0755
 2464SOL     OW 9004   5.492   0.467   0.479  0.6647  0.0382  0.2202
 2464SOL    HW1 9005   5.565   0.421   0.521  1.2952  1.3902  0.6565
 2464SOL    HW2 9006   5.414   0.421   0.510  1.0525  1.1745  3.3015
 2465SOL     OW 9007   7.301   2.307   8.273  0.0489 -0.3117 -0.3955
 2465SOL    HW1 9008   7.364   2.238   8.292  2.7976  1.3241 -2.6453
 2465SOL    HW2 9009   7.324   2.379   8.333 -1.5769 -0.6251  0.6679
 2466SOL     OW 9010   4.481   2.557   6.832  0.0247  0.1451  0.4305
 2466SOL    HW1 9011   4.408   2.577   6.891 -0.2450  0.4220 -0.0003
 2466SOL    HW2 9012   4.535   2.636   6.834  0.1927  0.0266  0.5695
 2467SOL     OW 9013   3.827   4.666   4.303  0.0787 -0.2576  0.1014
 2467SOL    HW1 9014   3.830   4.570   4.298 -0.1003 -0.2113 -1.2689
 2467SOL    HW2 9015   3.805   4.694   4.214 -0.0931  1.0550  0.5351
 2468SOL     OW 9016   4.711   4.809   7.860  0.2828  0.6285 -0.0982
 2468SOL    HW1 9017   4.762   4.735   7.830  1.0037  1.0200  0.1409
 2468SOL    HW2 9018   4.725   4.811   7.955 -0.0887  0.8035 -0.0444
 2469SOL     OW 9019   3.105   3.533   1.446  0.4879 -0.0699 -0.0068
 2469SOL    HW1 9020   3.104   3.587   1.367 -0.4719 -1.5569 -1.0728
 2469SOL    HW2 9021   3.168   3.463   1.426  1.9782  0.7804  1.4870
 2470SOL     OW 9022   2.736   9.447   1.582 -0.1598 -0.6824 -0.3677
 2470SOL    HW1 9023   2.829   9.435   1.598  0.0800  0.5823 -0.7454
 2470SOL    HW2 9024   2.704   9.498   1.657  0.1372  1.6558 -1.7282
 2471SOL     OW 9025   4.530   9.438   0.712 -0.6464 -0.1462 -0.3449
 2471SOL    HW1 9026   4.615   9.401   0.737 -0.2517 -0.3841 -1.9438
 2471SOL    HW2 9027   4.476   9.361   0.692 -0.8017  0.0479 -0.6734
 2472SOL     OW 9028   0.216   7.087   9.448 -0.4464  0.2141 -0.1144
 2472SOL    HW1 9029   0.222   7.131   9.364 -1.8969 -0.3140 -0.5426
 2472SOL    HW2 9030   0.149   7.136   9.496  0.9603  1.0276  1.1026
 2473SOL     OW 9031   2.856   9.643   8.562 -0.6224  0.3308 -0.1503
 2473SOL    HW1 9032   2.821   9.562   8.527  1.2489  0.3723 -2.3376
 2473SOL    HW2 9033   2.889   9.619   8.649  0.4755 -1.4562 -1.0025
 2474SOL     OW 9034   6.863   8.194   9.836  0.3809 -0.2372 -0.3501
 2474SOL    HW1 9035   6.949   8.230   9.860  0.3842 -0.0028 -0.7018
 2474SOL    HW2 9036   6.826   8.259   9.776 -0.8935  0.6451  1.3221
 2475SOL     OW 9037   3.905   2.456   1.353  0.3545 -0.0820  0.0042
 2475SOL    HW1 9038   3.813   2.456   1.326 -0.2308  0.1058  1.8523
 2475SOL    HW2 9039   3.943   2.533   1.310 -0.8726  1.0161  0.8046
 2476SOL     OW 9040   3.026   4.143   2.691 -0.5148  0.1790 -0.3956
 2476SOL    HW1 9041   3.106   4.191   2.712  0.1258 -0.6609 -0.8339
 2476SOL    HW2 9042   3.008   4.165   2.600  0.0225 -0.6996 -0.7344
 2477SOL     OW 9043   1.286   1.434   1.258 -0.0325  0.2678 -0.0845
 2477SOL    HW1 9044   1.311   1.342   1.247  3.9262  1.1644 -0.1750
 2477SOL    HW2 9045   1.257   1.461   1.171 -1.5915 -0.9231  0.0237
 2478SOL     OW 9046   4.006   6.462   4.224 -0.0024  0.3396 -0.6167
 2478SOL    HW1 9047   4.012   6.472   4.129  1.8518  1.2643 -0.4452
 2478SOL    HW2 9048   4.096   6.475   4.255 -0.8963  2.1317  1.4613
 2479SOL     OW 9049   7.495   0.713   1.700  0.5070  0.1645 -0.3260
 2479SOL    HW1 9050   7.405   0.744   1.709  0.5326 -0.3931  2.5582
 2479SOL    HW2 9051   7.531   0.765   1.628 -1.7204  1.2646 -0.7250
 2480SOL     OW 9052   0.721   9.425   2.524  0.0426  0.5134  0.2120
 2480SOL    HW1 9053   0.706   9.333   2.501  1.8373  0.3228 -0.3596
 2480SOL    HW2 9054   0.816   9.436   2.517 -0.1301  2.3887  0.3971
 2481SOL     OW 9055   8.838   8.507   8.783 -0.3528  0.0902 -0.2455
 2481SOL    HW1 9056   8.884   8.569   8.841 -0.6296 -0.8506  1.0236
 2481SOL    HW2 9057   8.908   8.453   8.746 -0.1940  0.5353 -0.6073
 2482SOL     OW 9058   2.166   1.955   7.586  0.0387 -0.0846 -0.5298
 2482SOL    HW1 9059   2.242   1.985   7.636 -0.2432  0.3229 -0.3338
 2482SOL    HW2 9060   2.096   1.948   7.652 -0.0563 -0.5969 -0.6805
 2483SOL     OW 9061   6.274   5.034   1.062 -0.1269 -0.5398  0.6511
 2483SOL    HW1 9062   6.317   5.100   1.116 -1.0442  2.1185 -1.6805
 2483SOL    HW2 9063   6.190   5.018   1.106  0.3239 -0.6253  1.5141
 2484SOL     OW 9064   4.753   7.786   4.084 -0.6866  0.2055 -0.9576
 2484SOL    HW1 9065   4.819   7.844   4.047  1.3362  0.5472  2.7117
 2484SOL    HW2 9066   4.718   7.834   4.159 -1.4435 -1.9516  0.1617
 2485SOL     OW 9067   7.179   7.705   8.555  0.0298  0.0894 -0.4892
 2485SOL    HW1 9068   7.238   7.760   8.504 -1.2298  1.7141 -0.3117
 2485SOL    HW2 9069   7.234   7.636   8.592  1.3346  0.0972 -2.3082
 2486SOL     OW 9070   5.867   3.523   6.048  0.0679  0.4124  0.5890
 2486SOL    HW1 9071   5.875   3.429   6.035  4.2666  0.8063 -1.2438
 2486SOL    HW2 9072   5.874   3.536   6.142  1.0216 -1.0520  0.7417
 2487SOL     OW 9073   0.271   9.274   9.346  0.2464  0.3123 -0.3376
 2487SOL    HW1 9074   0.333   9.299   9.414  2.1921 -1.0530 -1.5056
 2487SOL    HW2 9075   0.213   9.350   9.338  1.4800  1.4885  1.1224
 2488SOL     OW 9076   9.389   1.706   4.804 -0.1360  0.4806  0.0594
 2488SOL    HW1 9077   9.333   1.648   4.753  0.5940  1.1754 -1.6163
 2488SOL    HW2 9078   9.352   1.794   4.791  0.2879  0.7189  0.4184
 2489SOL     OW 9079   0.278   1.643   8.297 -0.5923  0.2025  0.3095
 2489SOL    HW1 9080   0.264   1.737   8.314 -1.2187  0.3520 -0.9628
 2489SOL    HW2 9081   0.288   1.605   8.384 -0.1986  1.4677  0.8474
 2490SOL     OW 9082   0.624   4.686   7.524 -0.0890 -0.4434 -0.2188
 2490SOL    HW1 9083   0.716   4.662   7.513  0.1207  0.1787  0.1532
 2490SOL    HW2 9084   0.620   4.732   7.608 -0.8921 -1.1938  0.1678
 2491SOL     OW 9085   0.384   2.616   1.472  0.1331  0.4882  0.0755
 2491SOL    HW1 9086   0.316   2.625   1.405  1.0053  1.0370 -0.7781
 2491SOL    HW2 9087   0.443   2.549   1.436  0.2609  0.3135  0.6102
 2492SOL     OW 9088   3.007   0.206   1.622  0.1638 -0.4592  0.9659
 2492SOL    HW1 9089   3.042   0.212   1.533  0.2264 -1.2685  0.9299
 2492SOL    HW2 9090   3.054   0.274   1.671  1.0571 -0.8426  0.6738
 2493SOL     OW 9091   0.773   7.796   2.681  0.4027 -0.0985 -0.3900
 2493SOL    HW1 9092   0.776   7.887   2.711  2.6503 -0.3291  0.2622
 2493SOL    HW2 9093   0.798   7.801   2.588 -0.7169  0.0421 -0.6982
 2494SOL     OW 9094   0.083   0.484   4.985  0.0001 -0.0217  0.2460
 2494SOL    HW1 9095   0.042   0.436   5.056  0.9205 -1.8521 -0.3878
 2494SOL    HW2 9096   0.010   0.521   4.935 -0.6814  0.2658  1.4190
 2495SOL     OW 9097   9.132   4.832   7.193  0.0362 -0.1553 -0.0381
 2495SOL    HW1 9098   9.088   4.831   7.108  0.4954 -1.3422 -0.2762
 2495SOL    HW2 9099   9.075   4.884   7.249 -0.0661  1.0049 -1.1741
 2496SOL     OW 9100   8.869   3.609   1.491 -0.5717  0.2936 -0.3232
 2496SOL    HW1 9101   8.858   3.690   1.441 -1.0639  0.8362  0.6265
 2496SOL    HW2 9102   8.782   3.570   1.492 -0.2420 -0.5065 -1.1669
 2497SOL     OW 9103   2.275   7.211   4.918 -1.5390 -0.1313 -0.6138
 2497SOL    HW1 9104   2.221   7.285   4.892 -1.6069  1.0388  2.4368
 2497SOL    HW2 9105   2.365   7.245   4.917 -1.3750 -0.5594 -0.8532
 2498SOL     OW 9106   3.838   2.605   6.190  0.5225  0.1120 -0.1572
 2498SOL    HW1 9107   3.762   2.547   6.183  1.2519 -0.6897 -2.1446
 2498SOL    HW2 9108   3.900   2.571   6.125  2.2797  1.2006  0.8717
 2499SOL     OW 9109   6.207   6.595   4.071  0.3880  0.6245  0.1332
 2499SOL    HW1 9110   6.192   6.667   4.132 -1.0271  1.1093 -0.7349
 2499SOL    HW2 9111   6.129   6.593   4.017  1.6739  0.3675 -1.8304
 2500SOL     OW 9112   1.463   8.789   7.893  0.1583  0.7634 -0.5155
 2500SOL    HW1 9113   1.551   8.761   7.919 -0.3187 -1.1779 -0.8334
 2500SOL    HW2 9114   1.457   8.880   7.921  1.2604  0.1026  2.1381
 2501SOL     OW 9115   8.296   5.424   4.397  0.0237  0.0082  0.2280
 2501SOL    HW1 9116   8.368   5.481   4.371  1.1085 -1.1005  0.6807
 2501SOL    HW2 9117   8.219   5.481   4.400  0.5581  0.9153 -1.7681
 2502SOL     OW 9118   9.258   3.240   2.546  0.7815 -0.4771  0.2916
 2502SOL    HW1 9119   9.352   3.257   2.537  0.9739 -1.5317  0.0864
 2502SOL    HW2 9120   9.235   3.194   2.465 -0.5636  2.2617 -0.9935
 2503SOL     OW 9121   9.292   6.155   4.276  0.0464 -0.8133  0.6941
 2503SOL    HW1 9122   9.347   6.188   4.348  1.5359 -2.1188  0.2136
 2503SOL    HW2 9123   9.202   6.164   4.309  0.4229  1.9498  1.2819
 2504SOL     OW 9124   3.785   5.377   1.721 -0.2637 -0.1703  0.1261
 2504SOL    HW1 9125   3.794   5.282   1.709 -3.1036 -0.7032  1.2599
 2504SOL    HW2 9126   3.768   5.387   1.815 -0.6628  1.3803 -0.0925
 2505SOL     OW 9127   4.203   5.808   8.176  0.8846  0.3123  0.3316
 2505SOL    HW1 9128   4.139   5.841   8.113  0.6674 -2.3761 -0.9879
 2505SOL    HW2 9129   4.281   5.861   8.161  0.3069  0.8264 -1.0075
 2506SOL     OW 9130   9.139   7.155   7.635  0.1251  0.0358 -0.1112
 2506SOL    HW1 9131   9.150   7.228   7.574 -0.3115  2.0804  2.0959
 2506SOL    HW2 9132   9.215   7.160   7.693  0.2817 -1.5244 -0.1498
 2507SOL     OW 9133   1.065   7.697   0.321 -0.4354  0.0287  0.1549
 2507SOL    HW1 9134   1.066   7.615   0.369 -0.0955 -0.1371 -0.1231
 2507SOL    HW2 9135   1.083   7.671   0.230  1.0411  0.5236  0.2692
 2508SOL     OW 9136   0.322   0.542   3.687 -0.1292  0.1454 -0.6028
 2508SOL    HW1 9137   0.271   0.559   3.608  0.7911 -0.4765 -1.3543
 2508SOL    HW2 9138   0.411   0.570   3.665  0.4736 -1.4856 -0.3571
 2509SOL     OW 9139   0.819   6.990   0.693 -0.2992 -0.4902 -0.5305
 2509SOL    HW1 9140   0.838   7.020   0.604 -0.4938 -0.6837 -0.6361
 2509SOL    HW2 9141   0.724   7.000   0.702 -0.0257  1.9276  0.5112
 2510SOL     OW 9142   2.018   5.349   9.145 -0.4272 -0.3679  0.0848
 2510SOL    HW1 9143   1.993   5.421   9.203 -1.4769 -0.7702  0.1454
 2510SOL    HW2 9144   2.003   5.270   9.198 -1.4401 -0.7415 -0.7363
 2511SOL     OW 9145   8.842   7.947   5.088 -0.1808 -0.2979  0.1929
 2511SOL    HW1 9146   8.841   8.016   5.022  0.3046 -0.0584  0.4314
 2511SOL    HW2 9147   8.795   7.985   5.162 -0.6302 -0.5274  0.0301
 2512SOL     OW 9148   6.070   6.041   1.554  0.4502  0.0258 -0.0709
 2512SOL    HW1 9149   6.061   5.950   1.581 -1.2229  0.6747  1.8482
 2512SOL    HW2 9150   6.132   6.039   1.481  0.9541 -2.5435  0.3415
 2513SOL     OW 9151   5.365   8.022   5.562  0.6287 -0.5899  0.1546
 2513SOL    HW1 9152   5.428   8.060   5.624  0.8309 -1.0446  0.2320
 2513SOL    HW2 9153   5.411   8.020   5.479  0.4898 -0.3337  0.0698
 2514SOL     OW 9154   5.685   8.114   1.588 -0.3357  0.5516  0.0771
 2514SOL    HW1 9155   5.612   8.109   1.650 -0.2371  0.3601  0.1775
 2514SOL    HW2 9156   5.739   8.037   1.608 -0.7510  0.0160 -0.8163
 2515SOL     OW 9157   1.528   9.321   2.221  0.5668 -0.3342  0.5474
 2515SOL    HW1 9158   1.494   9.399   2.266  2.1030 -0.1679  1.4878
 2515SOL    HW2 9159   1.485   9.248   2.265 -0.1387 -0.0608  0.3231
 2516SOL     OW 9160   4.982   6.968   7.881 -0.0137  0.2847  0.4511
 2516SOL    HW1 9161   4.953   6.879   7.860 -0.9260  0.3267  1.4248
 2516SOL    HW2 9162   4.967   6.976   7.975 -0.8251  1.7741  0.2187
 2517SOL     OW 9163   8.397   8.864   0.541  0.5421 -0.0129 -0.3974
 2517SOL    HW1 9164   8.479   8.842   0.585  0.9633  1.6157 -0.2792
 2517SOL    HW2 9165   8.396   8.960   0.541 -2.4785  0.1048  1.7289
 2518SOL     OW 9166   6.634   8.327   8.062  0.6882  0.0579 -0.1300
 2518SOL    HW1 9167   6.570   8.266   8.098 -0.5186  1.6716  0.5774
 2518SOL    HW2 9168   6.582   8.402   8.033  2.0404  0.4346 -1.7276
 2519SOL     OW 9169   2.342   4.334   6.616 -0.2033  0.6282 -0.0686
 2519SOL    HW1 9170   2.271   4.291   6.662 -1.2683 -0.6983 -2.7395
 2519SOL    HW2 9171   2.419   4.318   6.670 -1.1335 -1.8913  0.6512
 2520SOL     OW 9172   8.918   2.554   3.722  0.1958  0.0281 -0.2127
 2520SOL    HW1 9173   8.867   2.477   3.749  2.3030 -2.4499 -2.6405
 2520SOL    HW2 9174   8.865   2.594   3.652  0.7205 -1.5537 -1.5813
 2521SOL     OW 9175   8.644   0.257   2.621 -0.9036 -0.0953 -0.6786
 2521SOL    HW1 9176   8.637   0.188   2.687  0.7155  1.1246  0.8870
 2521SOL    HW2 9177   8.570   0.243   2.563 -0.9714 -2.7504 -0.0664
 2522SOL     OW 9178   5.753   0.071   9.177 -0.1652  0.6896  0.4138
 2522SOL    HW1 9179   5.666   0.031   9.174 -0.0759  0.3714  1.6391
 2522SOL    HW2 9180   5.785   0.066   9.087 -1.2114  0.3598  0.0501
 2523SOL     OW 9181   3.685   6.010   1.864 -0.2822  0.4476 -0.5993
 2523SOL    HW1 9182   3.638   6.083   1.905 -0.0195  0.4076 -0.2168
 2523SOL    HW2 9183   3.636   5.992   1.784 -0.9463  0.3812 -0.1891
 2524SOL     OW 9184   1.677   8.453   5.960  1.1478 -0.1529 -0.0067
 2524SOL    HW1 9185   1.662   8.405   6.041  1.5983 -0.0355  0.1483
 2524SOL    HW2 9186   1.730   8.395   5.907 -0.7336 -1.0493 -1.0244
 2525SOL     OW 9187   1.330   5.008   8.900  0.1004 -0.0255 -0.3627
 2525SOL    HW1 9188   1.251   4.975   8.857 -0.9421  0.6993  0.9059
 2525SOL    HW2 9189   1.355   4.937   8.960 -0.4487  0.3138  0.2782
 2526SOL     OW 9190   7.689   8.133   1.511 -0.1063 -0.1494  0.1719
 2526SOL    HW1 9191   7.647   8.052   1.483 -0.7002  0.3801 -0.5020
 2526SOL    HW2 9192   7.664   8.198   1.445  2.5940 -0.0237 -0.8662
 2527SOL     OW 9193   4.981   7.234   4.229 -0.0462  0.3878  0.1962
 2527SOL    HW1 9194   4.942   7.198   4.309 -0.8338  0.0504 -0.3218
 2527SOL    HW2 9195   4.906   7.254   4.173  0.4009  2.3549  0.2385
 2528SOL     OW 9196   9.626   3.321   8.513 -0.5123  0.0529  0.1230
 2528SOL    HW1 9197   9.674   3.264   8.453 -2.3225 -2.5409  0.9842
 2528SOL    HW2 9198   9.689   3.391   8.534  1.8061 -1.5158 -1.0935
 2529SOL     OW 9199   9.513   8.912   0.803 -0.4129 -0.1118 -0.0615
 2529SOL    HW1 9200   9.530   8.862   0.882  0.1382  1.1465  0.6532
 2529SOL    HW2 9201   9.600   8.924   0.763 -0.5349  0.2205 -0.2349
 2530SOL     OW 9202   0.636   9.146   0.212 -0.6678  0.0883  0.3061
 2530SOL    HW1 9203   0.713   9.199   0.231 -1.0232  0.5436  0.5010
 2530SOL    HW2 9204   0.564   9.193   0.254 -0.8538 -1.0511  1.2863
 2531SOL     OW 9205   2.985   7.094   2.016 -0.5450  0.1309 -0.5885
 2531SOL    HW1 9206   3.029   7.072   1.934 -0.7896  0.8675 -0.9284
 2531SOL    HW2 9207   3.026   7.176   2.044 -0.4938 -0.0907  0.0049
 2532SOL     OW 9208   4.099   1.985   6.549 -0.5584 -0.5889  0.7350
 2532SOL    HW1 9209   4.168   2.048   6.568 -1.2938  0.4229  0.1516
 2532SOL    HW2 9210   4.144   1.912   6.506 -0.1840  1.4159 -2.6461
 2533SOL     OW 9211   4.212   7.677   3.379  0.2697 -0.1761  0.1572
 2533SOL    HW1 9212   4.129   7.630   3.381  0.5567 -0.7028  1.7638
 2533SOL    HW2 9213   4.231   7.690   3.286 -0.2461 -2.4841 -0.3320
 2534SOL     OW 9214   1.973   4.947   7.991 -0.4287  0.2899  0.1893
 2534SOL    HW1 9215   2.043   4.973   7.932  1.9946 -1.7738  1.9436
 2534SOL    HW2 9216   1.985   5.001   8.069  0.1357 -1.0143  1.0384
 2535SOL     OW 9217   2.080   7.222   3.549 -0.0296 -0.3642  0.0761
 2535SOL    HW1 9218   2.140   7.151   3.572  1.5882  1.0997  0.5849
 2535SOL    HW2 9219   2.097   7.238   3.457 -0.3605 -0.5718 -0.0255
 2536SOL     OW 9220   2.640   4.995   5.559  0.3755  0.0348  0.2212
 2536SOL    HW1 9221   2.629   5.036   5.645 -3.1098  0.5861 -0.3650
 2536SOL    HW2 9222   2.656   4.903   5.579 -1.8079 -0.1358  1.5231
 2537SOL     OW 9223   2.409   9.564   7.556 -0.2416  0.4518 -0.6566
 2537SOL    HW1 9224   2.392   9.471   7.573  1.7984  0.0507 -0.6074
 2537SOL    HW2 9225   2.358   9.583   7.478  0.9249 -1.2948 -1.9190
 2538SOL     OW 9226   8.484   1.132   2.352  0.1599  0.0866 -1.1356
 2538SOL    HW1 9227   8.431   1.055   2.371  1.7250 -0.6085  0.7520
 2538SOL    HW2 9228   8.438   1.204   2.395  1.8183 -0.8981  2.6413
 2539SOL     OW 9229   4.399   3.594   0.211 -0.7482  0.0931  0.4433
 2539SOL    HW1 9230   4.430   3.683   0.222 -0.1280 -0.0547 -0.0664
 2539SOL    HW2 9231   4.409   3.554   0.298 -1.5593  0.6766  0.8092
 2540SOL     OW 9232   3.228   9.837   8.063  0.2662  0.3026 -0.0633
 2540SOL    HW1 9233   3.268   9.808   8.145 -1.8448  2.4834  1.9056
 2540SOL    HW2 9234   3.166   9.768   8.040 -0.3068  0.3927  1.1285
 2541SOL     OW 9235   2.772   5.735   6.996  0.0402 -0.2803  0.0199
 2541SOL    HW1 9236   2.689   5.775   7.021  0.1974 -0.2637  0.5194
 2541SOL    HW2 9237   2.827   5.809   6.969 -0.1180 -0.2953 -0.3452
 2542SOL     OW 9238   5.994   4.101   7.677 -0.2962  0.0979  0.0847
 2542SOL    HW1 9239   5.999   4.007   7.695  1.4700  0.3018  0.8574
 2542SOL    HW2 9240   5.912   4.128   7.720  0.0123 -0.8060  1.3325
 2543SOL     OW 9241   2.164   4.584   3.002 -0.5209 -0.2441 -0.1474
 2543SOL    HW1 9242   2.214   4.664   3.016 -1.4468  0.4463 -0.6320
 2543SOL    HW2 9243   2.094   4.588   3.067 -1.2012 -0.0983 -0.8674
 2544SOL     OW 9244   2.777   6.080   4.153 -0.4863  0.0317 -0.4830
 2544SOL    HW1 9245   2.814   6.148   4.097  0.6993 -0.1901  0.0079
 2544SOL    HW2 9246   2.728   6.024   4.093 -1.7604  1.4750 -0.8531
 2545SOL     OW 9247   7.942   6.293   5.333  0.0710 -0.3369  0.3496
 2545SOL    HW1 9248   7.982   6.235   5.268  2.2460  1.4257 -0.0076
 2545SOL    HW2 9249   7.848   6.276   5.326  0.4593 -2.1623 -1.3054
 2546SOL     OW 9250   6.146   2.056   9.608  0.3440  0.3204  0.3572
 2546SOL    HW1 9251   6.078   2.098   9.556  0.1588 -0.5006 -0.0874
 2546SOL    HW2 9252   6.112   2.059   9.698 -0.9254 -1.2368 -0.0203
 2547SOL     OW 9253   6.003   8.475   2.784 -0.4536  0.2677  0.0175
 2547SOL    HW1 9254   6.002   8.455   2.878  0.9163 -0.3470 -0.0746
 2547SOL    HW2 9255   5.986   8.390   2.742  2.9507 -0.3620 -0.3331
 2548SOL     OW 9256   0.919   8.906   8.240 -0.9545 -0.2480 -0.2237
 2548SOL    HW1 9257   0.895   8.822   8.278 -0.5330  0.3909  1.5795
 2548SOL    HW2 9258   0.866   8.970   8.287 -0.2634  0.6157 -0.5833
 2549SOL     OW 9259   8.536   1.883   4.243 -0.5639  0.6272 -0.6322
 2549SOL    HW1 9260   8.604   1.903   4.180 -1.3013  2.5961 -0.8685
 2549SOL    HW2 9261   8.537   1.957   4.305 -1.7168  0.1409  0.0131
 2550SOL     OW 9262   3.891   5.605   8.515 -0.4008  0.0059 -0.0212
 2550SOL    HW1 9263   3.902   5.521   8.469 -0.3142 -0.1809  0.3388
 2550SOL    HW2 9264   3.882   5.580   8.607 -1.6398  0.2980 -0.0439
 2551SOL     OW 9265   3.496   1.944   5.003 -0.3986  0.3196  0.1324
 2551SOL    HW1 9266   3.478   1.889   5.080  2.5751 -0.6141  0.2988
 2551SOL    HW2 9267   3.476   1.887   4.928  0.8933 -0.3780  0.2916
 2552SOL     OW 9268   5.271   2.159   4.158 -0.1108 -0.4337 -0.2098
 2552SOL    HW1 9269   5.308   2.090   4.104 -0.5635 -1.4344  0.7285
 2552SOL    HW2 9270   5.325   2.161   4.237 -0.6421 -0.3258  0.1600
 2553SOL     OW 9271   8.087   4.751   0.566  0.1682 -0.1235 -0.1025
 2553SOL    HW1 9272   8.138   4.680   0.605  0.2013  0.3231  0.7032
 2553SOL    HW2 9273   8.136   4.777   0.489 -0.2109 -1.4445 -0.8176
 2554SOL     OW 9274   7.991   1.851   5.862  0.2517 -0.2104 -0.7287
 2554SOL    HW1 9275   7.976   1.832   5.955 -1.2410 -0.1105 -0.9217
 2554SOL    HW2 9276   8.029   1.771   5.827  1.7823  0.0803  0.1488
 2555SOL     OW 9277   4.737   6.787   1.987  0.3199 -0.8801  0.9994
 2555SOL    HW1 9278   4.794   6.850   2.031 -0.5244 -0.6411  1.7978
 2555SOL    HW2 9279   4.686   6.747   2.058 -0.2885 -1.3063  0.3408
 2556SOL     OW 9280   8.346   8.355   8.901 -0.2200 -0.2704  0.5309
 2556SOL    HW1 9281   8.382   8.325   8.817  0.3510 -0.4281  0.8264
 2556SOL    HW2 9282   8.423   8.382   8.951 -0.5403 -0.3777  1.0829
 2557SOL     OW 9283   6.747   6.820   1.471  0.2698  0.0022 -0.3729
 2557SOL    HW1 9284   6.785   6.875   1.403 -1.4232 -0.6080 -1.9088
 2557SOL    HW2 9285   6.664   6.789   1.434  0.0901 -1.7698  1.2972
 2558SOL     OW 9286   6.869   9.136   9.639 -0.4165  0.4703  0.0752
 2558SOL    HW1 9287   6.878   9.220   9.683 -0.2151  1.0306 -1.0042
 2558SOL    HW2 9288   6.789   9.144   9.588 -0.3668  0.0251 -0.0754
 2559SOL     OW 9289   9.333   1.464   4.569  0.4452  0.8096 -0.0381
 2559SOL    HW1 9290   9.343   1.514   4.488  0.5730  2.7908  1.1521
 2559SOL    HW2 9291   9.242   1.478   4.595  0.6156  0.8093  0.5645
 2560SOL     OW 9292   4.444   7.714   4.786 -0.3864 -0.2320  0.0801
 2560SOL    HW1 9293   4.468   7.736   4.696 -1.0439  1.0077  0.1772
 2560SOL    HW2 9294   4.507   7.648   4.813  0.5743  0.2647 -0.8822
 2561SOL     OW 9295   6.174   0.017   5.238 -0.3575  0.5305 -0.0942
 2561SOL    HW1 9296   6.116   0.090   5.259 -0.1952  0.1096  2.0098
 2561SOL    HW2 9297   6.262   0.054   5.243 -0.2887  0.2810  0.6689
 2562SOL     OW 9298   3.397   0.222   7.548 -0.4066 -0.1427 -0.2118
 2562SOL    HW1 9299   3.486   0.252   7.527 -0.1204 -1.1946 -0.5825
 2562SOL    HW2 9300   3.391   0.231   7.643  0.7337 -1.6546  0.0374
 2563SOL     OW 9301   5.421   8.026   2.574  0.4862 -0.5696  0.2610
 2563SOL    HW1 9302   5.453   8.013   2.663 -0.6197 -1.2720  0.5732
 2563SOL    HW2 9303   5.336   8.068   2.584  0.9280  0.5743 -0.5270
 2564SOL     OW 9304   3.903   9.205   3.867 -0.0749  0.1082 -0.7572
 2564SOL    HW1 9305   3.828   9.220   3.810 -0.9767 -2.1003 -0.2424
 2564SOL    HW2 9306   3.891   9.268   3.939 -0.9441  0.3835 -1.1340
 2565SOL     OW 9307   1.494   0.153   0.439 -0.8031  0.1108 -0.0015
 2565SOL    HW1 9308   1.488   0.074   0.386  0.9830 -1.1408  1.5170
 2565SOL    HW2 9309   1.546   0.126   0.516 -0.2668  2.7154  0.6344
 2566SOL     OW 9310   5.221   7.118   0.614  0.2830 -0.8250  0.3351
 2566SOL    HW1 9311   5.241   7.208   0.588 -0.6491 -0.1015  1.9906
 2566SOL    HW2 9312   5.281   7.100   0.687  1.0753 -1.8878 -0.5464
 2567SOL     OW 9313   4.424   0.057   8.452  0.4574 -0.6613 -0.2523
 2567SOL    HW1 9314   4.499   0.008   8.486  2.4612  1.3460 -1.4169
 2567SOL    HW2 9315   4.398   0.010   8.373  1.3033 -0.7681 -0.4830
 2568SOL     OW 9316   0.512   3.486   5.704  0.6392 -0.0336 -0.9283
 2568SOL    HW1 9317   0.548   3.417   5.759  1.4224 -0.3114 -1.7579
 2568SOL    HW2 9318   0.454   3.535   5.762 -1.3306 -2.4064 -0.7211
 2569SOL     OW 9319   9.759   4.817   8.204 -0.2770 -0.0032  0.0722
 2569SOL    HW1 9320   9.692   4.869   8.249 -0.7450  0.4186 -1.0743
 2569SOL    HW2 9321   9.767   4.737   8.256 -2.5684 -0.6127 -0.3928
 2570SOL     OW 9322   2.292   7.469   2.179 -0.0300  0.4095  0.1746
 2570SOL    HW1 9323   2.313   7.381   2.147  1.5690  1.1269 -0.8323
 2570SOL    HW2 9324   2.214   7.494   2.129  0.1187 -0.0355 -0.2935
 2571SOL     OW 9325   3.280   7.082   5.951  0.0052  0.5031  0.5347
 2571SOL    HW1 9326   3.258   7.075   5.858  1.9574  0.9817 -0.0048
 2571SOL    HW2 9327   3.196   7.076   5.996 -0.8619 -1.1572 -1.1700
 2572SOL     OW 9328   0.970   9.258   6.273 -0.4470  0.0486  1.2013
 2572SOL    HW1 9329   1.044   9.198   6.285  0.5915  0.1275 -3.1169
 2572SOL    HW2 9330   0.896   9.201   6.252  0.7756 -0.1100 -3.9842
 2573SOL     OW 9331   8.411   2.849   8.902 -0.3331  0.2542 -0.3700
 2573SOL    HW1 9332   8.349   2.921   8.896  1.4462  1.8340 -0.5973
 2573SOL    HW2 9333   8.424   2.819   8.812 -0.2616  0.3746 -0.3998
 2574SOL     OW 9334   1.582   8.322   7.325 -0.2834  0.3355 -0.1911
 2574SOL    HW1 9335   1.648   8.390   7.341  1.2816 -0.6074 -2.2222
 2574SOL    HW2 9336   1.626   8.240   7.344 -1.2459 -0.2616 -0.4445
 2575SOL     OW 9337   5.611   4.482   7.355  0.4983 -0.4464  0.5936
 2575SOL    HW1 9338   5.665   4.548   7.399  0.2928  1.6664 -2.0275
 2575SOL    HW2 9339   5.673   4.431   7.302  0.2688  0.5517 -0.7112
 2576SOL     OW 9340   0.920   2.897   1.623  0.6452 -0.3159  0.5508
 2576SOL    HW1 9341   0.993   2.952   1.596  0.3264  0.7595  1.7919
 2576SOL    HW2 9342   0.947   2.860   1.707 -0.7845  1.2908  1.7847
 2577SOL     OW 9343   5.914   5.472   6.548  0.0051  0.6861 -0.2978
 2577SOL    HW1 9344   5.937   5.560   6.519 -3.4267  1.0171 -2.6085
 2577SOL    HW2 9345   5.834   5.484   6.598  0.2711 -1.0173  0.5921
 2578SOL     OW 9346   9.096   3.011   7.936 -0.4477  0.1181  0.4851
 2578SOL    HW1 9347   9.191   3.015   7.947 -0.2282 -0.4832 -0.9596
 2578SOL    HW2 9348   9.083   2.940   7.873 -1.9074 -0.2598  1.1769
 2579SOL     OW 9349   9.741   1.793   3.185  0.1546 -0.1182 -0.3137
 2579SOL    HW1 9350   9.737   1.702   3.216  0.4552 -0.2923 -0.7735
 2579SOL    HW2 9351   9.834   1.808   3.169 -0.0415 -0.1758 -1.5441
 2580SOL     OW 9352   2.803   4.340   8.082  0.2643 -0.0342  0.1977
 2580SOL    HW1 9353   2.781   4.268   8.023 -0.4365  0.2002  0.1667
 2580SOL    HW2 9354   2.897   4.352   8.071  0.0795  0.2733 -1.1739
 2581SOL     OW 9355   8.361   3.472   8.564  0.0048  0.0029  0.7163
 2581SOL    HW1 9356   8.391   3.522   8.640 -0.4393 -3.0325  3.0767
 2581SOL    HW2 9357   8.266   3.485   8.563 -0.0308 -0.2260  0.9234
 2582SOL     OW 9358   2.257   7.479   7.810  0.6175  0.0774  0.2850
 2582SOL    HW1 9359   2.323   7.459   7.876  0.7321  2.1627  0.8963
 2582SOL    HW2 9360   2.293   7.445   7.729  1.1756 -1.2089  1.0455
 2583SOL     OW 9361   3.137   4.252   9.351 -0.3261  0.3112  0.1854
 2583SOL    HW1 9362   3.051   4.259   9.310 -0.0878  0.0673 -0.3616
 2583SOL    HW2 9363   3.195   4.225   9.280  0.1726  0.3198  0.5877
 2584SOL     OW 9364   8.674   8.889   2.894  0.3336  0.3112  0.4671
 2584SOL    HW1 9365   8.757   8.882   2.847  0.4054  0.5884  0.5497
 2584SOL    HW2 9366   8.607   8.887   2.826  0.4914  2.3207  0.1883
 2585SOL     OW 9367   3.678   5.097   6.470 -0.1526  0.2135 -0.2956
 2585SOL    HW1 9368   3.628   5.164   6.423 -0.5622 -0.0851 -0.2917
 2585SOL    HW2 9369   3.722   5.048   6.400  0.2191  0.5397 -0.2934
 2586SOL     OW 9370   9.017   9.626   0.647  0.6381 -0.2900  0.2419
 2586SOL    HW1 9371   9.015   9.615   0.742 -0.4776 -1.8915  0.0696
 2586SOL    HW2 9372   9.024   9.537   0.613  0.8283  0.2521 -1.1860
 2587SOL     OW 9373   5.216   7.686   8.033  0.4345 -0.4430  0.1109
 2587SOL    HW1 9374   5.127   7.655   8.053  0.5091 -1.0223 -0.4053
 2587SOL    HW2 9375   5.226   7.670   7.940  0.4974  1.1662 -0.1776
 2588SOL     OW 9376   8.002   2.666   0.819 -0.4924 -0.6406  0.2159
 2588SOL    HW1 9377   8.059   2.610   0.767  0.4779 -0.3577  0.9398
 2588SOL    HW2 9378   8.043   2.668   0.906 -0.0820  1.7497  0.0405
 2589SOL     OW 9379   1.016   4.807   9.735 -0.2380  0.0983  0.2978
 2589SOL    HW1 9380   1.012   4.712   9.749  1.0411  0.2140  1.7174
 2589SOL    HW2 9381   0.942   4.841   9.786  0.8348  0.0203  2.0067
 2590SOL     OW 9382   7.495   9.292   8.644  0.2779 -0.2718  0.1816
 2590SOL    HW1 9383   7.511   9.198   8.659  0.4688 -0.2681 -0.0059
 2590SOL    HW2 9384   7.573   9.323   8.599  0.0937 -0.0808 -0.0055
 2591SOL     OW 9385   4.233   8.834   6.904  0.2878 -0.1356  0.2570
 2591SOL    HW1 9386   4.258   8.926   6.915 -0.2602  0.0465 -0.0198
 2591SOL    HW2 9387   4.172   8.817   6.976 -0.8907  0.1895 -0.6394
 2592SOL     OW 9388   9.146   2.787   5.996  0.0149  0.0584  0.4830
 2592SOL    HW1 9389   9.214   2.767   6.061  0.1797 -2.4108 -0.3481
 2592SOL    HW2 9390   9.066   2.751   6.035 -0.4158  0.9762  0.4699
 2593SOL     OW 9391   0.153   9.402   0.205 -0.1381 -0.4982  0.7050
 2593SOL    HW1 9392   0.082   9.460   0.233  1.8372  0.9214  3.1266
 2593SOL    HW2 9393   0.210   9.457   0.151 -0.0423 -1.2152  0.0510
 2594SOL     OW 9394   5.421   8.637   3.142  0.1701 -0.6441 -0.3659
 2594SOL    HW1 9395   5.481   8.686   3.087 -0.8807 -0.6655 -1.5776
 2594SOL    HW2 9396   5.466   8.555   3.160  0.9872 -0.1765 -0.2496
 2595SOL     OW 9397   0.036   5.226   3.475 -0.0963 -0.1337  0.0098
 2595SOL    HW1 9398  -0.036   5.163   3.475 -0.4070  0.2237 -0.0008
 2595SOL    HW2 9399   0.027   5.273   3.558 -1.5360  1.8071 -1.1886
 2596SOL     OW 9400   3.606   1.543   9.415  0.0264 -0.1704  0.0264
 2596SOL    HW1 9401   3.580   1.452   9.426 -3.0503  0.4291 -1.3040
 2596SOL    HW2 9402   3.619   1.554   9.321  1.6120  0.5075  0.2864
 2597SOL     OW 9403   9.091   8.837   2.931 -0.0429  0.2080 -0.6508
 2597SOL    HW1 9404   9.098   8.750   2.972 -0.7277  0.0722 -0.8156
 2597SOL    HW2 9405   9.019   8.828   2.869 -0.2281  0.9439 -0.5456
 2598SOL     OW 9406   0.903   5.663   8.579  0.2399  0.5835  0.1043
 2598SOL    HW1 9407   0.982   5.660   8.633  0.3918  1.7491 -0.0270
 2598SOL    HW2 9408   0.885   5.572   8.557  0.1586  0.0785  2.1403
 2599SOL     OW 9409   6.555   4.138   6.704  0.2202 -0.1194  0.4788
 2599SOL    HW1 9410   6.542   4.043   6.712  2.0142 -0.4502 -0.0568
 2599SOL    HW2 9411   6.649   4.148   6.691 -0.1814  1.5885 -1.6300
 2600SOL     OW 9412   9.073   5.089   0.035  0.2459 -0.0957 -0.1277
 2600SOL    HW1 9413   9.011   5.017   0.047  0.3374 -0.0983  0.3784
 2600SOL    HW2 9414   9.151   5.061   0.083 -0.2932  1.0370  1.4864
 2601SOL     OW 9415   1.474   6.825   8.918  0.0610 -0.3824 -0.4355
 2601SOL    HW1 9416   1.463   6.916   8.890 -0.3711 -0.0801  0.6675
 2601SOL    HW2 9417   1.506   6.831   9.008 -0.0217 -1.3275 -0.3305
 2602SOL     OW 9418   2.741   5.767   6.701 -0.6099 -0.4963 -0.2686
 2602SOL    HW1 9419   2.821   5.821   6.704 -0.8163 -0.1505 -0.7801
 2602SOL    HW2 9420   2.745   5.714   6.780 -0.2739  0.0934  0.1186
 2603SOL     OW 9421   9.716   1.611   0.860 -0.4946  0.3946 -0.0514
 2603SOL    HW1 9422   9.755   1.696   0.879  2.5134 -0.6026 -1.2730
 2603SOL    HW2 9423   9.750   1.554   0.929  0.2942 -0.5295 -1.1891
 2604SOL     OW 9424   1.474   0.585   8.148  0.1222 -0.1206  0.2508
 2604SOL    HW1 9425   1.402   0.531   8.116 -0.3881 -0.4705  1.8814
 2604SOL    HW2 9426   1.522   0.611   8.069 -1.6806 -0.0082 -0.8632
 2605SOL     OW 9427   8.011   3.562   1.272 -0.2510 -0.0318  0.3182
 2605SOL    HW1 9428   7.918   3.583   1.283 -0.9120 -2.2387 -0.4989
 2605SOL    HW2 9429   8.049   3.576   1.358 -1.1241  1.8069  0.4487
 2606SOL     OW 9430   9.422   4.886   4.949 -0.2707  0.0358 -0.4635
 2606SOL    HW1 9431   9.453   4.899   5.039 -0.8383  2.1499 -0.5179
 2606SOL    HW2 9432   9.495   4.913   4.894 -0.6385  0.7738 -0.6066
 2607SOL     OW 9433   8.937   0.149   7.505  0.2228 -0.0267  0.1410
 2607SOL    HW1 9434   8.989   0.174   7.582 -1.2390 -3.9817  2.7492
 2607SOL    HW2 9435   8.847   0.170   7.529 -0.3483 -2.0525 -0.0428
 2608SOL     OW 9436   4.714   1.049   5.276 -0.2204 -0.1513 -0.3234
 2608SOL    HW1 9437   4.721   1.111   5.203 -1.6932 -1.5448 -1.7353
 2608SOL    HW2 9438   4.704   1.104   5.354 -0.1621  1.3765 -1.3508
 2609SOL     OW 9439   4.138   8.912   5.085  0.1270  0.0571  0.1063
 2609SOL    HW1 9440   4.126   8.976   5.156  0.4380  0.8188 -0.5196
 2609SOL    HW2 9441   4.095   8.952   5.009  1.8760  0.3621 -0.7676
 2610SOL     OW 9442   7.621   7.984   2.107 -0.1613  0.3395  0.2567
 2610SOL    HW1 9443   7.555   7.991   2.038  1.1992 -0.2261 -1.1693
 2610SOL    HW2 9444   7.704   7.978   2.060  0.6803 -2.2080  1.8411
 2611SOL     OW 9445   2.535   9.807   5.084 -0.4343 -0.1014  0.0316
 2611SOL    HW1 9446   2.558   9.824   4.992  0.2645  0.1104  0.2410
 2611SOL    HW2 9447   2.515   9.893   5.120 -0.0819 -0.1115  0.2482
 2612SOL     OW 9448   2.150   1.997   2.523  0.4156 -0.3714  0.1015
 2612SOL    HW1 9449   2.190   1.930   2.467  1.0986 -0.3762  0.5858
 2612SOL    HW2 9450   2.068   2.019   2.479 -0.0115 -1.7971  0.1186
 2613SOL     OW 9451   3.085   8.492   0.042  0.1022 -0.3080 -0.7669
 2613SOL    HW1 9452   3.116   8.403   0.064 -1.7475 -0.9610 -0.6528
 2613SOL    HW2 9453   3.148   8.550   0.085  0.4227 -1.5809  0.5809
 2614SOL     OW 9454   3.852   2.900   5.429  0.8614 -0.4497 -0.6413
 2614SOL    HW1 9455   3.816   2.834   5.370 -1.2550 -1.1613  1.3062
 2614SOL    HW2 9456   3.943   2.874   5.442  0.6738 -1.6862 -1.6112
 2615SOL     OW 9457   6.787   5.687   2.798  0.8185 -0.6020  0.0969
 2615SOL    HW1 9458   6.694   5.684   2.777  0.2746  0.0598  2.1711
 2615SOL    HW2 9459   6.828   5.725   2.720 -0.4749 -1.7458 -1.2148
 2616SOL     OW 9460   5.484   2.222   8.462  0.3403  0.5830  0.2671
 2616SOL    HW1 9461   5.415   2.227   8.395  0.7118 -1.2145 -0.3134
 2616SOL    HW2 9462   5.566   2.226   8.413  0.6164 -0.4127  0.6178
 2617SOL     OW 9463   6.059   6.400   1.540  0.4231  0.1731 -0.2710
 2617SOL    HW1 9464   6.151   6.394   1.514  0.6289 -0.4362  0.5518
 2617SOL    HW2 9465   6.029   6.483   1.503  1.8880  1.4340  1.1986
 2618SOL     OW 9466   7.811   2.256   7.620  0.2786  0.0996  0.4428
 2618SOL    HW1 9467   7.768   2.341   7.608  0.5201  0.2036  0.3208
 2618SOL    HW2 9468   7.743   2.201   7.659  0.1398  0.3633  0.5739
 2619SOL     OW 9469   4.549   3.618   1.907 -0.4831  0.2897  0.4527
 2619SOL    HW1 9470   4.643   3.609   1.891 -0.7207 -0.2249 -0.7191
 2619SOL    HW2 9471   4.510   3.545   1.860 -1.3970 -0.1149  1.7923
 2620SOL     OW 9472   0.993   0.004   0.364  0.3172 -0.3142  1.0301
 2620SOL    HW1 9473   1.042  -0.077   0.351 -0.1096 -0.8423  2.4453
 2620SOL    HW2 9474   0.929   0.005   0.293  2.2296  0.3326 -0.7744
 2621SOL     OW 9475   4.660   8.160   7.843  0.7562  0.1295 -0.1497
 2621SOL    HW1 9476   4.652   8.238   7.788  0.6241 -0.7257 -1.3708
 2621SOL    HW2 9477   4.576   8.115   7.835  1.2681 -0.7972 -0.4799
 2622SOL     OW 9478   8.939   3.729   1.993  0.4896  0.2573 -0.3704
 2622SOL    HW1 9479   8.877   3.658   2.005  0.2289  0.5927  0.2922
 2622SOL    HW2 9480   8.989   3.704   1.915  0.2476 -0.5342 -0.2794
 2623SOL     OW 9481   4.995   4.024   1.434 -1.2967 -0.1086 -0.0988
 2623SOL    HW1 9482   4.920   4.053   1.486 -1.1862 -0.0599  0.0368
 2623SOL    HW2 9483   5.045   4.104   1.417 -1.3503 -0.1193 -0.3102
 2624SOL     OW 9484   4.917   0.915   6.656  0.0877  0.3753 -0.2759
 2624SOL    HW1 9485   4.954   0.970   6.725  0.3452  1.0548 -0.9319
 2624SOL    HW2 9486   4.978   0.843   6.646 -0.2880 -0.0850  0.6465
 2625SOL     OW 9487   4.505   3.863   0.250  0.1216 -0.8795  0.4796
 2625SOL    HW1 9488   4.503   3.918   0.171 -0.3706  0.5343  1.4358
 2625SOL    HW2 9489   4.552   3.915   0.314 -1.1061 -1.1928  1.6846
 2626SOL     OW 9490   1.661   1.090   7.776  0.0644  0.1601  0.2512
 2626SOL    HW1 9491   1.638   1.090   7.683  1.2929 -0.4839 -0.0786
 2626SOL    HW2 9492   1.637   1.177   7.807 -2.9819 -0.4974  0.0455
 2627SOL     OW 9493   4.110   7.373   8.985  0.2540  0.3091 -0.4580
 2627SOL    HW1 9494   4.165   7.389   8.908  2.3652 -0.4054  0.8059
 2627SOL    HW2 9495   4.103   7.458   9.029  1.4258  0.1827  0.0061
 2628SOL     OW 9496   1.287   3.965   4.446 -0.6439 -0.0533 -0.4128
 2628SOL    HW1 9497   1.292   3.870   4.438 -2.0842 -0.2037  0.2742
 2628SOL    HW2 9498   1.216   3.990   4.387 -0.9984  0.4695  0.2222
 2629SOL     OW 9499   4.352   4.346   1.578  0.1643  0.5927 -0.5194
 2629SOL    HW1 9500   4.332   4.275   1.518 -0.5692  1.8680 -1.8556
 2629SOL    HW2 9501   4.436   4.381   1.548 -0.5449  1.6929 -1.3112
 2630SOL     OW 9502   5.813   1.164   4.450 -0.1108  0.1295 -0.3873
 2630SOL    HW1 9503   5.888   1.166   4.390  0.3064 -2.0123 -0.0147
 2630SOL    HW2 9504   5.751   1.227   4.413 -0.2786 -1.7230 -3.6743
 2631SOL     OW 9505   9.008   3.926   3.178 -0.3942  0.3673 -0.3631
 2631SOL    HW1 9506   8.954   3.901   3.253  1.6572 -1.9060  0.4837
 2631SOL    HW2 9507   8.953   3.986   3.128 -1.9684  1.7816  2.7781
 2632SOL     OW 9508   1.835   6.451   1.960  0.8206 -0.3545 -0.2054
 2632SOL    HW1 9509   1.901   6.460   2.029 -0.0229  1.4973  0.4144
 2632SOL    HW2 9510   1.866   6.507   1.890 -0.1832  0.7180  0.1854
 2633SOL     OW 9511   6.808   6.085   3.518 -0.2020  0.0408  0.1266
 2633SOL    HW1 9512   6.834   5.992   3.517 -2.1454 -0.5361 -0.1220
 2633SOL    HW2 9513   6.789   6.105   3.426 -1.0793  0.2906  0.3555
 2634SOL     OW 9514   6.674   8.160   2.733  0.0805  0.2156 -0.4776
 2634SOL    HW1 9515   6.613   8.217   2.686  0.0028  0.3030 -0.2720
 2634SOL    HW2 9516   6.743   8.219   2.764  0.1207  0.1621 -0.4658
 2635SOL     OW 9517   4.714   7.448   6.265 -0.0760  0.0406 -0.2887
 2635SOL    HW1 9518   4.642   7.504   6.292 -1.2337 -1.5654  0.0956
 2635SOL    HW2 9519   4.672   7.367   6.236  1.5735 -0.9987  0.0776
 2636SOL     OW 9520   6.455   1.729   2.393  0.0617  0.0073  0.4423
 2636SOL    HW1 9521   6.505   1.668   2.340 -1.8113 -1.3628  0.1742
 2636SOL    HW2 9522   6.457   1.692   2.481  1.8976  1.4950  1.1066
 2637SOL     OW 9523   7.807   2.413   1.371 -0.5002 -0.0717  0.0646
 2637SOL    HW1 9524   7.839   2.446   1.287  0.5346 -1.7099 -0.2417
 2637SOL    HW2 9525   7.741   2.348   1.347 -1.4893  0.7273  0.5910
 2638SOL     OW 9526   7.770   1.210   5.834  0.2250  0.2523 -0.0516
 2638SOL    HW1 9527   7.756   1.116   5.828  2.1575 -0.2023  1.5938
 2638SOL    HW2 9528   7.760   1.230   5.927 -0.9191  1.8505 -0.4656
 2639SOL     OW 9529   2.941   2.190   6.345 -0.0681 -0.3103  0.0053
 2639SOL    HW1 9530   3.031   2.181   6.376  0.4509  0.0610 -1.3207
 2639SOL    HW2 9531   2.887   2.166   6.420  1.1364 -0.7096  0.7685
 2640SOL     OW 9532   2.796   3.480   4.503  0.4736 -0.0036 -0.6477
 2640SOL    HW1 9533   2.854   3.552   4.527  1.8693 -1.3057  0.1109
 2640SOL    HW2 9534   2.716   3.495   4.554  0.4637  1.3382 -1.0266
 2641SOL     OW 9535   4.338   1.253   4.359 -0.0606  0.0844  0.3223
 2641SOL    HW1 9536   4.405   1.282   4.421 -0.1015  1.8708 -0.4372
 2641SOL    HW2 9537   4.265   1.227   4.415  0.9136 -1.0317  1.1183
 2642SOL     OW 9538   9.542   8.094   7.320 -0.4495 -0.1418 -0.0326
 2642SOL    HW1 9539   9.571   8.044   7.244  0.1308  1.1378 -0.6779
 2642SOL    HW2 9540   9.610   8.160   7.333 -1.1117  0.3837  0.8947
 2643SOL     OW 9541   8.126   6.018   4.448 -0.5295 -0.1012 -0.0124
 2643SOL    HW1 9542   8.113   6.008   4.542  2.6667  2.2990  0.8212
 2643SOL    HW2 9543   8.217   5.992   4.432 -2.1267 -5.4014 -3.4932
 2644SOL     OW 9544   0.501   4.002   4.418 -0.3685  0.3238 -0.2695
 2644SOL    HW1 9545   0.579   4.044   4.382 -1.1785  0.3731 -2.0900
 2644SOL    HW2 9546   0.499   3.916   4.377 -1.6298  0.5964 -0.8256
 2645SOL     OW 9547   8.512   3.174   7.635  0.4371  0.0314 -0.0543
 2645SOL    HW1 9548   8.513   3.132   7.548 -0.3533 -0.6850  0.2640
 2645SOL    HW2 9549   8.472   3.259   7.620 -1.3342 -0.7732 -0.1293
 2646SOL     OW 9550   0.309   2.287   3.641  0.2138 -0.2925  0.4714
 2646SOL    HW1 9551   0.344   2.226   3.707  1.9945 -0.5350 -0.6396
 2646SOL    HW2 9552   0.235   2.240   3.602  0.2897 -0.8929  1.0354
 2647SOL     OW 9553   9.287   4.950   8.392 -0.0042  0.2298 -0.0851
 2647SOL    HW1 9554   9.207   5.001   8.381  0.2345  0.3298 -1.4740
 2647SOL    HW2 9555   9.310   4.920   8.304  0.9862 -0.5734  0.4162
 2648SOL     OW 9556   6.287   3.679   0.953 -0.5151 -0.5847  0.2441
 2648SOL    HW1 9557   6.253   3.693   1.041 -0.3100 -0.6922  0.3419
 2648SOL    HW2 9558   6.325   3.764   0.928  2.7605 -1.4627  1.7240
 2649SOL     OW 9559   7.082   6.372   9.115  0.7696  0.2207  0.2234
 2649SOL    HW1 9560   7.035   6.325   9.184  0.3882  0.0603 -0.1416
 2649SOL    HW2 9561   7.028   6.450   9.099  1.1877  0.5793  0.5440
 2650SOL     OW 9562   1.496   3.338   4.475 -0.3125  0.0335 -0.2980
 2650SOL    HW1 9563   1.512   3.397   4.550 -0.1423  2.6038 -2.2170
 2650SOL    HW2 9564   1.501   3.250   4.513  1.1403  1.1568  2.4546
 2651SOL     OW 9565   7.576   4.678   5.757 -0.9034  0.0944 -0.2639
 2651SOL    HW1 9566   7.552   4.747   5.820  0.3968  0.6826 -0.3800
 2651SOL    HW2 9567   7.665   4.653   5.782 -0.5447 -0.0008 -1.5787
 2652SOL     OW 9568   8.023   0.396   4.031 -0.0395 -0.6295  0.0557
 2652SOL    HW1 9569   7.972   0.336   3.976  0.1035 -2.3415  1.6837
 2652SOL    HW2 9570   8.107   0.403   3.986 -0.3650 -0.9769 -0.6210
 2653SOL     OW 9571   4.366   6.236   9.170 -0.3382  0.8716 -0.1605
 2653SOL    HW1 9572   4.395   6.178   9.241 -0.6381 -0.6660 -1.2641
 2653SOL    HW2 9573   4.448   6.274   9.136 -0.0675  0.4544  0.0171
 2654SOL     OW 9574   2.854   3.394   6.061  0.2256  0.2801  0.0172
 2654SOL    HW1 9575   2.767   3.406   6.099 -0.5445 -1.7028 -0.9770
 2654SOL    HW2 9576   2.868   3.473   6.009 -1.9329 -0.2457 -1.5031
 2655SOL     OW 9577   8.270   7.182   8.277  0.8819  0.0043 -0.3438
 2655SOL    HW1 9578   8.284   7.202   8.184  0.3581 -0.5846 -0.5597
 2655SOL    HW2 9579   8.204   7.113   8.277  0.2556  0.5799  0.5049
 2656SOL     OW 9580   9.260   7.797   0.782  0.0856  0.2449 -0.1211
 2656SOL    HW1 9581   9.270   7.757   0.696  0.8386 -1.7925  0.8451
 2656SOL    HW2 9582   9.320   7.871   0.782  1.3214 -0.7290 -0.8038
 2657SOL     OW 9583   1.031   2.029   6.955  0.5755 -0.2835  0.5673
 2657SOL    HW1 9584   0.985   2.061   6.877  1.3081 -1.3259 -0.3217
 2657SOL    HW2 9585   0.964   2.028   7.023 -0.2328  0.1114 -0.1957
 2658SOL     OW 9586   8.509   3.311   2.501 -0.3398 -0.5275 -0.2079
 2658SOL    HW1 9587   8.488   3.403   2.484 -0.1568 -0.8632 -2.5304
 2658SOL    HW2 9588   8.605   3.307   2.492 -0.4343 -1.1017 -0.9777
 2659SOL     OW 9589   0.094   9.814   3.150 -0.1973  0.0457  0.5291
 2659SOL    HW1 9590   0.088   9.871   3.227  1.6995  0.9770  0.0426
 2659SOL    HW2 9591   0.181   9.775   3.155 -0.4965 -0.8167 -0.5307
 2660SOL     OW 9592   4.902   6.962   3.002  0.3804  0.0881 -0.3631
 2660SOL    HW1 9593   4.987   6.945   3.042  0.5195 -1.2547 -1.1611
 2660SOL    HW2 9594   4.840   6.915   3.058  0.3352 -0.0909 -0.5623
 2661SOL     OW 9595   9.793   7.475   1.588 -0.2598  0.3027 -0.1356
 2661SOL    HW1 9596   9.795   7.507   1.497  0.7246  2.3997  0.5622
 2661SOL    HW2 9597   9.732   7.535   1.632  2.1106  1.7682  1.3584
 2662SOL     OW 9598   3.064   4.416   5.296  0.4745  0.2890  0.9088
 2662SOL    HW1 9599   3.020   4.338   5.329  1.8125 -1.9939 -2.2595
 2662SOL    HW2 9600   2.993   4.469   5.259 -0.1735 -0.7033  0.7027
 2663SOL     OW 9601   3.201   0.147   1.891  0.5484 -0.2306 -0.1631
 2663SOL    HW1 9602   3.126   0.087   1.895  0.5945 -0.2303  1.4023
 2663SOL    HW2 9603   3.272   0.094   1.855  0.1264 -0.5923 -0.4784
 2664SOL     OW 9604   4.179   3.993   6.018  0.1479  0.1626  0.3051
 2664SOL    HW1 9605   4.177   4.002   5.923 -0.9256 -1.5649  0.1146
 2664SOL    HW2 9606   4.156   3.901   6.033 -1.9790  0.9583  2.3206
 2665SOL     OW 9607   0.150   8.273   4.697 -0.6672  0.2627  0.1315
 2665SOL    HW1 9608   0.115   8.331   4.764  0.6560  0.2656  0.8659
 2665SOL    HW2 9609   0.245   8.282   4.705 -0.4622  0.1594 -1.6651
 2666SOL     OW 9610   3.129   3.910   7.612 -0.6524  0.2122  0.3614
 2666SOL    HW1 9611   3.141   3.866   7.696 -0.7416 -0.4994  0.0102
 2666SOL    HW2 9612   3.191   3.983   7.614 -2.9762  2.3343  2.4441
 2667SOL     OW 9613   0.949   5.029   1.133 -0.0011  0.4329 -0.3444
 2667SOL    HW1 9614   0.997   4.998   1.057  0.0145  1.6580 -0.8695
 2667SOL    HW2 9615   1.008   5.091   1.176 -0.7399  1.2753 -0.4932
 2668SOL     OW 9616   4.212   6.307   6.503  0.1856 -0.0936  0.0187
 2668SOL    HW1 9617   4.287   6.360   6.475  0.8785 -0.9886  0.0928
 2668SOL    HW2 9618   4.251   6.223   6.529 -0.8132 -0.4587  0.4028
 2669SOL     OW 9619   8.337   5.008   9.431 -0.1792 -0.0334  0.6780
 2669SOL    HW1 9620   8.405   5.042   9.489 -1.2340  1.1104  1.2900
 2669SOL    HW2 9621   8.385   4.967   9.359  1.1695 -0.9152  2.0073
 2670SOL     OW 9622   2.682   2.588   9.632 -0.7181  0.5513 -0.3286
 2670SOL    HW1 9623   2.774   2.575   9.651 -0.6665  1.8327  0.4246
 2670SOL    HW2 9624   2.681   2.656   9.564 -1.1115  0.8600 -0.0216
 2671SOL     OW 9625   3.852   7.384   5.046 -0.1013 -0.5301 -0.1037
 2671SOL    HW1 9626   3.828   7.463   5.093 -1.1752 -0.3287 -0.9310
 2671SOL    HW2 9627   3.884   7.324   5.113  0.0956  0.3689  0.6198
 2672SOL     OW 9628   1.210   6.130   1.708  0.3153  0.2698  0.0583
 2672SOL    HW1 9629   1.206   6.168   1.620  0.6602 -0.3301 -0.2222
 2672SOL    HW2 9630   1.303   6.134   1.732  0.2022  0.5684  0.4597
 2673SOL     OW 9631   0.102   4.422   7.492  0.4680 -0.3458 -0.2594
 2673SOL    HW1 9632   0.105   4.463   7.406 -0.3662  0.0171 -0.1170
 2673SOL    HW2 9633   0.185   4.447   7.533  1.3859 -1.4572 -1.3700
 2674SOL     OW 9634   4.102   0.354   6.295  1.0453  0.1748 -0.1909
 2674SOL    HW1 9635   4.157   0.277   6.308  0.4859 -0.6263 -2.2477
 2674SOL    HW2 9636   4.013   0.324   6.311  0.7036  0.0386 -2.0758
 2675SOL     OW 9637   4.545   2.035   6.252  0.0241 -0.2074  0.0102
 2675SOL    HW1 9638   4.524   2.055   6.343  1.5593  0.5836  0.2236
 2675SOL    HW2 9639   4.625   1.983   6.256  1.5026  1.8546 -0.9305
 2676SOL     OW 9640   6.652   0.584   3.339  0.2233  0.0940 -0.6455
 2676SOL    HW1 9641   6.637   0.532   3.260  1.2794 -2.3370  0.6288
 2676SOL    HW2 9642   6.594   0.546   3.404 -0.0832  1.5607 -0.0417
 2677SOL     OW 9643   1.253   5.777   6.520 -0.2893 -0.6771  0.1355
 2677SOL    HW1 9644   1.199   5.854   6.537  1.7783  0.8732  0.1355
 2677SOL    HW2 9645   1.214   5.737   6.443 -1.2156  0.6049 -0.1005
 2678SOL     OW 9646   6.421   6.037   2.454 -0.0617  0.5361 -0.9992
 2678SOL    HW1 9647   6.364   5.976   2.407  1.1950 -0.6237 -1.0913
 2678SOL    HW2 9648   6.497   5.984   2.478 -1.2028  0.5673  3.7288
 2679SOL     OW 9649   5.809   8.801   6.005 -0.5251 -0.5621  0.0169
 2679SOL    HW1 9650   5.757   8.748   5.944 -1.1359 -0.7096  0.6542
 2679SOL    HW2 9651   5.886   8.747   6.024  0.5949  0.2072 -1.9785
 2680SOL     OW 9652   1.436   5.753   5.767 -0.0261 -0.4662  0.0681
 2680SOL    HW1 9653   1.513   5.712   5.807 -1.7828 -2.6802  1.4766
 2680SOL    HW2 9654   1.421   5.703   5.686 -0.8678 -1.1628  0.6296
 2681SOL     OW 9655   4.557   3.544   7.613  0.3327 -0.0671 -0.2114
 2681SOL    HW1 9656   4.476   3.510   7.574  0.6195 -0.2733 -0.6230
 2681SOL    HW2 9657   4.574   3.485   7.686  0.7304 -0.7058 -0.8157
 2682SOL     OW 9658   8.847   4.546   9.110  0.5215 -0.4234 -0.1622
 2682SOL    HW1 9659   8.841   4.456   9.140  0.0182  0.0714  1.3465
 2682SOL    HW2 9660   8.831   4.542   9.016 -2.7461 -1.5865  0.3266
 2683SOL     OW 9661   6.907   5.580   2.412  0.0539  0.1075 -0.2104
 2683SOL    HW1 9662   6.834   5.555   2.469  0.2328 -0.6621 -0.3087
 2683SOL    HW2 9663   6.907   5.676   2.414 -0.9970  0.1233 -0.2522
 2684SOL     OW 9664   4.773   2.894   5.233 -0.2387  0.2715  0.0259
 2684SOL    HW1 9665   4.852   2.887   5.179  1.1805  2.4700  1.6385
 2684SOL    HW2 9666   4.702   2.909   5.171  0.8914 -0.0080 -1.3733
 2685SOL     OW 9667   9.674   0.523   1.089  0.6454 -0.3651  0.3778
 2685SOL    HW1 9668   9.607   0.506   1.155  2.2304 -2.2329  1.6224
 2685SOL    HW2 9669   9.633   0.499   1.006 -1.2673  1.6798  0.6179
 2686SOL     OW 9670   8.085   1.242   7.188 -0.5696 -0.1848 -0.2870
 2686SOL    HW1 9671   8.159   1.190   7.155  0.4194 -0.6667  2.4320
 2686SOL    HW2 9672   8.087   1.322   7.135 -0.3245 -1.6197 -2.6159
 2687SOL     OW 9673   6.751   9.017   3.880 -0.2272  0.1423  0.9505
 2687SOL    HW1 9674   6.679   8.982   3.932 -1.7346 -3.8500 -3.1329
 2687SOL    HW2 9675   6.821   8.952   3.889  0.1351  0.3020 -0.4249
 2688SOL     OW 9676   6.618   5.977   6.517 -0.0835 -0.4173  0.2229
 2688SOL    HW1 9677   6.587   5.959   6.606  0.9800  0.4380  0.7905
 2688SOL    HW2 9678   6.655   6.065   6.522  0.8590 -0.7259 -0.8408
 2689SOL     OW 9679   8.171   3.315   1.303 -0.0487 -0.3211  0.0340
 2689SOL    HW1 9680   8.083   3.278   1.304 -0.3394  0.3508 -0.5026
 2689SOL    HW2 9681   8.170   3.383   1.370  0.2779 -0.7970  0.5275
 2690SOL     OW 9682   3.129   8.027   6.945 -0.2487  0.0116 -0.3171
 2690SOL    HW1 9683   3.168   8.020   6.858 -0.6933  0.4200 -0.5580
 2690SOL    HW2 9684   3.143   7.941   6.985 -0.0960 -0.1993 -0.8142
 2691SOL     OW 9685   2.432   9.093   5.959 -0.2920  0.0082  0.2023
 2691SOL    HW1 9686   2.521   9.058   5.965 -0.5070 -0.5702  0.0043
 2691SOL    HW2 9687   2.441   9.184   5.988  0.5798  0.3051 -0.9518
 2692SOL     OW 9688   7.067   3.626   9.363  0.5107  0.4524  0.4050
 2692SOL    HW1 9689   7.108   3.637   9.448  0.8071  2.2038  0.0667
 2692SOL    HW2 9690   7.012   3.704   9.352 -1.7724 -1.0757  0.1878
 2693SOL     OW 9691   9.579   1.347   2.037 -0.1532  0.6592  0.3672
 2693SOL    HW1 9692   9.663   1.353   1.992 -0.6620  0.8613 -0.5816
 2693SOL    HW2 9693   9.584   1.265   2.087 -0.1621 -0.4021 -1.3119
 2694SOL     OW 9694   6.198   1.829   1.115 -1.1443  0.1225  0.1424
 2694SOL    HW1 9695   6.196   1.893   1.044  0.9355  1.8620  1.5181
 2694SOL    HW2 9696   6.232   1.749   1.074  0.0565  1.0942 -0.8315
 2695SOL     OW 9697   3.832   2.747   4.743  0.0994  0.6226  0.3068
 2695SOL    HW1 9698   3.751   2.697   4.748  0.5860 -0.0797  2.1335
 2695SOL    HW2 9699   3.893   2.690   4.695 -0.0931  0.5477  0.1537
 2696SOL     OW 9700   4.888   8.919   0.170 -0.7122  0.3811  0.0093
 2696SOL    HW1 9701   4.826   8.871   0.224  0.7594 -1.3023  0.3293
 2696SOL    HW2 9702   4.915   8.856   0.103  1.2388  0.7075  0.3997
 2697SOL     OW 9703   4.482   4.154   7.219 -0.1095  0.0695  0.4334
 2697SOL    HW1 9704   4.550   4.100   7.179  0.0358  0.7710 -0.2982
 2697SOL    HW2 9705   4.466   4.114   7.304 -0.6376 -1.6428 -0.4384
 2698SOL     OW 9706   7.241   7.819   0.291 -0.3233 -0.1322 -0.0331
 2698SOL    HW1 9707   7.196   7.762   0.229  1.1309 -0.7229 -0.5766
 2698SOL    HW2 9708   7.188   7.813   0.371 -0.2172 -2.2686 -0.0717
 2699SOL     OW 9709   6.851   0.673   8.048 -0.2455 -0.3458 -0.1181
 2699SOL    HW1 9710   6.772   0.665   7.995  0.7415 -0.0473 -1.7232
 2699SOL    HW2 9711   6.832   0.743   8.110 -1.2883 -0.3818 -0.3788
 2700SOL     OW 9712   7.670   4.888   5.433  0.6665  0.7778 -0.2830
 2700SOL    HW1 9713   7.682   4.905   5.527  1.8588  0.3672 -0.3462
 2700SOL    HW2 9714   7.757   4.861   5.403  0.1176  0.1892 -1.3593
 2701SOL     OW 9715   3.612   7.127   4.886 -0.1948 -0.4630  0.5672
 2701SOL    HW1 9716   3.604   7.215   4.850  1.3172 -0.3836  0.3529
 2701SOL    HW2 9717   3.555   7.127   4.963 -0.6221  0.5255  0.2645
 2702SOL     OW 9718   9.399   0.699   7.943  0.4218  0.2400 -0.1650
 2702SOL    HW1 9719   9.488   0.671   7.924  0.9685  0.9012  1.3002
 2702SOL    HW2 9720   9.367   0.636   8.008  0.9796  1.8046  1.7027
 2703SOL     OW 9721   7.762   2.379   0.415 -0.1312 -0.5661  0.3226
 2703SOL    HW1 9722   7.847   2.358   0.376 -0.8972 -0.0499 -1.7446
 2703SOL    HW2 9723   7.701   2.315   0.378 -0.8492 -0.2485  0.9260
 2704SOL     OW 9724   3.531   0.671   9.185  0.5295  0.3665  0.0931
 2704SOL    HW1 9725   3.500   0.753   9.224 -0.8122 -0.1048  0.0510
 2704SOL    HW2 9726   3.461   0.608   9.201  1.3081 -0.6485 -0.3525
 2705SOL     OW 9727   4.086   5.401   9.017  0.1977 -0.1193 -0.7827
 2705SOL    HW1 9728   4.138   5.339   9.069  0.7226  1.0290  0.1281
 2705SOL    HW2 9729   4.151   5.448   8.964 -0.0933  0.2144 -0.8460
 2706SOL     OW 9730   4.305   6.303   0.655  0.1120 -0.6344  0.8081
 2706SOL    HW1 9731   4.281   6.390   0.625  0.7341 -0.4225  0.9017
 2706SOL    HW2 9732   4.257   6.243   0.598 -0.5082 -0.2357  0.9005
 2707SOL     OW 9733   4.588   2.429   9.309  0.1806 -0.3883 -0.3776
 2707SOL    HW1 9734   4.582   2.451   9.216 -2.1334  2.4262  0.3041
 2707SOL    HW2 9735   4.506   2.384   9.328 -1.6961  3.2440  1.1051
 2708SOL     OW 9736   0.189   3.207   1.650 -0.0294  0.0967  0.0522
 2708SOL    HW1 9737   0.225   3.296   1.652 -0.6274  0.3618 -0.4053
 2708SOL    HW2 9738   0.107   3.216   1.601  0.6019 -0.9603 -1.2577
 2709SOL     OW 9739   6.742   2.520   6.502 -0.1851  0.1161 -0.2984
 2709SOL    HW1 9740   6.748   2.580   6.427 -0.4969  1.0960  0.4349
 2709SOL    HW2 9741   6.829   2.524   6.542 -0.0795 -0.2532 -0.4877
 2710SOL     OW 9742   4.048   2.624   7.131  0.0531  0.3184 -0.0878
 2710SOL    HW1 9743   3.980   2.592   7.188 -0.1460  3.2941  1.5653
 2710SOL    HW2 9744   4.011   2.703   7.091  2.1170  1.4736  0.1086
 2711SOL     OW 9745   9.607   8.625   8.534 -0.0890  0.2168  0.2062
 2711SOL    HW1 9746   9.688   8.576   8.521  0.3326  1.1171 -0.7372
 2711SOL    HW2 9747   9.554   8.604   8.456 -0.5318  0.0904  0.5344
 2712SOL     OW 9748   0.134   6.389   2.083 -0.0523 -0.1549 -0.2323
 2712SOL    HW1 9749   0.163   6.306   2.119  0.8785 -0.9457 -2.6138
 2712SOL    HW2 9750   0.038   6.385   2.087 -0.0171 -1.3052 -0.1990
 2713SOL     OW 9751   5.929   6.639   2.633  0.0176  0.2746 -0.4887
 2713SOL    HW1 9752   6.001   6.595   2.586  0.1570  1.5080 -1.5054
 2713SOL    HW2 9753   5.857   6.640   2.570 -0.4330  0.2604  0.0266
 2714SOL     OW 9754   1.275   5.975   7.428 -0.5218  0.7442 -0.4513
 2714SOL    HW1 9755   1.255   6.001   7.338 -1.1342  1.7920 -0.0255
 2714SOL    HW2 9756   1.371   5.976   7.432 -0.4295 -0.7150 -1.4772
 2715SOL     OW 9757   3.694   7.619   9.672  0.2438 -0.1094 -0.2263
 2715SOL    HW1 9758   3.656   7.554   9.612 -0.8207  0.4992 -0.2496
 2715SOL    HW2 9759   3.773   7.649   9.628 -1.7420  2.1246 -2.6320
 2716SOL     OW 9760   1.504   3.849   9.734 -0.0899 -0.4657  0.1398
 2716SOL    HW1 9761   1.564   3.878   9.803 -0.9391  0.7498  0.3839
 2716SOL    HW2 9762   1.551   3.778   9.690  0.6845 -0.8899  1.6153
 2717SOL     OW 9763   6.456   5.297   2.984  0.1721  0.2645  0.7758
 2717SOL    HW1 9764   6.375   5.257   2.951 -0.4494  0.8490  1.5360
 2717SOL    HW2 9765   6.497   5.336   2.907 -0.0921 -0.3439  0.3224
 2718SOL     OW 9766   1.564   2.426   6.682 -0.0877  0.1748  0.6220
 2718SOL    HW1 9767   1.514   2.346   6.664  0.6954 -0.1913 -0.0081
 2718SOL    HW2 9768   1.651   2.394   6.706  0.2031  0.8448  0.4664
 2719SOL     OW 9769   0.714   8.897   2.328  0.3702  0.3902 -0.1336
 2719SOL    HW1 9770   0.670   8.961   2.384  1.8867  0.0672  1.5267
 2719SOL    HW2 9771   0.804   8.929   2.322  0.5848 -0.3674 -1.2279
 2720SOL     OW 9772   3.288   0.038   7.354 -0.6035 -0.7302  0.2870
 2720SOL    HW1 9773   3.268   0.129   7.376 -1.4055  0.1313 -3.3267
 2720SOL    HW2 9774   3.382   0.030   7.370 -0.4904  0.7762  0.5261
 2721SOL     OW 9775   2.971   8.634   0.340  0.0401 -0.4411  0.6662
 2721SOL    HW1 9776   2.942   8.543   0.332  1.5801 -1.0394  1.4235
 2721SOL    HW2 9777   3.028   8.634   0.417 -0.0355  1.2003  0.7484
 2722SOL     OW 9778   5.163   1.916   0.554 -0.0765  0.2976  0.4723
 2722SOL    HW1 9779   5.125   1.840   0.598 -0.0730  0.1441  0.2134
 2722SOL    HW2 9780   5.254   1.918   0.585 -0.3331  0.7667  1.2237
 2723SOL     OW 9781   7.556   6.899   0.050 -0.6756 -0.2787 -0.4365
 2723SOL    HW1 9782   7.552   6.957  -0.026 -1.3536  0.2815  0.0203
 2723SOL    HW2 9783   7.647   6.869   0.052 -1.2407 -2.6686 -3.2041
 2724SOL     OW 9784   9.489   5.789   8.651  0.0083  0.1311  0.0052
 2724SOL    HW1 9785   9.558   5.751   8.595 -0.6774 -0.9570 -0.1396
 2724SOL    HW2 9786   9.463   5.869   8.606 -2.0079 -1.7300 -2.4985
 2725SOL     OW 9787   1.851   4.774   0.754  0.1834  0.1088 -0.3079
 2725SOL    HW1 9788   1.799   4.700   0.786  1.2616 -0.4651  0.1803
 2725SOL    HW2 9789   1.896   4.739   0.677 -0.1809  0.6136 -0.7560
 2726SOL     OW 9790   2.836   9.301   3.822  0.2159 -0.0757 -0.3550
 2726SOL    HW1 9791   2.924   9.280   3.853 -0.4393 -1.1496  0.8778
 2726SOL    HW2 9792   2.779   9.241   3.870 -1.2880  1.2223 -0.4549
 2727SOL     OW 9793   8.395   5.383   8.506 -0.5865 -0.1380 -0.3202
 2727SOL    HW1 9794   8.383   5.478   8.514  0.5350 -0.1199  3.3374
 2727SOL    HW2 9795   8.482   5.372   8.470  0.0417  0.3247  0.9952
 2728SOL     OW 9796   9.526   8.453   8.311 -0.0665 -0.3397  0.1107
 2728SOL    HW1 9797   9.437   8.487   8.305  0.1413  0.2010  0.0836
 2728SOL    HW2 9798   9.515   8.358   8.309 -0.6028 -0.2710 -0.4697
 2729SOL     OW 9799   3.002   8.452   7.584  0.0466  0.2774  0.6436
 2729SOL    HW1 9800   3.091   8.415   7.584 -0.0430  0.0530  1.1419
 2729SOL    HW2 9801   2.945   8.376   7.573 -0.0329  0.6164 -1.9085
 2730SOL     OW 9802   1.415   1.856   1.683 -0.1611  0.5138 -0.1931
 2730SOL    HW1 9803   1.429   1.926   1.746 -0.7966  1.0892 -0.6823
 2730SOL    HW2 9804   1.445   1.892   1.599  0.0278  0.0037 -0.3509
 2731SOL     OW 9805   2.711   5.882   8.404 -0.4099  0.0725  0.3500
 2731SOL    HW1 9806   2.779   5.860   8.467 -0.5139  0.9096  0.7647
 2731SOL    HW2 9807   2.696   5.976   8.416 -2.8062 -0.3687  1.4742
 2732SOL     OW 9808   5.812   8.418   3.376  0.6151  0.2239 -0.4374
 2732SOL    HW1 9809   5.891   8.457   3.340  1.0902 -0.7360 -0.4611
 2732SOL    HW2 9810   5.784   8.480   3.444  1.8434  0.2033  0.1258
 2733SOL     OW 9811   3.481   5.636   3.831  0.4478 -0.5501 -0.3462
 2733SOL    HW1 9812   3.565   5.648   3.786  0.1866 -1.3290 -1.0535
 2733SOL    HW2 9813   3.468   5.718   3.878  0.8641  0.1837 -1.4647
 2734SOL     OW 9814   2.317   3.418   6.579  0.0883  0.0735 -0.4254
 2734SOL    HW1 9815   2.278   3.342   6.621 -0.6376 -0.3485 -1.8110
 2734SOL    HW2 9816   2.311   3.488   6.644 -1.2238 -0.4867  0.0821
 2735SOL     OW 9817   4.415   1.279   5.160  0.1511  0.3196  0.3497
 2735SOL    HW1 9818   4.333   1.314   5.124  0.4764  1.1009  0.3672
 2735SOL    HW2 9819   4.421   1.190   5.123  0.2101  0.9005 -1.1069
 2736SOL     OW 9820   3.498   9.256   7.306 -0.6699 -0.7203 -0.0232
 2736SOL    HW1 9821   3.559   9.192   7.269 -0.3892 -0.0573 -0.7373
 2736SOL    HW2 9822   3.413   9.232   7.269 -0.3385  0.1394 -1.4203
 2737SOL     OW 9823   0.687   5.526   6.761 -0.3213 -0.3033  0.1225
 2737SOL    HW1 9824   0.633   5.602   6.785 -0.9050 -0.7493  0.2520
 2737SOL    HW2 9825   0.669   5.513   6.668  0.5514  0.3205 -0.1464
 2738SOL     OW 9826   0.566   6.491   7.640  0.1485  0.0934  0.6028
 2738SOL    HW1 9827   0.501   6.556   7.670 -1.1600 -1.2145  0.7183
 2738SOL    HW2 9828   0.592   6.445   7.720 -0.4953 -0.8709  0.2823
 2739SOL     OW 9829   5.608   5.443   2.516 -0.0878  0.3213  0.1758
 2739SOL    HW1 9830   5.586   5.431   2.423  1.7708  0.5962 -0.3404
 2739SOL    HW2 9831   5.576   5.364   2.559  0.9841 -0.8475 -1.0965
 2740SOL     OW 9832   1.061   8.305   1.264  0.2594  0.5415 -0.1553
 2740SOL    HW1 9833   1.087   8.292   1.356 -0.0436  0.0904 -0.1295
 2740SOL    HW2 9834   1.089   8.394   1.244  3.8069 -0.5239 -0.7635
 2741SOL     OW 9835   0.884   1.217   6.741  0.8097 -0.3270 -0.1852
 2741SOL    HW1 9836   0.877   1.135   6.791 -0.9515 -0.4549 -0.5850
 2741SOL    HW2 9837   0.805   1.219   6.687  1.9943  0.4881 -1.9618
 2742SOL     OW 9838   1.463   5.588   9.481  0.2205 -0.2017  0.1371
 2742SOL    HW1 9839   1.398   5.631   9.537 -1.3112  1.5755 -2.7175
 2742SOL    HW2 9840   1.440   5.495   9.485 -1.2946  0.1587  0.6839
 2743SOL     OW 9841   2.793   5.694   4.647  0.4852 -0.2401  0.2044
 2743SOL    HW1 9842   2.882   5.722   4.666 -0.3653  1.9493  1.2193
 2743SOL    HW2 9843   2.804   5.623   4.583  2.9798 -0.9076  1.2526
 2744SOL     OW 9844   5.130   3.668   5.900 -0.0809  0.1795 -0.5224
 2744SOL    HW1 9845   5.062   3.707   5.846 -0.7218  0.6546  0.5973
 2744SOL    HW2 9846   5.082   3.614   5.963  0.6330 -0.1462 -0.2492
 2745SOL     OW 9847   4.949   5.593   4.080 -0.2340 -0.4537 -0.4363
 2745SOL    HW1 9848   4.918   5.511   4.041  0.5998 -1.5495  1.1030
 2745SOL    HW2 9849   4.884   5.659   4.052 -2.2337 -2.0626  0.1714
 2746SOL     OW 9850   7.794   4.806   8.686  0.0707 -0.0055  0.1167
 2746SOL    HW1 9851   7.877   4.764   8.662  1.7353  2.8541  0.4552
 2746SOL    HW2 9852   7.761   4.841   8.603  0.6717  1.2384  0.3806
 2747SOL     OW 9853   8.280   6.435   5.275 -0.1318  0.3403 -0.1834
 2747SOL    HW1 9854   8.348   6.471   5.217 -0.6739 -1.1283 -1.7850
 2747SOL    HW2 9855   8.201   6.432   5.222 -0.5189 -1.6013  0.4145
 2748SOL     OW 9856   3.290   1.216   0.777  0.4197  0.3385 -0.3782
 2748SOL    HW1 9857   3.243   1.215   0.860 -1.0270  1.0991 -1.1533
 2748SOL    HW2 9858   3.231   1.260   0.716  1.6251  0.1888 -1.7150
 2749SOL     OW 9859   3.301   7.677   2.357 -0.3569 -0.0317 -0.0087
 2749SOL    HW1 9860   3.251   7.743   2.310 -1.9644 -1.3569 -0.2525
 2749SOL    HW2 9861   3.390   7.686   2.323 -0.8968  0.8460 -1.2924
 2750SOL     OW 9862   8.262   2.299   8.594  0.0344  0.9508 -0.0314
 2750SOL    HW1 9863   8.325   2.282   8.664 -0.1727 -0.0145 -0.0658
 2750SOL    HW2 9864   8.185   2.335   8.639 -0.9048 -1.5975  0.5594
 2751SOL     OW 9865   6.449   8.435   8.522 -0.1402 -0.4683  0.4616
 2751SOL    HW1 9866   6.504   8.420   8.445  1.4236 -0.9822  1.6377
 2751SOL    HW2 9867   6.371   8.477   8.487  0.2931 -1.1552 -1.4780
 2752SOL     OW 9868   4.334   3.440   2.468 -0.0861  0.2281 -0.0547
 2752SOL    HW1 9869   4.364   3.530   2.458  0.3019  0.1667  0.5215
 2752SOL    HW2 9870   4.414   3.389   2.480 -0.3338 -0.1234  0.1346
 2753SOL     OW 9871   8.987   1.578   7.600 -0.1319 -0.0243 -0.5383
 2753SOL    HW1 9872   9.033   1.662   7.604 -0.3522  0.0794 -0.1925
 2753SOL    HW2 9873   8.897   1.601   7.579 -0.1299 -0.1955 -0.7342
 2754SOL     OW 9874   8.926   7.050   8.727 -0.1302  0.4280  0.0599
 2754SOL    HW1 9875   8.945   7.144   8.730 -0.2661  0.5291 -1.5690
 2754SOL    HW2 9876   9.001   7.011   8.683 -0.4473 -0.1215 -0.0051
 2755SOL     OW 9877   2.635   9.052   3.401 -0.0788  0.3642  0.0295
 2755SOL    HW1 9878   2.635   9.070   3.495  0.6313 -1.1165  0.3470
 2755SOL    HW2 9879   2.606   9.134   3.361 -0.9372  0.8554  1.5598
 2756SOL     OW 9880   6.253   2.293   5.845 -0.1175 -0.0792  0.0007
 2756SOL    HW1 9881   6.322   2.228   5.832 -0.1368 -0.2615  0.7448
 2756SOL    HW2 9882   6.272   2.362   5.782 -0.7377 -1.3121 -1.6041
 2757SOL     OW 9883   9.129   6.400   3.646  0.2424 -0.4531 -0.2025
 2757SOL    HW1 9884   9.204   6.350   3.679  0.8137  0.4677 -0.0517
 2757SOL    HW2 9885   9.149   6.491   3.669  1.0655  0.4119 -3.7239
 2758SOL     OW 9886   2.219   3.180   0.894 -0.2055  0.5813  0.0643
 2758SOL    HW1 9887   2.236   3.164   0.987  0.6549 -1.4658 -0.3949
 2758SOL    HW2 9888   2.221   3.276   0.886 -1.8261  0.8963  2.3906
 2759SOL     OW 9889   9.582   8.656   2.458  0.7625 -0.0244 -0.0982
 2759SOL    HW1 9890   9.640   8.725   2.427  0.0017  0.5697 -0.2263
 2759SOL    HW2 9891   9.508   8.657   2.396 -0.6793  1.0327  1.5571
 2760SOL     OW 9892   0.960   8.775   9.130  0.1585  0.4662 -0.0378
 2760SOL    HW1 9893   1.011   8.715   9.185  0.7109  2.0367  1.2362
 2760SOL    HW2 9894   0.980   8.862   9.164 -2.8036  1.2147  0.0687
 2761SOL     OW 9895   5.506   8.438   7.503 -0.0304  0.4773 -0.2844
 2761SOL    HW1 9896   5.582   8.453   7.560 -1.0916  0.1826  1.2725
 2761SOL    HW2 9897   5.451   8.378   7.553 -0.4328 -0.8337 -2.2036
 2762SOL     OW 9898   8.194   6.053   1.788  0.5431  0.2746  0.2811
 2762SOL    HW1 9899   8.134   6.083   1.856 -0.5819  1.1514 -1.0339
 2762SOL    HW2 9900   8.151   5.977   1.749  0.3320  0.8138 -0.5681
 2763SOL     OW 9901   6.122   9.268   5.582 -0.2688  0.7945  0.4350
 2763SOL    HW1 9902   6.062   9.203   5.546 -1.7913  2.1399  0.4393
 2763SOL    HW2 9903   6.121   9.252   5.677 -1.0307  1.1247  0.4882
 2764SOL     OW 9904   5.281   2.227   7.812 -1.0078  0.0325 -0.4577
 2764SOL    HW1 9905   5.203   2.270   7.848 -0.6730  0.6958 -0.5130
 2764SOL    HW2 9906   5.262   2.218   7.718 -1.4107 -0.6762 -0.3161
 2765SOL     OW 9907   3.894   4.756   8.793 -0.4403 -0.2885 -0.2176
 2765SOL    HW1 9908   3.825   4.762   8.860 -0.1541  0.9848 -0.0074
 2765SOL    HW2 9909   3.880   4.832   8.738  1.7541  0.9434  0.7888
 2766SOL     OW 9910   8.569   6.711   7.051 -0.0986  0.2837 -0.6686
 2766SOL    HW1 9911   8.580   6.684   7.142  0.0989 -0.3623 -0.8841
 2766SOL    HW2 9912   8.643   6.672   7.004  1.5712  3.0716 -0.6157
 2767SOL     OW 9913   7.688   4.273   2.590 -0.6195  0.0215 -0.1879
 2767SOL    HW1 9914   7.673   4.270   2.685 -0.9953  0.7272 -0.2155
 2767SOL    HW2 9915   7.761   4.214   2.575 -0.0829  0.4566  0.6404
 2768SOL     OW 9916   7.122   5.497   6.980 -0.2593  0.3248  0.0765
 2768SOL    HW1 9917   7.039   5.542   6.997 -1.8692 -3.0937  2.6364
 2768SOL    HW2 9918   7.165   5.494   7.066  1.5687  0.2443 -0.7982
 2769SOL     OW 9919   3.662   5.162   5.865  0.0202 -0.2733 -0.0156
 2769SOL    HW1 9920   3.636   5.237   5.812 -0.3544  1.4145  2.3907
 2769SOL    HW2 9921   3.705   5.200   5.942  0.0345 -2.5362  1.2019
 2770SOL     OW 9922   1.782   2.863   8.789 -0.5651  0.4375  0.1407
 2770SOL    HW1 9923   1.800   2.771   8.808 -1.1992  0.7006  2.2001
 2770SOL    HW2 9924   1.737   2.862   8.704  1.2773 -0.9366 -0.8679
 2771SOL     OW 9925   1.470   8.469   8.801  0.6066  0.3304 -0.0902
 2771SOL    HW1 9926   1.453   8.563   8.802 -1.0036  0.0608  0.3385
 2771SOL    HW2 9927   1.471   8.444   8.893 -0.1468 -0.2485 -0.2312
 2772SOL     OW 9928   9.132   0.178   0.927 -0.3415  0.2296 -0.1770
 2772SOL    HW1 9929   9.146   0.109   0.863 -0.5633  0.6692 -0.7092
 2772SOL    HW2 9930   9.193   0.248   0.901  0.4240 -0.0538  0.8030
 2773SOL     OW 9931   5.783   1.342   2.782  0.2915  0.2945  0.0681
 2773SOL    HW1 9932   5.816   1.432   2.774 -1.0314  0.7269 -0.7071
 2773SOL    HW2 9933   5.748   1.322   2.696  0.0913 -0.7875  0.3961
 2774SOL     OW 9934   5.774   5.823   0.748  0.1015  0.4171  0.3353
 2774SOL    HW1 9935   5.826   5.790   0.674 -0.7350 -0.8418  0.2644
 2774SOL    HW2 9936   5.822   5.794   0.826  0.1148  0.2648  0.2714
 2775SOL     OW 9937   9.605   1.595   6.950  0.4441 -0.8334 -0.6745
 2775SOL    HW1 9938   9.658   1.603   6.870  0.9289  1.2151 -0.1921
 2775SOL    HW2 9939   9.663   1.623   7.020 -0.7721 -0.1447  0.0762
 2776SOL     OW 9940   4.498   7.244   3.867 -0.0509  0.3704 -0.2017
 2776SOL    HW1 9941   4.532   7.155   3.864  1.6105  1.0015 -2.1720
 2776SOL    HW2 9942   4.561   7.296   3.817 -0.9893  2.6593  0.8613
 2777SOL     OW 9943   9.018   6.899   9.642  0.6757 -0.2428  0.2130
 2777SOL    HW1 9944   9.060   6.972   9.597  1.2990 -0.3984  0.5247
 2777SOL    HW2 9945   9.084   6.868   9.704 -0.1989  0.0556  1.3342
 2778SOL     OW 9946   8.070   3.567   1.020  0.5690 -0.1134 -0.3800
 2778SOL    HW1 9947   8.042   3.570   1.112  2.5391 -0.0982  0.2613
 2778SOL    HW2 9948   8.160   3.598   1.022 -0.2623  2.9258 -2.7477
 2779SOL     OW 9949   8.542   6.277   2.358 -0.2683  0.1106 -0.5027
 2779SOL    HW1 9950   8.633   6.289   2.333  0.7692 -3.3807  1.0342
 2779SOL    HW2 9951   8.500   6.237   2.281 -0.0995  0.2030 -0.6426
 2780SOL     OW 9952   0.486   7.544   2.044 -1.0298 -0.1284  0.3958
 2780SOL    HW1 9953   0.413   7.525   2.103 -0.9086  0.8135  0.8823
 2780SOL    HW2 9954   0.467   7.496   1.964 -0.2993 -2.9550  1.7981
 2781SOL     OW 9955   5.898   1.724   0.028 -0.3294  0.4714  0.0373
 2781SOL    HW1 9956   5.830   1.722   0.095 -0.6510 -1.6445 -0.2548
 2781SOL    HW2 9957   5.880   1.647  -0.027  1.7252  0.3753 -0.6207
 2782SOL     OW 9958   1.207   0.601   5.210 -0.0821 -0.2248  0.0948
 2782SOL    HW1 9959   1.267   0.530   5.232 -0.8120 -0.6519  0.7717
 2782SOL    HW2 9960   1.236   0.633   5.125  2.4027  0.9761  1.2894
 2783SOL     OW 9961   0.687   6.174   0.594 -0.2416  0.1292  0.2009
 2783SOL    HW1 9962   0.648   6.200   0.510  1.6782 -1.2806 -1.2052
 2783SOL    HW2 9963   0.612   6.167   0.653 -1.4499  3.1078 -0.7806
 2784SOL     OW 9964   2.038   8.347   4.036  0.2942  0.2572 -0.3029
 2784SOL    HW1 9965   2.037   8.277   4.101 -2.2761 -0.6217 -1.1860
 2784SOL    HW2 9966   1.949   8.380   4.033  0.1983  0.0719 -3.5362
 2785SOL     OW 9967   8.633   5.163   7.296  0.4514 -0.4137 -0.0286
 2785SOL    HW1 9968   8.706   5.169   7.234 -1.1979  0.1798 -2.0238
 2785SOL    HW2 9969   8.560   5.132   7.243 -0.5095 -2.1185  2.1715
 2786SOL     OW 9970   7.572   4.009   3.311  0.0098 -0.2762 -0.2236
 2786SOL    HW1 9971   7.537   3.950   3.244  0.0954 -1.1730  0.5045
 2786SOL    HW2 9972   7.632   3.955   3.361  0.4724  0.5750  0.1506
 2787SOL     OW 9973   2.058   8.588   3.330  0.3748  0.2628  0.6567
 2787SOL    HW1 9974   1.986   8.527   3.350 -0.7231  0.9804 -0.8586
 2787SOL    HW2 9975   2.118   8.537   3.276 -1.1946  0.7639 -1.7414
 2788SOL     OW 9976   7.699   7.876   4.559  0.6084  0.1040 -0.2117
 2788SOL    HW1 9977   7.735   7.848   4.643  0.9369 -0.3630 -0.5000
 2788SOL    HW2 9978   7.646   7.801   4.530  1.1816 -0.0775 -0.8122
 2789SOL     OW 9979   9.181   4.036   8.628  0.2874  0.4541  0.0483
 2789SOL    HW1 9980   9.097   4.072   8.656  0.4648  1.2798 -0.4384
 2789SOL    HW2 9981   9.228   4.018   8.709 -0.3934 -0.1152  0.3264
 2790SOL     OW 9982   0.311   8.562   1.653 -0.1366  0.3291  0.1065
 2790SOL    HW1 9983   0.317   8.657   1.656  0.8361  0.2678  1.5870
 2790SOL    HW2 9984   0.351   8.537   1.570 -1.3469  1.2351 -0.7828
 2791SOL     OW 9985   4.957   3.707   8.106  0.2782  0.2826  0.5261
 2791SOL    HW1 9986   4.883   3.649   8.124 -0.4809  0.6878 -1.0714
 2791SOL    HW2 9987   4.922   3.795   8.116  0.6891  0.4759  0.3029
 2792SOL     OW 9988   4.005   4.547   3.577 -0.1214 -0.4797  0.6749
 2792SOL    HW1 9989   4.101   4.547   3.572 -0.1493  1.1854 -1.5495
 2792SOL    HW2 9990   3.978   4.474   3.521 -0.1566 -0.8224  1.1385
 2793SOL     OW 9991   3.127   4.376   3.816 -0.1577 -0.8033  0.2207
 2793SOL    HW1 9992   3.035   4.386   3.840 -0.0122 -0.4032  0.6280
 2793SOL    HW2 9993   3.129   4.299   3.758 -1.2316  0.9991 -2.4246
 2794SOL     OW 9994   6.885   6.029   7.313 -0.2388  0.9715 -0.3427
 2794SOL    HW1 9995   6.963   5.976   7.296 -0.5512 -0.1068  1.2921
 2794SOL    HW2 9996   6.897   6.108   7.260  1.1646  0.1108 -1.3877
 2795SOL     OW 9997   8.987   7.588   5.739 -0.0991  0.0235 -0.0579
 2795SOL    HW1 9998   9.063   7.642   5.760  1.1919 -1.9574  0.6417
 2795SOL    HW2 9999   9.010   7.546   5.656 -1.6847  1.5423 -1.3270
 2796SOL     OW10000   6.485   5.585   5.674 -0.1835  0.2156 -0.6025
 2796SOL    HW110001   6.574   5.613   5.694 -0.8921  1.0267  1.6509
 2796SOL    HW210002   6.429   5.649   5.715 -1.8481 -0.7864 -1.1966
 2797SOL     OW10003   3.500   0.390   6.979 -0.3129  0.3042  1.1242
 2797SOL    HW110004   3.533   0.479   6.963 -0.6040 -0.0481 -2.0801
 2797SOL    HW210005   3.577   0.335   6.969 -0.5739  0.0275  0.6065
 2798SOL     OW10006   6.548   2.261   8.647 -0.1412 -0.2415  0.5476
 2798SOL    HW110007   6.554   2.223   8.559  1.2512  0.1706  0.4449
 2798SOL    HW210008   6.632   2.241   8.688 -1.1586 -1.4105  2.2222
 2799SOL     OW10009   0.731   4.702   5.116 -0.5025  0.0575  0.0046
 2799SOL    HW110010   0.638   4.718   5.100 -0.5702  0.9059  1.0855
 2799SOL    HW210011   0.768   4.684   5.030 -1.6191 -0.0188 -0.4719
 2800SOL     OW10012   2.942   1.859   8.475 -0.1082 -0.1944 -0.6436
 2800SOL    HW110013   2.915   1.944   8.509  2.9242  0.4787  0.4210
 2800SOL    HW210014   2.887   1.845   8.398 -1.6414  2.0465 -0.0647
 2801SOL     OW10015   6.440   3.457   9.786 -0.1053  0.2140  0.2913
 2801SOL    HW110016   6.387   3.428   9.861 -1.0996  1.5388  0.1378
 2801SOL    HW210017   6.407   3.545   9.766  0.0491 -0.1418 -1.7708
 2802SOL     OW10018   1.955   2.068   1.067 -0.5402  0.1003  0.0687
 2802SOL    HW110019   1.922   1.978   1.067 -0.1240 -0.0549 -0.2180
 2802SOL    HW210020   1.963   2.091   0.975  3.3162 -1.0719 -0.0548
 2803SOL     OW10021   1.686   0.312   1.319  0.3597 -0.7420  0.4406
 2803SOL    HW110022   1.742   0.390   1.324  0.4513 -0.6645 -1.1190
 2803SOL    HW210023   1.629   0.328   1.244 -0.5447 -1.6027  0.9221
 2804SOL     OW10024   8.668   2.793   0.414  0.1447  0.3712 -0.6497
 2804SOL    HW110025   8.637   2.849   0.343 -0.5637 -0.7458 -1.2672
 2804SOL    HW210026   8.686   2.709   0.371 -0.8652 -0.5158  0.5668
 2805SOL     OW10027   9.018   5.430   8.597 -0.3041  0.0804  0.1984
 2805SOL    HW110028   9.088   5.408   8.536  1.0668 -0.3519  1.8526
 2805SOL    HW210029   9.036   5.377   8.674 -0.6876  2.2011  1.8363
 2806SOL     OW10030   5.237   8.584   6.557 -0.0564  0.1995  0.2386
 2806SOL    HW110031   5.240   8.517   6.625  0.5561  0.9835  0.9972
 2806SOL    HW210032   5.193   8.541   6.483  1.0643 -1.3232  0.4030
 2807SOL     OW10033   0.623   6.028   4.786 -0.6015 -0.0995  0.2331
 2807SOL    HW110034   0.655   5.958   4.843 -0.0782 -0.5000 -0.5227
 2807SOL    HW210035   0.627   5.990   4.698 -0.7698  0.7232 -0.1365
 2808SOL     OW10036   4.189   7.646   3.092  0.2128 -0.5492 -0.2277
 2808SOL    HW110037   4.098   7.635   3.065 -1.7771  0.7110  4.8726
 2808SOL    HW210038   4.216   7.729   3.053  0.3763 -2.2006 -4.0564
 2809SOL     OW10039   0.587   5.374   8.920 -0.0834  0.0046 -0.3449
 2809SOL    HW110040   0.576   5.439   8.989  1.1736 -2.0845  1.9797
 2809SOL    HW210041   0.661   5.406   8.869 -0.7877  1.3909 -0.5427
 2810SOL     OW10042   7.380   8.315   2.420 -0.2788  0.1630  0.4651
 2810SOL    HW110043   7.290   8.335   2.395 -0.2017 -0.7434 -0.6110
 2810SOL    HW210044   7.393   8.224   2.393  1.5043  0.7865 -0.9570
 2811SOL     OW10045   8.681   9.840   7.978 -0.4595 -0.0716 -0.1605
 2811SOL    HW110046   8.594   9.821   7.943 -0.3386 -0.0097 -0.5020
 2811SOL    HW210047   8.670   9.838   8.073 -0.7327 -0.5403 -0.1970
 2812SOL     OW10048   7.617   7.453   1.931 -0.7099 -0.1242 -0.1058
 2812SOL    HW110049   7.688   7.461   1.995 -0.4361 -0.6072 -0.3396
 2812SOL    HW210050   7.619   7.534   1.881  0.8078 -0.8274 -1.2490
 2813SOL     OW10051   6.669   1.311   1.923  0.1400  0.4406 -0.2419
 2813SOL    HW110052   6.618   1.382   1.962 -0.1856  1.0301 -1.7094
 2813SOL    HW210053   6.740   1.354   1.876  1.0488 -0.3068  0.4120
 2814SOL     OW10054   0.514   1.730   0.733 -0.2256 -0.4133 -0.3470
 2814SOL    HW110055   0.566   1.709   0.656  0.8216 -0.9060  0.4549
 2814SOL    HW210056   0.462   1.652   0.750  0.9548 -1.0648  0.5070
 2815SOL     OW10057   8.976   6.003   5.713 -0.4562  0.4613 -0.4008
 2815SOL    HW110058   8.936   5.920   5.684  0.2570  0.0994 -0.3630
 2815SOL    HW210059   8.953   6.066   5.645 -0.5673  0.1086 -0.6929
 2816SOL     OW10060   8.539   7.510   6.664 -0.0989  0.1222 -0.0230
 2816SOL    HW110061   8.511   7.584   6.610  0.7986  0.4045 -0.1198
 2816SOL    HW210062   8.610   7.469   6.614  0.4460  0.1189  0.7371
 2817SOL     OW10063   7.795   3.943   4.251  0.2958  0.1411 -0.3361
 2817SOL    HW110064   7.736   3.868   4.247  1.3025 -0.7737  0.9324
 2817SOL    HW210065   7.874   3.913   4.205  1.3018 -0.2266  1.5146
 2818SOL     OW10066   4.069   5.140   2.990  0.4183 -0.6733  0.5568
 2818SOL    HW110067   4.029   5.122   3.075 -2.8408 -0.7053 -0.8304
 2818SOL    HW210068   3.997   5.130   2.927  2.7157 -0.8626 -2.2553
 2819SOL     OW10069   3.034   8.304   5.027  0.2052 -0.1760 -0.5897
 2819SOL    HW110070   2.999   8.319   4.940 -0.7004 -0.2411 -0.2396
 2819SOL    HW210071   3.012   8.213   5.047  1.0347 -0.3813 -0.5753
 2820SOL     OW10072   8.498   4.468   1.915  0.6359  0.0825 -0.2659
 2820SOL    HW110073   8.488   4.525   1.991  1.1615  0.8627 -0.7678
 2820SOL    HW210074   8.592   4.464   1.900  0.6024 -0.8723 -0.2849
 2821SOL     OW10075   0.488   0.364   2.643 -0.0206  0.1237 -0.5939
 2821SOL    HW110076   0.533   0.386   2.561  0.5805  0.9615 -0.0587
 2821SOL    HW210077   0.489   0.268   2.645 -0.4796  0.0741 -1.7922
 2822SOL     OW10078   6.832   3.643   9.117 -0.2902 -0.6223  0.0866
 2822SOL    HW110079   6.760   3.660   9.056  1.2272  0.0061 -1.6164
 2822SOL    HW210080   6.863   3.730   9.142 -1.1108 -0.8558  2.1171
 2823SOL     OW10081   1.741   7.072   2.775  0.6017  0.1853 -0.2808
 2823SOL    HW110082   1.681   7.043   2.706  1.0312 -0.6003 -0.3287
 2823SOL    HW210083   1.828   7.048   2.743  0.9634  1.3673 -0.2347
 2824SOL     OW10084   7.772   3.135   6.004 -0.3081  0.3248  0.1555
 2824SOL    HW110085   7.707   3.081   5.959  0.1561  0.9629 -1.3498
 2824SOL    HW210086   7.849   3.134   5.946  0.8812 -0.0446  1.6760
 2825SOL     OW10087   1.628   8.001   7.764 -0.4762 -0.0971  0.3640
 2825SOL    HW110088   1.649   7.910   7.786 -2.1555 -1.4468 -2.8628
 2825SOL    HW210089   1.578   8.033   7.839 -0.7357 -2.2301  1.1764
 2826SOL     OW10090   6.594   9.062   1.485 -0.4159  0.4163 -0.2855
 2826SOL    HW110091   6.671   9.089   1.435 -0.0817 -1.4841 -0.8727
 2826SOL    HW210092   6.533   9.030   1.419  0.0389 -2.1486  0.4532
 2827SOL     OW10093   9.483   4.312   9.781  0.3046  0.1284  0.4364
 2827SOL    HW110094   9.464   4.282   9.692 -1.7893  0.2612  0.7750
 2827SOL    HW210095   9.540   4.388   9.770 -0.5872  0.6412 -0.8684
 2828SOL     OW10096   7.683   8.275   7.192 -0.0822  0.1704  0.2385
 2828SOL    HW110097   7.772   8.308   7.204  0.3129  0.1158 -2.1115
 2828SOL    HW210098   7.646   8.272   7.281  1.4586  2.3679  1.0384
 2829SOL     OW10099   4.126   3.808   8.619 -0.0010 -0.0915  0.6130
 2829SOL    HW110100   4.070   3.757   8.561  0.5837  0.5643 -0.5471
 2829SOL    HW210101   4.120   3.897   8.586  1.0275  0.1395  1.0163
 2830SOL     OW10102   2.348   8.769   4.030  0.0005  0.4629 -0.5850
 2830SOL    HW110103   2.335   8.682   4.069 -0.7096  0.3871 -0.9758
 2830SOL    HW210104   2.422   8.757   3.971  0.2505  0.2568 -0.2359
 2831SOL     OW10105   4.521   5.671   2.481  0.1145  0.2508 -0.0041
 2831SOL    HW110106   4.500   5.745   2.538 -0.4516  0.5712 -0.6138
 2831SOL    HW210107   4.541   5.600   2.541  1.2695  1.0450  0.6042
 2832SOL     OW10108   9.654   2.447   3.828  0.1165  0.5205  0.0102
 2832SOL    HW110109   9.640   2.520   3.889  0.7576  0.4190  0.2780
 2832SOL    HW210110   9.699   2.380   3.880 -0.1443  0.0762 -0.3341
 2833SOL     OW10111   4.142   2.445   5.491  0.0620 -0.2729 -0.1400
 2833SOL    HW110112   4.188   2.361   5.489  2.1863  0.7742 -3.2023
 2833SOL    HW210113   4.120   2.459   5.583  0.5900 -3.6466  0.6027
 2834SOL     OW10114   9.280   0.919   5.719  0.2990  0.3050  0.0789
 2834SOL    HW110115   9.362   0.968   5.727  0.7179 -0.5462  1.2302
 2834SOL    HW210116   9.308   0.830   5.695 -0.1500 -0.4036  2.0243
 2835SOL     OW10117   0.741   1.422   0.656 -0.4616  0.0239 -0.1644
 2835SOL    HW110118   0.754   1.455   0.567  0.8587  0.0971  0.0462
 2835SOL    HW210119   0.818   1.369   0.674  0.0463  1.2510  1.5005
 2836SOL     OW10120   1.790   5.711   9.727 -0.2966 -0.3587  0.2181
 2836SOL    HW110121   1.803   5.805   9.745  2.7316 -0.1905 -1.9477
 2836SOL    HW210122   1.827   5.667   9.803 -1.4699  0.1419  1.1186
 2837SOL     OW10123   7.953   7.370   8.481  0.3760 -0.0738  0.3421
 2837SOL    HW110124   7.870   7.416   8.468  1.4590  1.7567 -0.4794
 2837SOL    HW210125   7.972   7.378   8.574 -0.5754 -0.9203  0.6226
 2838SOL     OW10126   0.789   9.015   9.002 -0.9500 -0.5942 -0.3001
 2838SOL    HW110127   0.794   9.008   9.097 -2.0393 -0.6865 -0.2381
 2838SOL    HW210128   0.875   9.049   8.976 -0.6641 -0.5093  0.7129
 2839SOL     OW10129   4.792   4.902   9.469 -0.5602  0.3477  0.0614
 2839SOL    HW110130   4.848   4.867   9.537 -0.5861  0.1191 -0.0365
 2839SOL    HW210131   4.718   4.941   9.516 -1.4770 -1.3714  0.0985
 2840SOL     OW10132   2.324   5.104   0.072 -0.4678 -0.4264  0.1218
 2840SOL    HW110133   2.341   5.063   0.157  0.8111  0.3184  0.2535
 2840SOL    HW210134   2.229   5.119   0.071 -0.5184 -0.5496  1.3684
 2841SOL     OW10135   0.625   5.040   7.598  0.1247  0.1368 -0.4005
 2841SOL    HW110136   0.720   5.031   7.604  0.2125  1.1862  0.0703
 2841SOL    HW210137   0.591   4.989   7.671  0.4554  1.3709  0.6539
 2842SOL     OW10138   7.728   4.857   2.789 -0.2308  0.3835  0.1041
 2842SOL    HW110139   7.694   4.830   2.875  1.4972  0.2381  0.7884
 2842SOL    HW210140   7.655   4.843   2.729 -1.5613  0.7063  1.5856
 2843SOL     OW10141   1.074   9.024   0.333 -0.5913 -0.2829  0.1444
 2843SOL    HW110142   1.124   9.023   0.252 -0.1298  0.8400  0.3986
 2843SOL    HW210143   1.127   9.075   0.394 -1.5445  0.0235  0.7478
 2844SOL     OW10144   1.748   8.962   8.843 -0.7127  0.0757 -0.3460
 2844SOL    HW110145   1.814   8.929   8.782 -0.0235  0.9180 -0.0773
 2844SOL    HW210146   1.787   8.948   8.929 -1.6893 -1.1292 -0.0738
 2845SOL     OW10147   4.656   8.732   6.630 -0.2075 -0.5014 -0.0902
 2845SOL    HW110148   4.715   8.806   6.641 -0.0690 -0.2771 -2.0410
 2845SOL    HW210149   4.577   8.756   6.679 -0.5591  1.4219 -1.5163
 2846SOL     OW10150   6.129   5.996   6.129  0.0115 -0.1040 -0.2335
 2846SOL    HW110151   6.132   6.061   6.058 -0.2407  1.9046  1.4783
 2846SOL    HW210152   6.200   6.023   6.188 -0.4030 -1.1337  0.7518
 2847SOL     OW10153   7.686   6.811   1.475 -0.0995 -0.0598 -0.4917
 2847SOL    HW110154   7.744   6.788   1.548  0.3023  1.4445 -0.3182
 2847SOL    HW210155   7.693   6.737   1.415  1.0215 -0.4660  0.1198
 2848SOL     OW10156   3.667   8.109   5.853  1.1382  0.0673  0.4488
 2848SOL    HW110157   3.700   8.121   5.765 -1.5206 -2.5213 -1.0821
 2848SOL    HW210158   3.735   8.058   5.898  2.3382  1.0778 -0.1658
 2849SOL     OW10159   4.074   6.585   1.584  0.0381  0.0215  0.0727
 2849SOL    HW110160   3.979   6.582   1.594  0.0056  1.3396  0.3350
 2849SOL    HW210161   4.099   6.669   1.621  1.5570 -1.1747  1.9513
 2850SOL     OW10162   7.344   2.269   3.915 -0.3290  0.9373 -0.5474
 2850SOL    HW110163   7.256   2.246   3.883 -0.6489 -0.8588  1.4256
 2850SOL    HW210164   7.400   2.199   3.883 -0.0898  0.7458  0.2967
 2851SOL     OW10165   2.174   4.358   2.292  0.8206  0.0077  0.1809
 2851SOL    HW110166   2.223   4.295   2.344  3.3455  2.1863  0.6315
 2851SOL    HW210167   2.162   4.316   2.207  0.4127 -1.9072  1.1502
 2852SOL     OW10168   9.207   4.668   0.171 -0.1333 -0.5285 -0.3271
 2852SOL    HW110169   9.199   4.573   0.166 -0.9126 -0.4592 -0.4911
 2852SOL    HW210170   9.272   4.683   0.240 -2.9790 -1.1108  2.7267
 2853SOL     OW10171   8.144   3.371   8.801 -0.0862  0.7132  0.1999
 2853SOL    HW110172   8.224   3.327   8.772 -1.2473 -0.7726 -0.9441
 2853SOL    HW210173   8.082   3.358   8.730 -2.0584 -0.1842  1.9549
 2854SOL     OW10174   8.868   2.823   2.245  0.4287  0.1875 -0.4369
 2854SOL    HW110175   8.782   2.835   2.204  0.2158 -0.9850 -0.3428
 2854SOL    HW210176   8.911   2.909   2.235 -1.2325  1.2154  0.6709
 2855SOL     OW10177   0.736   6.305   6.515 -0.4946  0.1220 -0.2553
 2855SOL    HW110178   0.659   6.262   6.553 -0.9529  0.5471 -0.6967
 2855SOL    HW210179   0.782   6.342   6.590 -1.8905  1.7766 -0.1684
 2856SOL     OW10180   0.578   2.178   5.641 -0.0934 -0.3472 -0.2971
 2856SOL    HW110181   0.556   2.085   5.651  0.7817 -0.5266  0.0793
 2856SOL    HW210182   0.652   2.179   5.581  1.0455 -0.0494  1.0655
 2857SOL     OW10183   0.673   5.599   9.668  0.6231  0.3260  0.6192
 2857SOL    HW110184   0.696   5.636   9.753  0.0737  1.2237  0.3911
 2857SOL    HW210185   0.577   5.602   9.666  0.6564  1.2295 -0.4167
 2858SOL     OW10186   4.266   1.322   0.407 -0.4369 -0.7777  0.2813
 2858SOL    HW110187   4.235   1.313   0.317  0.2236  1.4867 -0.2409
 2858SOL    HW210188   4.200   1.375   0.451 -0.8528 -2.0320  1.2207
 2859SOL     OW10189   7.683   6.763   6.144 -0.7491  0.1768  0.1030
 2859SOL    HW110190   7.760   6.774   6.199 -0.3842 -0.8139 -0.1915
 2859SOL    HW210191   7.648   6.676   6.168 -2.0115  0.7744  0.5265
 2860SOL     OW10192   1.537   6.796   6.171  0.0934  0.1239 -0.3959
 2860SOL    HW110193   1.565   6.864   6.109 -0.0896  0.5287 -0.0426
 2860SOL    HW210194   1.608   6.793   6.235 -0.8869  1.5638  0.8308
 2861SOL     OW10195   1.484   7.595   6.606  0.1709 -0.3922  0.2866
 2861SOL    HW110196   1.462   7.657   6.536  1.0482 -0.3606  0.0296
 2861SOL    HW210197   1.525   7.649   6.674 -0.0802 -0.5239  0.5469
 2862SOL     OW10198   5.165   3.520   3.619  0.0629 -0.6616 -0.1574
 2862SOL    HW110199   5.139   3.473   3.541 -1.9146  0.8985 -0.5155
 2862SOL    HW210200   5.086   3.523   3.673  1.6401 -2.7097  2.5229
 2863SOL     OW10201   1.442   9.249   4.933  0.6906 -0.6485 -0.5342
 2863SOL    HW110202   1.422   9.289   5.017  1.9708 -0.9701 -0.0382
 2863SOL    HW210203   1.360   9.251   4.884  0.1096  0.2076  0.4445
 2864SOL     OW10204   0.656   9.054   9.392 -0.5138  0.5829 -0.5412
 2864SOL    HW110205   0.623   9.119   9.454  0.9258  1.5759 -0.7658
 2864SOL    HW210206   0.662   8.973   9.442  0.4812  1.3295  0.6088
 2865SOL     OW10207   7.795   8.839   7.190 -0.2164  0.2677 -0.2595
 2865SOL    HW110208   7.823   8.926   7.217 -0.6424  0.2171  0.3828
 2865SOL    HW210209   7.778   8.847   7.096  1.1316  0.4954 -0.5057
 2866SOL     OW10210   1.722   2.674   3.890 -0.2028 -0.6625 -0.4935
 2866SOL    HW110211   1.766   2.732   3.952 -0.1146  1.2370 -2.2208
 2866SOL    HW210212   1.790   2.612   3.863  0.0693 -0.7643  0.3886
 2867SOL     OW10213   4.775   1.927   6.996  0.1086 -0.3220  0.2722
 2867SOL    HW110214   4.691   1.884   6.982  0.0763 -0.3040  0.4055
 2867SOL    HW210215   4.759   1.991   7.066  0.2753 -0.4493  0.4295
 2868SOL     OW10216   7.515   9.744   2.331 -0.0086  0.2388 -0.1939
 2868SOL    HW110217   7.462   9.819   2.306 -1.1719 -1.1482 -2.0668
 2868SOL    HW210218   7.547   9.708   2.249  1.0390 -0.9786  0.7005
 2869SOL     OW10219   3.766   7.072   0.023  0.0909  0.1150  0.4391
 2869SOL    HW110220   3.711   7.146   0.050 -0.9873 -0.2525 -0.6696
 2869SOL    HW210221   3.855   7.107   0.027 -0.2461  0.8931  1.7303
 2870SOL     OW10222   0.861   4.732   0.101  0.1366  0.0368 -0.6181
 2870SOL    HW110223   0.894   4.647   0.071 -0.0666 -0.7251  1.1800
 2870SOL    HW210224   0.768   4.730   0.078 -0.2253 -0.9287  0.7722
 2871SOL     OW10225   0.170   1.424   8.752 -0.5128 -0.6320 -0.1040
 2871SOL    HW110226   0.166   1.330   8.771  0.9502 -0.6709  0.1233
 2871SOL    HW210227   0.103   1.437   8.684 -0.5620 -1.8776 -0.3203
 2872SOL     OW10228   1.219   5.649   1.260 -0.6712 -0.1421 -0.3187
 2872SOL    HW110229   1.183   5.726   1.303 -0.1523 -0.1760  0.2023
 2872SOL    HW210230   1.151   5.621   1.199 -0.4890  1.3065 -1.2510
 2873SOL     OW10231   3.586   2.033   8.215  0.6805 -0.0526  0.0304
 2873SOL    HW110232   3.498   2.064   8.235  0.1131 -0.4186 -1.6958
 2873SOL    HW210233   3.617   2.092   8.146  2.0282  0.4050  0.9879
 2874SOL     OW10234   6.593   8.579   6.883 -0.3506  0.0210 -0.1184
 2874SOL    HW110235   6.643   8.626   6.949 -1.5061  1.4857 -0.2124
 2874SOL    HW210236   6.575   8.493   6.921 -0.8135  0.7609  1.3846
 2875SOL     OW10237   8.859   1.621   8.596  0.2580 -0.0463 -0.6820
 2875SOL    HW110238   8.777   1.579   8.571  0.8628 -0.8110 -1.3996
 2875SOL    HW210239   8.873   1.593   8.687 -0.6695  0.7382 -0.2752
 2876SOL     OW10240   3.399   7.399   1.144 -0.0393  0.3686 -0.3323
 2876SOL    HW110241   3.325   7.455   1.169 -1.2993 -1.5175  0.4212
 2876SOL    HW210242   3.418   7.348   1.223 -0.1579 -1.5268 -1.4672
 2877SOL     OW10243   9.055   7.703   8.564 -0.3870  0.2918  0.0391
 2877SOL    HW110244   9.089   7.753   8.490 -0.2953  0.3083  0.0924
 2877SOL    HW210245   8.981   7.755   8.596 -1.7486 -0.7245 -1.3224
 2878SOL     OW10246   2.232   8.274   2.545 -1.1864  0.2020 -0.0738
 2878SOL    HW110247   2.211   8.364   2.571  0.3608  0.4745  0.3567
 2878SOL    HW210248   2.263   8.282   2.455 -3.3794 -0.2852 -0.9383
 2879SOL     OW10249   0.637   3.188   4.142 -0.1137 -0.2675  0.4358
 2879SOL    HW110250   0.726   3.206   4.174  0.9457 -0.2042 -2.2911
 2879SOL    HW210251   0.625   3.094   4.157  1.1718 -0.6626 -0.7834
 2880SOL     OW10252   2.605   9.802   5.617 -0.1013  0.5215 -0.5649
 2880SOL    HW110253   2.541   9.798   5.546  0.9068 -2.4490 -1.4661
 2880SOL    HW210254   2.553   9.788   5.697 -0.8535  0.5516 -1.0401
 2881SOL     OW10255   7.684   4.895   1.387 -0.1205  0.2970 -0.1872
 2881SOL    HW110256   7.679   4.889   1.291 -0.5419  0.6388 -0.1885
 2881SOL    HW210257   7.598   4.927   1.413 -0.2692 -0.5302  0.3709
 2882SOL     OW10258   3.661   0.355   7.516 -0.4070 -0.0062  0.0242
 2882SOL    HW110259   3.754   0.339   7.529 -0.0913  0.7661 -1.1331
 2882SOL    HW210260   3.648   0.445   7.546 -0.6116  0.1516 -0.5172
 2883SOL     OW10261   9.801   7.200   4.209  0.5663  0.0120 -0.0106
 2883SOL    HW110262   9.741   7.130   4.234  0.3080  0.1132 -0.3345
 2883SOL    HW210263   9.884   7.177   4.250  0.6805 -0.8555 -0.7049
 2884SOL     OW10264   3.148   3.015   3.759  0.7374  0.4116  0.0606
 2884SOL    HW110265   3.147   3.096   3.810  0.0415  0.5829 -0.2111
 2884SOL    HW210266   3.058   2.982   3.764  1.7341 -2.3447  3.2655
 2885SOL     OW10267   2.768   8.592   1.760 -0.3852  0.1702  0.2603
 2885SOL    HW110268   2.735   8.615   1.673 -0.6836 -1.3840 -0.0543
 2885SOL    HW210269   2.828   8.519   1.745 -0.4645 -0.1384  1.3605
 2886SOL     OW10270   4.908   3.984   8.104  0.8443 -0.6137 -0.2532
 2886SOL    HW110271   4.913   4.013   8.012 -1.4732  0.8701  0.0124
 2886SOL    HW210272   4.895   4.065   8.153 -0.8841 -1.6516  1.0724
 2887SOL     OW10273   3.727   6.927   5.466 -0.5443 -0.0293  0.3075
 2887SOL    HW110274   3.814   6.963   5.450 -0.6392  0.2283  0.3713
 2887SOL    HW210275   3.679   6.943   5.384 -1.2180  1.8312  1.0116
 2888SOL     OW10276   8.481   9.681   6.350  0.2003 -0.0319 -0.1849
 2888SOL    HW110277   8.427   9.611   6.385 -0.1990  0.2019 -0.3328
 2888SOL    HW210278   8.546   9.698   6.419  1.2547 -1.5691 -0.7427
 2889SOL     OW10279   6.153   2.900   6.318 -0.2174 -0.4853 -0.1094
 2889SOL    HW110280   6.238   2.931   6.287 -0.0038  0.8061  1.6210
 2889SOL    HW210281   6.099   2.979   6.320 -0.8303 -0.9173  0.7884
 2890SOL     OW10282   1.463   2.585   2.280 -0.6662  0.4914 -0.4423
 2890SOL    HW110283   1.378   2.628   2.285 -0.3954  0.8974  1.2495
 2890SOL    HW210284   1.527   2.655   2.292 -0.1886 -0.1672  1.1400
 2891SOL     OW10285   0.733   4.360   4.101  0.5413  0.4559 -0.1401
 2891SOL    HW110286   0.667   4.296   4.126  0.6448  0.1567 -0.6066
 2891SOL    HW210287   0.739   4.419   4.176 -1.7911  1.7823 -0.9279
 2892SOL     OW10288   6.708   1.842   6.530  0.2385 -0.0856 -0.5535
 2892SOL    HW110289   6.789   1.796   6.508  1.6288  0.8226  2.2670
 2892SOL    HW210290   6.666   1.788   6.597  0.6115  1.3990  0.9498
 2893SOL     OW10291   5.486   8.988   5.139  0.2377 -0.4296 -0.0546
 2893SOL    HW110292   5.514   9.008   5.228 -1.7973 -0.7316  0.7004
 2893SOL    HW210293   5.494   9.071   5.092  1.8675 -0.4019  0.2202
 2894SOL     OW10294   1.481   4.690   7.300 -0.4239  0.7346 -0.0821
 2894SOL    HW110295   1.533   4.761   7.337 -1.1967  0.7454  1.0417
 2894SOL    HW210296   1.395   4.699   7.341 -0.3716 -1.2113  0.5726
 2895SOL     OW10297   1.501   1.808   6.800 -0.2143  0.1003  0.3896
 2895SOL    HW110298   1.504   1.793   6.895  1.8306 -0.1839  0.3216
 2895SOL    HW210299   1.544   1.893   6.789 -0.3356  0.0728 -0.2979
 2896SOL     OW10300   7.612   9.706   6.897  0.0223  0.0252  0.3091
 2896SOL    HW110301   7.662   9.752   6.965 -0.6137  0.3843  0.5391
 2896SOL    HW210302   7.523   9.741   6.905 -0.3462 -0.8495  0.1332
 2897SOL     OW10303   3.973   0.428   4.056 -0.2810  0.1585  0.1255
 2897SOL    HW110304   4.020   0.381   3.988  0.7940  1.3493  0.0075
 2897SOL    HW210305   4.010   0.396   4.138 -0.1355  0.1822  0.0702
 2898SOL     OW10306   0.307   1.439   9.258 -0.1242 -0.0966  0.1335
 2898SOL    HW110307   0.374   1.480   9.203  0.7140  0.6030  1.6206
 2898SOL    HW210308   0.225   1.454   9.210  0.5205  0.8261 -0.7366
 2899SOL     OW10309   6.732   9.418   4.717 -0.4364  0.1246 -0.0165
 2899SOL    HW110310   6.784   9.496   4.735 -1.1770  0.3560  1.2816
 2899SOL    HW210311   6.643   9.452   4.702 -1.2759 -0.5385  2.8259
 2900SOL     OW10312   3.238   3.944   1.954 -0.1252 -0.0765 -0.1873
 2900SOL    HW110313   3.182   3.972   2.025  0.3731 -3.3183  1.6707
 2900SOL    HW210314   3.184   3.951   1.875 -1.0828  2.4200  0.6125
 2901SOL     OW10315   9.745   9.351   4.009  0.2925  0.1064  0.0052
 2901SOL    HW110316   9.688   9.280   4.038 -0.0704  0.8128  1.0854
 2901SOL    HW210317   9.806   9.309   3.949 -1.4954 -0.6239 -1.3823
 2902SOL     OW10318   3.491   5.603   7.931 -0.2391 -0.2388 -0.6784
 2902SOL    HW110319   3.495   5.548   7.852 -0.3563 -0.6562 -0.3948
 2902SOL    HW210320   3.535   5.685   7.905 -1.7076  0.2685 -1.6918
 2903SOL     OW10321   3.455   4.874   9.002  0.2758 -0.2729  0.0075
 2903SOL    HW110322   3.510   4.917   8.937  2.1029  0.4160  1.9030
 2903SOL    HW210323   3.472   4.921   9.084 -1.2633 -1.6365  1.1858
 2904SOL     OW10324   2.096   4.846   4.914  0.5663  0.5037  0.6105
 2904SOL    HW110325   2.087   4.924   4.860 -1.0525  0.0612  0.1668
 2904SOL    HW210326   2.108   4.879   5.003  0.0853  1.2632  0.4013
 2905SOL     OW10327   3.300   8.612   2.181 -0.1396  0.2985  0.2122
 2905SOL    HW110328   3.322   8.653   2.265  0.0958  1.1713 -0.2651
 2905SOL    HW210329   3.239   8.673   2.140 -0.9280 -0.5377  0.1073
 2906SOL     OW10330   8.184   9.711   0.224 -0.3620  0.0458  0.1595
 2906SOL    HW110331   8.153   9.750   0.305  0.1898 -0.9579  0.8749
 2906SOL    HW210332   8.227   9.630   0.251  0.2877 -0.0547 -1.0817
 2907SOL     OW10333   5.741   6.524   2.469  0.3851 -0.1561 -0.0564
 2907SOL    HW110334   5.677   6.575   2.419 -0.5610 -0.7475  0.5356
 2907SOL    HW210335   5.802   6.492   2.403 -0.4588 -0.3591 -0.7621
 2908SOL     OW10336   8.308   5.718   4.195  0.3184 -0.0952 -0.5098
 2908SOL    HW110337   8.372   5.665   4.148  0.9659 -0.0436  0.2955
 2908SOL    HW210338   8.225   5.702   4.149  0.0820 -3.2944  0.7841
 2909SOL     OW10339   3.067   9.482   9.825  0.1600 -0.7995  0.2882
 2909SOL    HW110340   3.134   9.469   9.759 -0.3492 -2.1019  0.0110
 2909SOL    HW210341   3.113   9.472   9.909  0.2429 -2.2048  0.0988
 2910SOL     OW10342   1.057   4.829   6.575  0.6587  0.4401  0.6890
 2910SOL    HW110343   1.115   4.765   6.535 -0.3411 -0.3452  0.4523
 2910SOL    HW210344   1.032   4.790   6.659  0.3813  0.7162  0.7390
 2911SOL     OW10345   8.546   5.715   0.519 -0.1572 -0.3406 -0.1556
 2911SOL    HW110346   8.554   5.670   0.603  2.7490 -0.4946 -0.4065
 2911SOL    HW210347   8.465   5.764   0.525 -0.1081 -0.4649  2.6805
 2912SOL     OW10348   3.917   0.084   0.408  0.0695 -0.4660 -0.3856
 2912SOL    HW110349   3.871   0.140   0.345 -3.1383 -0.1423  2.0439
 2912SOL    HW210350   3.915  -0.003   0.368 -0.5180 -0.0049 -1.3977
 2913SOL     OW10351   8.719   3.404   7.840  0.2687  0.9288  0.3333
 2913SOL    HW110352   8.668   3.462   7.896  0.1446  0.6219  0.5397
 2913SOL    HW210353   8.659   3.378   7.770  0.3975  1.2392  0.1024
 2914SOL     OW10354   8.919   7.374   2.310 -0.2420 -0.5248  0.0469
 2914SOL    HW110355   8.830   7.345   2.332  0.7176 -2.0447  2.2306
 2914SOL    HW210356   8.968   7.367   2.391  1.5972  1.6333 -0.7657
 2915SOL     OW10357   2.581   6.284   4.124  0.5209  0.4400 -0.3439
 2915SOL    HW110358   2.630   6.206   4.152  2.7532  1.5240 -0.9472
 2915SOL    HW210359   2.649   6.347   4.100 -1.2137  1.7437 -2.1867
 2916SOL     OW10360   7.441   6.918   1.397 -0.6657  0.0847 -0.5634
 2916SOL    HW110361   7.425   6.952   1.485 -0.3228 -0.0841 -0.4341
 2916SOL    HW210362   7.521   6.866   1.405 -0.4333  0.3578 -1.0526
 2917SOL     OW10363   5.235   0.287   3.615 -0.3891  0.7033 -0.6129
 2917SOL    HW110364   5.328   0.275   3.633 -0.3376 -1.0418 -1.8332
 2917SOL    HW210365   5.215   0.373   3.653  0.8784 -0.3049  2.8016
 2918SOL     OW10366   5.356   8.971   3.011 -0.3743 -0.3985 -0.1666
 2918SOL    HW110367   5.354   9.041   2.946  0.4235  0.3598  0.5916
 2918SOL    HW210368   5.424   8.912   2.980  0.1391  0.0609  0.0618
 2919SOL     OW10369   4.500   2.928   8.068  0.6831 -0.7199  0.0088
 2919SOL    HW110370   4.525   2.983   7.994  0.1764  1.6228  1.4700
 2919SOL    HW210371   4.582   2.890   8.099  1.2616  0.2820 -0.2525
 2920SOL     OW10372   6.416   6.036   8.677 -0.5652 -0.9830  0.4480
 2920SOL    HW110373   6.320   6.028   8.681 -0.5975 -0.8894 -0.0778
 2920SOL    HW210374   6.446   5.946   8.664 -0.7610 -0.7310 -2.3688
 2921SOL     OW10375   3.462   5.980   2.466 -0.3855  1.0557 -0.5558
 2921SOL    HW110376   3.498   5.942   2.546 -0.9536  0.9465 -0.3509
 2921SOL    HW210377   3.510   6.062   2.454  1.1779  0.0890 -1.2453
 2922SOL     OW10378   7.244   8.953   4.759 -0.4257 -0.1735  0.2356
 2922SOL    HW110379   7.241   8.928   4.852 -1.0249  0.5392  0.4147
 2922SOL    HW210380   7.184   8.893   4.716 -1.6296  0.7246  0.6179
 2923SOL     OW10381   1.339   0.949   6.519  0.0076  0.2623  0.3973
 2923SOL    HW110382   1.306   0.864   6.547 -0.8459  0.3073 -0.4229
 2923SOL    HW210383   1.290   1.012   6.571 -1.7178  0.3541 -1.2253
 2924SOL     OW10384   7.426   2.917   8.026 -0.1135  0.1562 -0.9966
 2924SOL    HW110385   7.516   2.917   7.994 -0.3758 -4.5257 -2.4395
 2924SOL    HW210386   7.374   2.943   7.950 -0.1587 -2.0081 -1.7811
 2925SOL     OW10387   8.608   2.400   1.473  0.0041 -0.2257  0.5573
 2925SOL    HW110388   8.669   2.470   1.451 -0.8545 -0.0244 -1.3895
 2925SOL    HW210389   8.541   2.443   1.527 -0.2934  0.4015 -0.2741
 2926SOL     OW10390   3.232   5.641   2.375  0.4528  0.2107  0.2341
 2926SOL    HW110391   3.220   5.691   2.455 -2.3064 -0.1373  0.1157
 2926SOL    HW210392   3.191   5.694   2.307 -1.1615 -1.4447 -0.1560
 2927SOL     OW10393   4.602   4.662   8.069  0.0360 -0.0496  0.5185
 2927SOL    HW110394   4.645   4.732   8.118 -1.9853  0.8559  1.0978
 2927SOL    HW210395   4.510   4.689   8.064 -1.3846 -3.6747  2.8189
 2928SOL     OW10396   2.916   7.176   6.056 -0.2301  0.2198  0.3312
 2928SOL    HW110397   2.937   7.270   6.061  1.5326 -0.1286  0.1294
 2928SOL    HW210398   2.883   7.164   5.967  0.8289  0.4401 -0.1110
 2929SOL     OW10399   0.621   9.545   1.240  0.4295  0.4947 -0.2123
 2929SOL    HW110400   0.599   9.637   1.227  1.8021  0.6664 -1.5171
 2929SOL    HW210401   0.546   9.497   1.205  0.1534  1.1064 -0.4666
 2930SOL     OW10402   1.478   8.549   5.803 -0.0257 -0.2413  0.0492
 2930SOL    HW110403   1.528   8.570   5.725 -0.4333 -2.0470 -0.7551
 2930SOL    HW210404   1.544   8.524   5.868  0.2119 -1.7601 -0.7295
 2931SOL     OW10405   6.160   3.146   0.423 -0.5038  0.0703  0.1879
 2931SOL    HW110406   6.093   3.133   0.356  0.1530 -1.1289 -0.2760
 2931SOL    HW210407   6.231   3.190   0.376 -0.8505  1.1211  0.6190
 2932SOL     OW10408   3.352   6.383   3.078  0.0390 -0.9655 -0.2852
 2932SOL    HW110409   3.324   6.296   3.051 -1.8316 -0.5277  0.0644
 2932SOL    HW210410   3.297   6.403   3.154  0.7339  0.3536 -0.0926
 2933SOL     OW10411   8.647   1.032   8.682 -0.0957  0.7098 -0.2930
 2933SOL    HW110412   8.576   1.075   8.634 -0.0656 -0.7622 -1.7207
 2933SOL    HW210413   8.709   1.005   8.615  0.8836  0.2413  0.7688
 2934SOL     OW10414   0.424   7.350   8.503  0.4131 -0.5284  0.0184
 2934SOL    HW110415   0.331   7.328   8.514  0.5966 -2.1969 -1.4016
 2934SOL    HW210416   0.466   7.267   8.481  1.9686  0.4826 -1.0111
 2935SOL     OW10417   6.950   0.376   1.844  0.1445  0.5179 -1.0231
 2935SOL    HW110418   6.876   0.352   1.899 -0.9495  1.4004 -2.0564
 2935SOL    HW210419   6.924   0.349   1.756  0.9817  1.0151 -1.4349
 2936SOL     OW10420   7.666   4.722   7.054 -0.1507  0.2015  0.0700
 2936SOL    HW110421   7.639   4.632   7.072 -1.9515  0.4671 -1.0742
 2936SOL    HW210422   7.584   4.769   7.037  0.8489  1.7568 -0.6939
 2937SOL     OW10423   3.479   4.935   3.774  0.3521 -0.2357  0.2723
 2937SOL    HW110424   3.419   5.009   3.767 -0.1384 -0.7782 -1.7306
 2937SOL    HW210425   3.422   4.861   3.795  0.5614 -0.4548  0.0565
 2938SOL     OW10426   1.829   0.773   8.136 -0.4841  0.2603 -0.3723
 2938SOL    HW110427   1.801   0.714   8.066  0.9511  1.3628 -1.9758
 2938SOL    HW210428   1.917   0.743   8.158 -0.3784  0.7918 -0.0617
 2939SOL     OW10429   4.150   9.335   1.176  0.0404 -0.0258 -0.0556
 2939SOL    HW110430   4.214   9.314   1.108 -1.4502 -0.2826 -1.4615
 2939SOL    HW210431   4.144   9.430   1.175  0.9787  0.0521  0.6691
 2940SOL     OW10432   0.298   1.148   2.612 -0.2055  0.2350  0.1865
 2940SOL    HW110433   0.310   1.125   2.704  1.7285 -1.3156 -0.3849
 2940SOL    HW210434   0.345   1.231   2.603 -0.3152  0.3437  0.5736
 2941SOL     OW10435   4.024   6.113   9.295  0.2794 -0.2369  0.0859
 2941SOL    HW110436   4.051   6.126   9.204 -2.7909 -0.9137 -1.0426
 2941SOL    HW210437   3.965   6.187   9.313  0.0034 -0.6997  1.1357
 2942SOL     OW10438   7.237   0.367   1.778  0.1431 -0.5240  0.5995
 2942SOL    HW110439   7.145   0.340   1.789 -0.0480  0.1657  0.7401
 2942SOL    HW210440   7.245   0.387   1.685 -0.3206  1.0525  0.8707
 2943SOL     OW10441   2.676   5.650   3.105 -0.3321 -0.4447  0.1044
 2943SOL    HW110442   2.647   5.565   3.070  1.7494 -0.2758 -2.3389
 2943SOL    HW210443   2.759   5.630   3.148 -0.9901  0.0287  1.6706
 2944SOL     OW10444   9.797   2.906   5.916 -0.3819  0.1992 -0.3149
 2944SOL    HW110445   9.708   2.902   5.882 -0.1938  0.9509 -0.9237
 2944SOL    HW210446   9.837   2.980   5.870  1.2325 -1.4119 -1.6683
 2945SOL     OW10447   3.627   3.787   4.735 -0.0047 -0.6508  0.0040
 2945SOL    HW110448   3.609   3.693   4.743  1.9661 -1.0339  0.5590
 2945SOL    HW210449   3.548   3.829   4.769 -0.2169 -2.1376  1.5057
 2946SOL     OW10450   3.750   1.563   0.942 -0.7499 -0.3555 -0.2433
 2946SOL    HW110451   3.834   1.518   0.949 -0.6424  0.0678  1.5672
 2946SOL    HW210452   3.771   1.648   0.905 -0.1384  0.2947  1.5132
 2947SOL     OW10453   4.352   4.075   4.479 -0.1673 -0.3815  0.0984
 2947SOL    HW110454   4.383   4.014   4.412  0.9251  1.1429 -0.8478
 2947SOL    HW210455   4.430   4.096   4.530 -0.2646  1.0602 -0.3046
 2948SOL     OW10456   5.774   0.102   3.402  0.2361 -0.4657 -0.4126
 2948SOL    HW110457   5.851   0.151   3.370 -0.3074  0.6795 -0.0247
 2948SOL    HW210458   5.807   0.050   3.475  0.5356  0.4439  0.1100
 2949SOL     OW10459   2.526   6.094   9.672  0.2238  0.1547 -0.2663
 2949SOL    HW110460   2.430   6.088   9.679  0.3037 -1.6146 -0.3196
 2949SOL    HW210461   2.558   6.014   9.713  1.7014  0.7691 -0.1821
 2950SOL     OW10462   0.507   7.512   6.661  0.4832  0.1733  0.1646
 2950SOL    HW110463   0.478   7.441   6.719  0.2383  1.0803  1.1827
 2950SOL    HW210464   0.437   7.577   6.666  0.6460  0.4441 -0.8569
 2951SOL     OW10465   0.791   8.179   3.532  0.2316  0.4427 -0.0301
 2951SOL    HW110466   0.843   8.162   3.454 -0.6950 -1.0001 -0.3639
 2951SOL    HW210467   0.710   8.218   3.498  0.4057  1.1594  0.3517
 2952SOL     OW10468   5.587   8.177   6.720  0.4459  0.0238 -0.2541
 2952SOL    HW110469   5.650   8.213   6.783 -0.6828  0.6527  0.5456
 2952SOL    HW210470   5.538   8.253   6.689  2.9270  0.2828 -4.3042
 2953SOL     OW10471   3.067   7.908   5.819 -0.6468  0.3151  0.2279
 2953SOL    HW110472   2.973   7.926   5.818 -0.7011  0.6358  3.0537
 2953SOL    HW210473   3.081   7.852   5.743 -3.0946  0.3241 -0.3257
 2954SOL     OW10474   5.371   1.517   7.649  0.1056 -0.2588 -0.1606
 2954SOL    HW110475   5.457   1.478   7.635  1.5434  2.4428  0.3328
 2954SOL    HW210476   5.368   1.538   7.742 -1.5909 -1.2905  0.0664
 2955SOL     OW10477   1.665   0.737   9.612  0.0148  0.3621  0.3306
 2955SOL    HW110478   1.699   0.648   9.601 -0.1375  0.2571  0.6712
 2955SOL    HW210479   1.744   0.791   9.622  0.1364  0.4048 -0.8014
 2956SOL     OW10480   2.352   0.851   7.124 -0.3540  0.0534 -0.5803
 2956SOL    HW110481   2.263   0.873   7.095  0.2892  2.4647 -0.8797
 2956SOL    HW210482   2.379   0.925   7.178  1.7991 -0.1944 -1.2246
 2957SOL     OW10483   6.891   9.065   6.318 -0.8930 -0.1719 -0.1874
 2957SOL    HW110484   6.926   8.988   6.362 -0.3341  0.9221  1.3648
 2957SOL    HW210485   6.967   9.117   6.294 -1.2750  1.7096  2.2587
 2958SOL     OW10486   1.946   4.885   4.455  0.1486 -0.2593  0.4288
 2958SOL    HW110487   2.000   4.811   4.481  0.3621 -1.1789 -2.2541
 2958SOL    HW210488   1.904   4.856   4.374  0.3735  2.6074 -0.8373
 2959SOL     OW10489   4.205   6.521   0.515 -0.4891  0.0799  0.0938
 2959SOL    HW110490   4.175   6.537   0.425 -0.6544 -1.3001 -0.1190
 2959SOL    HW210491   4.252   6.600   0.539 -1.5763  1.0065 -0.7339
 2960SOL     OW10492   0.399   4.843   3.311 -0.0628  0.4271 -0.1006
 2960SOL    HW110493   0.409   4.855   3.216 -1.4414  0.3231 -0.2845
 2960SOL    HW210494   0.429   4.753   3.327 -2.3358 -0.5355 -0.9066
 2961SOL     OW10495   5.689   4.402   5.518  0.1917  0.7110 -0.2591
 2961SOL    HW110496   5.661   4.312   5.537 -0.1844  0.7932 -0.4057
 2961SOL    HW210497   5.784   4.399   5.522  0.1626  0.4677  0.4795
 2962SOL     OW10498   0.475   5.466   1.169 -0.0111  0.7098 -0.4295
 2962SOL    HW110499   0.496   5.560   1.170 -3.3182  1.5774 -1.1120
 2962SOL    HW210500   0.508   5.435   1.085 -0.9836  1.8844 -1.2813
 2963SOL     OW10501   2.479   3.979   0.814 -0.9231 -0.5648 -0.3352
 2963SOL    HW110502   2.564   3.948   0.785 -0.6572 -0.1723  0.0175
 2963SOL    HW210503   2.487   3.985   0.909 -1.0582  0.3105 -0.3713
 2964SOL     OW10504   2.531   4.149   2.746 -0.0156  0.2300  0.0278
 2964SOL    HW110505   2.541   4.199   2.827  1.7819  0.5790 -0.3683
 2964SOL    HW210506   2.567   4.206   2.678 -1.5835 -0.0156 -1.0641
 2965SOL     OW10507   3.404   6.462   1.482  0.3694 -0.7458  0.8299
 2965SOL    HW110508   3.382   6.542   1.531  1.7627 -0.2307  0.6359
 2965SOL    HW210509   3.325   6.408   1.490 -0.2610  0.2546  1.7502
 2966SOL     OW10510   3.804   4.069   2.203  0.4895  0.1986 -0.1829
 2966SOL    HW110511   3.807   4.039   2.294 -1.4956  2.4558  0.7267
 2966SOL    HW210512   3.836   4.159   2.206 -1.3733  0.9627 -1.3449
 2967SOL     OW10513   1.057   6.867   5.235  0.2808 -0.8948  0.2633
 2967SOL    HW110514   1.002   6.797   5.270 -3.3510  1.1718 -0.7315
 2967SOL    HW210515   1.053   6.856   5.140  0.0441  0.3089  0.1163
 2968SOL     OW10516   3.621   3.686   8.351  0.2322 -0.7076  0.2005
 2968SOL    HW110517   3.646   3.778   8.346 -2.0591 -0.0716 -0.6021
 2968SOL    HW210518   3.575   3.677   8.434 -3.3322  0.0169 -1.4916
 2969SOL     OW10519   8.285   4.154   8.297 -0.0780 -0.2968 -0.3512
 2969SOL    HW110520   8.218   4.196   8.244  0.9031 -0.5078 -1.8048
 2969SOL    HW210521   8.237   4.098   8.357 -1.2579  0.6668 -0.3640
 2970SOL     OW10522   3.565   3.200   9.445  0.1957  0.0933 -0.2143
 2970SOL    HW110523   3.626   3.133   9.414  1.5747  1.2914 -0.2032
 2970SOL    HW210524   3.606   3.283   9.419 -1.7896  0.9323 -0.8346
 2971SOL     OW10525   8.824   2.173   7.841  0.4261 -0.2568  0.6106
 2971SOL    HW110526   8.858   2.205   7.924  0.1257 -0.2159  0.7183
 2971SOL    HW210527   8.784   2.089   7.862  0.1683 -0.1519  0.5463
 2972SOL     OW10528   5.264   3.046   7.354  0.0116 -0.8067  0.3964
 2972SOL    HW110529   5.270   3.132   7.312 -2.1862 -0.9427 -0.3225
 2972SOL    HW210530   5.299   3.060   7.442  1.2426  0.3861 -0.2359
 2973SOL     OW10531   6.204   6.605   0.838 -0.1936 -0.3766  0.8477
 2973SOL    HW110532   6.270   6.674   0.844 -0.5219 -0.1294  1.7815
 2973SOL    HW210533   6.254   6.524   0.844  0.4081 -0.3165 -2.1970
 2974SOL     OW10534   8.343   8.666   1.679 -0.0460 -0.2450 -0.2010
 2974SOL    HW110535   8.368   8.580   1.644  1.1373 -0.1961  0.4831
 2974SOL    HW210536   8.395   8.676   1.758 -0.4461  0.9553 -0.0708
 2975SOL     OW10537   3.842   8.973   9.599 -0.3734  0.1328 -0.2859
 2975SOL    HW110538   3.889   9.045   9.557 -1.7515  0.3397 -1.5279
 2975SOL    HW210539   3.792   9.015   9.669  0.8080 -0.0133  0.6835
 2976SOL     OW10540   8.426   3.142   0.131  0.3671 -0.1623 -0.0631
 2976SOL    HW110541   8.439   3.058   0.174  1.8071  0.2000  0.2323
 2976SOL    HW210542   8.374   3.121   0.053 -0.6955 -1.0723  0.8687
 2977SOL     OW10543   8.464   7.928   2.681 -1.0973  0.3193 -0.5117
 2977SOL    HW110544   8.527   7.998   2.668 -1.0187  0.2275 -0.6306
 2977SOL    HW210545   8.517   7.849   2.695 -1.1571  0.5337  1.1644
 2978SOL     OW10546   6.310   2.419   5.543 -0.3588 -0.0901 -0.1220
 2978SOL    HW110547   6.355   2.487   5.593 -1.6211  0.2563  0.5669
 2978SOL    HW210548   6.298   2.457   5.456  0.9524 -0.3181 -0.4255
 2979SOL     OW10549   9.344   3.653   1.633  0.0518  0.2557 -0.4126
 2979SOL    HW110550   9.306   3.672   1.547 -0.9012 -0.9847 -0.2945
 2979SOL    HW210551   9.438   3.655   1.618 -0.0026  2.6420 -0.8861
 2980SOL     OW10552   9.364   9.078   6.402 -0.2354 -0.1620  0.3104
 2980SOL    HW110553   9.425   9.017   6.362 -1.4569 -0.0100 -1.9730
 2980SOL    HW210554   9.279   9.056   6.363 -0.9819  1.9457  0.6108
 2981SOL     OW10555   4.995   5.882   5.989 -0.3884 -0.8016  0.1180
 2981SOL    HW110556   5.075   5.847   6.027 -0.8898 -1.8827  0.2386
 2981SOL    HW210557   4.998   5.976   6.007  0.2596 -1.0117  1.1991
 2982SOL     OW10558   7.355   9.498   3.542  0.0813  0.1006 -0.0263
 2982SOL    HW110559   7.363   9.479   3.635  0.1008  1.9537  0.3867
 2982SOL    HW210560   7.443   9.526   3.515  0.0220 -0.1983 -0.5676
 2983SOL     OW10561   5.013   8.273   0.923 -0.4778 -0.1437  0.1545
 2983SOL    HW110562   4.933   8.324   0.913 -0.6435 -0.0780  1.6035
 2983SOL    HW210563   5.083   8.331   0.894 -1.0350 -0.6662 -2.4294
 2984SOL     OW10564   9.838   6.166   4.713  0.7344 -0.1333  0.0623
 2984SOL    HW110565   9.858   6.139   4.623 -0.5230 -1.8974  0.2573
 2984SOL    HW210566   9.918   6.148   4.762  0.6538 -1.4470 -0.2637
 2985SOL     OW10567   2.575   7.856   4.785  0.6077  0.3371 -0.0030
 2985SOL    HW110568   2.556   7.842   4.692 -1.4091  0.8585  0.2892
 2985SOL    HW210569   2.666   7.829   4.795  0.7608 -0.0670 -2.0557
 2986SOL     OW10570   5.232   6.616   8.154  0.2495 -0.0767 -0.6175
 2986SOL    HW110571   5.256   6.647   8.067 -1.4526  0.2973 -0.9961
 2986SOL    HW210572   5.195   6.693   8.197  1.4255 -0.1548  0.6084
 2987SOL     OW10573   8.326   0.945   1.901  0.5483 -0.1414  0.1649
 2987SOL    HW110574   8.352   1.011   1.836  0.2636  0.0622  0.2554
 2987SOL    HW210575   8.302   0.997   1.979  3.4746 -0.4471  1.4100
 2988SOL     OW10576   2.534   5.536   3.608  0.2136 -0.1639 -0.1937
 2988SOL    HW110577   2.602   5.518   3.673  1.2989  1.0247 -0.9386
 2988SOL    HW210578   2.574   5.511   3.524 -0.3654  0.2955 -0.6165
 2989SOL     OW10579   9.395   3.521   4.633  0.0530  0.6624  0.6334
 2989SOL    HW110580   9.464   3.514   4.700  0.6740 -0.6480 -0.1057
 2989SOL    HW210581   9.328   3.460   4.661  1.0806 -1.2161 -0.7657
 2990SOL     OW10582   8.365   3.372   6.226  0.0347 -1.1703 -0.4034
 2990SOL    HW110583   8.460   3.364   6.218  0.1539  1.0051 -1.8939
 2990SOL    HW210584   8.331   3.320   6.153  0.1925 -0.3182 -1.1006
 2991SOL     OW10585   5.196   0.546   0.160  0.1481  0.2001  0.1888
 2991SOL    HW110586   5.129   0.573   0.097 -0.1578  0.1947  0.5057
 2991SOL    HW210587   5.156   0.562   0.246 -0.2616 -1.7203  0.4075
 2992SOL     OW10588   4.765   5.325   2.184  0.1232 -0.8078 -0.3179
 2992SOL    HW110589   4.734   5.411   2.155 -0.5449 -0.8397  0.2675
 2992SOL    HW210590   4.718   5.263   2.127 -1.6575 -0.9000  1.1523
 2993SOL     OW10591   2.152   9.271   4.000 -0.4216 -0.1489 -0.7117
 2993SOL    HW110592   2.150   9.250   3.907  2.1429 -0.8488 -0.6968
 2993SOL    HW210593   2.232   9.323   4.012 -0.9898  0.4213  1.0137
 2994SOL     OW10594   2.591   6.882   1.924  0.0456 -0.6159 -0.0962
 2994SOL    HW110595   2.521   6.913   1.980 -1.4317 -1.6366 -1.2853
 2994SOL    HW210596   2.669   6.884   1.979 -0.7439  1.2329  1.0521
 2995SOL     OW10597   9.811   7.789   6.591 -0.2931 -0.1633 -0.1916
 2995SOL    HW110598   9.892   7.834   6.616  0.5400 -0.6905 -1.7534
 2995SOL    HW210599   9.741   7.841   6.629  0.8010 -0.6474  2.6927
 2996SOL     OW10600   4.772   1.879   5.136 -0.2745 -0.4517 -0.2210
 2996SOL    HW110601   4.794   1.838   5.053 -0.0145 -1.4458  0.3317
 2996SOL    HW210602   4.853   1.879   5.186 -1.0574 -2.5758  1.1641
 2997SOL     OW10603   8.335   6.990   4.092 -0.2107 -0.1816  0.3843
 2997SOL    HW110604   8.350   6.922   4.158 -0.9967 -2.5404 -1.7089
 2997SOL    HW210605   8.240   7.003   4.091 -0.5834 -2.3241 -2.1306
 2998SOL     OW10606   8.215   2.809   7.730  0.5173  0.1870 -0.2260
 2998SOL    HW110607   8.311   2.812   7.733  0.4799  1.2813  2.2092
 2998SOL    HW210608   8.195   2.795   7.637  3.0011  1.0708 -0.9984
 2999SOL     OW10609   9.007   9.720   4.339 -0.9226  0.2130  0.0361
 2999SOL    HW110610   9.083   9.779   4.342 -0.8920  0.1459  1.0002
 2999SOL    HW210611   8.945   9.758   4.402 -1.1323 -0.4730  0.2469
 3000SOL     OW10612   2.551   4.752   4.294  0.0202  0.3469  0.3388
 3000SOL    HW110613   2.620   4.800   4.249 -0.0826 -0.2606 -0.5069
 3000SOL    HW210614   2.492   4.820   4.328  0.4152  0.8352  0.0618
 3001SOL     OW10615   9.789   0.479   3.912  0.5274 -0.0497  0.2530
 3001SOL    HW110616   9.788   0.444   3.823 -0.3194 -0.1460  0.2932
 3001SOL    HW210617   9.775   0.403   3.968  0.1472  0.1387  0.4160
 3002SOL     OW10618   9.784   5.663   8.075 -0.7026 -0.6294 -0.1679
 3002SOL    HW110619   9.810   5.738   8.021 -1.0172 -0.9037 -0.7023
 3002SOL    HW210620   9.862   5.607   8.077 -0.6145 -0.5070 -0.1364
 3003SOL     OW10621   0.294   1.228   5.601 -0.2279  0.6646  0.5818
 3003SOL    HW110622   0.234   1.207   5.530 -0.1938  0.4960  0.6016
 3003SOL    HW210623   0.283   1.322   5.616  0.1144  0.7989  0.0330
 3004SOL     OW10624   9.323   2.759   2.142 -0.2931 -0.5009  0.2833
 3004SOL    HW110625   9.249   2.737   2.199 -1.2604  0.3149 -0.6014
 3004SOL    HW210626   9.285   2.815   2.074  1.0863 -0.3301 -0.3893
 3005SOL     OW10627   1.832   9.199   9.352 -0.2647 -0.0731 -0.4883
 3005SOL    HW110628   1.919   9.192   9.391 -0.5310 -0.4245  0.0576
 3005SOL    HW210629   1.773   9.160   9.417 -0.9119  0.7580 -0.5626
 3006SOL     OW10630   4.349   7.002   4.491  0.2058 -0.0239  1.0766
 3006SOL    HW110631   4.383   6.987   4.403  1.7315  1.5376  1.3370
 3006SOL    HW210632   4.311   7.090   4.488 -0.6563 -0.3616  1.7267
 3007SOL     OW10633   5.879   6.493   8.365  0.1361  0.1897 -0.2161
 3007SOL    HW110634   5.870   6.588   8.370  2.7656  0.4449  1.1938
 3007SOL    HW210635   5.842   6.462   8.448  0.8731  0.1702  0.1140
 3008SOL     OW10636   5.124   1.163   0.062  0.1707 -0.2724  0.0687
 3008SOL    HW110637   5.105   1.076   0.026 -1.6634  0.1270 -0.0350
 3008SOL    HW210638   5.183   1.203  -0.001 -0.1082 -0.9316 -0.6287
 3009SOL     OW10639   2.420   5.355   0.160  0.3033 -0.5175 -0.3141
 3009SOL    HW110640   2.411   5.344   0.065  1.3153  0.7463 -0.5815
 3009SOL    HW210641   2.335   5.389   0.188 -0.0404 -1.0035 -0.7495
 3010SOL     OW10642   8.810   9.357   3.791 -0.0935 -0.7032  0.9958
 3010SOL    HW110643   8.734   9.320   3.746  0.7466 -0.8434 -0.3688
 3010SOL    HW210644   8.845   9.285   3.844  0.0912 -1.1565  0.2703
 3011SOL     OW10645   3.894   7.456   7.669 -0.3394 -0.4962  0.7052
 3011SOL    HW110646   3.799   7.470   7.665 -0.3625 -0.8843 -0.4006
 3011SOL    HW210647   3.913   7.401   7.593  1.0528  1.2429 -0.2932
 3012SOL     OW10648   6.866   6.031   1.042  0.0568  0.3118  0.1165
 3012SOL    HW110649   6.890   6.115   1.080 -0.8937  0.5376  0.2457
 3012SOL    HW210650   6.873   5.969   1.114  2.6377 -0.1224 -0.4020
 3013SOL     OW10651   8.532   7.652   9.696  0.3021  0.1109 -0.1311
 3013SOL    HW110652   8.444   7.637   9.731  1.0644  1.3641  2.6529
 3013SOL    HW210653   8.565   7.565   9.674 -0.9150 -0.5798  0.6741
 3014SOL     OW10654   3.270   7.140   7.717  0.3811 -0.3624  0.1612
 3014SOL    HW110655   3.350   7.088   7.722  1.1588  0.8349  0.6084
 3014SOL    HW210656   3.253   7.167   7.807 -1.6992 -2.2493  0.4187
 3015SOL     OW10657   2.640   0.389   8.355 -0.5066  0.6333  0.1271
 3015SOL    HW110658   2.662   0.332   8.281  2.9269  0.6210  1.0025
 3015SOL    HW210659   2.671   0.476   8.329  0.5004  0.6814  1.3690
 3016SOL     OW10660   3.863   4.241   5.863 -0.3265  0.1313  0.1758
 3016SOL    HW110661   3.807   4.164   5.852 -1.4778  0.9878 -0.1153
 3016SOL    HW210662   3.863   4.258   5.957 -2.8920  1.7504 -0.0072
 3017SOL     OW10663   8.036   7.228   0.752 -0.3410  0.3614  0.0869
 3017SOL    HW110664   8.010   7.300   0.693  0.4444  1.8321  1.4449
 3017SOL    HW210665   8.033   7.150   0.697  0.4358  1.6612 -1.9389
 3018SOL     OW10666   2.056   5.071   9.837 -0.2274  0.4466  0.3694
 3018SOL    HW110667   2.074   4.992   9.888  0.8274 -0.0557 -0.7196
 3018SOL    HW210668   2.048   5.040   9.747 -0.4555  1.5045  0.0100
 3019SOL     OW10669   4.945   0.960   1.106  0.4196 -0.1018  0.1486
 3019SOL    HW110670   4.900   1.033   1.148 -0.3197  0.0070 -0.8156
 3019SOL    HW210671   4.888   0.885   1.119  0.5250 -0.2182 -0.0515
 3020SOL     OW10672   8.501   1.463   2.396 -0.5799 -0.0913 -0.1870
 3020SOL    HW110673   8.538   1.403   2.331 -1.4022 -0.4253 -0.3608
 3020SOL    HW210674   8.468   1.405   2.465 -2.1930  0.0717 -0.7727
 3021SOL     OW10675   1.088   0.109   2.638  0.2907 -0.5425  0.1168
 3021SOL    HW110676   1.048   0.118   2.552 -0.4195 -1.4174  0.3438
 3021SOL    HW210677   1.178   0.080   2.621  0.0600 -1.0087 -0.3152
 3022SOL     OW10678   4.427   7.235   4.935  0.1402  0.1664 -0.7223
 3022SOL    HW110679   4.452   7.251   4.844 -1.4465 -0.8532 -1.3819
 3022SOL    HW210680   4.384   7.316   4.962  1.7317  0.9525 -0.4219
 3023SOL     OW10681   4.575   8.531   3.348 -0.3013 -0.2645 -0.2473
 3023SOL    HW110682   4.536   8.577   3.423  0.6857  1.7189 -0.8971
 3023SOL    HW210683   4.543   8.441   3.357 -1.6879  0.3319  1.5211
 3024SOL     OW10684   0.335   8.180   3.339  0.3518 -1.2787  0.2834
 3024SOL    HW110685   0.336   8.094   3.298 -1.1310 -0.3386 -1.8777
 3024SOL    HW210686   0.243   8.200   3.352  0.6439  0.2116  0.2377
 3025SOL     OW10687   0.716   5.317   8.135 -0.6050 -0.1533 -0.1338
 3025SOL    HW110688   0.695   5.394   8.083  1.0155 -0.9050 -2.0329
 3025SOL    HW210689   0.649   5.315   8.203 -1.5158  2.1171 -0.8643
 3026SOL     OW10690   6.190   0.200   1.536 -0.2146  0.2410  0.2781
 3026SOL    HW110691   6.243   0.268   1.579  1.8586 -0.5064 -0.9665
 3026SOL    HW210692   6.136   0.248   1.473  0.2957  0.8517  0.2970
 3027SOL     OW10693   7.541   1.727   6.655  0.0540 -0.0360  0.3736
 3027SOL    HW110694   7.533   1.666   6.729 -1.4783 -0.4919 -0.1485
 3027SOL    HW210695   7.468   1.788   6.665  0.0967  0.1787 -0.5124
 3028SOL     OW10696   2.562   5.636   7.314 -0.3804 -0.3276  0.6343
 3028SOL    HW110697   2.588   5.545   7.304  0.3981 -0.3352  2.3641
 3028SOL    HW210698   2.633   5.676   7.365 -0.5398  1.3401 -0.3450
 3029SOL     OW10699   4.853   0.026   6.904 -0.7751  0.4804  0.0408
 3029SOL    HW110700   4.867  -0.061   6.865 -0.2134  0.7261 -0.3275
 3029SOL    HW210701   4.833   0.083   6.830 -1.2568  0.6442  0.2956
 3030SOL     OW10702   0.983   6.778   9.568 -0.4302 -0.3884  0.0103
 3030SOL    HW110703   1.022   6.696   9.538 -0.8952 -1.0651  1.1866
 3030SOL    HW210704   0.905   6.788   9.514 -0.4344 -0.7856 -0.0625
 3031SOL     OW10705   5.235   6.939   9.531 -0.1235  0.4084  0.1261
 3031SOL    HW110706   5.262   6.895   9.612 -1.0004  0.3619  0.4033
 3031SOL    HW210707   5.210   6.869   9.472 -2.3502  0.4909  0.8613
 3032SOL     OW10708   6.319   4.217   8.390 -0.0103 -0.1381 -0.2990
 3032SOL    HW110709   6.333   4.140   8.336  0.9061  0.7877 -1.4269
 3032SOL    HW210710   6.389   4.215   8.455 -1.7784 -1.8818  1.7168
 3033SOL     OW10711   8.227   1.826   5.134  0.1562 -0.0138  0.3151
 3033SOL    HW110712   8.175   1.883   5.076  2.8000 -0.0460 -2.3762
 3033SOL    HW210713   8.173   1.749   5.146 -1.0369  0.5231 -1.1656
 3034SOL     OW10714   7.364   0.420   3.229  0.0524  0.5599  0.4175
 3034SOL    HW110715   7.376   0.399   3.322 -2.4943  1.2569  0.9794
 3034SOL    HW210716   7.429   0.366   3.184  0.8487 -0.3679  2.5323
 3035SOL     OW10717   4.217   4.551   3.984 -0.6797 -0.0512 -0.4481
 3035SOL    HW110718   4.147   4.616   3.990 -0.8180 -0.3083  2.3078
 3035SOL    HW210719   4.296   4.603   3.968 -1.2058  0.4544 -1.4817
 3036SOL     OW10720   0.271   7.913   1.146 -0.4053  0.2555  0.0800
 3036SOL    HW110721   0.363   7.918   1.170 -0.4618  0.7594  0.2060
 3036SOL    HW210722   0.243   7.827   1.176 -0.0414  0.2036  0.2788
 3037SOL     OW10723   9.206   1.922   5.794  0.5594  0.3213 -0.2662
 3037SOL    HW110724   9.211   1.997   5.735 -0.4509  0.4210 -0.2442
 3037SOL    HW210725   9.178   1.959   5.878 -0.5883 -0.1343 -0.4195
 3038SOL     OW10726   8.372   6.228   9.072  1.0382  0.5674  0.2924
 3038SOL    HW110727   8.350   6.162   9.006  0.7604 -0.3916  1.3105
 3038SOL    HW210728   8.466   6.243   9.060  1.0588  0.1490 -0.1108
 3039SOL     OW10729   8.225   6.265   5.991 -0.1624  0.0227  0.4915
 3039SOL    HW110730   8.132   6.267   6.014  0.4733  0.2380  3.4482
 3039SOL    HW210731   8.243   6.352   5.955 -1.1441 -0.1442 -0.4470
 3040SOL     OW10732   0.989   0.266   0.451 -0.8693  0.8395 -0.6068
 3040SOL    HW110733   0.950   0.276   0.538 -3.0418  0.5446 -1.4679
 3040SOL    HW210734   0.986   0.172   0.435 -0.0144  0.8439 -0.8131
 3041SOL     OW10735   7.678   4.511   4.488  0.5639 -0.3510  0.0431
 3041SOL    HW110736   7.718   4.433   4.525  0.3220 -1.2239 -1.4303
 3041SOL    HW210737   7.749   4.575   4.481  0.7725 -0.4434  1.2038
 3042SOL     OW10738   5.615   3.843   8.820  0.3485 -0.1971  0.2945
 3042SOL    HW110739   5.605   3.766   8.762 -2.0569 -0.9278  1.5491
 3042SOL    HW210740   5.526   3.870   8.839  1.1312  2.6184  0.4013
 3043SOL     OW10741   5.880   3.666   9.271  0.1457  1.0704 -0.6125
 3043SOL    HW110742   5.974   3.647   9.269 -0.0581 -0.1048 -2.8181
 3043SOL    HW210743   5.870   3.731   9.340  1.8115 -2.5208  3.5286
 3044SOL     OW10744   6.719   7.233   5.813 -0.6114 -0.3254  0.1409
 3044SOL    HW110745   6.682   7.145   5.803  0.1809 -0.5319 -1.1913
 3044SOL    HW210746   6.782   7.241   5.741 -0.4163  1.2078  0.4501
 3045SOL     OW10747   2.694   6.241   7.669 -0.4277  0.3361  0.3010
 3045SOL    HW110748   2.685   6.297   7.746 -0.9867  1.8595 -0.8181
 3045SOL    HW210749   2.612   6.193   7.665 -1.1675  1.6130 -0.3455
 3046SOL     OW10750   0.405   0.890   9.295 -0.5786 -0.5929  0.2147
 3046SOL    HW110751   0.491   0.893   9.253 -1.1385 -0.3877 -0.9340
 3046SOL    HW210752   0.364   0.973   9.272 -1.2638 -0.8750  0.4026
 3047SOL     OW10753   7.971   2.133   2.352 -0.0094 -0.3131 -0.1613
 3047SOL    HW110754   8.033   2.117   2.423  0.0491 -0.6907 -0.2976
 3047SOL    HW210755   7.932   2.048   2.334  1.5243 -0.6853 -2.0262
 3048SOL     OW10756   5.945   9.226   6.656  0.0539  0.3370  0.2702
 3048SOL    HW110757   5.931   9.213   6.750 -0.2779  0.8427  0.2965
 3048SOL    HW210758   5.966   9.319   6.647  2.8007 -0.2177  0.1402
 3049SOL     OW10759   1.999   6.136   2.074 -0.0720  0.2623  0.1936
 3049SOL    HW110760   1.999   6.099   1.986  0.7248 -1.2457  0.7834
 3049SOL    HW210761   1.953   6.219   2.065  1.3830  0.9336 -1.9682
 3050SOL     OW10762   3.089   6.236   2.225  0.1443 -0.8715  0.3731
 3050SOL    HW110763   2.996   6.234   2.202  0.3166 -1.8497 -0.2905
 3050SOL    HW210764   3.120   6.321   2.193 -0.3033 -0.9511 -0.2869
 3051SOL     OW10765   3.257   4.289   0.447  0.2422  0.4418  0.0276
 3051SOL    HW110766   3.311   4.302   0.369 -0.8452 -0.4227 -0.9046
 3051SOL    HW210767   3.315   4.244   0.508  0.9156  0.5361 -0.5230
 3052SOL     OW10768   7.181   2.327   5.263 -0.3108 -0.5880 -0.3374
 3052SOL    HW110769   7.238   2.383   5.317  1.6835 -0.0193 -2.8427
 3052SOL    HW210770   7.184   2.242   5.306  0.2940  0.0890  1.0471
 3053SOL     OW10771   5.602   5.148   6.940 -0.0106 -0.2400 -0.1109
 3053SOL    HW110772   5.643   5.076   6.988 -1.2510 -0.5505  0.5266
 3053SOL    HW210773   5.593   5.218   7.004  3.7213  1.6763 -1.3362
 3054SOL     OW10774   5.625   8.097   4.485  0.1070  0.0187 -0.3164
 3054SOL    HW110775   5.664   8.091   4.572  1.1544  1.6798 -0.6269
 3054SOL    HW210776   5.533   8.116   4.501  0.4358  1.0373  0.4421
 3055SOL     OW10777   9.792   2.566   3.151  0.3574  0.2283 -0.1846
 3055SOL    HW110778   9.746   2.484   3.139 -0.7716  0.9261 -0.8086
 3055SOL    HW210779   9.726   2.626   3.186  1.5780  0.4463  1.9324
 3056SOL     OW10780   7.035   2.685   2.815  0.1879  0.3265 -0.0091
 3056SOL    HW110781   7.043   2.670   2.909  0.7464 -0.3509 -0.1559
 3056SOL    HW210782   7.104   2.631   2.776  2.4739  3.3369 -0.5685
 3057SOL     OW10783   2.211   5.442   5.129 -0.2704 -0.1177 -0.3435
 3057SOL    HW110784   2.213   5.378   5.201 -1.0484 -0.8898 -0.9885
 3057SOL    HW210785   2.285   5.417   5.073 -0.4729 -0.3568 -0.5072
 3058SOL     OW10786   9.633   1.717   0.243 -0.6930 -0.1560  0.2082
 3058SOL    HW110787   9.696   1.787   0.258 -0.5717 -0.2821  0.2875
 3058SOL    HW210788   9.655   1.650   0.308 -0.9769 -0.1531  0.3102
 3059SOL     OW10789   8.128   2.764   7.475 -0.3798  0.1037  0.1378
 3059SOL    HW110790   8.082   2.692   7.431 -1.7008  1.2415 -0.4169
 3059SOL    HW210791   8.204   2.781   7.420 -0.2284 -0.6505  0.1035
 3060SOL     OW10792   5.722   4.393   7.912  0.7173 -0.5300 -0.1557
 3060SOL    HW110793   5.639   4.440   7.916 -0.8583 -3.2338  1.2994
 3060SOL    HW210794   5.741   4.370   8.002  0.6643 -3.7852 -0.8806
 3061SOL     OW10795   3.370   3.772   4.443  0.1637 -0.6054 -0.0323
 3061SOL    HW110796   3.452   3.753   4.398  0.2814  1.1291 -0.6147
 3061SOL    HW210797   3.385   3.742   4.533 -0.0389 -4.0267 -0.9935
 3062SOL     OW10798   0.269   0.100   3.998 -0.3601  0.1517 -0.0193
 3062SOL    HW110799   0.280   0.145   4.082  1.9000  1.2005 -0.8085
 3062SOL    HW210800   0.263   0.171   3.934 -2.0157 -0.6403 -0.8028
 3063SOL     OW10801   5.825   9.210   7.179 -0.0223 -0.1677 -0.4795
 3063SOL    HW110802   5.876   9.241   7.253 -0.2070  0.0373 -0.4372
 3063SOL    HW210803   5.761   9.150   7.217  0.4533 -0.7474 -0.5847
 3064SOL     OW10804   7.989   6.496   9.068  0.4433  0.1031 -0.3031
 3064SOL    HW110805   8.051   6.567   9.052 -2.1442  3.0007  1.5259
 3064SOL    HW210806   8.005   6.470   9.159  0.9348 -1.2927 -0.7601
 3065SOL     OW10807   2.090   7.835   2.783  0.2080 -0.2483 -0.1157
 3065SOL    HW110808   2.065   7.925   2.759  1.6858  0.1847 -0.1541
 3065SOL    HW210809   2.009   7.785   2.776 -0.2321  0.6317 -2.2550
 3066SOL     OW10810   9.172   7.264   9.235 -0.3253 -0.1735 -0.1427
 3066SOL    HW110811   9.096   7.265   9.293  0.7241  0.8642  1.2964
 3066SOL    HW210812   9.247   7.275   9.293  0.7576  1.4566 -1.7092
 3067SOL     OW10813   5.889   2.933   2.540  0.1905 -0.5302  0.1835
 3067SOL    HW110814   5.923   3.020   2.521  0.4104 -0.0786  2.3891
 3067SOL    HW210815   5.906   2.882   2.460  2.3395  0.7710 -0.2547
 3068SOL     OW10816   8.282   5.377   8.100 -0.1677  0.5579  0.1218
 3068SOL    HW110817   8.216   5.378   8.170 -0.9616 -0.3355 -0.5742
 3068SOL    HW210818   8.254   5.305   8.043  0.8847  0.7903 -0.7097
 3069SOL     OW10819   9.765   5.864   4.331 -0.3111  0.6701 -0.0855
 3069SOL    HW110820   9.698   5.919   4.290  0.2848  1.6058  0.1725
 3069SOL    HW210821   9.838   5.865   4.269 -0.3769 -0.0231 -0.1820
 3070SOL     OW10822   0.465   6.483   1.750 -0.5643  0.0323 -0.2165
 3070SOL    HW110823   0.452   6.530   1.668 -0.2749  0.4209 -0.0398
 3070SOL    HW210824   0.377   6.471   1.785 -0.7014 -0.2587 -0.6493
 3071SOL     OW10825   4.198   3.595   1.184 -0.3630  0.0254 -0.1722
 3071SOL    HW110826   4.287   3.629   1.177  0.6443 -2.5585 -1.3956
 3071SOL    HW210827   4.193   3.559   1.272 -0.1173  0.0052 -0.1654
 3072SOL     OW10828   0.314   6.081   5.547  0.3079  0.6025 -0.0564
 3072SOL    HW110829   0.357   6.013   5.599  0.0369  0.3228 -0.1951
 3072SOL    HW210830   0.385   6.137   5.516  0.7782 -0.9025 -1.8226
 3073SOL     OW10831   3.135   5.332   0.249  0.0646  0.5897  0.3112
 3073SOL    HW110832   3.134   5.330   0.153  0.5179 -0.2410  0.3111
 3073SOL    HW210833   3.227   5.346   0.272  0.3300 -1.3138  0.6133
 3074SOL     OW10834   0.824   1.714   4.996 -0.3411 -0.0963  0.0924
 3074SOL    HW110835   0.729   1.705   5.003 -0.3585  0.4725  0.7340
 3074SOL    HW210836   0.837   1.774   4.922 -0.5500  0.8536  0.7974
 3075SOL     OW10837   3.158   6.703   0.986 -0.0552  0.1573 -0.1468
 3075SOL    HW110838   3.168   6.704   0.891  1.0183  2.0541 -0.0518
 3075SOL    HW210839   3.130   6.792   1.009  1.0646  0.1491  1.4255
 3076SOL     OW10840   2.889   8.200   4.354  0.1681  0.1305 -0.1005
 3076SOL    HW110841   2.851   8.275   4.308  0.2708  0.4150  0.2772
 3076SOL    HW210842   2.933   8.150   4.285  0.6967  0.7871 -0.2511
 3077SOL     OW10843   3.165   1.385   2.214  0.0853  0.2399 -0.6400
 3077SOL    HW110844   3.190   1.458   2.270  0.9600  0.7114 -1.6135
 3077SOL    HW210845   3.140   1.426   2.131 -0.0429 -0.5206 -0.9835
 3078SOL     OW10846   8.406   0.204   0.348 -0.5485 -0.1714  0.3040
 3078SOL    HW110847   8.419   0.278   0.407  0.9597  1.1827 -1.5937
 3078SOL    HW210848   8.311   0.202   0.334 -0.5610  2.0615 -0.3195
 3079SOL     OW10849   9.514   0.552   1.435 -0.4874  0.1412 -0.1506
 3079SOL    HW110850   9.453   0.538   1.508  0.3780 -0.9216  0.3981
 3079SOL    HW210851   9.473   0.507   1.361 -0.9426  0.4666 -0.1021
 3080SOL     OW10852   3.798   2.168   2.683  0.4774 -0.4263  0.5486
 3080SOL    HW110853   3.757   2.181   2.769  1.2441  0.3651  0.8092
 3080SOL    HW210854   3.878   2.118   2.701 -0.0869 -1.5333  0.0999
 3081SOL     OW10855   2.727   9.465   1.309 -0.0657 -0.3040  0.0152
 3081SOL    HW110856   2.734   9.479   1.404  0.0529  0.6046 -0.1216
 3081SOL    HW210857   2.633   9.459   1.292 -0.2496  2.1504 -0.1486
 3082SOL     OW10858   3.827   2.816   7.808  0.1186 -0.1123 -0.1708
 3082SOL    HW110859   3.782   2.814   7.892 -0.8341  0.5512 -0.6457
 3082SOL    HW210860   3.905   2.870   7.824 -0.0290 -0.0357  0.3042
 3083SOL     OW10861   0.453   6.881   6.801  0.1228 -0.1274  0.3278
 3083SOL    HW110862   0.370   6.833   6.807  0.0016  0.1644  1.0157
 3083SOL    HW210863   0.436   6.948   6.735  0.2179 -0.8605 -0.4681
 3084SOL     OW10864   6.291   3.017   4.846  0.1665 -0.8247 -0.2106
 3084SOL    HW110865   6.202   2.986   4.832  0.5814 -1.4866 -1.5606
 3084SOL    HW210866   6.282   3.112   4.853 -0.5256 -0.7497 -1.6430
 3085SOL     OW10867   4.909   2.254   3.293  0.2908 -0.1614 -0.0572
 3085SOL    HW110868   4.923   2.177   3.348 -1.2223 -0.3740  0.0768
 3085SOL    HW210869   4.819   2.244   3.260  0.0949  1.4881 -0.1221
 3086SOL     OW10870   0.182   7.159   5.197  0.2300 -1.0327 -0.2939
 3086SOL    HW110871   0.176   7.253   5.214 -0.6525 -0.7165 -2.1193
 3086SOL    HW210872   0.248   7.152   5.128 -0.4283 -1.6343 -0.8765
 3087SOL     OW10873   6.274   0.266   4.053 -0.8521  0.0411  0.0508
 3087SOL    HW110874   6.290   0.352   4.014 -0.5538 -0.1043 -0.1501
 3087SOL    HW210875   6.347   0.251   4.112 -1.2992  0.2546  0.6684
 3088SOL     OW10876   9.312   7.157   2.724 -0.3411  0.4662  0.3171
 3088SOL    HW110877   9.351   7.092   2.782  0.6715  0.6123 -0.1847
 3088SOL    HW210878   9.368   7.158   2.646 -1.0914  1.0022 -0.2356
 3089SOL     OW10879   3.575   9.641   3.009 -0.2296 -0.6193  0.4100
 3089SOL    HW110880   3.629   9.699   2.956 -1.1387 -0.2235 -0.1010
 3089SOL    HW210881   3.553   9.692   3.086 -0.9255 -0.3204  0.0191
 3090SOL     OW10882   2.278   4.824   2.590 -0.9004 -0.1800  0.3538
 3090SOL    HW110883   2.285   4.805   2.497 -1.0196  0.5820  0.1844
 3090SOL    HW210884   2.284   4.919   2.596  2.6498 -0.3326  1.4402
 3091SOL     OW10885   8.573   0.365   8.132  0.2608  0.6410  0.1825
 3091SOL    HW110886   8.580   0.271   8.150 -0.8335  0.4899 -0.1241
 3091SOL    HW210887   8.581   0.407   8.218 -3.0525  0.0424  0.9078
 3092SOL     OW10888   5.492   2.769   1.779  0.0058  0.2117  0.0988
 3092SOL    HW110889   5.519   2.766   1.871  0.2553  0.0811  0.0181
 3092SOL    HW210890   5.457   2.682   1.761  1.2116 -0.1973 -0.3240
 3093SOL     OW10891   9.396   2.727   8.159  0.4421  0.4991 -0.5997
 3093SOL    HW110892   9.479   2.749   8.117  0.0797  1.1335 -0.9916
 3093SOL    HW210893   9.334   2.717   8.087 -0.2034  1.6643 -0.2386
 3094SOL     OW10894   6.893   2.041   9.354  1.4561 -0.0892  0.8880
 3094SOL    HW110895   6.828   2.109   9.337 -0.2642 -1.9519 -0.4191
 3094SOL    HW210896   6.882   2.020   9.447  2.1915  1.5399  1.3724
 3095SOL     OW10897   9.192   5.425   7.272  0.5499  0.0839  0.2464
 3095SOL    HW110898   9.241   5.344   7.256  0.4288  0.0129  0.2326
 3095SOL    HW210899   9.246   5.494   7.232  0.5089 -0.0271  0.0009
 3096SOL     OW10900   4.422   0.613   3.782 -0.1602  0.4536  0.2890
 3096SOL    HW110901   4.470   0.568   3.713 -0.3004 -0.8322  1.0046
 3096SOL    HW210902   4.488   0.668   3.825  0.6723 -1.1743  1.1649
 3097SOL     OW10903   9.019   1.439   4.473  0.3353 -0.1123 -0.5432
 3097SOL    HW110904   8.945   1.409   4.526 -0.0396  1.0285 -0.3907
 3097SOL    HW210905   9.010   1.391   4.391 -1.1873  0.7594 -0.9193
 3098SOL     OW10906   0.937   4.057   6.400  0.0940  0.1979  0.0911
 3098SOL    HW110907   1.007   3.993   6.415 -0.6572 -0.7872 -0.4928
 3098SOL    HW210908   0.894   4.066   6.485 -0.9463 -1.4946 -0.2103
 3099SOL     OW10909   1.212   4.293   8.735 -0.2282  0.3190 -0.2967
 3099SOL    HW110910   1.195   4.278   8.642  0.1702 -0.5484 -0.2379
 3099SOL    HW210911   1.253   4.212   8.765  0.7090  1.0230  0.3732
 3100SOL     OW10912   0.475   1.996   1.683  0.2077  0.2577 -0.0801
 3100SOL    HW110913   0.476   2.004   1.778  1.4202 -1.1810  0.0593
 3100SOL    HW210914   0.386   2.022   1.658 -0.7003 -1.0086  1.6160
 3101SOL     OW10915   9.118   1.062   8.913  0.3466 -0.2641 -0.1961
 3101SOL    HW110916   9.210   1.055   8.937  0.0839  0.9476  1.3238
 3101SOL    HW210917   9.118   1.064   8.817  1.8939 -0.2704 -0.2223
 3102SOL     OW10918   5.945   2.009   3.442 -0.1734  0.2026 -0.0745
 3102SOL    HW110919   5.971   2.101   3.441  1.2865 -0.1694 -0.2663
 3102SOL    HW210920   5.879   2.003   3.510 -0.2831  1.3939 -0.0513
 3103SOL     OW10921   0.189   5.561   4.268  0.3660  0.1349  0.1095
 3103SOL    HW110922   0.096   5.538   4.276  0.1203  0.8150 -0.6577
 3103SOL    HW210923   0.227   5.491   4.214  0.9502 -1.7121  2.7447
 3104SOL     OW10924   7.780   1.923   3.225 -0.3964  0.4829  0.0586
 3104SOL    HW110925   7.779   2.014   3.253  0.8409  0.2366  0.9990
 3104SOL    HW210926   7.809   1.926   3.134 -0.6646  1.0486 -0.0100
 3105SOL     OW10927   4.296   6.985   9.096 -0.0597  0.3624 -0.2709
 3105SOL    HW110928   4.262   7.028   9.175  1.3539  0.3107  0.3891
 3105SOL    HW210929   4.354   6.917   9.129 -0.6407 -0.6984 -1.3496
 3106SOL     OW10930   3.774   8.902   4.064 -0.6797  0.1729  0.1886
 3106SOL    HW110931   3.796   8.991   4.090  1.6394  0.6071 -2.7136
 3106SOL    HW210932   3.724   8.912   3.982 -2.5029 -1.1879  1.0581
 3107SOL     OW10933   3.821   0.259   9.595 -0.2745 -0.5950 -0.4988
 3107SOL    HW110934   3.732   0.237   9.569  0.1705  0.0423 -2.7247
 3107SOL    HW210935   3.856   0.310   9.523  1.3002  0.8211  1.1525
 3108SOL     OW10936   0.364   3.497   4.852  0.0820 -0.0285 -0.4709
 3108SOL    HW110937   0.279   3.467   4.821  0.9259 -0.6704 -2.2930
 3108SOL    HW210938   0.412   3.521   4.773  0.9748  2.1059  0.6228
 3109SOL     OW10939   2.212   1.349   2.609 -0.3384  0.3652  0.4418
 3109SOL    HW110940   2.216   1.288   2.682 -1.6812 -0.7744 -0.3937
 3109SOL    HW210941   2.303   1.373   2.592  0.2067 -1.2359  0.9480
 3110SOL     OW10942   4.448   1.319   3.227  0.2328 -0.9470  0.2073
 3110SOL    HW110943   4.509   1.245   3.220 -0.0934 -1.4903  2.2677
 3110SOL    HW210944   4.405   1.306   3.312  1.1288  2.3619  1.3162
 3111SOL     OW10945   9.440   0.232   4.480 -0.4115  0.0552  0.5253
 3111SOL    HW110946   9.527   0.264   4.457 -0.4076  0.6701  1.3619
 3111SOL    HW210947   9.441   0.228   4.576 -0.8283 -1.2841  0.4922
 3112SOL     OW10948   9.401   7.331   6.580 -0.2805  0.1421  0.1269
 3112SOL    HW110949   9.493   7.311   6.596  0.4069  0.5164 -2.7602
 3112SOL    HW210950   9.401   7.420   6.545 -1.2634 -0.8643 -2.7786
 3113SOL     OW10951   6.988   1.729   5.139 -0.7893  0.0556  0.7007
 3113SOL    HW110952   6.974   1.806   5.083 -1.2181  1.0937  2.1750
 3113SOL    HW210953   7.083   1.723   5.147 -0.5651 -1.4962 -1.9175
 3114SOL     OW10954   1.510   0.227   1.504  0.5482  0.1289  0.7627
 3114SOL    HW110955   1.543   0.140   1.527 -1.4090 -1.0223 -0.5044
 3114SOL    HW210956   1.566   0.255   1.432  0.0911 -0.9131 -0.0252
 3115SOL     OW10957   8.063   7.692   8.985  0.1205 -0.7610  0.1542
 3115SOL    HW110958   8.157   7.692   9.001  0.0697  0.0904  0.5017
 3115SOL    HW210959   8.023   7.696   9.072 -0.2092  0.3142 -0.0330
 3116SOL     OW10960   0.519   4.195   5.842 -0.0586 -0.6462 -0.1997
 3116SOL    HW110961   0.531   4.189   5.747  0.0593 -0.7419 -0.1796
 3116SOL    HW210962   0.467   4.274   5.855  2.3191  0.9889 -0.1366
 3117SOL     OW10963   4.813   7.463   5.234 -0.8767 -0.8154  0.5586
 3117SOL    HW110964   4.821   7.507   5.149 -0.7567 -1.8961 -0.0059
 3117SOL    HW210965   4.836   7.372   5.216 -0.0475 -0.8974  1.9238
 3118SOL     OW10966   2.831   3.573   0.386  0.5110 -0.4752  0.1241
 3118SOL    HW110967   2.876   3.514   0.446  1.6187  1.1939  1.0248
 3118SOL    HW210968   2.751   3.598   0.433  0.0532 -1.2127 -0.2480
 3119SOL     OW10969   1.545   1.902   6.451  0.2159 -0.1459  0.1390
 3119SOL    HW110970   1.640   1.909   6.459  0.0926  0.9071  0.7447
 3119SOL    HW210971   1.521   1.833   6.513  0.4509  0.4607  0.9176
 3120SOL     OW10972   5.938   7.947   1.613 -1.0124 -0.3435  0.4264
 3120SOL    HW110973   6.004   7.978   1.552 -1.4776 -0.6845 -0.2626
 3120SOL    HW210974   5.988   7.904   1.682 -0.5060 -0.3793  0.0439
 3121SOL     OW10975   8.774   1.162   6.309  0.1759  0.2511  0.4649
 3121SOL    HW110976   8.775   1.115   6.226  1.6661  0.4470  0.3347
 3121SOL    HW210977   8.806   1.098   6.373  1.3804  0.7805  0.4331
 3122SOL     OW10978   3.998   5.706   0.197  0.6211 -0.0374  0.4940
 3122SOL    HW110979   4.007   5.739   0.108  1.1777  1.6575  1.1438
 3122SOL    HW210980   3.932   5.763   0.237 -0.2511 -1.3082  0.9386
 3123SOL     OW10981   8.577   8.296   6.016  0.1738  0.2623 -0.2369
 3123SOL    HW110982   8.495   8.259   5.984  0.6165 -1.9134  0.9753
 3123SOL    HW210983   8.571   8.292   6.111  2.1285 -1.0650 -0.1117
 3124SOL     OW10984   7.206   8.400   7.516  0.0245 -0.1879  0.2730
 3124SOL    HW110985   7.162   8.467   7.567 -0.2784  0.2573 -0.5504
 3124SOL    HW210986   7.150   8.386   7.440 -0.3877 -2.0433  0.8547
 3125SOL     OW10987   7.380   8.463   6.086 -0.0576  0.3637  0.1417
 3125SOL    HW110988   7.414   8.493   6.002 -0.1866 -0.6338 -0.2784
 3125SOL    HW210989   7.450   8.408   6.122 -0.2572  0.2693  0.3889
 3126SOL     OW10990   4.607   6.509   4.537  0.5336  0.0253 -0.5392
 3126SOL    HW110991   4.573   6.467   4.616  1.6676 -0.2779 -0.2013
 3126SOL    HW210992   4.611   6.602   4.560  0.6247 -0.0289 -0.3362
 3127SOL     OW10993   2.375   0.656   7.299  0.1271 -0.2532  0.0383
 3127SOL    HW110994   2.329   0.710   7.235 -0.4340 -0.4430  0.2770
 3127SOL    HW210995   2.462   0.642   7.261  0.2362  0.7089 -0.0826
 3128SOL     OW10996   2.840   4.867   0.393  0.2756 -0.0106 -0.2650
 3128SOL    HW110997   2.748   4.866   0.366  0.6774 -0.3627 -1.7361
 3128SOL    HW210998   2.868   4.776   0.384  0.6351 -0.0033  0.7124
 3129SOL     OW10999   2.210   8.749   4.794 -0.4820  0.1154 -0.3172
 3129SOL    HW111000   2.303   8.768   4.783 -0.2306 -0.7805  0.2302
 3129SOL    HW211001   2.206   8.656   4.815 -1.1289  0.8533  3.6937
 3130SOL     OW11002   4.712   9.494   9.413 -0.3299  0.5268  0.1802
 3130SOL    HW111003   4.755   9.557   9.470  1.3266  0.9321 -1.4314
 3130SOL    HW211004   4.704   9.538   9.329 -1.4413 -0.5358 -0.3117
 3131SOL     OW11005   7.673   4.078   3.628  0.6966  0.3741  0.1803
 3131SOL    HW111006   7.630   4.100   3.545  1.1772  1.4487  0.2002
 3131SOL    HW211007   7.695   4.163   3.667  0.4178 -0.1096  1.4454
 3132SOL     OW11008   1.514   1.558   1.380  0.2056 -0.4029 -0.2203
 3132SOL    HW111009   1.439   1.512   1.342 -0.0199 -0.1364 -0.1040
 3132SOL    HW211010   1.477   1.609   1.452  0.2518  0.7758 -0.9822
 3133SOL     OW11011   2.489   5.938   5.594  0.1675 -0.0863  0.1775
 3133SOL    HW111012   2.484   6.018   5.543 -0.2951  0.4824  1.0851
 3133SOL    HW211013   2.457   5.869   5.535  0.7823  0.3492 -0.6796
 3134SOL     OW11014   6.506   8.159   7.437 -0.3226  0.0569  0.2178
 3134SOL    HW111015   6.476   8.120   7.519  1.0035 -1.5493 -0.0036
 3134SOL    HW211016   6.562   8.092   7.398  1.1068  1.7548 -0.7882
 3135SOL     OW11017   2.653   8.813   5.731  0.0403 -0.1853 -0.1287
 3135SOL    HW111018   2.627   8.796   5.641 -3.2742  1.2356  0.4062
 3135SOL    HW211019   2.660   8.727   5.772  0.9753 -0.8094 -1.5363
 3136SOL     OW11020   1.588   4.542   8.418  0.0318 -0.7083  0.0176
 3136SOL    HW111021   1.592   4.635   8.394  2.4762 -1.3491 -2.5558
 3136SOL    HW211022   1.634   4.536   8.501 -0.3005  0.3676  0.2997
 3137SOL     OW11023   4.308   2.028   7.568  0.5348 -0.5242 -0.1287
 3137SOL    HW111024   4.217   1.999   7.577  0.3137  0.0115 -0.5423
 3137SOL    HW211025   4.321   2.088   7.642  0.4932 -0.4535 -0.1791
 3138SOL     OW11026   4.308   5.221   1.881  0.4043  0.4421  0.0606
 3138SOL    HW111027   4.319   5.303   1.931 -0.6790  0.5292  0.1859
 3138SOL    HW211028   4.349   5.239   1.797 -0.6309  1.4673 -0.2601
 3139SOL     OW11029   8.457   2.751   2.858 -0.6941 -0.7711  0.0212
 3139SOL    HW111030   8.476   2.770   2.950  0.2377  0.6256 -0.4315
 3139SOL    HW211031   8.538   2.715   2.823 -1.0249 -1.2389 -0.2849
 3140SOL     OW11032   0.005   6.766   4.650 -0.2056  0.2282  0.3243
 3140SOL    HW111033  -0.017   6.802   4.736  1.9456  0.9502  0.6317
 3140SOL    HW211034   0.024   6.674   4.667 -0.9395  0.0840  0.3965
 3141SOL     OW11035   4.092   4.052   8.478  0.2942 -0.2085  0.2313
 3141SOL    HW111036   4.101   4.080   8.387  1.9475  0.0696  0.4603
 3141SOL    HW211037   4.137   4.119   8.529 -2.6437  0.9488  1.5237
 3142SOL     OW11038   0.352   8.769   9.389  0.0763  0.2635  0.3453
 3142SOL    HW111039   0.423   8.778   9.452  0.9813 -0.3131 -0.5504
 3142SOL    HW211040   0.275   8.750   9.441  0.5894  0.8522  1.3399
 3143SOL     OW11041   1.972   6.832   3.432  0.2383  0.4922 -0.0681
 3143SOL    HW111042   1.919   6.755   3.414  1.0170 -0.2353  0.6299
 3143SOL    HW211043   1.940   6.864   3.516  0.2442  0.6204 -0.1156
 3144SOL     OW11044   3.031   8.584   0.713  0.1915  0.5283  0.0323
 3144SOL    HW111045   3.105   8.624   0.666 -0.8063  0.4298 -1.6714
 3144SOL    HW211046   3.070   8.510   0.759  1.0922  0.1164 -1.3179
 3145SOL     OW11047   2.850   9.113   7.105 -0.2886  0.0247  0.3899
 3145SOL    HW111048   2.911   9.186   7.113  1.6876 -1.5075 -0.0257
 3145SOL    HW211049   2.840   9.079   7.194 -0.5234  0.2428  0.4495
 3146SOL     OW11050   6.761   6.833   5.376  0.4675  0.0092 -0.2011
 3146SOL    HW111051   6.769   6.770   5.305 -0.2109 -0.3492  0.0345
 3146SOL    HW211052   6.723   6.911   5.336 -0.2144 -0.3030 -0.1808
 3147SOL     OW11053   8.613   3.516   7.569 -0.4169 -0.3905  0.3975
 3147SOL    HW111054   8.533   3.478   7.532 -0.5768 -0.0645  0.4066
 3147SOL    HW211055   8.676   3.444   7.569 -0.0738 -0.1301 -1.4869
 3148SOL     OW11056   3.580   6.922   9.399 -0.0099 -0.2293  0.1022
 3148SOL    HW111057   3.610   6.857   9.336 -0.5387  0.5019 -0.9432
 3148SOL    HW211058   3.529   6.872   9.463  0.0764 -0.9232 -0.3557
 3149SOL     OW11059   6.975   1.437   3.071 -0.4983 -0.3151  0.3172
 3149SOL    HW111060   7.066   1.428   3.099 -0.8988 -1.4008  1.3754
 3149SOL    HW211061   6.924   1.426   3.151 -1.5380  1.7911  0.0132
 3150SOL     OW11062   3.750   9.751   5.539  0.3447 -0.2914  0.3464
 3150SOL    HW111063   3.812   9.736   5.611  0.9333 -0.1208 -0.1171
 3150SOL    HW211064   3.718   9.663   5.517  0.1648 -0.3449  0.8106
 3151SOL     OW11065   0.482   5.719   3.372 -0.2327  0.0944 -0.0049
 3151SOL    HW111066   0.487   5.800   3.321  3.5516 -0.1267 -0.2334
 3151SOL    HW211067   0.497   5.650   3.308  1.1117 -0.4227  0.8267
 3152SOL     OW11068   6.002   1.330   1.749  0.0754  0.5755  0.2894
 3152SOL    HW111069   5.999   1.282   1.832 -0.7564  1.8957  1.0610
 3152SOL    HW211070   6.072   1.394   1.762 -1.1542  1.8858  0.6253
 3153SOL     OW11071   3.192   0.875   2.127  0.4758  0.7253  0.2644
 3153SOL    HW111072   3.210   0.790   2.086  1.9486  0.6631  0.9801
 3153SOL    HW211073   3.138   0.855   2.203  1.0483  0.3717  0.5900
 3154SOL     OW11074   9.632   2.794   4.186  0.0933 -0.0774  0.0128
 3154SOL    HW111075   9.696   2.753   4.244  1.0752  0.9952 -0.2969
 3154SOL    HW211076   9.562   2.822   4.245 -1.5293 -3.6579  0.1035
 3155SOL     OW11077   1.446   1.521   7.687 -0.1323 -0.3918  0.3330
 3155SOL    HW111078   1.445   1.587   7.618  1.0098 -0.4555  0.2468
 3155SOL    HW211079   1.422   1.440   7.643 -0.0844 -0.3085  0.1532
 3156SOL     OW11080   1.979   2.606   5.824 -0.0850  0.4612  0.1608
 3156SOL    HW111081   2.012   2.678   5.771  2.2867 -0.4926  0.2203
 3156SOL    HW211082   1.902   2.642   5.869  0.3151  2.5532 -0.7254
 3157SOL     OW11083   2.483   8.128   5.219 -0.7585 -0.3226  0.5317
 3157SOL    HW111084   2.431   8.188   5.165  0.6765  0.8837  0.4330
 3157SOL    HW211085   2.539   8.082   5.156  0.2783  0.4412  0.8614
 3158SOL     OW11086   0.279   4.439   2.405 -0.8449  0.4107 -0.6311
 3158SOL    HW111087   0.330   4.438   2.487 -2.9282 -1.3321  0.7627
 3158SOL    HW211088   0.191   4.465   2.432 -1.7078 -0.6998 -2.2438
 3159SOL     OW11089   7.040   7.421   0.239 -0.4642  0.1402 -0.1303
 3159SOL    HW111090   7.097   7.419   0.316 -0.8847  1.8025  0.2745
 3159SOL    HW211091   6.957   7.456   0.272 -0.6218  0.9537 -1.3398
 3160SOL     OW11092   9.069   8.586   2.754  0.0182 -0.6215 -0.6158
 3160SOL    HW111093   9.115   8.534   2.820 -0.6607 -2.6858 -1.6895
 3160SOL    HW211094   9.131   8.591   2.680 -0.3750 -0.9333 -0.9689
 3161SOL     OW11095   0.475   6.312   8.141 -0.0907  0.2081 -0.2846
 3161SOL    HW111096   0.505   6.395   8.178  0.6860 -0.3699  0.4109
 3161SOL    HW211097   0.413   6.278   8.206  0.9075 -0.5761  0.2851
 3162SOL     OW11098   4.035   4.576   8.364  0.4730 -0.1887  0.4355
 3162SOL    HW111099   3.955   4.628   8.360  0.6184  0.1181  1.2652
 3162SOL    HW211100   4.009   4.494   8.406  0.4810 -0.3141  0.1967
 3163SOL     OW11101   3.743   4.702   4.004 -0.5874 -0.4003 -0.0908
 3163SOL    HW111102   3.708   4.672   3.919  0.0514 -1.1611 -0.1022
 3163SOL    HW211103   3.837   4.711   3.989 -0.4622 -0.5889  0.5507
 3164SOL     OW11104   3.477   7.487   0.698 -0.2991 -0.1881 -0.2704
 3164SOL    HW111105   3.518   7.418   0.646  0.3411 -0.8151  1.0253
 3164SOL    HW211106   3.548   7.547   0.718 -0.4694 -0.1206  0.1427
 3165SOL     OW11107   5.129   4.047   3.457  0.2226 -0.0670  0.2666
 3165SOL    HW111108   5.040   4.023   3.484  1.1009 -0.5194  3.0816
 3165SOL    HW211109   5.156   4.114   3.520  2.2200 -0.6192  0.0711
 3166SOL     OW11110   9.485   1.656   6.114  0.4620 -0.3684 -0.0755
 3166SOL    HW111111   9.513   1.739   6.152 -1.7354  1.0321 -1.2721
 3166SOL    HW211112   9.415   1.625   6.172 -0.9856  0.3624 -1.3519
 3167SOL     OW11113   6.657   3.545   9.349 -0.0800  0.1586  0.1306
 3167SOL    HW111114   6.582   3.605   9.349 -0.3595 -0.1774  1.1072
 3167SOL    HW211115   6.705   3.567   9.269 -2.0048 -0.6373 -1.3001
 3168SOL     OW11116   6.044   7.562   7.841 -0.0421  0.0031 -0.1628
 3168SOL    HW111117   6.122   7.617   7.831 -0.4486  0.8009  0.8614
 3168SOL    HW211118   6.062   7.510   7.920 -1.0670  1.1694  0.8944
 3169SOL     OW11119   6.216   3.644   2.784  0.0492  0.5152  0.1595
 3169SOL    HW111120   6.268   3.691   2.719 -0.0691 -1.0063 -1.1232
 3169SOL    HW211121   6.279   3.589   2.830 -0.1192  0.1719 -0.0101
 3170SOL     OW11122   9.051   3.631   0.533 -0.0859  0.6057 -0.1109
 3170SOL    HW111123   9.019   3.721   0.529 -2.2433  0.1810  3.3905
 3170SOL    HW211124   8.972   3.577   0.533  1.1497 -1.3596 -2.0812
 3171SOL     OW11125   4.635   5.142   0.046 -0.0988  0.3514 -0.0575
 3171SOL    HW111126   4.677   5.227   0.056 -2.7990  1.9463 -1.2477
 3171SOL    HW211127   4.572   5.138   0.117 -0.1988 -0.5416 -0.1851
 3172SOL     OW11128   7.522   9.441   4.211  0.4958  0.3448  0.3208
 3172SOL    HW111129   7.446   9.499   4.214  1.0147  1.0530  0.1292
 3172SOL    HW211130   7.487   9.354   4.228 -0.6822  0.3246 -1.8941
 3173SOL     OW11131   6.164   7.854   4.287 -0.1716  0.2244  0.8457
 3173SOL    HW111132   6.098   7.821   4.348  1.1644 -0.0603  2.1926
 3173SOL    HW211133   6.225   7.903   4.342 -0.1358  1.9042 -0.6083
 3174SOL     OW11134   2.877   9.133   6.721  0.7516 -0.3238  0.6793
 3174SOL    HW111135   2.948   9.163   6.666  1.8876 -0.5823  1.9451
 3174SOL    HW211136   2.799   9.176   6.686  1.7367  1.0813  0.1277
 3175SOL     OW11137   1.142   4.807   1.023  0.5390  0.1356 -0.1681
 3175SOL    HW111138   1.129   4.714   1.007 -0.9735  0.2754  0.0833
 3175SOL    HW211139   1.154   4.814   1.118  0.5059  0.2100 -0.1690
 3176SOL     OW11140   3.935   3.768   0.346 -0.1376 -0.0271 -0.3768
 3176SOL    HW111141   3.912   3.721   0.426 -1.0667  0.5960 -0.2659
 3176SOL    HW211142   3.954   3.857   0.376  1.2571 -0.2194 -0.6281
 3177SOL     OW11143   7.119   8.468   3.180  0.6748  0.2592 -0.0430
 3177SOL    HW111144   7.156   8.483   3.267  0.3815 -1.0863  0.3279
 3177SOL    HW211145   7.189   8.423   3.132  1.0386  1.4563 -0.7136
 3178SOL     OW11146   3.299   0.823   7.612 -0.1399 -0.5247  0.3223
 3178SOL    HW111147   3.374   0.864   7.656 -0.7263  0.1151  0.7333
 3178SOL    HW211148   3.279   0.881   7.539  0.3599 -1.2003 -0.3724
 3179SOL     OW11149   8.740   8.842   5.422 -0.0695  0.0523  0.4509
 3179SOL    HW111150   8.697   8.849   5.336 -0.7989 -1.2573  0.6803
 3179SOL    HW211151   8.825   8.883   5.409  0.8087 -2.1288 -1.6122
 3180SOL     OW11152   4.706   4.059   7.122  0.1998  0.2931  0.2257
 3180SOL    HW111153   4.694   3.972   7.160 -0.1935  0.1389 -0.2306
 3180SOL    HW211154   4.769   4.045   7.051 -1.2762 -0.0119 -1.0934
 3181SOL     OW11155   3.186   6.423   5.880  0.5069  0.0420 -0.1506
 3181SOL    HW111156   3.109   6.427   5.937  0.3402 -0.3637 -0.3444
 3181SOL    HW211157   3.155   6.454   5.795  0.5186 -0.2838 -0.2726
 3182SOL     OW11158   1.291   6.245   7.713 -0.4773  0.0216  0.2528
 3182SOL    HW111159   1.247   6.161   7.701 -0.6306  0.3521 -1.9841
 3182SOL    HW211160   1.384   6.225   7.710 -0.4999  0.0100 -1.5138
 3183SOL     OW11161   9.435   4.927   2.099 -0.2509 -0.0523  0.1398
 3183SOL    HW111162   9.444   5.014   2.061  0.3480 -0.5934 -1.0239
 3183SOL    HW211163   9.421   4.870   2.024 -1.4557 -0.8603  0.9565
 3184SOL     OW11164   7.844   8.111   5.860 -0.4487  0.6538  0.4267
 3184SOL    HW111165   7.773   8.054   5.831 -0.9591  0.7484  1.4693
 3184SOL    HW211166   7.806   8.199   5.861 -0.7124  0.5549  2.1569
 3185SOL     OW11167   2.318   7.890   2.622  0.3417  0.2876 -0.0527
 3185SOL    HW111168   2.252   7.845   2.675  0.7817 -1.0501 -0.5874
 3185SOL    HW211169   2.341   7.967   2.673 -0.3444 -0.1755  0.9946
 3186SOL     OW11170   8.054   2.478   4.767 -0.6066 -0.2521 -0.3170
 3186SOL    HW111171   8.007   2.476   4.851  0.7062  2.0641  0.5722
 3186SOL    HW211172   8.041   2.391   4.730 -0.9767 -1.4878  2.4522
 3187SOL     OW11173   2.409   8.653   4.491  0.2826  0.0505  0.4198
 3187SOL    HW111174   2.412   8.563   4.456  2.1308  0.3466 -0.3017
 3187SOL    HW211175   2.462   8.649   4.571  2.6959  0.9926 -1.0188
 3188SOL     OW11176   0.540   9.109   3.508 -0.1838  0.5716 -0.0358
 3188SOL    HW111177   0.461   9.154   3.478 -0.0940  1.1076  0.5139
 3188SOL    HW211178   0.548   9.135   3.600 -0.8437 -1.5528  0.6905
 3189SOL     OW11179   6.212   5.630   2.555  0.4085 -0.2596  0.2371
 3189SOL    HW111180   6.205   5.552   2.611  0.9829 -0.9097 -0.5797
 3189SOL    HW211181   6.126   5.671   2.562  0.1586 -0.8485  0.8444
 3190SOL     OW11182   1.167   5.198   9.509 -0.5402 -0.2742 -0.1416
 3190SOL    HW111183   1.093   5.232   9.458 -1.0529  0.0217  0.7832
 3190SOL    HW211184   1.148   5.105   9.520  0.5666 -0.8048 -2.1616
 3191SOL     OW11185   5.937   2.677   8.053 -0.0726 -0.6122 -0.2440
 3191SOL    HW111186   5.986   2.607   8.094 -0.3977 -0.5483  0.2690
 3191SOL    HW211187   6.003   2.740   8.025  0.5222 -2.4144 -3.3840
 3192SOL     OW11188   3.948   3.267   3.768  0.4887 -0.5784  0.0956
 3192SOL    HW111189   3.959   3.349   3.816 -0.9657  0.4763 -1.2543
 3192SOL    HW211190   3.864   3.232   3.799  1.4103 -1.9323  1.1425
 3193SOL     OW11191   2.380   1.958   3.632  0.0770 -0.0576 -0.3704
 3193SOL    HW111192   2.361   1.934   3.723 -0.1781  0.6600 -0.2312
 3193SOL    HW211193   2.346   1.885   3.581 -1.3368  0.3111  0.0041
 3194SOL     OW11194   9.075   8.530   1.901  0.3481  0.5097  0.3777
 3194SOL    HW111195   9.167   8.508   1.884  0.1017 -0.5840  0.4008
 3194SOL    HW211196   9.043   8.565   1.818  0.1920 -1.2004 -0.3056
 3195SOL     OW11197   4.997   1.389   2.632 -0.1861  0.1433 -0.1265
 3195SOL    HW111198   5.026   1.445   2.704  0.2022 -0.2931  0.0697
 3195SOL    HW211199   4.917   1.347   2.664 -1.3666  1.7340 -0.8605
 3196SOL     OW11200   2.825   7.212   8.856 -0.0103  0.0467  0.8075
 3196SOL    HW111201   2.764   7.283   8.838  0.4943  0.9442  2.4299
 3196SOL    HW211202   2.884   7.211   8.781 -0.9699  0.2942  0.0316
 3197SOL     OW11203   4.265   4.932   6.729  0.1582 -0.1005  0.1722
 3197SOL    HW111204   4.277   4.838   6.747  0.8602  0.1625  1.1166
 3197SOL    HW211205   4.184   4.935   6.678  0.6972 -1.3238 -0.8289
 3198SOL     OW11206   5.558   3.874   8.340 -0.0491 -0.5064  0.3626
 3198SOL    HW111207   5.549   3.785   8.307 -0.3385  0.5759 -2.7281
 3198SOL    HW211208   5.647   3.900   8.317 -0.3678  0.4254  0.1273
 3199SOL     OW11209   6.546   6.353   6.395 -0.1090 -0.1381  0.5696
 3199SOL    HW111210   6.537   6.292   6.322 -2.2920 -0.1130  0.7503
 3199SOL    HW211211   6.564   6.437   6.354 -0.9365 -0.1971  0.0505
 3200SOL     OW11212   1.179   8.526   1.145 -0.1528 -0.1657 -0.2499
 3200SOL    HW111213   1.234   8.473   1.088  0.4907 -2.2424  2.1083
 3200SOL    HW211214   1.240   8.579   1.196 -0.5565  0.0039  0.0641
 3201SOL     OW11215   8.077   1.374   7.822 -0.7558 -0.4306 -0.2421
 3201SOL    HW111216   7.992   1.388   7.780 -0.3657  1.6685 -0.4171
 3201SOL    HW211217   8.100   1.284   7.798 -2.6382 -0.8507 -0.6749
 3202SOL     OW11218   0.049   8.708   4.002  0.5797  0.5168 -0.1219
 3202SOL    HW111219   0.127   8.727   4.054 -1.4149  0.2022  3.2674
 3202SOL    HW211220  -0.022   8.752   4.048 -1.6846 -1.5223 -1.4086
 3203SOL     OW11221   3.140   4.158   6.707 -0.2930  0.2807 -0.2102
 3203SOL    HW111222   3.215   4.218   6.705 -0.3815  0.6066  2.4090
 3203SOL    HW211223   3.088   4.187   6.782 -2.4623 -0.6786 -1.2395
 3204SOL     OW11224   4.335   8.973   9.293  0.1619 -0.4143  0.4845
 3204SOL    HW111225   4.357   8.967   9.200 -0.3406  3.3023 -0.0530
 3204SOL    HW211226   4.354   8.886   9.329  0.9351 -1.8046 -2.9362
 3205SOL     OW11227   3.879   0.349   0.833  0.3481  0.2964 -0.5673
 3205SOL    HW111228   3.824   0.278   0.864  0.4095  0.7475  0.6168
 3205SOL    HW211229   3.923   0.314   0.755 -0.3385 -0.6231 -0.5485
 3206SOL     OW11230   9.605   9.664   8.879 -0.0244  0.1644 -0.1897
 3206SOL    HW111231   9.566   9.739   8.925  0.7440  0.1003  0.5853
 3206SOL    HW211232   9.648   9.613   8.947 -0.3023 -0.8507 -0.7545
 3207SOL     OW11233   1.418   2.829   4.192  0.1348  0.3527 -0.1612
 3207SOL    HW111234   1.421   2.841   4.097 -1.2895  0.8453 -0.1658
 3207SOL    HW211235   1.450   2.912   4.227  0.2993  0.3099 -0.2090
 3208SOL     OW11236   6.615   9.076   3.056 -0.4481 -0.3749  0.1341
 3208SOL    HW111237   6.683   9.010   3.069 -0.0029  0.0317 -0.1306
 3208SOL    HW211238   6.541   9.044   3.108 -0.8876 -2.0353 -1.3769
 3209SOL     OW11239   5.550   6.053   6.621 -0.1124 -0.1126  0.1251
 3209SOL    HW111240   5.537   6.147   6.619  0.8158  0.0363  0.5928
 3209SOL    HW211241   5.492   6.022   6.690 -1.2389 -0.0407 -0.7573
 3210SOL     OW11242   2.128   2.956   7.777 -0.0187  1.0972  0.0585
 3210SOL    HW111243   2.178   3.037   7.783  0.1029  0.9399  1.4036
 3210SOL    HW211244   2.191   2.890   7.748 -0.1470  1.4750 -1.1711
 3211SOL     OW11245   0.390   7.312   3.067  0.7391 -0.4198  0.0555
 3211SOL    HW111246   0.400   7.385   3.127  1.7313 -0.1444 -0.4232
 3211SOL    HW211247   0.466   7.256   3.084  0.0375 -1.3058  0.3603
 3212SOL     OW11248   8.701   7.727   7.486 -0.4013  0.1280  0.1106
 3212SOL    HW111249   8.784   7.680   7.478 -0.2564  0.1488  1.3433
 3212SOL    HW211250   8.675   7.744   7.395  0.5858 -0.4854 -0.3120
 3213SOL     OW11251   9.508   9.223   4.897  0.2058  0.2425 -0.0717
 3213SOL    HW111252   9.600   9.202   4.910  0.1486 -1.8691 -2.2830
 3213SOL    HW211253   9.509   9.308   4.852  1.0416  0.4540  0.3325
 3214SOL     OW11254   3.620   7.409   9.509 -0.1683 -0.0330 -0.0075
 3214SOL    HW111255   3.554   7.392   9.441  0.0517 -0.5076 -0.1087
 3214SOL    HW211256   3.608   7.337   9.571 -0.4167  0.4399  0.4936
 3215SOL     OW11257   3.444   5.386   1.372  0.8120  0.2359  0.0036
 3215SOL    HW111258   3.496   5.465   1.390  3.3100 -1.0392 -1.1373
 3215SOL    HW211259   3.477   5.321   1.434  1.1924 -0.8350 -1.2754
 3216SOL     OW11260   7.900   2.331   6.200 -0.3334 -0.7698  0.1260
 3216SOL    HW111261   7.865   2.307   6.114  1.4745 -1.8697 -0.3703
 3216SOL    HW211262   7.931   2.421   6.188 -0.2364 -0.8579 -0.3386
 3217SOL     OW11263   6.368   0.748   2.943  0.4332 -0.1552  0.2752
 3217SOL    HW111264   6.274   0.729   2.934  0.6702 -1.2454 -0.0200
 3217SOL    HW211265   6.385   0.734   3.036  0.8216 -2.6231 -0.0977
 3218SOL     OW11266   3.782   5.813   2.255  0.8559 -0.4859  0.0780
 3218SOL    HW111267   3.801   5.873   2.327  2.6431  1.6632 -1.9938
 3218SOL    HW211268   3.692   5.786   2.270  1.1657 -0.1873  3.0874
 3219SOL     OW11269   2.114   8.034   7.039 -0.2801  0.0941  0.5676
 3219SOL    HW111270   2.154   7.989   7.114  1.7534  2.2077  0.8621
 3219SOL    HW211271   2.168   8.009   6.964 -2.0005 -1.5980 -0.2091
 3220SOL     OW11272   5.259   5.524   7.460  0.6031  0.0758 -0.3971
 3220SOL    HW111273   5.195   5.594   7.447 -1.6473 -1.8726 -0.3648
 3220SOL    HW211274   5.220   5.447   7.419  3.0612 -1.1789 -0.5907
 3221SOL     OW11275   4.270   8.940   3.567 -0.3727  0.1969 -0.4555
 3221SOL    HW111276   4.305   9.002   3.631  1.0894 -2.7095  1.7837
 3221SOL    HW211277   4.347   8.909   3.520 -0.6618 -1.8516  0.3506
 3222SOL     OW11278   1.608   9.122   3.095 -0.1029 -0.2706  0.2180
 3222SOL    HW111279   1.567   9.198   3.054  0.1714 -1.3686 -2.2619
 3222SOL    HW211280   1.558   9.108   3.175 -1.7628  1.0254 -0.5334
 3223SOL     OW11281   9.208   3.893   2.637  0.0787  0.3742 -0.7822
 3223SOL    HW111282   9.146   3.897   2.564 -1.6796 -0.4147  0.5891
 3223SOL    HW211283   9.179   3.961   2.697  0.5814  0.0352 -0.1391
 3224SOL     OW11284   6.965   0.740   9.082  0.0518  0.0485  0.3982
 3224SOL    HW111285   6.968   0.652   9.046  2.4949 -0.6722  2.0239
 3224SOL    HW211286   6.971   0.798   9.006  0.8477 -1.2612 -0.5795
 3225SOL     OW11287   4.616   2.692   6.413 -0.1199 -0.2741  0.0385
 3225SOL    HW111288   4.548   2.637   6.451  0.8044 -0.7907  1.0331
 3225SOL    HW211289   4.569   2.763   6.370 -1.2757 -0.0246  1.6228
 3226SOL     OW11290   7.436   2.941   4.192  0.2443 -0.2928 -0.8159
 3226SOL    HW111291   7.437   2.920   4.286  1.9492  0.0522 -0.7339
 3226SOL    HW211292   7.447   2.856   4.149  2.3607 -0.1649 -0.6032
 3227SOL     OW11293   3.818   1.668   9.537  0.5795 -0.2235 -0.0359
 3227SOL    HW111294   3.884   1.602   9.561 -0.5312 -1.7443 -0.9932
 3227SOL    HW211295   3.750   1.618   9.493 -0.5396  1.5345 -0.3669
 3228SOL     OW11296   5.717   7.821   4.505  0.0398 -0.3298 -0.5770
 3228SOL    HW111297   5.693   7.908   4.474  0.3564 -0.4918 -1.3067
 3228SOL    HW211298   5.642   7.791   4.555  0.2406  0.6891  0.3835
 3229SOL     OW11299   1.239   9.558   6.223 -0.0060 -0.3169  0.5000
 3229SOL    HW111300   1.226   9.514   6.307  0.0137  3.2146  2.5595
 3229SOL    HW211301   1.333   9.576   6.220 -0.3143  1.5692  0.9243
 3230SOL     OW11302   2.570   0.196   1.103  0.1179 -0.1262  0.5481
 3230SOL    HW111303   2.591   0.114   1.059 -0.2573 -1.6505  2.9986
 3230SOL    HW211304   2.483   0.182   1.140 -1.0638  2.3533 -1.0363
 3231SOL     OW11305   5.498   5.418   9.698 -0.5537 -0.2479 -0.6433
 3231SOL    HW111306   5.574   5.389   9.646 -0.1478 -0.3468 -0.0052
 3231SOL    HW211307   5.487   5.510   9.675 -0.4354 -0.3117 -0.9701
 3232SOL     OW11308   7.561   7.008   7.056 -0.0575  0.5528  0.1138
 3232SOL    HW111309   7.540   6.972   7.142 -0.1596  1.8685  0.6621
 3232SOL    HW211310   7.656   7.004   7.051 -0.0858 -0.1072  0.0152
 3233SOL     OW11311   2.980   1.687   0.410 -0.3211 -0.1554  0.1048
 3233SOL    HW111312   2.963   1.744   0.335 -2.6172 -0.3538  0.4120
 3233SOL    HW211313   2.895   1.650   0.432  0.1914  0.1860  3.0546
 3234SOL     OW11314   5.560   1.375   3.444  0.3909  0.2920 -0.6164
 3234SOL    HW111315   5.574   1.378   3.538 -2.5328  0.3821 -0.1062
 3234SOL    HW211316   5.644   1.404   3.407  2.2712 -1.5652  1.8117
 3235SOL     OW11317   6.900   5.996   9.072  0.0833 -0.0543 -0.2224
 3235SOL    HW111318   6.805   5.994   9.085 -0.1545 -1.1230 -1.8410
 3235SOL    HW211319   6.937   5.960   9.152 -0.9512 -0.8396 -0.0831
 3236SOL     OW11320   7.748   8.550   8.006 -0.7327  0.0196 -0.1298
 3236SOL    HW111321   7.725   8.630   8.054 -2.7781  0.5482 -1.8145
 3236SOL    HW211322   7.674   8.536   7.946  1.5781 -0.6190 -3.0615
 3237SOL     OW11323   3.586   6.324   5.833  0.4898  0.1679  0.4588
 3237SOL    HW111324   3.498   6.288   5.846  0.4565  0.2192  0.3726
 3237SOL    HW211325   3.574   6.397   5.773  1.0425 -2.0543 -2.6270
 3238SOL     OW11326   5.731   2.863   4.145 -0.1035 -0.6436 -0.2908
 3238SOL    HW111327   5.744   2.891   4.055  1.4624  0.4826  0.2257
 3238SOL    HW211328   5.641   2.887   4.166 -0.0474  0.3585 -1.1339
 3239SOL     OW11329   3.108   3.634   3.192 -0.2687  0.6435 -0.3237
 3239SOL    HW111330   3.064   3.571   3.250  0.0764  2.0043  1.5268
 3239SOL    HW211331   3.179   3.584   3.152  0.5443 -0.0137  1.7850
 3240SOL     OW11332   7.782   3.479   8.831  0.0386 -1.2217  0.2284
 3240SOL    HW111333   7.831   3.462   8.912  2.3143 -1.4198 -1.1151
 3240SOL    HW211334   7.829   3.550   8.788 -0.3329 -1.9906 -1.5418
 3241SOL     OW11335   6.302   3.611   5.099 -0.2326 -0.3043 -0.1263
 3241SOL    HW111336   6.373   3.550   5.121  1.2115  1.1793 -0.4588
 3241SOL    HW211337   6.271   3.643   5.183  1.0360  0.6820  0.0004
 3242SOL     OW11338   6.047   1.869   7.786 -0.1573 -0.2508 -0.5253
 3242SOL    HW111339   6.089   1.855   7.701  2.5238 -0.0416  0.6551
 3242SOL    HW211340   6.034   1.964   7.791 -0.4260 -0.2759 -0.7610
 3243SOL     OW11341   7.636   9.234   3.848  0.1372  0.2077  0.6784
 3243SOL    HW111342   7.653   9.227   3.754 -2.5513 -3.1556  0.2326
 3243SOL    HW211343   7.545   9.264   3.853  0.4699  1.0538  2.2742
 3244SOL     OW11344   3.709   3.038   6.803 -0.3944 -0.1827 -0.4225
 3244SOL    HW111345   3.730   3.131   6.797 -0.7043 -0.1360 -0.8527
 3244SOL    HW211346   3.792   2.993   6.788 -0.0416  0.0299  0.8074
 3245SOL     OW11347   2.140   0.193   8.244  0.0001 -0.0695  0.3064
 3245SOL    HW111348   2.159   0.157   8.331  0.3324 -0.7789 -0.0555
 3245SOL    HW211349   2.216   0.247   8.224  0.8415 -1.4308 -0.3472
 3246SOL     OW11350   0.203   9.023   8.666  0.8470  0.0469  0.3300
 3246SOL    HW111351   0.282   9.074   8.686  0.4289  1.1894 -0.7356
 3246SOL    HW211352   0.157   9.076   8.600 -1.7643  0.3497  2.2503
 3247SOL     OW11353   4.971   3.565   9.410 -0.8087  0.2056 -0.9439
 3247SOL    HW111354   4.891   3.562   9.463 -1.3192 -0.7478 -1.7272
 3247SOL    HW211355   5.038   3.598   9.469 -1.7100  0.7320 -0.1772
 3248SOL     OW11356   5.089   2.414   1.724  0.5796  0.3865 -0.3166
 3248SOL    HW111357   5.013   2.400   1.667 -0.1578  4.3264 -0.5626
 3248SOL    HW211358   5.164   2.415   1.664  0.7741 -2.0114 -0.2435
 3249SOL     OW11359   8.235   3.328   4.619  0.0947 -0.4440  0.1497
 3249SOL    HW111360   8.247   3.242   4.660  0.9213 -0.9954 -1.1518
 3249SOL    HW211361   8.324   3.357   4.598 -0.2278  0.3444 -0.1605
 3250SOL     OW11362   3.018   6.162   4.847 -0.1164 -0.0489  0.1570
 3250SOL    HW111363   3.097   6.197   4.888  0.1765 -1.9553  1.3418
 3250SOL    HW211364   2.947   6.188   4.907 -0.3571  1.2009 -0.6298
 3251SOL     OW11365   8.527   7.081   8.303  0.8676  0.5261  0.5424
 3251SOL    HW111366   8.445   7.127   8.320  2.0428  2.2249  1.9222
 3251SOL    HW211367   8.582   7.144   8.256  1.1785 -0.8423 -1.0701
 3252SOL     OW11368   8.368   6.451   8.072 -0.7045  0.2407 -0.1966
 3252SOL    HW111369   8.438   6.511   8.097 -0.1380 -0.9242  1.2159
 3252SOL    HW211370   8.289   6.486   8.114 -0.5816  0.5357 -0.2146
 3253SOL     OW11371   6.751   7.683   4.116  0.0275  0.1269  0.2676
 3253SOL    HW111372   6.694   7.613   4.087 -0.3830  0.2646  0.7372
 3253SOL    HW211373   6.806   7.702   4.040  0.1196 -0.6729  0.1228
 3254SOL     OW11374   0.392   9.538   1.819 -0.0867  0.2108 -0.5434
 3254SOL    HW111375   0.453   9.477   1.860 -1.6336 -1.2971 -0.3925
 3254SOL    HW211376   0.416   9.624   1.856  1.1201 -0.5174  0.4452
 3255SOL     OW11377   6.921   7.642   6.326 -0.9450 -0.4284 -0.0235
 3255SOL    HW111378   6.917   7.680   6.238  0.1333 -0.3648 -0.0656
 3255SOL    HW211379   6.922   7.548   6.311  0.4602 -0.4170 -0.1817
 3256SOL     OW11380   0.176   9.223   7.033  0.0962 -0.0854 -0.0939
 3256SOL    HW111381   0.081   9.235   7.028  0.1876  0.5291 -0.4764
 3256SOL    HW211382   0.212   9.311   7.023  0.7063 -0.3010  0.1464
 3257SOL     OW11383   0.314   9.800   8.117 -0.0564  0.0966  0.0246
 3257SOL    HW111384   0.290   9.747   8.042  0.3060 -0.3527  0.2236
 3257SOL    HW211385   0.352   9.879   8.079 -0.3988  0.1227 -0.2676
 3258SOL     OW11386   3.910   3.030   5.033  0.4320 -0.0653  0.5287
 3258SOL    HW111387   3.860   2.949   5.027 -1.1484  0.9450 -0.8732
 3258SOL    HW211388   3.980   3.020   4.969 -0.5375  0.1527 -0.5982
 3259SOL     OW11389   7.818   8.638   0.836 -0.1155 -0.2082  0.2459
 3259SOL    HW111390   7.750   8.688   0.792 -2.3423 -1.7422  1.7138
 3259SOL    HW211391   7.820   8.674   0.925  0.6127 -0.5627  0.3827
 3260SOL     OW11392   9.391   9.008   8.711 -0.4117 -0.4400  0.0964
 3260SOL    HW111393   9.385   9.047   8.799 -1.2103  0.9704 -0.5539
 3260SOL    HW211394   9.474   8.959   8.713 -0.4503 -0.5051  1.6510
 3261SOL     OW11395   0.371   8.907   6.611 -0.0613 -0.1321 -0.6873
 3261SOL    HW111396   0.312   8.959   6.556  1.1641  1.9912 -0.0968
 3261SOL    HW211397   0.415   8.971   6.666  0.7289 -1.9454  0.8949
 3262SOL     OW11398   4.990   6.984   8.835  0.3908  0.2244 -0.2629
 3262SOL    HW111399   5.070   6.982   8.888  1.1570 -0.3320 -1.4202
 3262SOL    HW211400   5.020   6.991   8.745 -0.8335 -0.9003 -0.7955
 3263SOL     OW11401   4.661   4.992   6.793  0.1693  0.5540  0.0333
 3263SOL    HW111402   4.618   4.959   6.714  2.6916 -0.6507 -0.9481
 3263SOL    HW211403   4.737   5.041   6.760  0.0698  1.8683  1.6785
 3264SOL     OW11404   9.155   5.733   0.990 -0.5873 -0.4679 -0.1764
 3264SOL    HW111405   9.173   5.669   1.059 -0.8034  0.7413  1.0491
 3264SOL    HW211406   9.161   5.817   1.034 -0.8080  0.3452 -1.6419
 3265SOL     OW11407   2.126   8.024   0.165  0.0439  0.5126  0.0027
 3265SOL    HW111408   2.098   7.970   0.239  2.0070 -0.1586  0.3417
 3265SOL    HW211409   2.128   8.113   0.200  1.2061  0.1710  0.9087
 3266SOL     OW11410   0.938   2.222   2.640 -0.0181  0.2569  0.3217
 3266SOL    HW111411   0.942   2.244   2.547  0.4693  0.7309  0.4486
 3266SOL    HW211412   0.850   2.248   2.667  0.6829  2.5439  0.5716
 3267SOL     OW11413   5.257   9.511   4.632 -0.7796  0.2874  0.2520
 3267SOL    HW111414   5.241   9.603   4.653 -1.0010  0.3960 -0.3537
 3267SOL    HW211415   5.349   9.508   4.607 -0.5724  0.1973  0.9998
 3268SOL     OW11416   2.920   3.097   2.607 -0.3360  0.6896 -0.2730
 3268SOL    HW111417   2.960   3.163   2.663  2.0225 -1.5629  0.9312
 3268SOL    HW211418   2.884   3.033   2.668 -1.2890  0.1334 -1.3861
 3269SOL     OW11419   2.558   9.419   2.537 -0.4355 -0.5403  0.3195
 3269SOL    HW111420   2.540   9.512   2.548 -1.2588 -0.6690  0.1026
 3269SOL    HW211421   2.654   9.412   2.541 -0.3084  0.4415 -0.6166
 3270SOL     OW11422   7.638   0.938   6.362 -0.4036 -0.4488 -0.7972
 3270SOL    HW111423   7.730   0.966   6.360 -1.2073  2.4968 -1.2963
 3270SOL    HW211424   7.640   0.852   6.405  2.4008  0.2696  0.7563
 3271SOL     OW11425   5.438   0.021   7.962 -0.3666 -0.0613 -0.3409
 3271SOL    HW111426   5.373   0.037   8.030  0.1250  0.5870 -0.0076
 3271SOL    HW211427   5.509  -0.026   8.007  0.0812  0.6077 -0.3290
 3272SOL     OW11428   9.733   2.325   6.190 -0.3761 -0.0231  0.1293
 3272SOL    HW111429   9.742   2.418   6.211  0.9863 -0.0392 -0.2842
 3272SOL    HW211430   9.646   2.318   6.151 -0.2145  1.2255 -0.5118
 3273SOL     OW11431   5.311   3.619   7.038  0.5316  0.0247 -0.2925
 3273SOL    HW111432   5.254   3.675   7.091 -0.0534  0.1965 -1.0905
 3273SOL    HW211433   5.299   3.650   6.948 -0.2042 -1.7198 -0.8341
 3274SOL     OW11434   1.196   6.563   5.402 -0.7828 -0.0999  0.5955
 3274SOL    HW111435   1.128   6.586   5.339 -1.0428  1.4251  1.3812
 3274SOL    HW211436   1.177   6.473   5.426 -2.1673  0.0965  0.3248
 3275SOL     OW11437   1.549   1.618   2.387  0.1842  0.4616  0.7813
 3275SOL    HW111438   1.552   1.656   2.475 -0.5109  1.9753  0.1798
 3275SOL    HW211439   1.456   1.603   2.371  0.4226 -1.5547  0.9834
 3276SOL     OW11440   5.436   7.028   4.087 -0.1635 -0.4421  0.1868
 3276SOL    HW111441   5.490   7.044   4.164 -0.4563  0.2543  0.2542
 3276SOL    HW211442   5.491   6.974   4.030  0.2789 -0.4589  0.6227
 3277SOL     OW11443   4.427   4.803   0.806  0.2409 -0.3325 -0.2927
 3277SOL    HW111444   4.424   4.724   0.859 -2.6932 -0.3173 -0.2761
 3277SOL    HW211445   4.356   4.858   0.841 -0.0361  0.8131 -2.4892
 3278SOL     OW11446   1.706   3.165   7.382  0.4673 -0.3026  0.2661
 3278SOL    HW111447   1.780   3.115   7.417  1.4390  0.5960 -0.4255
 3278SOL    HW211448   1.678   3.220   7.455  0.1062 -1.0369  0.6963
 3279SOL     OW11449   2.131   2.118   2.157 -0.4229  0.0695  0.4377
 3279SOL    HW111450   2.210   2.128   2.209 -0.5082  0.1771  0.5468
 3279SOL    HW211451   2.156   2.146   2.069 -0.6046  1.0674  0.6898
 3280SOL     OW11452   7.888   8.111   4.608 -0.4824 -0.1935  0.0148
 3280SOL    HW111453   7.924   8.105   4.696 -1.6671  0.2176  0.5456
 3280SOL    HW211454   7.847   8.025   4.593  0.6788 -0.6603 -0.5859
 3281SOL     OW11455   1.822   7.061   0.945 -0.5896 -0.8703  0.1567
 3281SOL    HW111456   1.804   7.102   1.029  2.4718  0.3604  0.3389
 3281SOL    HW211457   1.792   6.971   0.955 -0.5555 -0.6740  2.4794
 3282SOL     OW11458   5.783   7.831   1.407  0.0184 -0.4559 -0.3749
 3282SOL    HW111459   5.846   7.762   1.387 -0.0636 -0.6526  0.0464
 3282SOL    HW211460   5.821   7.878   1.481 -0.5344 -0.8462  0.1643
 3283SOL     OW11461   9.544   1.488   9.630  0.0717  0.2182 -0.3836
 3283SOL    HW111462   9.541   1.524   9.719 -0.2095 -0.0753 -0.2739
 3283SOL    HW211463   9.604   1.413   9.637 -1.1529 -0.7660 -0.0859
 3284SOL     OW11464   7.426   7.310   9.640 -0.3179 -0.4788 -0.3674
 3284SOL    HW111465   7.498   7.373   9.643 -0.3397 -0.4922  1.5583
 3284SOL    HW211466   7.419   7.277   9.729 -1.7501 -1.5926 -0.8510
 3285SOL     OW11467   2.956   2.820   6.955  0.2382  0.2129 -0.6165
 3285SOL    HW111468   2.905   2.892   6.991  2.3687  1.5341 -0.0775
 3285SOL    HW211469   3.041   2.826   6.998  0.1934 -3.3760  0.3513
 3286SOL     OW11470   5.414   9.728   7.097 -0.3728  0.1657 -0.4797
 3286SOL    HW111471   5.433   9.644   7.055 -1.6245  0.0783 -0.9449
 3286SOL    HW211472   5.479   9.788   7.062  1.7946 -0.9737  1.3193
 3287SOL     OW11473   3.735   0.548   4.139 -0.1360  0.0460 -0.0144
 3287SOL    HW111474   3.743   0.467   4.189  1.6991 -0.3048 -0.8039
 3287SOL    HW211475   3.815   0.552   4.086 -0.3320  2.2114 -0.2448
 3288SOL     OW11476   8.627   9.332   4.239 -0.3355  0.2910  0.2055
 3288SOL    HW111477   8.559   9.354   4.303 -1.9855 -0.2599 -1.2666
 3288SOL    HW211478   8.674   9.414   4.225 -0.7520  0.7206  1.1808
 3289SOL     OW11479   1.703   8.470   6.723 -0.1183  0.4650  0.0674
 3289SOL    HW111480   1.614   8.452   6.694  0.5453 -1.3331 -0.9860
 3289SOL    HW211481   1.713   8.421   6.805  0.4196 -0.7971 -0.7231
 3290SOL     OW11482   2.802   0.303   6.288  0.0547  0.1882  0.1112
 3290SOL    HW111483   2.818   0.209   6.280  0.6207  0.1232  1.6346
 3290SOL    HW211484   2.838   0.341   6.208  2.4675 -0.6101  0.7300
 3291SOL     OW11485   9.491   1.107   5.217  0.2188  0.0113  0.0891
 3291SOL    HW111486   9.518   1.066   5.299 -1.2624 -0.2081  0.5002
 3291SOL    HW211487   9.517   1.045   5.149  0.8068 -0.1426  0.4548
 3292SOL     OW11488   3.362   7.703   0.281 -0.2247  0.3077  0.1663
 3292SOL    HW111489   3.267   7.707   0.285 -0.1817  0.5545  1.8033
 3292SOL    HW211490   3.392   7.780   0.331  0.8321  0.3768 -0.5347
 3293SOL     OW11491   6.365   3.305   9.462 -0.4408  0.2340 -1.0672
 3293SOL    HW111492   6.365   3.389   9.509  0.6215 -1.3413  2.0012
 3293SOL    HW211493   6.457   3.278   9.463 -1.1828 -2.5913  1.2662
 3294SOL     OW11494   0.852   6.472   4.308 -0.3777 -0.6904  0.3262
 3294SOL    HW111495   0.890   6.547   4.354  2.2808 -1.5037 -0.3503
 3294SOL    HW211496   0.763   6.500   4.286  0.4338  2.1705  0.2768
 3295SOL     OW11497   1.940   9.203   3.198 -0.2503 -0.0589 -0.0446
 3295SOL    HW111498   1.886   9.200   3.119 -0.6594 -0.1308  0.2325
 3295SOL    HW211499   1.930   9.116   3.237 -0.7762  0.2602  0.5560
 3296SOL     OW11500   6.398   9.813   1.017  0.3144 -0.3756 -0.3672
 3296SOL    HW111501   6.326   9.856   1.064 -0.0937 -0.1055 -1.2171
 3296SOL    HW211502   6.355   9.757   0.953  0.8580 -0.4714 -0.6569
 3297SOL     OW11503   5.575   3.759   1.974 -0.0073 -0.2652  0.3454
 3297SOL    HW111504   5.483   3.750   1.950  0.1023  1.4303 -0.9131
 3297SOL    HW211505   5.574   3.802   2.059 -0.3863 -0.5874  0.5032
 3298SOL     OW11506   1.812   7.876   8.330  0.1790  0.0599 -0.2071
 3298SOL    HW111507   1.855   7.961   8.322 -0.7710  0.6493  0.6307
 3298SOL    HW211508   1.883   7.812   8.328  1.0952  0.9895  1.0247
 3299SOL     OW11509   6.777   0.105   2.650 -0.4978 -0.8526 -1.1993
 3299SOL    HW111510   6.838   0.101   2.576  0.3371 -2.4422 -0.4805
 3299SOL    HW211511   6.781   0.195   2.680  2.8285 -1.2352 -0.1474
 3300SOL     OW11512   7.668   3.894   2.786  0.2792  0.1028  0.3297
 3300SOL    HW111513   7.720   3.908   2.707  1.7627 -1.8056  0.9097
 3300SOL    HW211514   7.716   3.941   2.854  1.2159 -1.5170  0.8302
 3301SOL     OW11515   3.914   0.761   4.467 -0.1425  0.6729 -0.3549
 3301SOL    HW111516   3.914   0.819   4.543  1.5649  0.9676 -0.5496
 3301SOL    HW211517   3.959   0.682   4.497  1.2955  1.1161 -1.2602
 3302SOL     OW11518   1.201   8.839   8.845  0.0626 -0.1301 -0.2543
 3302SOL    HW111519   1.281   8.850   8.895 -0.5600  1.8359  0.3958
 3302SOL    HW211520   1.176   8.747   8.859 -0.4876  0.4554  3.7340
 3303SOL     OW11521   0.363   5.486   7.019 -0.7072 -0.5712 -0.3732
 3303SOL    HW111522   0.397   5.574   7.034 -1.8936 -0.3480  1.3389
 3303SOL    HW211523   0.345   5.482   6.926  0.6779  0.4986 -0.7181
 3304SOL     OW11524   0.948   4.814   3.427  0.0203  0.1251 -0.2492
 3304SOL    HW111525   0.891   4.765   3.367 -0.5105 -0.1094  0.4274
 3304SOL    HW211526   1.035   4.807   3.388 -0.1007 -1.0598 -0.3686
 3305SOL     OW11527   1.683   5.268   2.367 -0.0208  0.1135  0.2570
 3305SOL    HW111528   1.636   5.270   2.450 -0.2206  0.2152  0.1448
 3305SOL    HW211529   1.738   5.190   2.371  0.2493  0.3227  0.6335
 3306SOL     OW11530   1.880   5.147   3.775 -0.1495  0.1455  0.5025
 3306SOL    HW111531   1.919   5.198   3.704 -1.0870  1.4786  0.9075
 3306SOL    HW211532   1.858   5.063   3.735  0.3945  0.4477 -0.4742
 3307SOL     OW11533   3.939   0.621   9.065 -0.3057 -0.0374 -0.1366
 3307SOL    HW111534   3.925   0.691   9.128 -0.9621 -0.9851  0.8107
 3307SOL    HW211535   3.999   0.561   9.109  1.9927  0.9381 -1.7689
 3308SOL     OW11536   3.127   6.560   6.639  0.6785  0.2390 -0.2959
 3308SOL    HW111537   3.160   6.549   6.550 -0.1866  1.2919 -0.7613
 3308SOL    HW211538   3.158   6.482   6.685 -0.1014 -1.0807 -1.8909
 3309SOL     OW11539   2.219   8.958   1.719  0.2961 -0.0064  0.2260
 3309SOL    HW111540   2.231   8.902   1.796 -0.2897 -0.1527  0.2140
 3309SOL    HW211541   2.284   9.028   1.730  1.4939 -1.0203 -0.0711
 3310SOL     OW11542   0.912   9.255   9.526  0.6424  0.7990 -0.0933
 3310SOL    HW111543   0.863   9.334   9.548  1.0939  0.6190  1.7394
 3310SOL    HW211544   0.989   9.286   9.478 -0.6571  1.1741 -2.0192
 3311SOL     OW11545   5.157   0.192   5.626 -0.2881 -0.4770 -0.0328
 3311SOL    HW111546   5.247   0.220   5.640 -1.0681  1.7414  1.0500
 3311SOL    HW211547   5.155   0.159   5.536  1.1885  1.2618 -0.7493
 3312SOL     OW11548   6.277   0.163   3.432  0.0736  0.3899 -0.5509
 3312SOL    HW111549   6.207   0.105   3.401  1.0940 -1.4338  0.3821
 3312SOL    HW211550   6.286   0.142   3.525  2.4450 -0.1023 -0.8284
 3313SOL     OW11551   0.031   5.576   1.097  0.1640 -0.1623  0.3092
 3313SOL    HW111552  -0.043   5.598   1.040  0.9470  1.3482 -0.1808
 3313SOL    HW211553   0.046   5.656   1.148  0.8795 -0.7613  1.0521
 3314SOL     OW11554   2.801   9.637   7.280  0.0246 -0.1911 -0.5418
 3314SOL    HW111555   2.738   9.672   7.343 -0.6761  0.7961 -1.7335
 3314SOL    HW211556   2.833   9.715   7.233  0.5261 -0.8922 -1.3954
 3315SOL     OW11557   8.301   6.535   4.144  0.4393  0.1484  0.2225
 3315SOL    HW111558   8.255   6.452   4.149 -0.7760  0.8468  1.1647
 3315SOL    HW211559   8.243   6.591   4.091  2.1896 -0.1618 -2.1922
 3316SOL     OW11560   1.724   4.310   4.332 -0.2676 -0.2698  0.2890
 3316SOL    HW111561   1.667   4.258   4.388 -0.6616  0.0895  0.2266
 3316SOL    HW211562   1.719   4.268   4.246 -0.1855 -0.4256  0.3590
 3317SOL     OW11563   5.485   2.606   5.989 -0.3322 -0.3243  0.0683
 3317SOL    HW111564   5.486   2.642   6.078 -1.5677 -1.1766  0.4395
 3317SOL    HW211565   5.484   2.512   6.001 -2.2203 -0.4518 -0.7973
 3318SOL     OW11566   4.868   5.832   7.243  0.8868 -0.3483 -0.5204
 3318SOL    HW111567   4.785   5.797   7.275  0.7021 -1.6090 -2.2562
 3318SOL    HW211568   4.851   5.925   7.228 -0.5967 -0.7953 -1.9087
 3319SOL     OW11569   7.958   1.190   4.200  0.3124  0.1478  0.0102
 3319SOL    HW111570   7.973   1.101   4.166  0.6520  0.4525 -0.6590
 3319SOL    HW211571   8.012   1.195   4.278 -0.9850 -0.7935  1.0171
 3320SOL     OW11572   3.485   2.724   4.551  0.3895 -0.0262 -0.4769
 3320SOL    HW111573   3.473   2.767   4.636 -0.5271 -1.7752  0.3270
 3320SOL    HW211574   3.487   2.796   4.488  1.1233  1.3218  1.0042
 3321SOL     OW11575   2.987   8.031   7.194 -0.5856  0.6257 -0.1688
 3321SOL    HW111576   3.016   8.053   7.106 -1.1112  0.3574 -0.4165
 3321SOL    HW211577   2.924   7.959   7.181 -0.5839  0.5116  0.4308
 3322SOL     OW11578   9.007   6.225   6.293  0.5044 -0.0977  0.0259
 3322SOL    HW111579   8.916   6.196   6.296 -0.4328  2.1937 -2.0285
 3322SOL    HW211580   9.051   6.162   6.235 -0.3463 -0.0408 -0.7068
 3323SOL     OW11581   0.626   5.750   0.904 -0.1019 -0.3360  0.4505
 3323SOL    HW111582   0.543   5.725   0.863 -0.1278  1.6194 -0.8391
 3323SOL    HW211583   0.671   5.801   0.837  2.4588 -1.8155  0.8804
 3324SOL     OW11584   9.551   6.880   6.027  0.0301  0.0463 -0.2605
 3324SOL    HW111585   9.586   6.969   6.034  0.3079 -0.0309 -0.6279
 3324SOL    HW211586   9.468   6.890   5.981 -0.1477  0.1647  0.0860
 3325SOL     OW11587   6.154   8.861   0.519 -0.2647  0.1717 -0.2902
 3325SOL    HW111588   6.087   8.858   0.451 -0.1904  1.3663 -0.4340
 3325SOL    HW211589   6.108   8.839   0.600 -0.8997  1.2822 -0.3395
 3326SOL     OW11590   2.873   2.928   0.428  0.6092  0.1430 -0.1362
 3326SOL    HW111591   2.787   2.956   0.461  0.3566  0.3916 -0.9656
 3326SOL    HW211592   2.852   2.872   0.352  1.1143 -2.0118  1.2306
 3327SOL     OW11593   6.219   4.456   9.798 -0.0180 -0.7061 -0.0333
 3327SOL    HW111594   6.202   4.548   9.782  1.9273 -0.2568  0.1774
 3327SOL    HW211595   6.180   4.438   9.883  2.7352  0.9713  1.7417
 3328SOL     OW11596   7.267   1.009   0.958  0.4096  0.7460  0.2801
 3328SOL    HW111597   7.224   1.094   0.949 -0.5174  0.2044 -0.6045
 3328SOL    HW211598   7.197   0.945   0.948  0.9766 -0.1368  1.5942
 3329SOL     OW11599   4.595   4.366   2.462 -0.0623  0.1437 -0.0310
 3329SOL    HW111600   4.513   4.387   2.419  1.1237  1.2086 -1.8804
 3329SOL    HW211601   4.630   4.292   2.412  0.0355 -0.4407  0.8752
 3330SOL     OW11602   1.405   8.196   8.512 -0.2992 -0.2379 -0.0990
 3330SOL    HW111603   1.403   8.110   8.471 -1.4547 -0.5331  0.5441
 3330SOL    HW211604   1.456   8.251   8.451 -1.7158 -0.7276 -1.7827
 3331SOL     OW11605   4.315   4.031   3.060  0.1939 -0.7858  0.0651
 3331SOL    HW111606   4.253   4.095   3.024 -0.6008 -1.6630 -0.1442
 3331SOL    HW211607   4.400   4.075   3.055 -0.3274  0.2292 -0.1406
 3332SOL     OW11608   1.381   7.149   4.609 -0.4852  0.0861  0.0941
 3332SOL    HW111609   1.464   7.113   4.578  1.3798  3.1040  1.1594
 3332SOL    HW211610   1.337   7.180   4.530  0.0244 -0.3188 -0.3571
 3333SOL     OW11611   7.754   1.122   1.854 -0.4924  0.0198  0.2253
 3333SOL    HW111612   7.833   1.138   1.803 -1.0966  1.9317 -0.1705
 3333SOL    HW211613   7.768   1.170   1.936 -0.9748 -0.1586  0.4148
 3334SOL     OW11614   5.539   2.140   9.177  0.0672 -0.2316  0.0021
 3334SOL    HW111615   5.458   2.191   9.169 -1.1524 -2.1653 -0.4895
 3334SOL    HW211616   5.606   2.195   9.135 -1.0859  1.1311 -0.1255
 3335SOL     OW11617   3.227   0.236   7.015  0.0080  0.1246 -0.0085
 3335SOL    HW111618   3.230   0.296   6.941 -1.0631  0.2771  0.0566
 3335SOL    HW211619   3.134   0.225   7.034  0.2282 -0.6562  0.7147
 3336SOL     OW11620   7.596   3.645   8.952 -0.6266  0.0624  0.1256
 3336SOL    HW111621   7.631   3.627   9.039 -4.2462  1.4713  2.0908
 3336SOL    HW211622   7.614   3.566   8.902  1.3107 -0.9270  2.2263
 3337SOL     OW11623   1.545   6.106   7.718  0.1013 -0.3285 -0.3910
 3337SOL    HW111624   1.624   6.137   7.673  0.5198 -0.8192 -0.0055
 3337SOL    HW211625   1.528   6.020   7.680 -0.7197  0.1042 -1.0412
 3338SOL     OW11626   5.979   8.129   6.824  0.1003  0.0954  0.2196
 3338SOL    HW111627   5.936   8.068   6.763  0.6995  0.1836 -0.3056
 3338SOL    HW211628   5.909   8.158   6.882 -0.5122  0.0972 -0.5000
 3339SOL     OW11629   1.827   8.298   5.825  0.0408  0.0525  0.1722
 3339SOL    HW111630   1.853   8.210   5.852 -0.6727  0.2366  1.5692
 3339SOL    HW211631   1.909   8.342   5.804  0.5380 -0.4642  0.9836
 3340SOL     OW11632   1.903   2.540   7.758 -0.4165  0.3530  0.0165
 3340SOL    HW111633   1.844   2.611   7.784 -1.7551 -0.6247 -0.2575
 3340SOL    HW211634   1.952   2.576   7.684 -0.6642  1.1864  0.2425
 3341SOL     OW11635   5.774   7.132   0.512  0.0342  0.2892 -0.3371
 3341SOL    HW111636   5.779   7.061   0.449  0.3823  1.2179 -1.3820
 3341SOL    HW211637   5.691   7.175   0.494 -0.0406  0.3359  0.0965
 3342SOL     OW11638   5.832   4.660   3.391 -0.8090 -0.5273 -0.3812
 3342SOL    HW111639   5.913   4.665   3.340 -0.5450 -1.4789 -0.0766
 3342SOL    HW211640   5.765   4.695   3.333 -0.3295 -0.5658 -0.9726
 3343SOL     OW11641   0.056   4.667   1.253 -0.4109 -0.6321 -0.3027
 3343SOL    HW111642   0.151   4.680   1.248 -0.4490 -0.3533 -0.3461
 3343SOL    HW211643   0.020   4.747   1.215 -0.6689 -0.4136  0.3807
 3344SOL     OW11644   1.967   5.757   4.566 -1.1140  0.3255  0.0670
 3344SOL    HW111645   2.053   5.796   4.586 -1.0418 -0.0526  0.5071
 3344SOL    HW211646   1.987   5.670   4.534 -1.3679 -0.0343  0.8701
 3345SOL     OW11647   2.694   1.139   4.422  0.2383 -0.3025  0.2921
 3345SOL    HW111648   2.634   1.080   4.467 -1.4087  2.1196  1.5369
 3345SOL    HW211649   2.654   1.152   4.336 -1.5785  1.7816  1.3235
 3346SOL     OW11650   6.391   9.376   2.766 -0.3053  0.1457  0.5930
 3346SOL    HW111651   6.339   9.308   2.724  1.1037  0.3016 -1.5445
 3346SOL    HW211652   6.474   9.332   2.788  0.0232  0.7727  0.6256
 3347SOL     OW11653   4.365   1.951   4.052 -0.1562  1.2981 -0.3493
 3347SOL    HW111654   4.447   1.962   4.003 -0.1709  0.1355 -0.6720
 3347SOL    HW211655   4.364   1.858   4.076 -0.8239  1.5526  0.6666
 3348SOL     OW11656   4.416   2.243   7.270  0.2064 -0.0964  0.1509
 3348SOL    HW111657   4.361   2.243   7.349  1.4155 -1.0514  1.0331
 3348SOL    HW211658   4.354   2.257   7.198 -1.1452 -0.7763  1.1260
 3349SOL     OW11659   9.248   0.138   5.034 -0.0611 -0.0583 -0.3380
 3349SOL    HW111660   9.157   0.132   5.005 -0.7791  1.2140  1.4956
 3349SOL    HW211661   9.256   0.070   5.102  0.1812  0.2051 -0.1005
 3350SOL     OW11662   8.722   7.425   3.642 -0.1254 -0.3430 -0.6756
 3350SOL    HW111663   8.815   7.402   3.640  0.2414  1.0601 -1.5308
 3350SOL    HW211664   8.690   7.389   3.724  1.7974  1.3328  0.9303
 3351SOL     OW11665   6.710   8.351   1.993  0.1063  0.0691  0.0965
 3351SOL    HW111666   6.744   8.320   1.909 -2.2470  1.6809 -1.5953
 3351SOL    HW211667   6.735   8.444   1.995  1.1653 -0.2129  1.8136
 3352SOL     OW11668   0.913   1.708   6.336  0.5999  0.2454  0.2262
 3352SOL    HW111669   0.919   1.768   6.411 -0.6994  2.0852 -1.0646
 3352SOL    HW211670   0.846   1.644   6.363  2.5385 -1.2201  1.9181
 3353SOL     OW11671   2.866   8.703   4.906  0.2417  0.2818  0.4384
 3353SOL    HW111672   2.773   8.711   4.929 -0.0522 -2.2970  0.5064
 3353SOL    HW211673   2.913   8.722   4.987 -0.3048  0.4107  0.7291
 3354SOL     OW11674   4.049   1.294   5.221  0.1271 -0.3329 -0.2397
 3354SOL    HW111675   4.041   1.210   5.176 -0.8858 -0.0822 -0.5591
 3354SOL    HW211676   3.961   1.331   5.218  0.5025  0.6217  0.1379
 3355SOL     OW11677   9.796   5.120   4.312 -0.0346  0.1843 -0.0001
 3355SOL    HW111678   9.784   5.083   4.224  0.0192 -0.9332  0.4426
 3355SOL    HW211679   9.712   5.161   4.332 -0.2742 -0.1420 -0.3124
 3356SOL     OW11680   2.891   1.929   4.576  0.2754 -0.1692  0.4645
 3356SOL    HW111681   2.955   1.899   4.640  0.0823 -0.5703  0.4682
 3356SOL    HW211682   2.919   1.889   4.494 -0.2880 -0.7995  0.5724
 3357SOL     OW11683   2.281   5.511   7.170 -0.1684 -0.7251 -0.2046
 3357SOL    HW111684   2.304   5.584   7.112  0.4209 -0.6606  0.0955
 3357SOL    HW211685   2.323   5.435   7.129 -0.5471 -0.8488 -0.3663
 3358SOL     OW11686   6.179   9.018   6.013  0.7193 -0.4172  0.7937
 3358SOL    HW111687   6.183   9.075   6.089  0.2399 -1.8883  1.9716
 3358SOL    HW211688   6.229   8.941   6.038  0.4402 -0.9867 -0.3288
 3359SOL     OW11689   2.189   4.086   4.160  0.3026 -0.2292  0.1585
 3359SOL    HW111690   2.180   4.070   4.066  2.2078 -0.6239  0.0044
 3359SOL    HW211691   2.281   4.068   4.179  0.5181  2.0521  1.6846
 3360SOL     OW11692   9.007   7.306   6.776  0.0659  0.3639 -0.2959
 3360SOL    HW111693   8.973   7.361   6.847  0.9792 -0.8260  1.1159
 3360SOL    HW211694   8.957   7.225   6.782  0.6458 -0.0167 -0.5631
 3361SOL     OW11695   3.773   8.106   5.578  0.2675  0.0498  0.1041
 3361SOL    HW111696   3.811   8.023   5.604  2.5399  1.7135  2.6115
 3361SOL    HW211697   3.848   8.161   5.557 -1.1912  1.3364 -2.2064
 3362SOL     OW11698   3.593   4.394   6.094 -0.3307 -0.0079  0.3471
 3362SOL    HW111699   3.591   4.473   6.039  0.1466  0.1430  0.5430
 3362SOL    HW211700   3.569   4.426   6.181  0.1462 -0.0230  0.4884
 3363SOL     OW11701   8.428   4.676   4.365  0.2728  0.0059 -0.1141
 3363SOL    HW111702   8.482   4.746   4.328  1.1253 -0.0475  0.9482
 3363SOL    HW211703   8.338   4.707   4.356  0.6747  1.7089  1.2235
 3364SOL     OW11704   6.172   4.620   6.384  0.1339  0.4892  0.1708
 3364SOL    HW111705   6.097   4.677   6.368  1.5992  2.7078  0.7213
 3364SOL    HW211706   6.172   4.605   6.479 -0.4163 -0.7499 -0.0027
 3365SOL     OW11707   7.966   5.187   7.068 -0.7139  0.6043  0.2001
 3365SOL    HW111708   7.933   5.154   7.151 -0.5878  0.0056  0.0185
 3365SOL    HW211709   7.895   5.241   7.034 -1.0185  0.3310  0.3934
 3366SOL     OW11710   0.214   8.504   4.445 -0.1759 -0.4081  0.0340
 3366SOL    HW111711   0.268   8.507   4.523 -1.6150 -2.1975  1.1921
 3366SOL    HW211712   0.241   8.424   4.400  0.8961  0.7904 -1.5681
 3367SOL     OW11713   3.871   7.895   1.572  0.0505 -0.0943 -0.1875
 3367SOL    HW111714   3.852   7.854   1.487  0.3009 -0.4581 -0.0675
 3367SOL    HW211715   3.904   7.824   1.627 -0.5806  0.0339  0.3745
 3368SOL     OW11716   0.993   0.584   6.460 -0.1973  0.2250 -0.1036
 3368SOL    HW111717   0.962   0.556   6.545 -0.5334 -0.2381 -0.3758
 3368SOL    HW211718   0.922   0.562   6.400  0.4000 -0.2922 -0.6408
 3369SOL     OW11719   1.401   0.579   4.750  0.0575  0.3616 -0.9137
 3369SOL    HW111720   1.392   0.605   4.658 -0.2844 -0.2256 -1.0503
 3369SOL    HW211721   1.496   0.583   4.767  0.4156 -1.8903 -2.0192
 3370SOL     OW11722   9.751   4.442   8.070 -0.0248  0.4240  0.0704
 3370SOL    HW111723   9.780   4.357   8.104  0.0050  0.3779 -0.0701
 3370SOL    HW211724   9.676   4.420   8.015  0.5253  0.3914 -0.6736
 3371SOL     OW11725   3.428   8.182   1.023  0.6564 -0.3936 -0.4465
 3371SOL    HW111726   3.516   8.163   0.989  1.0403 -0.2110  0.4219
 3371SOL    HW211727   3.370   8.169   0.948  1.3201 -1.3893 -0.7983
 3372SOL     OW11728   1.136   0.242   1.144  0.4549  0.0954 -0.0365
 3372SOL    HW111729   1.056   0.219   1.096  0.5100  1.0123 -0.6001
 3372SOL    HW211730   1.117   0.216   1.235 -0.8406  1.0819  0.0118
 3373SOL     OW11731   3.895   7.685   8.738 -0.4280  0.3464 -0.5503
 3373SOL    HW111732   3.836   7.646   8.803  0.4996 -1.0537 -0.5141
 3373SOL    HW211733   3.982   7.681   8.780 -0.0616  0.8841 -1.2449
 3374SOL     OW11734   8.355   2.251   1.976 -0.0392  0.2678 -0.1906
 3374SOL    HW111735   8.288   2.277   2.040 -0.7208  0.0763 -0.8054
 3374SOL    HW211736   8.430   2.226   2.029 -0.7961 -0.4723  0.5653
 3375SOL     OW11737   8.829   6.205   4.811  0.4786  0.9446 -0.5874
 3375SOL    HW111738   8.757   6.194   4.873 -0.8410  2.3640 -1.7778
 3375SOL    HW211739   8.853   6.297   4.817  1.9849  0.5590 -0.4603
 3376SOL     OW11740   2.676   9.674   6.879  0.1921  0.1425  0.5272
 3376SOL    HW111741   2.651   9.618   6.952  1.5970 -1.0558  0.1339
 3376SOL    HW211742   2.771   9.671   6.877  0.1900 -0.0827 -1.5122
 3377SOL     OW11743   8.389   6.487   1.492  0.1148 -0.2401 -0.2546
 3377SOL    HW111744   8.306   6.535   1.497 -0.3742 -1.0995  0.0205
 3377SOL    HW211745   8.375   6.409   1.547  2.0423  0.9523  2.1445
 3378SOL     OW11746   4.947   9.481   2.017 -0.3980  0.2906 -0.0282
 3378SOL    HW111747   4.973   9.571   1.995 -0.9278  0.4522 -0.0232
 3378SOL    HW211748   4.913   9.488   2.107  1.1153 -0.2337  0.6098
 3379SOL     OW11749   8.596   4.669   0.314  0.3150  0.5153  0.2263
 3379SOL    HW111750   8.658   4.646   0.244  0.1198  0.7401 -0.0216
 3379SOL    HW211751   8.581   4.763   0.303 -0.7306  0.3045 -0.2502
 3380SOL     OW11752   1.233   4.822   5.228 -0.6656  0.4690  0.2986
 3380SOL    HW111753   1.251   4.818   5.322  0.4293  0.6865  0.1165
 3380SOL    HW211754   1.276   4.745   5.191  1.0943  1.6772 -0.3180
 3381SOL     OW11755   5.678   7.727   4.230  0.1580  0.4440 -0.2080
 3381SOL    HW111756   5.738   7.653   4.220 -0.1253  0.0010  1.1857
 3381SOL    HW211757   5.688   7.754   4.321 -0.7610  1.2398 -0.3257
 3382SOL     OW11758   5.162   3.611   6.297 -0.2400 -0.2942  0.4835
 3382SOL    HW111759   5.240   3.566   6.330  0.6311  0.3252 -0.6167
 3382SOL    HW211760   5.136   3.560   6.220 -1.5619 -1.0805  1.4136
 3383SOL     OW11761   5.285   4.868   7.908 -0.2054  0.4110 -0.2125
 3383SOL    HW111762   5.205   4.858   7.959 -1.5286  0.2698 -2.2091
 3383SOL    HW211763   5.356   4.856   7.972 -1.7381  0.9165  1.6878
 3384SOL     OW11764   7.743   0.153   1.294  0.4189  0.8920 -0.5615
 3384SOL    HW111765   7.739   0.222   1.360  2.5107  1.9075 -1.3753
 3384SOL    HW211766   7.826   0.108   1.311 -0.9870 -1.6466  0.0766
 3385SOL     OW11767   4.832   0.728   5.672 -0.0070 -0.4285  0.0388
 3385SOL    HW111768   4.845   0.691   5.584  0.3535 -1.9812  0.7032
 3385SOL    HW211769   4.788   0.811   5.657 -0.7809 -1.0873 -1.5695
 3386SOL     OW11770   9.358   9.277   1.477 -0.1407 -0.4290 -0.0824
 3386SOL    HW111771   9.439   9.293   1.526 -0.8266 -0.9792  1.2740
 3386SOL    HW211772   9.289   9.306   1.536 -0.9484  0.1121 -1.2634
 3387SOL     OW11773   4.686   2.694   8.101 -0.2111  0.0769  0.1679
 3387SOL    HW111774   4.768   2.659   8.066  0.3665  2.4960 -1.0580
 3387SOL    HW211775   4.619   2.666   8.038  0.2965  1.3425 -0.9900
 3388SOL     OW11776   1.194   8.676   0.898 -0.6923  0.0902  0.2033
 3388SOL    HW111777   1.201   8.631   0.814  0.0858 -0.7203  0.6807
 3388SOL    HW211778   1.134   8.622   0.950 -0.3523  0.0091  0.5173
 3389SOL     OW11779   1.369   1.977   4.738 -0.0301 -0.2201  0.3853
 3389SOL    HW111780   1.366   1.961   4.832 -0.4274 -0.1532  0.3849
 3389SOL    HW211781   1.461   1.967   4.715  0.3598  1.4545  1.0635
 3390SOL     OW11782   1.765   3.331   9.195 -0.6531 -0.4012  0.4025
 3390SOL    HW111783   1.782   3.245   9.156  0.7039 -1.3497  2.8553
 3390SOL    HW211784   1.834   3.387   9.159 -0.4357 -0.8153  0.1610
 3391SOL     OW11785   4.427   4.254   0.020 -0.6423  0.4945 -0.2457
 3391SOL    HW111786   4.391   4.228  -0.065 -0.7180 -0.6104  0.1200
 3391SOL    HW211787   4.354   4.299   0.063 -0.4134  1.6549 -0.9986
 3392SOL     OW11788   2.560   6.817   7.398  0.1063 -0.2016 -0.2243
 3392SOL    HW111789   2.514   6.763   7.334 -1.3354  1.1763 -0.4124
 3392SOL    HW211790   2.499   6.823   7.472  1.2919 -0.8698  0.8400
 3393SOL     OW11791   9.421   9.594   6.112 -0.0919 -0.5646  0.3419
 3393SOL    HW111792   9.401   9.687   6.125 -0.1429 -0.1792 -2.0048
 3393SOL    HW211793   9.369   9.549   6.179 -0.1772  1.0650  1.4418
 3394SOL     OW11794   7.529   0.424   7.644  0.1440 -0.1022  0.5561
 3394SOL    HW111795   7.507   0.469   7.563  0.6923 -0.5001  0.1708
 3394SOL    HW211796   7.622   0.445   7.659  0.8234 -2.1478 -0.3688
 3395SOL     OW11797   1.372   9.593   9.365 -0.0128  0.3316  0.2108
 3395SOL    HW111798   1.312   9.649   9.414 -0.6492  0.5093 -0.7579
 3395SOL    HW211799   1.335   9.588   9.277  1.8074  1.1099 -0.6554
 3396SOL     OW11800   5.377   0.555   5.587 -0.8920  0.3826  0.5165
 3396SOL    HW111801   5.289   0.580   5.561 -1.1435 -2.5097 -1.9844
 3396SOL    HW211802   5.434   0.590   5.519 -0.5770 -0.7138  0.1960
 3397SOL     OW11803   9.559   6.529   4.247  0.0832  0.3977 -0.0618
 3397SOL    HW111804   9.538   6.621   4.236  0.3209  0.3471 -1.0398
 3397SOL    HW211805   9.537   6.489   4.162 -0.6337 -0.5641  0.5532
 3398SOL     OW11806   4.105   4.976   1.390  0.2322 -0.4171  0.0055
 3398SOL    HW111807   4.176   5.033   1.360 -1.0791  1.0136 -0.4892
 3398SOL    HW211808   4.115   4.974   1.485  1.1631 -0.5752 -0.0818
 3399SOL     OW11809   8.885   0.864   9.324 -0.2420  0.2259 -0.0174
 3399SOL    HW111810   8.924   0.785   9.360 -2.2378 -0.9280 -0.2734
 3399SOL    HW211811   8.929   0.877   9.240  1.7553  0.7902  1.0383
 3400SOL     OW11812   9.180   9.486   5.125 -0.1397  0.5638 -0.3110
 3400SOL    HW111813   9.147   9.542   5.054 -1.0564 -0.6213 -0.8511
 3400SOL    HW211814   9.275   9.499   5.123 -0.1075  0.3090 -1.9882
 3401SOL     OW11815   4.721   7.224   9.438  0.2416  0.1184  0.1254
 3401SOL    HW111816   4.705   7.318   9.445 -3.3009 -0.3771  0.2298
 3401SOL    HW211817   4.746   7.197   9.526  0.4069  0.8087  0.2983
 3402SOL     OW11818   5.800   8.997   1.231 -0.2220  0.4383 -0.3555
 3402SOL    HW111819   5.768   8.974   1.318  2.5156 -2.1379  0.1249
 3402SOL    HW211820   5.882   9.044   1.247  0.0107  0.4586 -1.5471
 3403SOL     OW11821   2.289   9.562   2.214 -0.1938  0.2210 -0.2352
 3403SOL    HW111822   2.311   9.567   2.307  0.7198 -1.7902 -0.2749
 3403SOL    HW211823   2.373   9.570   2.169 -0.6964  1.7796 -0.9500
 3404SOL     OW11824   4.897   0.473   1.119  0.1790 -0.0092 -0.1843
 3404SOL    HW111825   4.920   0.565   1.110  0.7109 -0.0535  0.6279
 3404SOL    HW211826   4.878   0.444   1.030 -0.1317  0.9139 -0.4331
 3405SOL     OW11827   4.132   1.379   5.586  0.0539  0.8117  0.1113
 3405SOL    HW111828   4.047   1.350   5.553  0.1083  2.4983 -1.6872
 3405SOL    HW211829   4.112   1.426   5.667 -0.6422  0.6719  0.0240
 3406SOL     OW11830   5.562   4.664   6.013 -1.0408 -0.5166 -0.2270
 3406SOL    HW111831   5.520   4.696   5.932 -1.6575  0.5982  0.5096
 3406SOL    HW211832   5.533   4.725   6.081 -1.0466 -1.8064  0.9681
 3407SOL     OW11833   1.408   1.671   2.668  0.3541 -0.3263  0.6366
 3407SOL    HW111834   1.503   1.666   2.684  0.6746  0.0655 -1.0105
 3407SOL    HW211835   1.374   1.589   2.705  1.2486 -0.2676  1.6741
 3408SOL     OW11836   0.215   4.715   2.806 -0.9945  0.3656  0.3321
 3408SOL    HW111837   0.263   4.734   2.887 -1.0768 -1.8768  0.9706
 3408SOL    HW211838   0.282   4.698   2.741 -0.9257  0.4255  0.3871
 3409SOL     OW11839   2.114   2.983   4.990  0.2691  0.1445  0.7654
 3409SOL    HW111840   2.183   2.938   4.941 -0.2876  1.0218 -0.9263
 3409SOL    HW211841   2.035   2.932   4.971 -0.3279  1.5996 -1.0042
 3410SOL     OW11842   2.791   8.433   5.137 -0.1267  0.0644  0.4147
 3410SOL    HW111843   2.787   8.521   5.099  0.7439  0.6910  1.6782
 3410SOL    HW211844   2.867   8.436   5.195  0.1228 -1.6440  0.2217
 3411SOL     OW11845   6.895   9.428   7.240  0.2734 -0.1420  0.1356
 3411SOL    HW111846   6.954   9.395   7.173  0.2959 -1.2237  0.6820
 3411SOL    HW211847   6.809   9.432   7.197  0.7310  1.5984 -0.7131
 3412SOL     OW11848   3.114   9.625   1.162  0.1079 -0.5440  0.1744
 3412SOL    HW111849   3.106   9.530   1.153 -1.0039 -0.3672 -0.8847
 3412SOL    HW211850   3.176   9.651   1.095 -0.2319 -0.4312 -0.0993
 3413SOL     OW11851   3.977   1.911   3.815 -0.2181  0.3420 -0.4224
 3413SOL    HW111852   3.948   1.960   3.738  1.1927 -0.7315 -1.6998
 3413SOL    HW211853   4.039   1.846   3.781 -0.0888 -0.6556  1.5311
 3414SOL     OW11854   9.438   4.880   3.932  0.0696 -0.4889 -0.8108
 3414SOL    HW111855   9.402   4.791   3.937 -0.2227 -0.3134  0.8523
 3414SOL    HW211856   9.361   4.936   3.924  0.2344 -0.3540 -1.4945
 3415SOL     OW11857   0.883   1.509   6.065  0.2122  0.3733  0.2910
 3415SOL    HW111858   0.965   1.537   6.106 -0.4920 -0.1548  2.1403
 3415SOL    HW211859   0.828   1.588   6.065  0.6406  0.7022 -0.8625
 3416SOL     OW11860   8.400   5.616   5.934  0.3911 -0.2303 -0.0184
 3416SOL    HW111861   8.305   5.609   5.935  0.4103 -0.7222 -0.9835
 3416SOL    HW211862   8.431   5.531   5.903  1.0570  0.5566 -1.6593
 3417SOL     OW11863   0.181   6.963   0.033 -0.0810 -0.3559 -0.2264
 3417SOL    HW111864   0.113   6.955  -0.033 -0.3871  1.7153 -0.2296
 3417SOL    HW211865   0.191   7.057   0.046  0.5653 -0.6702  2.0631
 3418SOL     OW11866   1.870   6.189   3.922 -0.2327 -0.0661  0.0277
 3418SOL    HW111867   1.893   6.126   3.853 -1.0643 -0.7578  0.3622
 3418SOL    HW211868   1.954   6.222   3.952  0.1628  0.0289 -1.1131
 3419SOL     OW11869   7.276   8.703   3.813  0.0175 -0.5715  0.3119
 3419SOL    HW111870   7.226   8.747   3.745  0.7006  0.6806  0.5985
 3419SOL    HW211871   7.302   8.620   3.774 -0.3584 -0.2551 -0.6237
 3420SOL     OW11872   6.478   6.855   6.506  0.5927  0.0141  0.5780
 3420SOL    HW111873   6.457   6.927   6.565  1.8776  0.1179  0.9539
 3420SOL    HW211874   6.541   6.892   6.444  0.5560 -0.5446  0.1985
 3421SOL     OW11875   1.587   3.479   5.917  0.4061 -0.2498  0.2288
 3421SOL    HW111876   1.534   3.406   5.948  1.7967 -1.2961  0.2278
 3421SOL    HW211877   1.562   3.490   5.825 -1.1547  0.5319  0.7184
 3422SOL     OW11878   2.035   7.059   6.421  0.2093  0.2741 -0.0916
 3422SOL    HW111879   2.055   7.138   6.471  1.5649  1.2693 -2.0892
 3422SOL    HW211880   1.953   7.080   6.375  0.5252  0.5154 -0.5567
 3423SOL     OW11881   2.915   3.801   6.220  0.5835  0.1079 -0.3680
 3423SOL    HW111882   2.960   3.783   6.303 -1.1322  1.5641  0.9652
 3423SOL    HW211883   2.980   3.845   6.166  2.9655 -4.1729 -1.4045
 3424SOL     OW11884   3.568   9.502   7.198  0.0158 -0.1818 -0.3429
 3424SOL    HW111885   3.642   9.534   7.250  0.9005 -0.4058 -1.4316
 3424SOL    HW211886   3.561   9.409   7.221 -0.3290 -0.0239  0.2143
 3425SOL     OW11887   6.943   4.027   8.927 -0.0307  0.6427  0.2990
 3425SOL    HW111888   7.004   3.955   8.934 -0.6825 -0.1805 -1.7922
 3425SOL    HW211889   6.897   4.013   8.844 -1.2606  2.6179  0.5563
 3426SOL     OW11890   5.956   4.510   7.869  0.4486 -0.2237 -0.1802
 3426SOL    HW111891   6.014   4.440   7.899  0.2825  0.2787  1.3689
 3426SOL    HW211892   5.870   4.468   7.865  0.7427 -0.7464 -1.6784
 3427SOL     OW11893   8.620   3.768   7.458 -0.3142  0.2880  0.0385
 3427SOL    HW111894   8.633   3.685   7.504 -0.1121 -0.0781 -0.6495
 3427SOL    HW211895   8.677   3.761   7.381  1.1851  1.8657  0.9578
 3428SOL     OW11896   0.790   8.622   7.966 -0.0088 -0.0450 -0.1344
 3428SOL    HW111897   0.699   8.597   7.975 -0.2122  0.9903  0.8362
 3428SOL    HW211898   0.836   8.573   8.034 -0.0943  0.6538  0.4314
 3429SOL     OW11899   7.359   1.370   0.738  0.5452 -0.8042  0.1825
 3429SOL    HW111900   7.414   1.443   0.711 -0.6844  0.0049 -0.2519
 3429SOL    HW211901   7.380   1.356   0.830  1.8239 -0.8602 -0.1039
 3430SOL     OW11902   0.205   1.186   6.814  0.0218 -0.1109 -0.4381
 3430SOL    HW111903   0.128   1.213   6.864  0.7195 -1.4656  1.5296
 3430SOL    HW211904   0.234   1.265   6.770 -1.6028  0.7829  0.0257
 3431SOL     OW11905   3.818   9.399   7.929  0.0588 -0.1837 -0.3422
 3431SOL    HW111906   3.904   9.442   7.928 -0.1977  0.3708 -2.3018
 3431SOL    HW211907   3.783   9.419   8.016  1.8317 -0.3069  0.4505
 3432SOL     OW11908   4.301   6.532   7.989  0.8563  0.1105  0.3109
 3432SOL    HW111909   4.281   6.551   8.081 -0.7770 -0.8027  0.1906
 3432SOL    HW211910   4.358   6.455   7.993  0.3344 -0.2688  0.5562
 3433SOL     OW11911   3.442   8.991   2.329  0.7619  0.1209 -0.2598
 3433SOL    HW111912   3.411   8.901   2.345 -0.4509  0.4735 -0.5015
 3433SOL    HW211913   3.531   8.980   2.296  0.4707 -1.0286 -0.7226
 3434SOL     OW11914   4.272   2.331   0.172 -0.4887 -0.3190 -0.3440
 3434SOL    HW111915   4.313   2.402   0.222 -0.7540 -1.0627  0.9864
 3434SOL    HW211916   4.178   2.349   0.177 -0.4444  0.7678 -2.4371
 3435SOL     OW11917   6.845   1.977   7.839 -0.5330 -0.3279 -0.4145
 3435SOL    HW111918   6.879   2.005   7.754  1.0841 -1.7426 -0.2927
 3435SOL    HW211919   6.775   1.916   7.818  0.1101 -0.9656 -0.7678
 3436SOL     OW11920   6.206   1.339   7.616 -0.1717 -0.3248 -0.0044
 3436SOL    HW111921   6.292   1.370   7.586 -0.7977 -0.3291 -1.9290
 3436SOL    HW211922   6.227   1.267   7.675  1.1721  0.4833  0.5676
 3437SOL     OW11923   8.386   6.568   9.690  0.4737 -0.2493 -0.1804
 3437SOL    HW111924   8.433   6.626   9.749 -0.0082 -0.1912  0.1570
 3437SOL    HW211925   8.451   6.504   9.661  0.7670 -0.1382  0.2317
 3438SOL     OW11926   6.613   1.703   0.491  0.1188  0.2851 -0.1473
 3438SOL    HW111927   6.690   1.646   0.490  1.6391  2.2426 -0.7570
 3438SOL    HW211928   6.551   1.662   0.431  1.0720 -0.8135 -0.4068
 3439SOL     OW11929   9.264   6.892   6.891 -0.0439 -0.2873  0.6447
 3439SOL    HW111930   9.250   6.828   6.820 -0.5743  0.7730 -0.2352
 3439SOL    HW211931   9.349   6.932   6.870 -1.0723  1.4006 -0.5360
 3440SOL     OW11932   5.206   2.709   2.535 -0.4253 -0.0283  0.0752
 3440SOL    HW111933   5.197   2.687   2.627  0.3353 -0.1466  0.1226
 3440SOL    HW211934   5.214   2.805   2.534  0.2740 -0.0791  0.1971
 3441SOL     OW11935   1.429   1.842   9.713 -0.0683  0.1900 -0.1854
 3441SOL    HW111936   1.435   1.801   9.627 -0.2763  1.1119 -0.6479
 3441SOL    HW211937   1.356   1.796   9.755  2.0038 -2.5136  0.7948
 3442SOL     OW11938   2.132   0.214   7.744 -0.0275  0.6695  0.6041
 3442SOL    HW111939   2.091   0.253   7.666  0.2697 -0.3011 -0.0550
 3442SOL    HW211940   2.219   0.186   7.714 -0.4210 -0.9736  0.8957
 3443SOL     OW11941   0.502   1.768   0.101 -0.0469 -0.1649 -0.7640
 3443SOL    HW111942   0.463   1.744   0.185 -0.8987  3.6611  0.0781
 3443SOL    HW211943   0.441   1.734   0.035 -1.8738  0.7724  0.3651
 3444SOL     OW11944   6.907   6.874   0.159  0.5016 -0.0955 -0.0983
 3444SOL    HW111945   6.967   6.917   0.219  1.2997 -0.9507 -0.2606
 3444SOL    HW211946   6.904   6.783   0.190  0.1680 -0.3181 -0.7670
 3445SOL     OW11947   2.240   5.806   6.376  0.2831 -0.0320  0.0904
 3445SOL    HW111948   2.250   5.819   6.281 -0.6567  0.4295  0.0346
 3445SOL    HW211949   2.329   5.808   6.411  0.5850  0.6199 -0.6871
 3446SOL     OW11950   7.404   5.140   0.708  0.2761  0.4989  0.0416
 3446SOL    HW111951   7.422   5.061   0.759 -0.6229 -0.6924 -1.4138
 3446SOL    HW211952   7.491   5.174   0.685  0.7082  1.1913  2.4487
 3447SOL     OW11953   2.687   5.632   0.753 -0.2812  0.3164 -0.1496
 3447SOL    HW111954   2.737   5.711   0.772  1.2448 -0.7791  0.5447
 3447SOL    HW211955   2.709   5.611   0.663  0.3702 -0.0517  0.0915
 3448SOL     OW11956   1.553   5.649   2.597 -0.0761 -0.1956  0.4502
 3448SOL    HW111957   1.525   5.629   2.508 -0.3951  0.5832  0.3706
 3448SOL    HW211958   1.490   5.604   2.653  0.1462 -0.7157  0.2906
 3449SOL     OW11959   7.638   8.527   3.311 -0.2495 -0.1968  0.3923
 3449SOL    HW111960   7.659   8.436   3.289 -0.8438 -0.1708 -0.3149
 3449SOL    HW211961   7.638   8.528   3.407 -3.0415 -1.6680  0.5311
 3450SOL     OW11962   2.623   7.899   8.934 -0.3456  0.2564 -0.0716
 3450SOL    HW111963   2.630   7.968   8.999  0.9583 -0.4605  0.6018
 3450SOL    HW211964   2.713   7.876   8.913 -0.7354 -0.0566 -1.5939
 3451SOL     OW11965   1.173   0.589   6.832  0.3935  0.3689 -0.1638
 3451SOL    HW111966   1.192   0.507   6.878 -1.2972 -0.4235 -0.8075
 3451SOL    HW211967   1.217   0.580   6.748  0.9726  0.5436  0.1085
 3452SOL     OW11968   1.192   1.527   1.491  0.4237  0.3367 -0.3270
 3452SOL    HW111969   1.198   1.507   1.398  1.6786  0.1521 -0.2165
 3452SOL    HW211970   1.187   1.442   1.534  1.3673  0.3639 -0.1404
 3453SOL     OW11971   7.170   0.291   3.919  0.2541  1.1085  0.4019
 3453SOL    HW111972   7.201   0.372   3.878  1.7062  0.9153  1.0540
 3453SOL    HW211973   7.134   0.240   3.846 -0.0509  2.0386 -0.1214
 3454SOL     OW11974   0.342   6.369   2.746 -0.3479 -0.4657 -0.4270
 3454SOL    HW111975   0.391   6.291   2.774  0.3293  0.5197  1.2879
 3454SOL    HW211976   0.399   6.411   2.682  0.3283 -0.2047  0.3277
 3455SOL     OW11977   2.342   9.376   7.762  0.4621  0.1945  0.0426
 3455SOL    HW111978   2.434   9.350   7.772  0.4386  0.5707  1.4090
 3455SOL    HW211979   2.313   9.395   7.851 -0.8775  0.3281 -0.4054
 3456SOL     OW11980   4.226   0.195   8.835 -0.5901 -0.1003  0.5986
 3456SOL    HW111981   4.318   0.180   8.857  0.4938 -0.5698 -3.5050
 3456SOL    HW211982   4.182   0.114   8.861  0.5446 -0.6713  0.8180
 3457SOL     OW11983   3.233   6.206   1.740 -0.5418 -0.0054  0.5502
 3457SOL    HW111984   3.143   6.192   1.714 -0.6702  0.8915  0.4714
 3457SOL    HW211985   3.262   6.122   1.776 -1.6025 -0.1254  1.1536
 3458SOL     OW11986   6.474   0.783   4.075 -0.6716  0.0674 -0.5621
 3458SOL    HW111987   6.562   0.813   4.097 -2.1495  2.6870  2.4923
 3458SOL    HW211988   6.416   0.847   4.115 -4.0401 -1.7126 -2.1928
 3459SOL     OW11989   1.791   0.838   5.922 -0.0281 -0.1968  0.6814
 3459SOL    HW111990   1.848   0.832   5.999 -0.3479 -0.5076  0.8938
 3459SOL    HW211991   1.757   0.750   5.911 -0.3904 -0.0327  0.4910
 3460SOL     OW11992   4.428   6.403   3.273  0.4929  0.2361 -0.5343
 3460SOL    HW111993   4.472   6.404   3.358  2.1493  0.0478 -1.3526
 3460SOL    HW211994   4.365   6.331   3.280  1.5116 -0.6174  0.1098
 3461SOL     OW11995   2.555   6.398   3.784  0.3753 -0.6322 -0.3093
 3461SOL    HW111996   2.612   6.404   3.708  0.0099  2.3904 -0.4717
 3461SOL    HW211997   2.609   6.425   3.858 -0.6799  2.3351 -0.4756
 3462SOL     OW11998   6.021   2.084   3.092 -0.1372 -0.1713  0.5794
 3462SOL    HW111999   5.968   2.031   3.151 -0.9853  2.2100  2.0934
 3462SOL    HW212000   5.966   2.096   3.014 -0.6056 -0.1937  0.9043
 3463SOL     OW12001   8.628   9.438   5.856  0.4514 -0.2537  0.1197
 3463SOL    HW112002   8.552   9.425   5.799  0.4510 -0.8978  0.2617
 3463SOL    HW212003   8.700   9.395   5.811  0.6738  0.1052  0.1275
 3464SOL     OW12004   3.029   3.783   4.826 -0.0825  0.2857 -0.2893
 3464SOL    HW112005   3.077   3.752   4.902 -3.0285  0.9528  2.0559
 3464SOL    HW212006   3.038   3.879   4.829  0.5090  0.2727 -1.3269
 3465SOL     OW12007   2.166   7.879   6.478 -0.4623  0.1713 -0.3167
 3465SOL    HW112008   2.148   7.862   6.386  0.3838 -0.7272 -0.3342
 3465SOL    HW212009   2.262   7.883   6.484 -0.5001  0.0399  0.5503
 3466SOL     OW12010   9.290   3.079   4.165  0.5354 -0.1961 -0.0180
 3466SOL    HW112011   9.316   3.018   4.234  2.1984  0.8931  0.3725
 3466SOL    HW212012   9.291   3.026   4.085  0.9825 -0.8957  0.4379
 3467SOL     OW12013   5.302   2.833   5.565  0.7963  0.4199  0.5049
 3467SOL    HW112014   5.249   2.780   5.505  1.4041  0.6659 -0.2773
 3467SOL    HW212015   5.244   2.903   5.592  0.4624  0.2221  0.3177
 3468SOL     OW12016   8.683   1.265   0.306  0.9412 -0.6152 -0.5945
 3468SOL    HW112017   8.695   1.352   0.345  0.5412 -0.9312  0.2771
 3468SOL    HW212018   8.625   1.220   0.368  0.5001 -1.2320 -1.4442
 3469SOL     OW12019   6.120   8.965   9.107 -0.5754 -0.3861 -0.6026
 3469SOL    HW112020   6.210   8.944   9.082  0.0030 -0.6263  1.4948
 3469SOL    HW212021   6.118   9.060   9.112 -0.1821 -0.4033  0.1048
 3470SOL     OW12022   8.466   8.774   5.782 -1.1936  0.0197 -0.0891
 3470SOL    HW112023   8.459   8.686   5.817 -1.2956  0.0678  0.0144
 3470SOL    HW212024   8.408   8.775   5.705 -1.2036  0.0003 -0.0816
 3471SOL     OW12025   6.811   1.598   8.272 -0.4112 -0.1137 -0.4608
 3471SOL    HW112026   6.789   1.537   8.342  0.7924 -1.0780 -0.9086
 3471SOL    HW212027   6.857   1.546   8.207  2.9787  1.6889  0.2869
 3472SOL     OW12028   8.794   9.839   5.607 -0.2693  0.0903 -0.2240
 3472SOL    HW112029   8.869   9.797   5.649 -0.7404  0.1617  0.7176
 3472SOL    HW212030   8.719   9.785   5.634 -0.9606  1.7655  1.4141
 3473SOL     OW12031   1.570   8.813   9.232 -0.1540  0.3692  0.0863
 3473SOL    HW112032   1.566   8.764   9.314  0.4899  1.8652  1.0731
 3473SOL    HW212033   1.652   8.785   9.191 -0.0767  0.1972  0.3568
 3474SOL     OW12034   7.868   5.219   9.541  0.3158 -0.0774  0.3194
 3474SOL    HW112035   7.959   5.200   9.566  0.3340 -0.3218  0.0751
 3474SOL    HW212036   7.829   5.132   9.529 -0.5863 -0.0672  2.6569
 3475SOL     OW12037   3.661   7.359   3.055 -0.5282 -0.9253  0.1600
 3475SOL    HW112038   3.568   7.379   3.048 -0.9222 -2.9347 -0.9377
 3475SOL    HW212039   3.677   7.356   3.150 -0.8466  2.1915  0.4471
 3476SOL     OW12040   2.129   6.016   4.439  0.1305 -0.3855 -0.0037
 3476SOL    HW112041   2.175   6.034   4.358 -1.0050  1.3565 -0.3218
 3476SOL    HW212042   2.037   6.011   4.414 -0.2636  0.3877  1.1919
 3477SOL     OW12043   7.121   3.053   0.346 -0.1518 -0.5877  0.7164
 3477SOL    HW112044   7.187   3.109   0.388 -1.6614  0.8845  1.2087
 3477SOL    HW212045   7.161   3.028   0.262  0.6362  1.1400  0.5347
 3478SOL     OW12046   7.085   4.064   9.633 -0.3298 -0.4027 -0.0171
 3478SOL    HW112047   6.990   4.070   9.640 -0.3243  0.0845 -0.3312
 3478SOL    HW212048   7.108   4.128   9.567  0.2402 -0.3866  0.1944
 3479SOL     OW12049   6.564   2.389   0.501 -0.3567  0.2126 -0.2428
 3479SOL    HW112050   6.542   2.433   0.419  0.8093 -0.7227 -1.0923
 3479SOL    HW212051   6.649   2.425   0.527 -1.0837  1.0970  1.0191
 3480SOL     OW12052   3.601   0.626   2.759  0.3230  0.1798  0.0473
 3480SOL    HW112053   3.617   0.617   2.853  0.2591  1.2343  0.1793
 3480SOL    HW212054   3.630   0.543   2.722  1.4190  0.1568  0.8737
 3481SOL     OW12055   7.606   5.793   9.785  0.4124  0.4209 -0.6884
 3481SOL    HW112056   7.563   5.784   9.700  0.6124 -0.7405 -0.6779
 3481SOL    HW212057   7.677   5.729   9.783  0.7714  0.7831  0.1407
 3482SOL     OW12058   6.243   2.849   8.290  0.0420 -0.5696  0.3496
 3482SOL    HW112059   6.212   2.937   8.266  0.3242 -0.3684  0.6955
 3482SOL    HW212060   6.163   2.799   8.307 -0.1347  0.4946  3.1787
 3483SOL     OW12061   0.461   2.365   5.324  0.4396  0.0626 -0.4484
 3483SOL    HW112062   0.392   2.306   5.292 -0.4313  0.2572  0.9809
 3483SOL    HW212063   0.413   2.433   5.371  1.5224  1.2034 -0.9563
 3484SOL     OW12064   7.424   2.953   4.463  0.2260 -0.0027 -0.3202
 3484SOL    HW112065   7.434   3.041   4.501 -2.6601  0.6066 -0.7423
 3484SOL    HW212066   7.424   2.894   4.539 -0.6584  0.6981  0.2494
 3485SOL     OW12067   9.357   5.360   9.694  0.1083  0.1292 -0.7375
 3485SOL    HW112068   9.366   5.437   9.637 -1.3829 -0.3181 -1.6126
 3485SOL    HW212069   9.375   5.285   9.637  0.0309 -0.2567 -0.2592
 3486SOL     OW12070   2.173   0.392   1.337 -0.1971  0.1333  0.1338
 3486SOL    HW112071   2.193   0.371   1.429 -2.0701 -1.7685  0.1779
 3486SOL    HW212072   2.078   0.399   1.334 -0.1393  0.6136 -1.5946
 3487SOL     OW12073   8.555   4.087   8.975 -0.1846 -0.0958 -0.3694
 3487SOL    HW112074   8.547   4.093   8.880 -1.1035 -0.2439 -0.3089
 3487SOL    HW212075   8.618   4.016   8.989 -0.3316 -0.3297 -0.8664
 3488SOL     OW12076   4.257   5.867   0.661  0.3176 -0.0304  0.2623
 3488SOL    HW112077   4.196   5.893   0.729  1.1419  2.0019  0.3004
 3488SOL    HW212078   4.253   5.938   0.596  0.7466 -1.1140 -0.9981
 3489SOL     OW12079   9.581   5.051   0.361 -0.4653 -0.5314 -0.1632
 3489SOL    HW112080   9.621   5.138   0.369 -1.2878 -0.0963 -0.6419
 3489SOL    HW212081   9.629   5.009   0.290  0.3505 -0.7202  0.4804
 3490SOL     OW12082   0.025   4.507   2.679 -0.0103 -0.2268  0.3873
 3490SOL    HW112083   0.111   4.503   2.719  0.5409 -0.2179 -0.7605
 3490SOL    HW212084  -0.007   4.595   2.699 -0.0813 -0.4915  1.4569
 3491SOL     OW12085   6.208   7.367   5.521  0.3739 -0.5044 -0.0221
 3491SOL    HW112086   6.222   7.318   5.439  1.0782  0.4444 -0.4824
 3491SOL    HW212087   6.288   7.354   5.571  0.4275 -0.0957  0.0011
 3492SOL     OW12088   2.256   6.710   9.776  0.2594 -0.5172 -0.5176
 3492SOL    HW112089   2.322   6.780   9.775  0.0064 -0.2678 -0.1682
 3492SOL    HW212090   2.197   6.732   9.704 -1.6435  1.4460  1.4322
 3493SOL     OW12091   5.824   6.652   5.336 -0.4492 -0.4250  0.0072
 3493SOL    HW112092   5.917   6.669   5.349 -0.0063 -0.1448 -2.8365
 3493SOL    HW212093   5.816   6.557   5.336 -0.3419 -0.4448  1.1127
 3494SOL     OW12094   4.963   4.185   4.638  0.5223  0.0626  0.2172
 3494SOL    HW112095   4.935   4.124   4.706 -0.6683 -0.8336 -1.0155
 3494SOL    HW212096   4.901   4.170   4.566 -0.2049  3.1520  0.0804
 3495SOL     OW12097   4.688   0.020   4.707  0.5431  0.1018  0.5471
 3495SOL    HW112098   4.662  -0.043   4.775 -0.0312 -0.0472  0.1984
 3495SOL    HW212099   4.607   0.066   4.685  0.7584  0.2606  0.0712
 3496SOL     OW12100   9.613   5.128   9.030  0.2771 -0.2910 -0.3149
 3496SOL    HW112101   9.593   5.042   8.992  0.7551 -0.0355 -1.1579
 3496SOL    HW212102   9.705   5.143   9.009  0.3417  0.2040  0.2839
 3497SOL     OW12103   9.556   6.362   6.888 -0.3087  0.7829  0.1843
 3497SOL    HW112104   9.547   6.457   6.882  2.2731  1.1089  0.1563
 3497SOL    HW212105   9.612   6.349   6.966  1.8705 -0.4439 -1.4713
 3498SOL     OW12106   0.038   8.165   3.146  0.1303  0.1327 -0.1302
 3498SOL    HW112107   0.038   8.197   3.237 -1.1855  0.9218 -0.3825
 3498SOL    HW212108   0.010   8.074   3.153  1.1989 -0.1713  0.3517
 3499SOL     OW12109   2.379   0.074   1.631  0.3855 -0.4763  0.0428
 3499SOL    HW112110   2.428  -0.005   1.608 -0.6257 -0.5469 -2.1844
 3499SOL    HW212111   2.315   0.083   1.560 -0.3596  1.6513  0.9146
 3500SOL     OW12112   9.334   7.676   6.866 -0.8991 -0.1838 -0.3820
 3500SOL    HW112113   9.361   7.734   6.795  0.9003 -0.4000  0.0878
 3500SOL    HW212114   9.239   7.686   6.870 -0.8644  1.0184 -1.7765
 3501SOL     OW12115   2.616   8.973   4.858  0.0878 -0.4921  0.5847
 3501SOL    HW112116   2.593   9.063   4.833  0.5895 -0.2770  0.8831
 3501SOL    HW212117   2.627   8.976   4.953  0.2780 -0.8315  0.5747
 3502SOL     OW12118   5.873   9.041   3.167 -0.4012  0.1213  0.5122
 3502SOL    HW112119   5.804   9.077   3.110  0.7141  0.7966 -0.4708
 3502SOL    HW212120   5.899   9.114   3.223 -0.1883  0.0003  0.5746
 3503SOL     OW12121   0.592   0.968   8.811  0.3112  0.6956  0.4187
 3503SOL    HW112122   0.673   0.989   8.764 -1.0341  0.0870 -2.3659
 3503SOL    HW212123   0.615   0.892   8.864  1.9386  1.4597  0.8663
 3504SOL     OW12124   6.295   0.214   8.971 -0.3897  0.3366 -0.2897
 3504SOL    HW112125   6.234   0.244   9.038  0.6352  2.2558 -0.1668
 3504SOL    HW212126   6.246   0.220   8.889 -0.9538  0.0389  0.0186
 3505SOL     OW12127   5.791   2.689   4.414  0.7371 -0.4751 -0.3690
 3505SOL    HW112128   5.699   2.710   4.426  0.8739  0.2887 -0.6177
 3505SOL    HW212129   5.794   2.593   4.414 -0.1352 -0.5119 -0.9523
 3506SOL     OW12130   0.540   6.833   1.292  0.7481 -0.3859 -0.4219
 3506SOL    HW112131   0.506   6.820   1.203 -0.3018  0.5611 -0.1816
 3506SOL    HW212132   0.542   6.928   1.303  0.5076 -0.4996  0.6987
 3507SOL     OW12133   9.503   8.521   4.689  0.4400 -0.3500 -0.1817
 3507SOL    HW112134   9.489   8.525   4.784  0.9393  0.0123 -0.1235
 3507SOL    HW212135   9.531   8.609   4.665 -3.4305  0.7763 -1.2900
 3508SOL     OW12136   7.664   7.939   4.967 -0.3903  0.4776  0.8272
 3508SOL    HW112137   7.581   7.898   4.990 -0.0099 -0.3318  0.7699
 3508SOL    HW212138   7.696   7.889   4.892  1.4957 -1.0467  2.5369
 3509SOL     OW12139   8.682   7.901   3.425 -0.4507  0.1652  0.7155
 3509SOL    HW112140   8.716   7.821   3.385  0.4399  1.3160 -1.0216
 3509SOL    HW212141   8.755   7.934   3.477 -1.0291 -0.4413  1.9476
 3510SOL     OW12142   5.331   7.292   5.990  0.1392 -0.0695 -0.1174
 3510SOL    HW112143   5.318   7.217   5.932 -0.2695 -0.3098  0.2761
 3510SOL    HW212144   5.250   7.296   6.042  0.3806  0.3135  0.2333
 3511SOL     OW12145   7.668   1.370   3.009  0.3061  0.1500  0.3272
 3511SOL    HW112146   7.614   1.325   3.074  0.2708 -0.7416 -0.2985
 3511SOL    HW212147   7.758   1.350   3.035  0.3555  1.4767  1.2588
 3512SOL     OW12148   7.371   2.021   0.655 -0.0287  0.6349  0.2769
 3512SOL    HW112149   7.399   1.966   0.582  2.0139  1.7030  0.1758
 3512SOL    HW212150   7.297   1.975   0.693 -0.7435 -0.2834 -2.0605
 3513SOL     OW12151   3.964   4.652   0.016 -0.0355 -0.4651  0.2684
 3513SOL    HW112152   4.018   4.610   0.083 -1.3502  2.2292  3.3210
 3513SOL    HW212153   3.876   4.652   0.054 -1.2625 -0.4233 -2.3664
 3514SOL     OW12154   6.118   6.455   7.646 -0.6414  0.0462 -0.2207
 3514SOL    HW112155   6.162   6.519   7.590 -2.2704 -0.0454 -1.6923
 3514SOL    HW212156   6.059   6.507   7.701 -0.5909 -0.0358 -0.0886
 3515SOL     OW12157   1.744   4.948   0.378 -0.1044  0.0324 -0.4417
 3515SOL    HW112158   1.823   4.898   0.401 -2.2425 -3.6079 -0.3172
 3515SOL    HW212159   1.677   4.916   0.438 -2.3191  1.1074 -2.2152
 3516SOL     OW12160   1.867   4.619   7.197 -0.8948 -0.7675  0.1091
 3516SOL    HW112161   1.846   4.662   7.279 -1.2000 -1.0632  0.1888
 3516SOL    HW212162   1.800   4.552   7.187 -1.2620 -0.3000 -0.7095
 3517SOL     OW12163   8.063   3.059   1.744  0.5200 -0.7301 -0.2856
 3517SOL    HW112164   8.072   2.988   1.807 -0.4809 -1.4387 -0.9192
 3517SOL    HW212165   8.046   3.016   1.661 -1.7824  0.2524 -0.3937
 3518SOL     OW12166   8.169   6.598   6.902 -0.5444  0.2407 -0.6752
 3518SOL    HW112167   8.203   6.620   6.989 -2.3143 -0.7200  0.3276
 3518SOL    HW212168   8.173   6.503   6.899 -2.0513  0.1596 -0.9304
 3519SOL     OW12169   8.642   7.156   2.160 -0.3968 -0.0905 -0.2938
 3519SOL    HW112170   8.583   7.184   2.090 -1.7166  0.3860  0.9705
 3519SOL    HW212171   8.585   7.131   2.232  0.9287 -0.5442  0.6463
 3520SOL     OW12172   3.545   3.261   0.491  0.0824 -0.3756 -0.3070
 3520SOL    HW112173   3.544   3.295   0.401  1.0586 -0.3287 -0.3038
 3520SOL    HW212174   3.609   3.190   0.490 -0.8558 -1.2606  0.0504
 3521SOL     OW12175   0.593   4.634   3.280  0.1905 -0.1103  0.3262
 3521SOL    HW112176   0.654   4.697   3.242  0.3664  0.4301  1.4849
 3521SOL    HW212177   0.545   4.599   3.204  2.5426 -1.2529 -0.7395
 3522SOL     OW12178   4.985   1.398   5.251  0.3790 -0.3649  0.1487
 3522SOL    HW112179   4.993   1.367   5.341 -1.1035 -1.5344 -0.0851
 3522SOL    HW212180   4.985   1.494   5.260 -3.1172 -0.3370  1.8686
 3523SOL     OW12181   9.255   6.659   1.998  0.0926  0.2181  0.1457
 3523SOL    HW112182   9.262   6.746   2.037 -0.6107 -0.0987  1.0041
 3523SOL    HW212183   9.297   6.600   2.061 -0.9280 -0.2772  0.3961
 3524SOL     OW12184   3.615   9.558   1.963 -0.4863 -0.1984 -0.2314
 3524SOL    HW112185   3.649   9.636   2.007 -0.4466  1.1715 -2.4978
 3524SOL    HW212186   3.693   9.510   1.936 -0.3668  0.7055 -1.6348
 3525SOL     OW12187   8.679   4.645   3.002  0.5459 -0.0749 -0.3247
 3525SOL    HW112188   8.754   4.589   2.982  0.4596 -0.7059  0.9970
 3525SOL    HW212189   8.716   4.733   3.011  0.9134 -0.1591 -0.9430
 3526SOL     OW12190   2.387   9.268   5.026  0.1926  0.5647  0.1534
 3526SOL    HW112191   2.314   9.223   4.983  0.3059 -0.4942  1.0057
 3526SOL    HW212192   2.360   9.359   5.031 -0.4823  0.4283 -0.7558
 3527SOL     OW12193   8.126   5.697   5.701 -0.0287 -0.4425  0.2245
 3527SOL    HW112194   8.110   5.610   5.738 -0.9011 -0.1754  0.4925
 3527SOL    HW212195   8.207   5.687   5.651 -0.4694 -1.5798 -0.3041
 3528SOL     OW12196   2.383   8.404   9.501  0.0021  0.7618  0.2881
 3528SOL    HW112197   2.331   8.480   9.528  1.0905  1.1507  1.3604
 3528SOL    HW212198   2.473   8.433   9.509  0.4453 -0.7107  0.8517
 3529SOL     OW12199   4.635   6.629   1.745  0.3553  0.5949 -0.1023
 3529SOL    HW112200   4.560   6.689   1.750 -1.8453 -1.8917 -0.6318
 3529SOL    HW212201   4.697   6.663   1.809 -2.8027  0.8389  3.2026
 3530SOL     OW12202   4.427   3.508   8.522  0.4655 -0.3186  0.1665
 3530SOL    HW112203   4.331   3.505   8.523  0.4213  0.0255 -1.3857
 3530SOL    HW212204   4.448   3.598   8.500  1.1424 -0.5439 -0.1228
 3531SOL     OW12205   9.158   4.678   8.985 -0.5099  0.1296 -0.0211
 3531SOL    HW112206   9.235   4.622   8.971  1.2899  2.1352  1.3173
 3531SOL    HW212207   9.133   4.662   9.076 -2.0818 -0.8922 -0.5854
 3532SOL     OW12208   0.145   2.887   4.347  0.4998  0.2330 -0.2985
 3532SOL    HW112209   0.093   2.946   4.293 -0.1386  0.4655  0.5427
 3532SOL    HW212210   0.092   2.808   4.356 -0.5237  1.0880  1.9213
 3533SOL     OW12211   7.318   4.644   9.365  0.2627  0.8619 -0.8466
 3533SOL    HW112212   7.252   4.631   9.434  0.1606 -0.4767 -1.1633
 3533SOL    HW212213   7.338   4.737   9.369 -1.5568  1.2887 -0.6427
 3534SOL     OW12214   0.727   6.525   9.117  0.4920 -0.0315 -0.3655
 3534SOL    HW112215   0.821   6.538   9.122  0.3760  0.7501 -0.0886
 3534SOL    HW212216   0.698   6.527   9.209  0.3288 -1.2707 -0.3719
 3535SOL     OW12217   2.240   6.279   1.198 -0.3087  0.0615  0.2036
 3535SOL    HW112218   2.308   6.214   1.217 -0.8787 -0.3931  0.7439
 3535SOL    HW212219   2.180   6.273   1.272 -1.1229  0.2149 -0.4332
 3536SOL     OW12220   0.491   7.285   2.579 -0.2653 -0.3251 -0.1353
 3536SOL    HW112221   0.508   7.197   2.613  0.5016  0.4663  1.6634
 3536SOL    HW212222   0.445   7.329   2.651  0.0380  0.9747 -0.7259
 3537SOL     OW12223   7.810   1.335   5.365  0.6772 -0.2557 -0.0332
 3537SOL    HW112224   7.759   1.351   5.444  1.3070 -0.5697  0.4391
 3537SOL    HW212225   7.790   1.244   5.341 -0.5200  0.2216 -0.9878
 3538SOL     OW12226   5.360   0.156   3.259 -0.2353 -0.2965 -0.0856
 3538SOL    HW112227   5.278   0.198   3.230  0.0675  0.0371 -0.4776
 3538SOL    HW212228   5.397   0.119   3.179  1.2746  1.7757 -0.4262
 3539SOL     OW12229   5.635   3.817   1.727  0.3119  0.0970  0.0987
 3539SOL    HW112230   5.588   3.786   1.805  3.2268 -3.3227  0.7768
 3539SOL    HW212231   5.681   3.896   1.757 -1.7980  1.2401  0.5137
 3540SOL     OW12232   8.274   3.190   9.296  0.0138  0.1983  0.0956
 3540SOL    HW112233   8.307   3.247   9.226  2.1062 -0.2482  0.6501
 3540SOL    HW212234   8.184   3.170   9.270 -0.0705  2.0384 -1.1799
 3541SOL     OW12235   5.047   6.413   5.316 -0.0791  0.4519 -0.7308
 3541SOL    HW112236   4.990   6.357   5.263 -0.0655 -0.1827 -0.0811
 3541SOL    HW212237   5.136   6.391   5.287  0.0354 -1.0772  0.6462
 3542SOL     OW12238   5.577   8.942   2.519 -0.1790 -0.1818  0.7536
 3542SOL    HW112239   5.594   8.856   2.480 -0.1317 -0.1685  0.7451
 3542SOL    HW212240   5.637   9.001   2.473 -0.0646 -0.1799  0.9046
 3543SOL     OW12241   7.608   4.093   4.586 -0.1467  0.1428 -0.6819
 3543SOL    HW112242   7.645   4.171   4.543 -0.0955  0.1582 -0.6091
 3543SOL    HW212243   7.578   4.038   4.513 -0.6883  0.4833 -0.7219
 3544SOL     OW12244   4.542   5.636   5.563  0.3273  0.0351  0.3488
 3544SOL    HW112245   4.553   5.626   5.657  1.5793  1.9837  0.4668
 3544SOL    HW212246   4.631   5.625   5.527 -0.0777 -0.3362 -0.5784
 3545SOL     OW12247   8.306   1.078   6.541 -0.9428  0.0393 -0.1489
 3545SOL    HW112248   8.352   1.095   6.460 -1.7053  1.3977 -0.3219
 3545SOL    HW212249   8.371   1.039   6.599 -0.2023 -0.2294 -1.1493
 3546SOL     OW12250   4.339   4.697   5.844  0.6365 -0.4789  0.1544
 3546SOL    HW112251   4.384   4.779   5.860 -1.3528  1.3369 -2.6466
 3546SOL    HW212252   4.349   4.680   5.751 -0.0255 -2.8110  0.4194
 3547SOL     OW12253   2.707   7.898   9.276  0.3539  0.3000  0.1607
 3547SOL    HW112254   2.625   7.930   9.238 -0.9328 -1.3759  1.3882
 3547SOL    HW212255   2.774   7.919   9.210 -1.0891  1.4512 -0.9984
 3548SOL     OW12256   3.760   1.145   2.927  0.2134 -0.6674  0.0833
 3548SOL    HW112257   3.691   1.176   2.869 -0.6971  0.2285  1.5965
 3548SOL    HW212258   3.841   1.173   2.884 -0.4116 -0.3023 -0.8992
 3549SOL     OW12259   6.116   5.543   1.568  0.5028 -0.1834  0.2305
 3549SOL    HW112260   6.175   5.471   1.589 -0.6481 -1.4408 -0.6910
 3549SOL    HW212261   6.072   5.515   1.487 -0.1760  1.4348  0.0014
 3550SOL     OW12262   7.823   8.308   5.069  0.3390  0.1789 -0.0157
 3550SOL    HW112263   7.904   8.260   5.052 -0.3152 -1.6614  1.6574
 3550SOL    HW212264   7.784   8.263   5.143 -1.2021  2.3254  0.5678
 3551SOL     OW12265   9.120   8.358   3.256  0.1340  0.0464  0.8014
 3551SOL    HW112266   9.125   8.451   3.233  0.2342 -0.6287 -2.4519
 3551SOL    HW212267   9.035   8.349   3.300 -0.2997  1.5409  0.3443
 3552SOL     OW12268   3.877   6.932   7.835 -0.0390  0.6258 -0.1694
 3552SOL    HW112269   3.963   6.975   7.825  0.5056 -0.5208 -0.5876
 3552SOL    HW212270   3.885   6.880   7.914 -0.8795  1.6619  0.6295
 3553SOL     OW12271   6.651   1.696   7.358 -0.0356  0.3581 -0.3471
 3553SOL    HW112272   6.636   1.655   7.273 -0.8936  0.1170 -0.0912
 3553SOL    HW212273   6.734   1.741   7.348  0.0407  0.0548 -1.2096
 3554SOL     OW12274   9.168   5.017   6.959  0.9128  0.3028  0.2932
 3554SOL    HW112275   9.250   5.011   7.009  1.5540 -1.3872 -0.8834
 3554SOL    HW212276   9.137   4.927   6.953 -1.1742  0.9314  0.8540
 3555SOL     OW12277   0.914   5.873   3.169 -0.3305  0.1335 -0.0148
 3555SOL    HW112278   0.825   5.902   3.149  0.2825  1.3704 -1.1260
 3555SOL    HW212279   0.916   5.781   3.142 -0.9284  0.4435 -1.1923
 3556SOL     OW12280   3.380   8.798   5.171 -0.1218 -0.2016 -0.1670
 3556SOL    HW112281   3.469   8.782   5.139  0.0455 -1.4162  0.8063
 3556SOL    HW212282   3.335   8.715   5.157 -0.9874  0.2754 -0.2606
 3557SOL     OW12283   7.349   6.765   2.985 -1.3366 -0.0328  0.5409
 3557SOL    HW112284   7.289   6.792   2.916 -1.7472  1.4534  1.4390
 3557SOL    HW212285   7.297   6.707   3.041 -0.8162 -1.7750 -0.7006
 3558SOL     OW12286   8.119   8.910   1.175  0.0691  0.4858 -0.1336
 3558SOL    HW112287   8.161   8.858   1.245  0.4718 -1.9222 -2.0170
 3558SOL    HW212288   8.192   8.954   1.132  0.5520 -1.7708 -1.8654
 3559SOL     OW12289   2.502   2.283   9.053  0.0201  0.1317  0.5816
 3559SOL    HW112290   2.426   2.239   9.091  0.9518 -0.8672  1.3379
 3559SOL    HW212291   2.465   2.355   9.001 -1.4741 -0.7969  0.3131
 3560SOL     OW12292   7.110   2.618   8.317 -0.2353 -0.2697 -0.2828
 3560SOL    HW112293   7.046   2.657   8.376  0.2226 -0.4208  0.3243
 3560SOL    HW212294   7.180   2.587   8.375 -0.6047 -2.0378 -0.7389
 3561SOL     OW12295   3.303   8.165   5.631 -0.0650 -0.4037  0.3247
 3561SOL    HW112296   3.324   8.138   5.721  1.0164  0.3104  0.3070
 3561SOL    HW212297   3.387   8.191   5.594 -0.1844 -2.2790 -1.4750
 3562SOL     OW12298   3.336   8.279   7.991 -0.2256  0.3607  0.3683
 3562SOL    HW112299   3.388   8.340   8.043  1.3020 -0.5116 -0.0812
 3562SOL    HW212300   3.273   8.242   8.053 -0.2265  1.3360  0.9613
 3563SOL     OW12301   6.737   0.754   0.181  0.6144 -0.2505  0.7440
 3563SOL    HW112302   6.810   0.755   0.243  1.8739 -3.5898 -0.4170
 3563SOL    HW212303   6.779   0.756   0.095 -0.7358 -0.8957  0.0323
 3564SOL     OW12304   3.603   1.938   6.474  0.1342 -0.1913  0.4165
 3564SOL    HW112305   3.697   1.938   6.458 -0.2717 -0.1863 -2.4492
 3564SOL    HW212306   3.585   2.022   6.515  1.4552 -0.5419  1.7850
 3565SOL     OW12307   1.326   1.842   5.624  1.0086  0.3523  0.1966
 3565SOL    HW112308   1.311   1.768   5.565  3.4289 -0.9298  1.0226
 3565SOL    HW212309   1.320   1.805   5.711 -1.0223  1.9099  0.8092
 3566SOL     OW12310   7.723   6.087   3.990  0.9550 -0.2760  0.0129
 3566SOL    HW112311   7.684   6.000   3.991 -1.0863  0.5213 -1.2622
 3566SOL    HW212312   7.712   6.120   4.080 -1.0287 -0.2711 -0.1811
 3567SOL     OW12313   3.575   1.709   1.315  0.2508  0.6604 -0.2197
 3567SOL    HW112314   3.511   1.744   1.376  1.5348 -0.0043  1.6246
 3567SOL    HW212315   3.655   1.758   1.334  1.2335 -1.0054  0.1841
 3568SOL     OW12316   9.251   5.278   0.964 -0.3576 -0.5264  0.1187
 3568SOL    HW112317   9.314   5.229   0.912 -1.1010 -1.5162  0.1275
 3568SOL    HW212318   9.253   5.367   0.928  1.0322 -0.5432  0.1251
 3569SOL     OW12319   7.755   5.316   7.914 -0.3275 -0.4120 -0.1804
 3569SOL    HW112320   7.788   5.357   7.994  2.1203 -0.0128 -1.2833
 3569SOL    HW212321   7.753   5.222   7.933 -0.6336 -0.2521  0.6072
 3570SOL     OW12322   6.736   4.621   7.791 -0.1828  0.0345  0.0645
 3570SOL    HW112323   6.682   4.695   7.765 -1.3197 -0.4565  0.9223
 3570SOL    HW212324   6.729   4.559   7.718  1.2460  0.9808 -0.9145
 3571SOL     OW12325   5.281   2.739   1.389 -0.0041 -0.2993 -0.4000
 3571SOL    HW112326   5.224   2.663   1.399 -0.2950 -0.2073 -1.2664
 3571SOL    HW212327   5.302   2.740   1.296  0.1729  0.5567 -0.3524
 3572SOL     OW12328   0.690   2.620   3.709 -0.1421 -0.0793 -0.3093
 3572SOL    HW112329   0.653   2.688   3.653 -0.9732  0.6288  1.0454
 3572SOL    HW212330   0.785   2.631   3.701 -0.2166  2.7578  1.5775
 3573SOL     OW12331   7.820   0.477   0.835  0.0641  0.5185  0.1155
 3573SOL    HW112332   7.779   0.564   0.835  1.8557  1.4257  0.9814
 3573SOL    HW212333   7.907   0.492   0.797 -0.6478 -1.5195 -2.6069
 3574SOL     OW12334   8.000   6.882   9.747  0.4596 -0.6252 -0.4849
 3574SOL    HW112335   8.093   6.886   9.772  0.3874 -2.4588  0.1896
 3574SOL    HW212336   7.985   6.791   9.723 -0.9867 -0.1780 -1.4064
 3575SOL     OW12337   4.318   8.925   6.079  0.0288  0.0075  0.0568
 3575SOL    HW112338   4.233   8.969   6.067 -0.1221 -0.0033  1.0280
 3575SOL    HW212339   4.373   8.991   6.121  0.3530 -0.1500 -0.1197
 3576SOL     OW12340   6.420   6.147   7.523  0.2783 -0.1165  0.8118
 3576SOL    HW112341   6.502   6.185   7.554  0.9374  2.2358 -3.1175
 3576SOL    HW212342   6.352   6.194   7.573  1.2208 -0.3223  2.3522
 3577SOL     OW12343   5.974   8.916   8.476  0.7685  0.7284  0.3813
 3577SOL    HW112344   5.982   9.007   8.505 -1.2343  1.3574 -0.8584
 3577SOL    HW212345   6.047   8.871   8.518  0.8359  2.5558  2.3869
 3578SOL     OW12346   6.648   7.112   9.515  0.1168 -0.6146 -0.4563
 3578SOL    HW112347   6.651   7.125   9.609  0.4298  0.4608 -0.6116
 3578SOL    HW212348   6.619   7.021   9.505 -2.3813 -0.0207  0.6461
 3579SOL     OW12349   3.547   2.021   1.090 -0.0164  0.1787  0.1319
 3579SOL    HW112350   3.503   1.942   1.059  0.3977  0.0699 -0.1784
 3579SOL    HW212351   3.574   2.066   1.010 -0.8632  0.9919  0.2780
 3580SOL     OW12352   8.603   3.436   3.661 -0.1301 -0.0437  0.3909
 3580SOL    HW112353   8.614   3.428   3.756  2.4248 -0.3167  0.1440
 3580SOL    HW212354   8.565   3.352   3.634  2.9729 -1.6869  0.7622
 3581SOL     OW12355   3.318   6.515   0.401 -0.5588  0.3828  0.3419
 3581SOL    HW112356   3.385   6.583   0.411 -1.7367  1.3801  1.9979
 3581SOL    HW212357   3.311   6.476   0.488 -1.2596 -0.5502 -0.1211
 3582SOL     OW12358   9.491   6.762   4.153  0.5487 -0.2095 -1.0448
 3582SOL    HW112359   9.429   6.804   4.213  0.8243  0.4133 -1.1808
 3582SOL    HW212360   9.538   6.835   4.112  0.3800 -0.6218 -2.0025
 3583SOL     OW12361   9.452   4.194   5.316 -0.2520 -0.2997  0.1777
 3583SOL    HW112362   9.467   4.286   5.339 -1.6028 -0.6421  2.7443
 3583SOL    HW212363   9.378   4.197   5.255 -0.0507  0.3206 -0.0503
 3584SOL     OW12364   9.543   3.898   7.529 -0.2315  0.2070 -0.2957
 3584SOL    HW112365   9.595   3.971   7.563 -0.9349 -0.1628  1.6906
 3584SOL    HW212366   9.603   3.823   7.534  0.1116  0.4127 -1.2200
 3585SOL     OW12367   1.136   7.843   8.409  0.2587  0.4357 -0.2898
 3585SOL    HW112368   1.122   7.931   8.373  0.5400  0.4357 -0.4012
 3585SOL    HW212369   1.210   7.854   8.469  0.0870  0.3407 -0.0607
 3586SOL     OW12370   1.093   2.289   8.528  0.0647  0.1562  0.2470
 3586SOL    HW112371   1.036   2.310   8.454 -2.0882 -1.0855  1.4422
 3586SOL    HW212372   1.064   2.347   8.598  3.0611  2.3720 -0.1742
 3587SOL     OW12373   6.214   8.574   8.426  0.6101 -0.3640  0.0833
 3587SOL    HW112374   6.238   8.635   8.356 -0.2774  0.0774  0.1448
 3587SOL    HW212375   6.153   8.514   8.384  0.2235 -0.2144  0.4233
 3588SOL     OW12376   9.499   2.515   7.139  0.3210 -0.0340 -0.1258
 3588SOL    HW112377   9.408   2.540   7.121 -0.2062 -1.0715  0.9462
 3588SOL    HW212378   9.532   2.585   7.195 -0.4862 -0.6502  1.1644
 3589SOL     OW12379   1.446   6.060   0.894 -0.8669 -0.9308 -0.3146
 3589SOL    HW112380   1.358   6.030   0.915 -0.9829 -1.0107 -0.8908
 3589SOL    HW212381   1.448   6.063   0.798  0.3281 -2.6315 -0.3781
 3590SOL     OW12382   8.557   9.813   8.688 -0.5900 -0.3205  0.2417
 3590SOL    HW112383   8.643   9.833   8.726 -0.7957  0.5969  0.2543
 3590SOL    HW212384   8.527   9.736   8.736  0.1666 -0.5686  0.3289
 3591SOL     OW12385   9.274   4.306   5.140 -1.0258  0.2172 -0.0416
 3591SOL    HW112386   9.206   4.254   5.096 -1.6093  1.9357 -1.3007
 3591SOL    HW212387   9.291   4.378   5.080 -0.8574  1.9442  1.9561
 3592SOL     OW12388   9.627   0.971   7.475  0.3273 -0.1608 -0.0570
 3592SOL    HW112389   9.632   0.963   7.571  1.3078  0.7598 -0.0052
 3592SOL    HW212390   9.534   0.979   7.456  0.0844 -0.8562  0.7727
 3593SOL     OW12391   3.563   1.251   2.050 -0.5187  0.7011  0.1834
 3593SOL    HW112392   3.490   1.193   2.072  0.0302  0.2976  0.9849
 3593SOL    HW212393   3.566   1.315   2.121 -1.4602  2.0729 -0.9677
 3594SOL     OW12394   3.112   2.434   4.294  0.4323  0.3903 -0.3694
 3594SOL    HW112395   3.195   2.417   4.339  0.7533  2.1602 -0.1858
 3594SOL    HW212396   3.076   2.511   4.339 -1.8288 -0.9256  0.2010
 3595SOL     OW12397   9.221   1.281   2.428 -0.1576  0.3149  0.4363
 3595SOL    HW112398   9.218   1.367   2.385  0.2307  0.4507  0.6760
 3595SOL    HW212399   9.271   1.296   2.507  2.2320 -0.6833 -0.7915
 3596SOL     OW12400   3.497   8.403   6.938 -0.5808 -0.2772  0.0204
 3596SOL    HW112401   3.498   8.492   6.903  0.6224  0.1642  1.0722
 3596SOL    HW212402   3.584   8.393   6.979 -1.5678 -1.0235  2.0855
 3597SOL     OW12403   1.347   3.537   9.571  0.8665 -0.1054  0.0447
 3597SOL    HW112404   1.406   3.559   9.643 -0.7451  0.0476  1.3572
 3597SOL    HW212405   1.262   3.572   9.597  0.8136  3.0596 -3.4335
 3598SOL     OW12406   5.523   7.908   6.670 -0.2095 -0.0686  0.1258
 3598SOL    HW112407   5.534   7.898   6.575 -2.5383  1.2255 -0.3660
 3598SOL    HW212408   5.589   7.973   6.695 -0.8187  1.0546 -1.0174
 3599SOL     OW12409   3.069   4.620   1.791 -0.3459  0.2517  0.3373
 3599SOL    HW112410   3.042   4.531   1.813 -1.6329  0.2449 -1.0775
 3599SOL    HW212411   3.015   4.676   1.847 -0.1500  0.1650  0.6152
 3600SOL     OW12412   4.038   3.701   0.098 -0.5362  0.7884 -0.0552
 3600SOL    HW112413   4.012   3.616   0.062  0.4763  0.1669  0.6405
 3600SOL    HW212414   3.988   3.708   0.180  0.0886  0.4156  0.3679
 3601SOL     OW12415   1.954   5.976   7.673 -0.2134  0.2635  0.0004
 3601SOL    HW112416   1.906   5.975   7.756  0.6946 -2.3530  0.5817
 3601SOL    HW212417   2.045   5.958   7.698 -0.0328 -1.2204 -1.6106
 3602SOL     OW12418   8.722   0.432   1.085 -0.2578  0.4407 -0.0103
 3602SOL    HW112419   8.724   0.511   1.138 -1.9698  0.7260 -0.3049
 3602SOL    HW212420   8.745   0.461   0.997  1.9929  0.0682  0.3969
 3603SOL     OW12421   8.660   2.329   8.488  0.2830 -0.0736 -0.1072
 3603SOL    HW112422   8.616   2.246   8.473 -0.2153 -0.0142  0.8783
 3603SOL    HW212423   8.589   2.393   8.495  0.6649  0.4708 -1.0033
 3604SOL     OW12424   7.493   7.415   3.065  0.1469 -0.8385  0.0613
 3604SOL    HW112425   7.545   7.349   3.111  1.3728 -1.0788 -1.5599
 3604SOL    HW212426   7.464   7.475   3.133  1.8842 -1.1633  1.1346
 3605SOL     OW12427   8.853   1.893   7.489 -0.1891 -0.3752 -0.5943
 3605SOL    HW112428   8.851   1.892   7.394 -2.3041  1.7391 -0.6473
 3605SOL    HW212429   8.868   1.985   7.512  1.0273 -0.9535  1.1430
 3606SOL     OW12430   9.458   1.633   8.880  0.0771 -0.2115 -0.1715
 3606SOL    HW112431   9.435   1.699   8.946  1.8859  0.7769 -0.4544
 3606SOL    HW212432   9.450   1.549   8.926  1.9447  0.4817  1.5724
 3607SOL     OW12433   4.548   2.974   4.231  0.0559 -0.9122  0.0142
 3607SOL    HW112434   4.473   2.921   4.254  0.4195 -1.7839 -0.7452
 3607SOL    HW212435   4.612   2.956   4.300 -0.0571 -0.9709  0.1036
 3608SOL     OW12436   7.360   8.204   1.464  0.2179  0.2971 -0.3572
 3608SOL    HW112437   7.397   8.268   1.402  2.4708 -0.6971 -0.1147
 3608SOL    HW212438   7.358   8.122   1.415 -1.1630  0.1809 -0.1476
 3609SOL     OW12439   8.341   7.585   5.336 -0.0432 -0.7142  0.1921
 3609SOL    HW112440   8.246   7.584   5.326 -0.0023 -0.8459 -0.1662
 3609SOL    HW212441   8.360   7.672   5.373 -0.2717 -0.5711 -0.0276
 3610SOL     OW12442   2.041   4.584   8.539  0.0571 -0.2058 -0.1715
 3610SOL    HW112443   2.136   4.579   8.556  0.2014  1.6047 -0.2602
 3610SOL    HW212444   2.034   4.587   8.444 -0.2125 -1.8727 -0.2253
 3611SOL     OW12445   0.810   6.450   0.403  0.2193 -0.0340  0.3211
 3611SOL    HW112446   0.740   6.491   0.351 -0.4461 -1.5865 -0.0599
 3611SOL    HW212447   0.765   6.408   0.476  0.6964 -1.2801 -0.0736
 3612SOL     OW12448   5.026   0.493   2.238  0.3943 -0.1118  0.2045
 3612SOL    HW112449   5.111   0.521   2.204  0.1526 -0.3428 -0.6047
 3612SOL    HW212450   4.991   0.435   2.171  0.3403 -1.3861  1.2971
 3613SOL     OW12451   0.866   4.640   7.442 -0.2965 -0.4747 -0.1589
 3613SOL    HW112452   0.922   4.603   7.374  1.4196  1.8837 -0.1719
 3613SOL    HW212453   0.911   4.721   7.468 -2.6345  0.4299  1.3852
 3614SOL     OW12454   5.121   1.300   1.053 -0.2098 -0.4263  0.2823
 3614SOL    HW112455   5.169   1.225   1.089  1.4719  1.3310  1.9565
 3614SOL    HW212456   5.030   1.283   1.076  0.0101 -2.2670 -0.0151
 3615SOL     OW12457   0.811   6.338   5.998  0.2626  0.1001 -0.3529
 3615SOL    HW112458   0.845   6.254   5.966 -0.2479 -0.4049  0.4232
 3615SOL    HW212459   0.888   6.396   5.997  0.7920 -0.5826 -0.1594
 3616SOL     OW12460   8.199   5.333   8.702  0.6169  0.2773 -0.3575
 3616SOL    HW112461   8.280   5.351   8.654 -0.5263  1.3789 -2.0142
 3616SOL    HW212462   8.162   5.419   8.719  0.7345 -0.1095  2.2044
 3617SOL     OW12463   4.299   5.392   6.268 -0.0101 -0.1436  0.3338
 3617SOL    HW112464   4.254   5.397   6.353  0.6057 -1.1162  0.7268
 3617SOL    HW212465   4.344   5.308   6.270  1.2782  0.5150 -0.3351
 3618SOL     OW12466   7.518   2.429   8.450  0.1521  0.3229 -0.1809
 3618SOL    HW112467   7.578   2.438   8.376  0.0693  2.0968 -0.0589
 3618SOL    HW212468   7.572   2.395   8.521  0.4332 -0.5078 -0.7753
 3619SOL     OW12469   3.066   6.927   1.083 -0.0847  0.1184 -0.0422
 3619SOL    HW112470   3.122   6.991   1.040 -0.2099  0.3282  0.1014
 3619SOL    HW212471   2.977   6.961   1.069 -0.3039 -1.0133 -1.6072
 3620SOL     OW12472   0.597   0.097   2.117 -0.2873 -0.8984  0.5023
 3620SOL    HW112473   0.635   0.178   2.083 -1.0111 -0.4987  0.6287
 3620SOL    HW212474   0.628   0.093   2.208 -1.1195 -0.1947  0.8315
 3621SOL     OW12475   6.948   4.876   8.403  0.1038 -0.2760 -0.3155
 3621SOL    HW112476   6.903   4.954   8.434  1.2368  0.8060 -1.2939
 3621SOL    HW212477   6.883   4.831   8.348 -1.0883 -0.9134  1.5413
 3622SOL     OW12478   7.338   3.541   3.448  0.0729  0.8421 -0.8042
 3622SOL    HW112479   7.427   3.575   3.441 -0.8393  3.5509 -0.3459
 3622SOL    HW212480   7.348   3.458   3.495  2.4850  0.1066 -2.3791
 3623SOL     OW12481   4.623   1.392   5.487  0.2939 -0.2332  0.2660
 3623SOL    HW112482   4.635   1.309   5.534 -0.4064  0.5627  1.9363
 3623SOL    HW212483   4.696   1.447   5.516  0.7642 -0.2454 -0.8437
 3624SOL     OW12484   1.758   6.618   5.768 -0.5500  0.1548 -0.3083
 3624SOL    HW112485   1.774   6.687   5.833  2.2467  0.2422 -0.9816
 3624SOL    HW212486   1.759   6.537   5.819 -2.2723  0.4541  0.2580
 3625SOL     OW12487   9.666   8.279   4.186 -0.7863 -0.4663  0.4256
 3625SOL    HW112488   9.704   8.347   4.241 -0.8212 -0.7909  0.8534
 3625SOL    HW212489   9.692   8.304   4.097 -0.9113  0.1752  0.5644
 3626SOL     OW12490   5.402   9.699   6.414 -0.2308 -0.8229  0.0459
 3626SOL    HW112491   5.452   9.780   6.403 -2.4661  0.9500  1.6508
 3626SOL    HW212492   5.354   9.689   6.332  0.0017 -0.4645 -0.1355
 3627SOL     OW12493   4.821   3.676   5.444 -0.1047  0.1588  0.1631
 3627SOL    HW112494   4.813   3.595   5.495  1.6237 -0.4003 -0.4068
 3627SOL    HW212495   4.734   3.687   5.404 -0.0913 -2.0137 -0.6090
 3628SOL     OW12496   2.645   7.052   5.254  0.4948  0.2752  0.1348
 3628SOL    HW112497   2.689   7.007   5.326  1.9081  1.1887 -0.1130
 3628SOL    HW212498   2.566   7.089   5.293  0.5005 -0.4681  0.8642
 3629SOL     OW12499   3.330   9.584   0.867 -0.1662  0.2308 -0.3168
 3629SOL    HW112500   3.376   9.507   0.899 -0.6144  0.5335  1.1505
 3629SOL    HW212501   3.373   9.658   0.911  0.0573  0.8076 -1.4569
 3630SOL     OW12502   2.942   4.674   0.837 -0.3678 -0.2501  0.3330
 3630SOL    HW112503   2.853   4.686   0.872 -0.5026 -0.0407 -0.0759
 3630SOL    HW212504   2.980   4.762   0.840 -0.2016 -0.3251  0.4305
 3631SOL     OW12505   6.930   6.564   8.955  0.6567 -0.1478 -0.7862
 3631SOL    HW112506   7.006   6.618   8.937 -0.2277  0.3264 -3.6393
 3631SOL    HW212507   6.925   6.504   8.880 -1.2547 -0.7579 -0.2343
 3632SOL     OW12508   7.995   4.651   1.879  0.1468 -0.1349 -0.3282
 3632SOL    HW112509   7.964   4.676   1.792  3.1330  1.1013 -1.1637
 3632SOL    HW212510   8.005   4.734   1.925  0.7974 -0.5927  0.3779
 3633SOL     OW12511   8.297   1.336   7.379  0.7475  0.5548 -0.5893
 3633SOL    HW112512   8.273   1.255   7.334  0.7095  0.8392 -1.0831
 3633SOL    HW212513   8.214   1.379   7.396  0.8155  0.8556 -1.0136
 3634SOL     OW12514   0.015   3.038   4.106 -0.7726 -0.3378 -0.0248
 3634SOL    HW112515   0.015   3.108   4.040 -0.0896  1.1692  1.4910
 3634SOL    HW212516  -0.056   2.980   4.078  1.6175 -1.7578 -3.9910
 3635SOL     OW12517   7.473   2.404   5.043  0.1146 -0.0482  0.1621
 3635SOL    HW112518   7.512   2.390   4.957  0.0402 -2.6884  0.4783
 3635SOL    HW212519   7.382   2.375   5.032  0.1631 -0.6068  1.1612
 3636SOL     OW12520   6.674   4.666   5.135 -0.3525  0.2278  0.1759
 3636SOL    HW112521   6.745   4.614   5.173 -0.2332 -0.5717 -1.1035
 3636SOL    HW212522   6.599   4.649   5.193  0.3163  0.5825  1.1749
 3637SOL     OW12523   2.190   5.910   6.695 -0.3773  0.8144 -0.0689
 3637SOL    HW112524   2.274   5.874   6.666 -1.0462 -1.1175  0.2089
 3637SOL    HW212525   2.140   5.833   6.722 -0.8412  2.1956  3.5311
 3638SOL     OW12526   0.400   3.484   2.078  0.0122 -0.4614  0.7616
 3638SOL    HW112527   0.489   3.485   2.045  0.1098 -1.0318  1.0015
 3638SOL    HW212528   0.352   3.429   2.017 -0.3652  0.4765  0.1809
 3639SOL     OW12529   7.648   9.732   4.615 -0.2984  0.5749  0.9041
 3639SOL    HW112530   7.641   9.640   4.640 -0.4401  0.0206 -1.0294
 3639SOL    HW212531   7.559   9.760   4.596 -0.0216  0.3157 -1.0133
 3640SOL     OW12532   4.922   0.697   0.186  0.1732  0.4075 -0.2758
 3640SOL    HW112533   4.920   0.725   0.278  0.0878 -1.6171  0.3953
 3640SOL    HW212534   4.842   0.735   0.148 -0.5870  0.0467  0.8982
 3641SOL     OW12535   9.288   5.426   1.613  0.5613 -0.0655 -0.2343
 3641SOL    HW112536   9.325   5.514   1.624 -0.5841  0.6011 -1.4304
 3641SOL    HW212537   9.355   5.367   1.647  1.5271  1.2483  0.2064
 3642SOL     OW12538   8.545   5.102   8.979 -0.4230  0.3078  0.5226
 3642SOL    HW112539   8.613   5.092   8.912  0.7723  0.5438  1.6518
 3642SOL    HW212540   8.519   5.194   8.974 -0.1439  0.3896  0.5649
 3643SOL     OW12541   6.441   2.391   1.412  0.5230 -0.0348 -0.3077
 3643SOL    HW112542   6.421   2.372   1.321 -0.4321  1.5419 -0.4759
 3643SOL    HW212543   6.358   2.375   1.459  0.8931 -0.4500  0.2116
 3644SOL     OW12544   9.764   8.673   5.320 -0.5178  0.2685 -0.3887
 3644SOL    HW112545   9.772   8.690   5.414  1.2658 -0.9653 -0.2667
 3644SOL    HW212546   9.853   8.682   5.287 -0.9611 -0.2812 -1.7922
 3645SOL     OW12547   2.858   3.813   3.616  0.3787  0.4124 -0.3018
 3645SOL    HW112548   2.878   3.810   3.523  0.3968  0.5111 -0.3020
 3645SOL    HW212549   2.930   3.764   3.657  0.3842  0.3902 -0.3378
 3646SOL     OW12550   6.726   7.954   2.580 -0.4204 -0.1063  0.2405
 3646SOL    HW112551   6.727   8.022   2.647 -1.8783  0.4511 -0.2518
 3646SOL    HW212552   6.784   7.987   2.512 -1.5094  0.9389 -0.2254
 3647SOL     OW12553   8.499   5.660   3.987 -0.2059 -0.4977 -0.0354
 3647SOL    HW112554   8.570   5.713   3.952  0.4819  0.6607  2.8791
 3647SOL    HW212555   8.531   5.570   3.981  0.9827 -0.0985  0.0832
 3648SOL     OW12556   5.079   2.259   9.567 -0.0189  0.6071 -0.3487
 3648SOL    HW112557   5.022   2.227   9.497 -0.0630 -2.3092  0.8494
 3648SOL    HW212558   5.165   2.222   9.546 -0.2898 -1.3529  1.6373
 3649SOL     OW12559   1.144   4.159   9.528 -0.3118 -0.1954 -0.5126
 3649SOL    HW112560   1.139   4.235   9.469  0.1266  1.0992  1.0290
 3649SOL    HW212561   1.228   4.118   9.506 -1.0618 -0.9244 -2.1233
 3650SOL     OW12562   0.715   9.659   6.293 -0.3851 -0.4163 -0.1149
 3650SOL    HW112563   0.803   9.623   6.294 -0.0008  0.4476 -1.0767
 3650SOL    HW212564   0.671   9.615   6.220 -0.3065  0.1302 -0.5024
 3651SOL     OW12565   9.330   7.968   5.047 -0.1320 -0.6665 -0.2487
 3651SOL    HW112566   9.321   7.986   4.954 -1.9261 -1.6781 -0.3094
 3651SOL    HW212567   9.241   7.949   5.077  0.3979 -0.2573  1.6979
 3652SOL     OW12568   5.508   3.766   3.544 -0.1163 -0.3736  0.0393
 3652SOL    HW112569   5.584   3.728   3.589  0.0848  0.2134  0.1990
 3652SOL    HW212570   5.457   3.806   3.614 -0.4702 -0.5866 -0.0953
 3653SOL     OW12571   2.389   1.808   9.173 -0.3191 -0.4027 -0.2481
 3653SOL    HW112572   2.416   1.756   9.248 -1.0033 -0.8897 -0.3215
 3653SOL    HW212573   2.328   1.751   9.125 -1.8044  0.7663  0.1520
 3654SOL     OW12574   1.556   2.551   2.987  0.1691  0.4460 -0.1385
 3654SOL    HW112575   1.483   2.488   2.986 -0.8906  1.6344  0.1699
 3654SOL    HW212576   1.578   2.563   2.894 -1.3682  1.5521 -0.3926
 3655SOL     OW12577   6.001   6.115   5.713  0.4170 -0.0630 -0.3262
 3655SOL    HW112578   5.924   6.094   5.767 -0.4892  1.5503 -0.9265
 3655SOL    HW212579   6.053   6.174   5.767  0.0388  0.7137 -0.7971
 3656SOL     OW12580   6.771   3.937   1.614 -0.2795  0.5245 -0.3432
 3656SOL    HW112581   6.803   3.847   1.625  0.3896  0.8821  0.7975
 3656SOL    HW212582   6.678   3.927   1.593  0.0531 -0.4653 -1.4200
 3657SOL     OW12583   4.689   8.811   0.321 -0.1127  0.2279 -0.3415
 3657SOL    HW112584   4.671   8.894   0.365 -1.4574 -0.3029  0.1695
 3657SOL    HW212585   4.676   8.744   0.389 -1.7089 -0.5764 -1.3570
 3658SOL     OW12586   9.475   6.361   4.422 -0.3469  0.4142 -0.4764
 3658SOL    HW112587   9.510   6.413   4.350  1.3705 -0.1112 -0.0566
 3658SOL    HW212588   9.543   6.364   4.489 -1.4352 -0.0451  0.6826
 3659SOL     OW12589   0.741   2.108   3.578 -0.3990  0.1749  0.2692
 3659SOL    HW112590   0.675   2.117   3.509 -0.6452 -0.4386  0.4209
 3659SOL    HW212591   0.734   2.190   3.628 -2.0139 -0.4238  1.1129
 3660SOL     OW12592   1.294   9.741   4.775 -0.0183  0.9248 -0.3293
 3660SOL    HW112593   1.215   9.701   4.740 -1.6167  2.4895  1.2491
 3660SOL    HW212594   1.318   9.686   4.850 -1.6157  2.1984  1.2110
 3661SOL     OW12595   6.537   7.160   7.579 -0.0434 -0.7867 -0.1911
 3661SOL    HW112596   6.502   7.241   7.542  1.3138 -0.3255 -0.5168
 3661SOL    HW212597   6.581   7.117   7.506 -0.4217 -1.6531  0.0709
 3662SOL     OW12598   9.463   5.961   1.322 -0.1161 -0.1882 -0.0534
 3662SOL    HW112599   9.385   5.995   1.366  1.1272  1.6812  0.8342
 3662SOL    HW212600   9.536   6.007   1.363  1.2300  0.8524 -3.2856
 3663SOL     OW12601   8.607   6.912   2.389 -0.0444  0.5412  0.0893
 3663SOL    HW112602   8.522   6.946   2.362 -0.1812  0.0431 -0.1311
 3663SOL    HW212603   8.661   6.916   2.310 -0.5136 -1.1355 -0.3648
 3664SOL     OW12604   1.608   1.963   2.703 -0.1255 -0.9561 -0.1578
 3664SOL    HW112605   1.540   1.993   2.642  1.7841  0.2523 -1.7997
 3664SOL    HW212606   1.683   1.943   2.647  0.7920 -2.6351  1.5671
 3665SOL     OW12607   1.053   1.902   8.963 -0.0914 -0.1426 -0.0396
 3665SOL    HW112608   1.022   1.882   9.051 -1.2002  0.3490 -0.3038
 3665SOL    HW212609   0.978   1.886   8.906  0.6980 -0.7802 -0.9516
 3666SOL     OW12610   3.054   1.160   9.531 -0.1219 -0.1115 -0.6008
 3666SOL    HW112611   2.979   1.176   9.588  1.0950 -0.7973  1.2897
 3666SOL    HW212612   3.071   1.066   9.540  1.9228  0.2995  0.3053
 3667SOL     OW12613   6.573   6.468   5.097 -0.3137  0.3338 -0.1781
 3667SOL    HW112614   6.556   6.373   5.095 -1.2034  0.3037  2.9873
 3667SOL    HW212615   6.493   6.506   5.062 -0.2909 -0.0642 -0.6812
 3668SOL     OW12616   3.497   9.037   8.869  0.2116  0.4533  0.1609
 3668SOL    HW112617   3.509   9.000   8.957  1.2029 -0.1693 -0.2078
 3668SOL    HW212618   3.515   8.964   8.810 -1.1866  0.6696 -0.5653
 3669SOL     OW12619   1.789   2.469   9.313  1.1421  0.1162 -0.1009
 3669SOL    HW112620   1.861   2.495   9.255  2.3317 -0.4355  1.0793
 3669SOL    HW212621   1.710   2.491   9.264  2.0609 -1.7028 -2.6165
 3670SOL     OW12622   8.120   1.054   8.513  0.6401  0.0540 -0.1606
 3670SOL    HW112623   8.077   1.024   8.433 -0.1462 -1.3855  0.7514
 3670SOL    HW212624   8.050   1.054   8.579  1.4441  0.4065  0.7196
 3671SOL     OW12625   5.493   5.989   0.204 -0.3661  0.7144  0.0698
 3671SOL    HW112626   5.456   6.025   0.124 -1.8784  0.3375  0.5812
 3671SOL    HW212627   5.446   5.907   0.218 -0.0562  0.7279  1.2897
 3672SOL     OW12628   5.173   6.837   0.547 -0.3277 -0.4700  0.6172
 3672SOL    HW112629   5.237   6.776   0.583  0.3070 -0.7586 -0.8885
 3672SOL    HW212630   5.211   6.923   0.563  1.2803 -0.6830 -1.6113
 3673SOL     OW12631   2.918   0.408   3.088  0.1770  0.8452 -0.4892
 3673SOL    HW112632   2.987   0.342   3.081  0.0609  0.7161 -0.4282
 3673SOL    HW212633   2.963   0.486   3.119  0.2329  0.6488 -0.0496
 3674SOL     OW12634   7.677   2.160   2.734  0.1497 -0.8227  0.2980
 3674SOL    HW112635   7.678   2.113   2.650  0.7958  1.2966 -0.9736
 3674SOL    HW212636   7.744   2.117   2.786  0.2017 -1.7843 -0.5304
 3675SOL     OW12637   8.866   1.822   2.032 -0.3465 -0.4855  0.1823
 3675SOL    HW112638   8.953   1.835   1.993 -1.3540  0.7699 -1.8038
 3675SOL    HW212639   8.884   1.797   2.123  2.0802 -0.4865 -0.2351
 3676SOL     OW12640   9.350   6.259   3.349 -0.2826 -0.1902 -0.4629
 3676SOL    HW112641   9.262   6.222   3.352 -0.1819 -0.5156 -1.2278
 3676SOL    HW212642   9.370   6.281   3.440 -2.2535  2.5627 -0.5693
 3677SOL     OW12643   6.957   7.898   2.903 -0.0423 -0.5116 -0.3762
 3677SOL    HW112644   6.897   7.955   2.951  0.8369 -0.2130  0.3988
 3677SOL    HW212645   6.902   7.854   2.839 -1.2910 -1.0422  1.0047
 3678SOL     OW12646   0.653   0.014   9.798 -0.4960 -0.7447  0.2832
 3678SOL    HW112647   0.559   0.032   9.795 -0.2881  0.3830  0.2758
 3678SOL    HW212648   0.695   0.095   9.770  0.4624 -1.7913 -1.4978
 3679SOL     OW12649   3.114   0.964   7.135 -0.0354 -0.1624 -0.7638
 3679SOL    HW112650   3.086   1.040   7.186 -0.8866 -0.1071 -1.2961
 3679SOL    HW212651   3.165   1.001   7.063  0.8227 -0.2132 -0.2000
 3680SOL     OW12652   0.500   6.666   1.525 -0.3396 -0.4291  0.3040
 3680SOL    HW112653   0.521   6.712   1.444 -0.7543  0.3306  0.6115
 3680SOL    HW212654   0.573   6.687   1.584  0.1283 -1.2536  0.0280
 3681SOL     OW12655   2.654   7.072   8.184  0.2075  0.1311  0.3083
 3681SOL    HW112656   2.602   7.152   8.193  1.4771  1.0110  0.1837
 3681SOL    HW212657   2.697   7.081   8.099 -1.6751 -1.9874 -0.9937
 3682SOL     OW12658   9.767   7.172   0.003 -0.0041  0.2581 -0.1675
 3682SOL    HW112659   9.736   7.145   0.090 -0.5563  0.0734 -0.4163
 3682SOL    HW212660   9.796   7.262   0.015 -0.7862  0.4897  0.0458
 3683SOL     OW12661   2.210   1.094   2.756 -0.0177  0.0965 -0.0672
 3683SOL    HW112662   2.159   1.014   2.759  1.0995 -0.6662 -0.4576
 3683SOL    HW212663   2.298   1.065   2.730  0.9150  1.1932  1.7011
 3684SOL     OW12664   4.440   6.621   0.648  0.5672  0.0249  0.3016
 3684SOL    HW112665   4.497   6.632   0.571  2.1617 -1.2782  1.2358
 3684SOL    HW212666   4.494   6.649   0.722 -0.0657 -1.0989  1.2125
 3685SOL     OW12667   3.509   4.480   3.073  0.4971  0.3755 -0.4102
 3685SOL    HW112668   3.467   4.519   3.150 -0.7134 -0.4030 -0.6597
 3685SOL    HW212669   3.571   4.547   3.044  2.8677 -0.2260  2.6689
 3686SOL     OW12670   1.010   8.404   7.646 -0.2437 -0.3212  0.2896
 3686SOL    HW112671   0.951   8.397   7.721 -1.7846  1.7089 -0.6273
 3686SOL    HW212672   1.030   8.497   7.640 -0.6276 -0.3268 -2.1109
 3687SOL     OW12673   9.148   5.188   3.996  0.6621  0.1658  0.0188
 3687SOL    HW112674   9.140   5.109   3.942 -2.9041  0.3477  0.0442
 3687SOL    HW212675   9.174   5.257   3.934  0.6960 -0.4292 -0.6361
 3688SOL     OW12676   5.399   7.453   4.895  0.7793 -0.2844 -0.1286
 3688SOL    HW112677   5.306   7.474   4.886  0.2624 -2.2196  0.1102
 3688SOL    HW212678   5.422   7.414   4.810  1.5828  0.8354 -0.4392
 3689SOL     OW12679   5.851   5.366   1.499 -0.4240  0.1459  0.6792
 3689SOL    HW112680   5.757   5.356   1.484 -0.1256 -0.9036 -0.7080
 3689SOL    HW212681   5.890   5.369   1.411  1.0833 -2.3254  1.1588
 3690SOL     OW12682   2.921   9.261   3.262  0.1491 -0.3450 -0.4348
 3690SOL    HW112683   2.877   9.304   3.189 -0.6401 -0.6221 -0.1257
 3690SOL    HW212684   2.923   9.327   3.332 -1.1126 -0.8090  0.0589
 3691SOL     OW12685   5.435   4.853   2.250  0.1865  0.4219  0.1038
 3691SOL    HW112686   5.380   4.900   2.314  0.2834  0.4971  0.1318
 3691SOL    HW212687   5.414   4.761   2.263 -0.1228  0.4665 -0.0592
 3692SOL     OW12688   3.617   0.322   7.853  0.4140  0.0031 -0.2667
 3692SOL    HW112689   3.614   0.416   7.836  0.5933 -0.0566 -0.6295
 3692SOL    HW212690   3.564   0.311   7.932 -0.6665  0.2484 -0.9236
 3693SOL     OW12691   6.473   7.396   7.448 -0.2907 -0.3198  0.2438
 3693SOL    HW112692   6.404   7.461   7.458  0.9940  0.9337  1.4754
 3693SOL    HW212693   6.540   7.440   7.395 -0.1530 -1.2866 -0.4117
 3694SOL     OW12694   2.299   5.286   7.916  0.9841 -0.1572 -0.1081
 3694SOL    HW112695   2.357   5.312   7.988  0.7093  0.7128 -0.1978
 3694SOL    HW212696   2.246   5.363   7.898  2.1992  0.2275 -2.4038
 3695SOL     OW12697   4.517   2.492   3.234  0.1627 -0.0169 -0.0271
 3695SOL    HW112698   4.568   2.483   3.153  0.4003 -0.0187  0.1191
 3695SOL    HW212699   4.584   2.500   3.302  0.0476  2.8725 -0.1140
 3696SOL     OW12700   8.346   1.902   2.381 -0.1262  0.3135  0.6492
 3696SOL    HW112701   8.441   1.904   2.370 -0.2458 -1.5073 -1.4770
 3696SOL    HW212702   8.317   1.987   2.351  0.7952  0.8013  1.0832
 3697SOL     OW12703   2.137   8.565   8.449 -0.0100 -0.4515 -0.4803
 3697SOL    HW112704   2.172   8.509   8.380 -1.0305  0.8183 -2.1018
 3697SOL    HW212705   2.141   8.654   8.412  4.9274  1.3438  3.2266
 3698SOL     OW12706   4.269   4.307   7.164  0.2254  0.3003  0.1109
 3698SOL    HW112707   4.272   4.383   7.222 -0.4572 -0.0434  0.6046
 3698SOL    HW212708   4.359   4.273   7.166  0.6951  1.4390 -0.5990
 3699SOL     OW12709   3.644   0.881   5.531 -0.1582 -0.3097  0.0164
 3699SOL    HW112710   3.624   0.789   5.516 -0.8738 -0.1955  0.2167
 3699SOL    HW212711   3.586   0.907   5.602  0.3787  0.1760  0.2901
 3700SOL     OW12712   1.397   0.991   1.083 -0.0278  0.0529  0.9503
 3700SOL    HW112713   1.403   1.059   1.151 -1.6852  1.8854 -0.6376
 3700SOL    HW212714   1.304   0.976   1.072 -0.0326  1.7411 -2.6417
 3701SOL     OW12715   4.759   4.731   5.272 -0.2778  0.1616  0.0525
 3701SOL    HW112716   4.789   4.670   5.205  0.6769 -0.9119  1.3855
 3701SOL    HW212717   4.668   4.705   5.289 -0.5131  0.4178 -0.7630
 3702SOL     OW12718   9.033   5.302   6.538  0.0724  0.1054  0.0516
 3702SOL    HW112719   9.018   5.268   6.450 -3.0110 -0.3293  0.6027
 3702SOL    HW212720   9.072   5.230   6.586 -1.4294 -0.8953 -0.1610
 3703SOL     OW12721   3.717   8.978   7.850  0.3049  0.0372  0.2720
 3703SOL    HW112722   3.657   9.034   7.900  0.8202  0.8913 -0.0451
 3703SOL    HW212723   3.665   8.900   7.830 -0.6952  0.7409  0.0503
 3704SOL     OW12724   6.660   7.070   3.474 -0.2702  0.0072  0.7635
 3704SOL    HW112725   6.695   7.095   3.388  0.9934  0.5452  1.4060
 3704SOL    HW212726   6.733   7.026   3.518 -1.6519 -2.5550  0.6532
 3705SOL     OW12727   5.876   9.709   4.112  0.0658  0.0270  0.2413
 3705SOL    HW112728   5.965   9.740   4.130  0.1852 -0.3806  0.3613
 3705SOL    HW212729   5.888   9.623   4.072 -0.3039 -1.5281  3.1497
 3706SOL     OW12730   0.724   1.637   9.782  0.3186 -0.2647 -0.4084
 3706SOL    HW112731   0.662   1.607   9.848 -1.7157  0.6518 -1.8056
 3706SOL    HW212732   0.782   1.697   9.830  0.5752 -1.6292  1.0602
 3707SOL     OW12733   4.247   1.396   9.054  0.1067  0.4898 -0.5575
 3707SOL    HW112734   4.230   1.320   8.998  0.9066 -0.0837 -0.0517
 3707SOL    HW212735   4.161   1.426   9.081 -0.2206 -0.6724 -0.2281
 3708SOL     OW12736   5.271   4.901   7.607  0.1001 -0.0145  0.1420
 3708SOL    HW112737   5.280   4.925   7.700 -0.3442  0.2316  0.1267
 3708SOL    HW212738   5.359   4.875   7.580  0.1503 -0.4888  0.7452
 3709SOL     OW12739   0.704   5.965   8.636 -0.0621  0.1370 -0.7272
 3709SOL    HW112740   0.753   5.933   8.711 -1.0884 -0.2734 -0.2035
 3709SOL    HW212741   0.690   5.886   8.582  0.0757  0.2966 -0.9962
 3710SOL     OW12742   1.212   1.107   6.701 -0.4360  0.2516 -0.4003
 3710SOL    HW112743   1.257   1.093   6.784 -1.6183 -1.2770  0.0231
 3710SOL    HW212744   1.120   1.093   6.721 -0.8784  1.0951 -1.7172
 3711SOL     OW12745   3.038   7.676   0.419 -0.2901  0.0048  0.2897
 3711SOL    HW112746   3.013   7.765   0.443 -2.2664 -1.2330  3.3274
 3711SOL    HW212747   3.107   7.653   0.480 -1.3008 -1.2312  1.0129
 3712SOL     OW12748   2.757   7.644   0.678 -0.5165 -0.0979 -0.0801
 3712SOL    HW112749   2.678   7.688   0.648 -0.8864 -0.7130 -0.0305
 3712SOL    HW212750   2.815   7.642   0.601  0.9062  3.3909  0.7027
 3713SOL     OW12751   4.876   4.924   6.405  0.7481 -0.1774  0.8736
 3713SOL    HW112752   4.882   4.878   6.321  1.9799 -0.5040  1.1306
 3713SOL    HW212753   4.882   5.017   6.381 -1.2586 -0.1174  0.4028
 3714SOL     OW12754   5.920   8.414   3.084  0.3991 -0.1186  0.0938
 3714SOL    HW112755   5.828   8.407   3.056 -0.1538 -0.1417  1.8221
 3714SOL    HW212756   5.930   8.505   3.112  0.1442 -0.7183  2.3006
 3715SOL     OW12757   8.283   0.852   8.627 -0.1470 -0.7504  0.1775
 3715SOL    HW112758   8.209   0.816   8.676 -0.0644 -0.9946  0.1220
 3715SOL    HW212759   8.263   0.945   8.619 -0.2172 -0.7296  0.5749
 3716SOL     OW12760   6.518   7.554   5.297 -0.4421 -0.3180 -0.3490
 3716SOL    HW112761   6.510   7.643   5.262 -1.2544 -0.4152 -0.4272
 3716SOL    HW212762   6.587   7.560   5.362  1.2166 -0.1552 -2.0362
 3717SOL     OW12763   1.702   0.098   3.543 -0.5716 -0.3039  0.0670
 3717SOL    HW112764   1.633   0.094   3.476 -2.0049 -1.3044  1.5208
 3717SOL    HW212765   1.764   0.162   3.510 -2.5738  1.1880 -1.0001
 3718SOL     OW12766   6.587   4.532   2.526  0.0735  0.2341  0.3246
 3718SOL    HW112767   6.568   4.573   2.611 -0.4479 -1.2528  0.9595
 3718SOL    HW212768   6.560   4.441   2.537  4.6937 -1.3797  0.2608
 3719SOL     OW12769   3.506   0.299   1.697  0.0816 -0.3935 -0.2180
 3719SOL    HW112770   3.558   0.361   1.645  0.4837 -0.1988  0.4080
 3719SOL    HW212771   3.417   0.312   1.666  0.3408 -0.4437 -1.0256
 3720SOL     OW12772   3.171   3.187   4.231  0.3139 -0.0971  0.1623
 3720SOL    HW112773   3.179   3.096   4.201  0.5033 -0.3196  0.8741
 3720SOL    HW212774   3.097   3.222   4.181  0.3115 -0.6042 -0.2026
 3721SOL     OW12775   4.517   3.739   1.034  0.2140 -0.0832  0.5236
 3721SOL    HW112776   4.480   3.806   1.090 -2.5592 -0.8371 -0.2367
 3721SOL    HW212777   4.565   3.787   0.966 -3.4668  1.4416 -1.2815
 3722SOL     OW12778   8.267   6.685   1.307 -0.0628 -0.5081  0.0209
 3722SOL    HW112779   8.276   6.751   1.376 -0.3834  0.1498 -0.5592
 3722SOL    HW212780   8.341   6.701   1.249 -0.7902  0.1126 -0.7524
 3723SOL     OW12781   9.581   0.974   3.052  0.9362  0.0816 -0.3538
 3723SOL    HW112782   9.501   0.921   3.045  0.0957  1.3406 -0.6923
 3723SOL    HW212783   9.641   0.936   2.988  0.4647 -0.6453 -0.3799
 3724SOL     OW12784   2.622   1.516   9.783  0.6381  0.4125 -0.0179
 3724SOL    HW112785   2.597   1.599   9.741 -0.2814  0.1980  0.0801
 3724SOL    HW212786   2.714   1.528   9.807  0.0148  2.1383  1.7437
 3725SOL     OW12787   5.735   3.785   6.116 -0.1441 -0.0549  0.1582
 3725SOL    HW112788   5.670   3.746   6.058  1.4498 -2.1298 -0.3374
 3725SOL    HW212789   5.815   3.787   6.064  0.7011  0.4650  1.4365
 3726SOL     OW12790   4.237   6.142   4.254 -0.4386  0.2022 -0.0580
 3726SOL    HW112791   4.174   6.102   4.194  2.6002  0.6360 -3.9122
 3726SOL    HW212792   4.196   6.224   4.280 -2.5328 -0.7350 -0.2117
 3727SOL     OW12793   7.212   9.008   5.729 -0.4058  0.4171  0.1932
 3727SOL    HW112794   7.167   8.991   5.812  0.1275 -0.7795  0.2653
 3727SOL    HW212795   7.148   9.054   5.675 -1.4244 -0.5120  0.5846
 3728SOL     OW12796   3.736   4.553   3.426 -0.2861 -0.4502 -0.2216
 3728SOL    HW112797   3.801   4.610   3.385 -0.9890 -0.7271 -1.7773
 3728SOL    HW212798   3.661   4.610   3.442 -0.2765 -0.5064  0.0290
 3729SOL     OW12799   9.185   1.934   2.226 -0.5183  0.5812 -0.1342
 3729SOL    HW112800   9.136   2.014   2.248 -0.5142 -0.0140  2.4267
 3729SOL    HW212801   9.117   1.869   2.211 -0.5256  0.4474  0.4642
 3730SOL     OW12802   0.124   8.437   5.430 -0.5032 -0.4394  0.4725
 3730SOL    HW112803   0.046   8.443   5.485 -0.6301 -1.5986  0.4435
 3730SOL    HW212804   0.131   8.344   5.408 -0.1448 -0.0843 -1.0237
 3731SOL     OW12805   6.080   5.982   2.620 -0.2724  0.1056 -0.6006
 3731SOL    HW112806   6.039   5.933   2.548  1.8810 -2.0050 -0.5023
 3731SOL    HW212807   6.070   5.925   2.696  1.3175  0.3101 -0.2187
 3732SOL     OW12808   9.297   2.941   3.893  0.6345  0.1508 -0.2010
 3732SOL    HW112809   9.372   2.891   3.863 -0.1993 -0.0291 -2.1472
 3732SOL    HW212810   9.269   2.991   3.816 -0.4626  1.1839  0.8274
 3733SOL     OW12811   4.389   4.303   8.185 -0.1034 -0.1057  0.6205
 3733SOL    HW112812   4.465   4.316   8.129 -0.6158  0.2401 -0.0083
 3733SOL    HW212813   4.399   4.367   8.255 -0.8467  1.3750 -0.5748
 3734SOL     OW12814   9.433   8.473   1.299 -0.3169 -0.0173  0.0300
 3734SOL    HW112815   9.455   8.566   1.293  0.6320 -0.1383  1.2691
 3734SOL    HW212816   9.348   8.470   1.342 -1.3745  0.3264 -1.8991
 3735SOL     OW12817   2.193   5.364   2.947  0.6617  0.0740  0.0335
 3735SOL    HW112818   2.245   5.330   2.874 -0.7510  0.1119 -1.0092
 3735SOL    HW212819   2.107   5.325   2.935 -0.2579  1.9482  0.3307
 3736SOL     OW12820   5.971   8.523   6.887 -0.2130 -0.4681  0.3144
 3736SOL    HW112821   5.936   8.555   6.804  1.7903  0.1036 -0.3646
 3736SOL    HW212822   5.901   8.539   6.950 -1.3777  0.0678 -1.0539
 3737SOL     OW12823   8.582   1.475   0.025 -0.0619 -0.0024  0.4078
 3737SOL    HW112824   8.616   1.386   0.035  1.5535  0.6018  0.6704
 3737SOL    HW212825   8.491   1.464  -0.002  0.3877 -1.7397 -0.5173
 3738SOL     OW12826   8.676   6.654   5.376  0.7518 -0.2005  0.3145
 3738SOL    HW112827   8.656   6.564   5.400  0.0176 -0.4995 -1.2660
 3738SOL    HW212828   8.635   6.708   5.443 -0.6065 -0.9933  0.1406
 3739SOL     OW12829   4.496   5.693   3.229 -0.1891 -0.0929  0.2779
 3739SOL    HW112830   4.574   5.738   3.263  1.6568 -1.6649 -1.5414
 3739SOL    HW212831   4.446   5.668   3.306  1.2700  0.6994  1.5341
 3740SOL     OW12832   6.917   1.421   8.097 -0.0514 -0.4083 -0.8460
 3740SOL    HW112833   6.988   1.409   8.034 -0.3093  1.5987 -1.5794
 3740SOL    HW212834   6.837   1.405   8.046 -0.2448  0.8140 -0.9422
 3741SOL     OW12835   6.295   6.357   1.920 -0.0051  0.2026  0.2279
 3741SOL    HW112836   6.298   6.308   1.838 -0.5038 -0.8493  0.8172
 3741SOL    HW212837   6.309   6.291   1.988 -0.6766  0.8724  1.0479
 3742SOL     OW12838   7.026   8.125   2.050  0.3077  0.0989 -0.1641
 3742SOL    HW112839   6.946   8.143   2.001  1.3578  0.6115 -1.7658
 3742SOL    HW212840   7.083   8.080   1.988  1.2628 -0.2716  0.9521
 3743SOL     OW12841   5.616   6.501   3.617 -0.0741 -0.3511 -0.2438
 3743SOL    HW112842   5.659   6.574   3.572 -1.5216 -0.1020 -1.3056
 3743SOL    HW212843   5.646   6.423   3.571  2.2957 -0.6111  1.5456
 3744SOL     OW12844   8.266   1.102   5.012  0.0931 -0.1780 -0.0461
 3744SOL    HW112845   8.245   1.191   4.987  1.6078 -0.2446 -1.7553
 3744SOL    HW212846   8.240   1.048   4.938 -1.0689 -1.2428  1.0718
 3745SOL     OW12847   4.143   2.972   3.020  0.4180  0.3395 -0.4989
 3745SOL    HW112848   4.141   3.054   3.069 -0.0858  0.1243 -0.1399
 3745SOL    HW212849   4.080   2.985   2.949 -3.0639 -1.1762  2.0208
 3746SOL     OW12850   2.709   3.687   6.512 -0.0045  0.1753  0.1738
 3746SOL    HW112851   2.795   3.727   6.516 -0.3551  1.0557 -0.6914
 3746SOL    HW212852   2.726   3.593   6.517  1.1931  0.2054 -1.8816
 3747SOL     OW12853   3.986   9.755   5.225 -0.5568 -0.3010 -0.0453
 3747SOL    HW112854   3.904   9.714   5.199 -0.6299  0.4373 -1.0274
 3747SOL    HW212855   4.042   9.748   5.148 -0.1720  0.4163  0.1623
 3748SOL     OW12856   5.599   3.843   5.412 -0.4954 -0.9546 -0.1295
 3748SOL    HW112857   5.611   3.772   5.475  0.7296  1.0772  2.0832
 3748SOL    HW212858   5.507   3.867   5.421 -0.4197 -0.9238  0.6624
 3749SOL     OW12859   2.844   6.333   2.145 -0.6229 -0.3586  0.0157
 3749SOL    HW112860   2.862   6.355   2.053  0.3926 -0.5330  0.1643
 3749SOL    HW212861   2.854   6.416   2.191 -1.3489 -0.2271 -0.0544
 3750SOL     OW12862   9.685   5.237   5.458  0.2335  0.1337  0.0667
 3750SOL    HW112863   9.778   5.216   5.448 -0.2396 -1.3491 -1.5315
 3750SOL    HW212864   9.670   5.310   5.398  0.2240 -0.0365 -0.1365
 3751SOL     OW12865   9.418   8.007   4.708 -0.3216 -0.1446  0.5400
 3751SOL    HW112866   9.380   7.991   4.622  1.3739 -0.2434 -0.2152
 3751SOL    HW212867   9.400   8.100   4.725  2.2529  0.8608 -1.5024
 3752SOL     OW12868   8.675   8.953   9.330  0.2439 -0.4550  0.0894
 3752SOL    HW112869   8.751   8.998   9.366 -1.5221  2.4461  0.5182
 3752SOL    HW212870   8.602   8.983   9.383 -1.2420 -3.3721 -0.0973
 3753SOL     OW12871   3.466   6.976   3.862  0.5907 -0.2697  0.3216
 3753SOL    HW112872   3.457   6.998   3.955  0.8670  1.4416 -0.0412
 3753SOL    HW212873   3.378   6.947   3.837  0.1399  0.6412  0.7798
 3754SOL     OW12874   8.246   8.492   2.008 -0.1499 -0.0773  0.1978
 3754SOL    HW112875   8.251   8.442   2.089  0.6435  0.3500  0.4260
 3754SOL    HW212876   8.153   8.496   1.987 -0.4711  0.6607  1.6368
 3755SOL     OW12877   5.436   0.734   7.796  0.4109  0.2016  0.2800
 3755SOL    HW112878   5.409   0.820   7.764  0.2547  0.7031  1.6821
 3755SOL    HW212879   5.373   0.673   7.759 -0.2519  0.8644  0.2976
 3756SOL     OW12880   3.246   3.369   7.009 -0.5171  0.0526 -0.2118
 3756SOL    HW112881   3.203   3.293   6.971 -1.0069 -0.3458  1.0906
 3756SOL    HW212882   3.340   3.350   7.001 -0.6207 -0.2919 -0.6584
 3757SOL     OW12883   8.531   4.550   5.279  0.6029  0.0406  0.4311
 3757SOL    HW112884   8.437   4.537   5.263  1.1224 -1.3045 -2.2061
 3757SOL    HW212885   8.550   4.636   5.242  0.6629 -0.4347 -0.7093
 3758SOL     OW12886   1.336   8.016   4.687  0.0890 -0.0505 -0.0497
 3758SOL    HW112887   1.400   7.957   4.648  1.7956  2.5227 -1.4721
 3758SOL    HW212888   1.253   7.994   4.646  0.2188 -2.6624  0.9245
 3759SOL     OW12889   6.356   3.323   0.423 -0.0004 -0.0683  0.0238
 3759SOL    HW112890   6.365   3.413   0.456 -0.7410 -0.7840  2.4303
 3759SOL    HW212891   6.424   3.273   0.469  0.4158 -0.7548 -1.2981
 3760SOL     OW12892   8.681   6.155   9.030  0.0759 -0.2367  0.1135
 3760SOL    HW112893   8.649   6.093   9.095  0.3411 -0.8177 -0.3004
 3760SOL    HW212894   8.754   6.199   9.073 -1.0921  0.9331  0.9809
 3761SOL     OW12895   4.585   9.044   6.593 -0.0002 -0.2581 -0.3680
 3761SOL    HW112896   4.575   9.128   6.638 -0.5859 -0.1650 -0.6663
 3761SOL    HW212897   4.679   9.025   6.598  0.5933  1.6315 -2.4130
 3762SOL     OW12898   5.878   9.536   0.755 -0.4283 -0.3961 -0.1857
 3762SOL    HW112899   5.973   9.528   0.742 -0.1843  1.5091  0.0974
 3762SOL    HW212900   5.858   9.475   0.825  0.7975 -0.0644  0.4827
 3763SOL     OW12901   6.748   2.573   0.711  0.5346  0.2765  1.0021
 3763SOL    HW112902   6.731   2.584   0.618 -0.3876 -1.5408  0.8949
 3763SOL    HW212903   6.795   2.652   0.737 -0.6026  1.5768 -0.6472
 3764SOL     OW12904   2.807   8.358   2.900  0.1110 -0.1950 -0.5461
 3764SOL    HW112905   2.846   8.443   2.920 -0.0519 -0.2354 -0.0341
 3764SOL    HW212906   2.793   8.318   2.986 -2.1191  0.2955 -0.6257
 3765SOL     OW12907   0.582   2.147   6.947  0.0503  0.6926  0.5205
 3765SOL    HW112908   0.535   2.068   6.921  1.3075 -0.1303  0.6779
 3765SOL    HW212909   0.518   2.197   6.997 -0.4792 -0.7062  1.3074
 3766SOL     OW12910   9.270   9.795   5.223  0.7430 -0.3249 -0.3225
 3766SOL    HW112911   9.238   9.832   5.305  0.5847  0.4441 -0.7228
 3766SOL    HW212912   9.216   9.717   5.209 -0.1520  0.2871 -0.3764
 3767SOL     OW12913   0.649   4.808   8.303 -0.1326 -0.0328  0.2127
 3767SOL    HW112914   0.582   4.740   8.304 -0.2608  0.0681  1.7089
 3767SOL    HW212915   0.660   4.830   8.211 -1.7596 -0.4382 -0.1109
 3768SOL     OW12916   4.305   7.484   4.966  0.5284 -0.2132  0.1693
 3768SOL    HW112917   4.327   7.576   4.953  2.2311 -0.8177 -1.8382
 3768SOL    HW212918   4.219   7.473   4.925  0.5748  0.3684 -0.0848
 3769SOL     OW12919   6.109   1.520   4.170  0.1123 -0.1726 -0.4310
 3769SOL    HW112920   6.188   1.572   4.184 -0.8956  0.8874  1.5934
 3769SOL    HW212921   6.123   1.479   4.084  1.3222  2.7320 -1.7626
 3770SOL     OW12922   8.532   4.968   3.488 -0.1088 -0.3313  0.1808
 3770SOL    HW112923   8.501   5.051   3.524 -0.7040  0.5928 -2.2248
 3770SOL    HW212924   8.608   4.993   3.434 -0.8033 -1.1801 -1.2438
 3771SOL     OW12925   4.709   7.847   0.755  0.0982  0.5367  0.0179
 3771SOL    HW112926   4.717   7.788   0.680  0.0372 -1.8035  1.7499
 3771SOL    HW212927   4.791   7.835   0.804  0.8355  3.1904 -0.3773
 3772SOL     OW12928   7.160   0.964   0.386 -0.5833  0.3836  0.0201
 3772SOL    HW112929   7.162   0.968   0.482 -1.4059  0.8693  0.0204
 3772SOL    HW212930   7.204   1.044   0.358  1.5286 -0.7357 -0.0344
 3773SOL     OW12931   8.829   0.368   7.992  0.0094  0.0006 -0.5562
 3773SOL    HW112932   8.738   0.356   8.019 -0.2979 -0.4170 -1.7206
 3773SOL    HW212933   8.874   0.395   8.072 -1.2702  0.9394 -0.1131
 3774SOL     OW12934   6.172   3.045   5.468 -0.1975 -0.3073  0.1048
 3774SOL    HW112935   6.100   2.983   5.461  0.8756 -1.3772 -4.3902
 3774SOL    HW212936   6.140   3.125   5.426  0.6219 -0.2079 -0.3615
 3775SOL     OW12937   7.314   8.767   1.894 -0.1289 -0.5619  0.5577
 3775SOL    HW112938   7.344   8.848   1.853  0.9645 -1.5131 -0.5940
 3775SOL    HW212939   7.330   8.699   1.829 -1.1223 -1.7067  1.4547
 3776SOL     OW12940   8.901   9.609   0.205  0.2214  0.1212 -0.0270
 3776SOL    HW112941   8.836   9.608   0.276 -1.2677 -0.2407 -1.3257
 3776SOL    HW212942   8.911   9.702   0.184  2.1628  0.4172  1.8920
 3777SOL     OW12943   9.119   5.384   4.443 -0.7023  0.5999 -0.5130
 3777SOL    HW112944   9.072   5.427   4.372 -2.2822 -1.6527 -0.9640
 3777SOL    HW212945   9.071   5.408   4.522 -1.9214 -0.6794 -0.8274
 3778SOL     OW12946   7.800   8.310   6.761 -0.1158 -0.3147  0.1837
 3778SOL    HW112947   7.872   8.368   6.735 -0.2888  0.2597  0.9665
 3778SOL    HW212948   7.842   8.226   6.776  0.0368 -0.6163 -1.6602
 3779SOL     OW12949   8.833   1.139   9.327  0.3896 -0.0369 -0.2322
 3779SOL    HW112950   8.896   1.178   9.266  1.4068  0.9765  1.4000
 3779SOL    HW212951   8.841   1.045   9.312  0.6742  0.1785 -1.5846
 3780SOL     OW12952   1.279   2.272   2.049 -0.0525  0.1995  0.1759
 3780SOL    HW112953   1.238   2.232   2.126 -0.3339 -0.0837 -0.1211
 3780SOL    HW212954   1.367   2.297   2.079  0.2826 -1.0088  0.2549
 3781SOL     OW12955   4.498   3.168   4.002  0.0197 -0.3185 -0.3054
 3781SOL    HW112956   4.423   3.223   4.023  0.5909 -0.1483  1.3906
 3781SOL    HW212957   4.520   3.124   4.084  1.6272 -0.5407 -0.8210
 3782SOL     OW12958   9.023   0.992   4.310  0.5539 -0.0183  0.4633
 3782SOL    HW112959   8.934   1.020   4.332 -0.0178 -0.7626 -0.8203
 3782SOL    HW212960   9.061   0.966   4.394 -0.6981 -0.4127  0.9384
 3783SOL     OW12961   8.056   7.630   5.283  0.3697 -0.3310  0.5793
 3783SOL    HW112962   8.007   7.616   5.202 -0.7410 -1.5046  1.4095
 3783SOL    HW212963   8.010   7.576   5.348  1.7784 -0.1342  1.7808
 3784SOL     OW12964   2.623   7.709   2.827  0.2690 -0.4910 -0.1055
 3784SOL    HW112965   2.711   7.732   2.855 -0.1131 -2.1426  2.7838
 3784SOL    HW212966   2.565   7.764   2.879 -0.4310 -1.2272 -0.0710
 3785SOL     OW12967   9.289   7.406   8.245  0.4261  0.3563 -0.0490
 3785SOL    HW112968   9.352   7.394   8.173 -1.1954  1.8503 -1.8360
 3785SOL    HW212969   9.204   7.413   8.202 -1.0244 -1.4737  2.2811
 3786SOL     OW12970   1.866   2.104   7.575 -0.0021 -0.1325 -0.7118
 3786SOL    HW112971   1.935   2.171   7.577  0.3021 -0.3898 -1.7731
 3786SOL    HW212972   1.812   2.128   7.499  0.4153 -1.3656 -1.4300
 3787SOL     OW12973   1.763   8.252   4.893 -0.1742 -0.0142  0.5957
 3787SOL    HW112974   1.768   8.264   4.988 -4.3874  0.4966  0.9077
 3787SOL    HW212975   1.730   8.335   4.860  0.2909 -0.5162 -1.2498
 3788SOL     OW12976   6.773   0.654   1.726  0.2890  0.2598  0.1343
 3788SOL    HW112977   6.712   0.592   1.766  0.7819 -0.2180  0.1677
 3788SOL    HW212978   6.831   0.599   1.673  0.0868  0.8104 -0.6734
 3789SOL     OW12979   9.141   6.113   0.830  0.1603 -0.4535  0.3242
 3789SOL    HW112980   9.227   6.110   0.789 -0.4883  0.8538 -1.2508
 3789SOL    HW212981   9.110   6.202   0.813 -1.4793 -0.8797  0.9117
 3790SOL     OW12982   8.040   6.243   9.597 -0.0883 -0.8778  0.2744
 3790SOL    HW112983   8.097   6.309   9.636 -0.4568 -0.1271 -0.4348
 3790SOL    HW212984   7.978   6.220   9.667 -0.2105 -0.1758  0.4032
 3791SOL     OW12985   4.864   4.610   7.784  1.2828 -0.1408  0.0409
 3791SOL    HW112986   4.819   4.577   7.706  2.8318  0.3922 -1.1377
 3791SOL    HW212987   4.945   4.648   7.750  0.9645  2.1787  1.6515
 3792SOL     OW12988   4.756   5.809   8.464 -0.5416  0.0707  0.6999
 3792SOL    HW112989   4.735   5.780   8.553 -1.4185  1.3040  0.9141
 3792SOL    HW212990   4.817   5.743   8.431  0.0773 -0.2191  2.3423
 3793SOL     OW12991   5.063   3.833   7.100  0.0347 -0.1040  0.2391
 3793SOL    HW112992   4.996   3.840   7.168  0.9531  0.0676  1.1516
 3793SOL    HW212993   5.025   3.773   7.035 -0.2772 -1.4922  1.6342
 3794SOL     OW12994   6.073   3.211   3.790  0.0943 -0.2064 -0.0488
 3794SOL    HW112995   6.101   3.302   3.798  0.3879 -0.0100 -2.5262
 3794SOL    HW212996   6.150   3.160   3.817 -0.0142  0.2653  1.1810
 3795SOL     OW12997   0.922   8.759   1.693  0.0571 -0.1486  0.7108
 3795SOL    HW112998   0.959   8.672   1.676  2.9840  1.0874  0.1218
 3795SOL    HW212999   0.893   8.790   1.607 -1.4230 -0.6570  0.9928
 3796SOL     OW13000   2.199   2.051   8.209  0.5302  0.3874  0.0935
 3796SOL    HW113001   2.126   2.070   8.267 -0.3234 -1.3423 -0.3331
 3796SOL    HW213002   2.160   2.050   8.121  1.0429 -0.5147 -0.1393
 3797SOL     OW13003   6.394   2.936   2.905 -0.4617 -0.1530 -0.0992
 3797SOL    HW113004   6.391   2.881   2.826 -0.8362 -0.9849  0.4847
 3797SOL    HW213005   6.480   2.918   2.943  0.4214  1.5248 -1.1926
 3798SOL     OW13006   0.968   4.369   6.962  0.2698 -0.3400 -0.1903
 3798SOL    HW113007   0.884   4.324   6.961  0.6544 -1.0745 -0.9948
 3798SOL    HW213008   1.026   4.310   7.010  0.5738 -0.3381 -0.5454
 3799SOL     OW13009   6.261   0.964   6.010  0.0519 -0.4716 -0.1803
 3799SOL    HW113010   6.281   1.057   6.003  0.1046 -0.4925 -0.2958
 3799SOL    HW213011   6.279   0.943   6.102 -1.9542  0.1141  0.4009
 3800SOL     OW13012   6.521   9.267   4.416 -0.2010 -0.0074  0.0126
 3800SOL    HW113013   6.588   9.276   4.483 -0.3304 -0.1635  0.1658
 3800SOL    HW213014   6.529   9.176   4.386 -0.1486  0.0604 -0.1749
 3801SOL     OW13015   3.329   9.020   9.511  0.1263  0.3796 -0.5058
 3801SOL    HW113016   3.289   9.073   9.442 -2.8921 -2.0796 -0.8696
 3801SOL    HW213017   3.360   8.941   9.465  0.8834  0.0343  0.5530
 3802SOL     OW13018   2.197   4.146   3.141  0.4257  0.9034  0.1591
 3802SOL    HW113019   2.203   4.171   3.049  1.1272 -0.2432 -0.1362
 3802SOL    HW213020   2.142   4.068   3.141  0.7320  0.6797  0.6661
 3803SOL     OW13021   7.952   2.381   9.800  0.2560 -0.0127  0.0290
 3803SOL    HW113022   8.018   2.349   9.862 -0.4596 -3.1590 -0.6572
 3803SOL    HW213023   7.970   2.334   9.719 -0.7174  1.7154 -1.2606
 3804SOL     OW13024   5.332   4.945   3.164  0.1976  0.1806  0.3892
 3804SOL    HW113025   5.365   4.881   3.102  0.7659  0.2795  0.5821
 3804SOL    HW213026   5.305   4.893   3.240  1.7044  0.2522  0.9938
 3805SOL     OW13027   9.310   6.049   9.785  0.3611  0.4225 -0.0247
 3805SOL    HW113028   9.220   6.080   9.781  0.1356 -0.2850 -1.0082
 3805SOL    HW213029   9.348   6.074   9.700  0.7568 -0.2006 -0.0407
 3806SOL     OW13030   9.075   2.282   5.060 -0.4501 -0.5001 -0.5320
 3806SOL    HW113031   9.053   2.290   4.967 -1.2720 -2.1692 -0.5266
 3806SOL    HW213032   9.112   2.194   5.068 -0.0198 -0.2233  0.6626
 3807SOL     OW13033   0.323   0.410   7.025 -0.0558  0.0690 -0.0416
 3807SOL    HW113034   0.357   0.474   6.962 -1.4329 -0.0630 -0.9636
 3807SOL    HW213035   0.395   0.396   7.087  0.4445  2.1682 -0.0713
 3808SOL     OW13036   9.794   3.755   5.371 -0.3338  0.1470 -0.2800
 3808SOL    HW113037   9.779   3.822   5.304 -0.3998  0.5183  0.1073
 3808SOL    HW213038   9.726   3.771   5.437 -0.6032 -0.5507 -0.3751
 3809SOL     OW13039   5.278   4.704   0.735 -0.3825  0.3343  0.1321
 3809SOL    HW113040   5.210   4.751   0.782  0.0621  2.3090 -1.0492
 3809SOL    HW213041   5.322   4.772   0.684  3.5444 -0.4993  2.0232
 3810SOL     OW13042   1.843   1.404   4.546  0.3141  0.4036 -0.2596
 3810SOL    HW113043   1.778   1.338   4.567  0.8499 -0.2032 -0.4634
 3810SOL    HW213044   1.833   1.471   4.613 -1.0043  0.6741 -0.7067
 3811SOL     OW13045   9.538   1.005   3.903 -0.0474  0.3779 -0.6214
 3811SOL    HW113046   9.569   0.918   3.876 -1.3604 -0.0777 -0.7030
 3811SOL    HW213047   9.611   1.063   3.880  0.8750 -0.6913 -0.5233
 3812SOL     OW13048   3.146   9.069   2.342  0.9036  0.2529  0.4306
 3812SOL    HW113049   3.241   9.068   2.346  0.9704  0.7791 -0.5743
 3812SOL    HW213050   3.118   9.007   2.408  2.0017 -1.7019 -0.8557
 3813SOL     OW13051   8.004   0.995   8.275  0.5120 -0.1923  0.4716
 3813SOL    HW113052   8.021   0.905   8.305  1.0301  0.2232  1.4717
 3813SOL    HW213053   7.969   0.984   8.187  0.4330 -1.3886  0.6282
 3814SOL     OW13054   9.486   2.300   1.604 -0.2960 -0.5524 -0.4015
 3814SOL    HW113055   9.547   2.263   1.668 -1.3377  0.5202  1.2990
 3814SOL    HW213056   9.405   2.252   1.619 -0.5076 -0.3983 -1.0443
 3815SOL     OW13057   4.640   5.796   7.388 -0.1468 -0.3138  0.2333
 3815SOL    HW113058   4.551   5.794   7.423 -0.6280  0.3924 -0.8787
 3815SOL    HW213059   4.678   5.876   7.423  0.2149 -0.8275  1.0473
 3816SOL     OW13060   0.252   7.739   9.057 -0.0663  0.1735 -0.6722
 3816SOL    HW113061   0.226   7.681   9.129  0.9218  0.4441 -0.0777
 3816SOL    HW213062   0.348   7.736   9.057 -0.0406 -0.9543 -2.9189
 3817SOL     OW13063   4.321   4.977   9.510  0.0593  0.0595  0.6551
 3817SOL    HW113064   4.406   5.002   9.546  0.3113  3.0776 -1.6616
 3817SOL    HW213065   4.260   5.041   9.546 -1.3443 -2.0201  2.2313
 3818SOL     OW13066   0.822   6.094   7.044 -0.3032  0.1449  0.1727
 3818SOL    HW113067   0.740   6.137   7.021 -1.0650 -0.7115  1.1521
 3818SOL    HW213068   0.796   6.004   7.067  0.8648 -0.0559  0.7953
 3819SOL     OW13069   9.143   7.457   3.948 -0.1871 -0.2069  0.0520
 3819SOL    HW113070   9.099   7.373   3.957  0.7123 -1.0134 -2.3927
 3819SOL    HW213071   9.218   7.452   4.008  1.9129 -2.6791 -2.4880
 3820SOL     OW13072   8.111   0.498   8.765 -0.4284 -0.5109 -0.0582
 3820SOL    HW113073   8.073   0.417   8.798 -2.7769  0.2461 -0.7442
 3820SOL    HW213074   8.039   0.561   8.765  0.5810  0.7688 -2.3369
 3821SOL     OW13075   7.584   9.835   8.393 -0.5075 -0.1226 -0.0941
 3821SOL    HW113076   7.589   9.903   8.460 -2.4371  0.2078 -0.2330
 3821SOL    HW213077   7.501   9.791   8.410 -0.2203 -1.1520 -1.2324
 3822SOL     OW13078   5.289   4.397   1.156 -0.1549 -0.2933 -0.6817
 3822SOL    HW113079   5.261   4.487   1.171  1.3686  0.3199 -1.3663
 3822SOL    HW213080   5.331   4.370   1.238 -0.1677 -0.2038 -0.6461
 3823SOL     OW13081   4.037   1.880   5.446 -0.2627 -0.7286  0.3491
 3823SOL    HW113082   4.028   1.797   5.399  2.6320 -1.0797  0.1841
 3823SOL    HW213083   4.032   1.947   5.377  0.7078 -1.0224 -0.0225
 3824SOL     OW13084   5.556   6.654   2.324 -0.0386 -0.7411 -0.3079
 3824SOL    HW113085   5.579   6.709   2.249 -1.2782 -1.6257 -1.3940
 3824SOL    HW213086   5.522   6.573   2.284 -0.4918 -1.3320  1.2118
 3825SOL     OW13087   2.855   8.991   0.791  0.4171  0.2324  0.2581
 3825SOL    HW113088   2.946   8.961   0.797  0.2273 -0.1937  1.1758
 3825SOL    HW213089   2.808   8.916   0.754  0.4446  0.4759 -0.2789
 3826SOL     OW13090   5.962   2.062   8.211 -0.2778  0.6790 -0.5144
 3826SOL    HW113091   5.948   2.016   8.128  2.2295 -1.1594 -0.0110
 3826SOL    HW213092   6.048   2.103   8.202 -0.9328  2.3711  0.4019
 3827SOL     OW13093   3.202   0.132   6.118 -0.5560  0.3741 -0.0250
 3827SOL    HW113094   3.293   0.111   6.097 -0.2764  0.9273  0.5761
 3827SOL    HW213095   3.172   0.059   6.171  0.7054  1.7947  2.8710
 3828SOL     OW13096   4.910   3.420   7.968  0.5390  0.6113 -0.1321
 3828SOL    HW113097   4.939   3.489   8.027 -1.8073  0.5306  1.1969
 3828SOL    HW213098   4.989   3.368   7.952  1.5826  1.5513  1.6535
 3829SOL     OW13099   5.580   7.858   0.995  0.2680 -0.3240 -0.1349
 3829SOL    HW113100   5.551   7.947   0.973  0.5702 -0.1383  0.2131
 3829SOL    HW213101   5.558   7.806   0.917 -1.4793 -0.3069  0.3201
 3830SOL     OW13102   1.080   7.396   2.079 -0.5939 -0.4404  0.0917
 3830SOL    HW113103   1.075   7.306   2.111 -1.1276 -0.2843  0.4463
 3830SOL    HW213104   1.144   7.439   2.136  0.5159 -0.8802 -0.7777
 3831SOL     OW13105   0.570   1.649   6.126  0.1258  0.2208  0.5068
 3831SOL    HW113106   0.566   1.741   6.154  0.0815  0.3863 -0.0340
 3831SOL    HW213107   0.574   1.653   6.031  2.9532 -0.2504  0.5248
 3832SOL     OW13108   2.011   1.719   2.709  0.6285  0.1870  0.4917
 3832SOL    HW113109   2.098   1.721   2.750  1.5509 -3.9915 -0.7200
 3832SOL    HW213110   1.950   1.744   2.778  2.6721  2.6261  1.5634
 3833SOL     OW13111   4.916   2.645   3.986 -0.1311 -0.4819  0.0040
 3833SOL    HW113112   4.903   2.740   3.986  0.4112 -0.3937  1.2839
 3833SOL    HW213113   4.954   2.625   4.071 -0.3676 -1.8790 -0.1837
 3834SOL     OW13114   7.627   9.827   2.590  0.0105 -0.0131 -0.1409
 3834SOL    HW113115   7.633   9.921   2.610 -0.5774  0.0439 -0.1853
 3834SOL    HW213116   7.567   9.823   2.515 -1.2154 -0.5262  0.8332
 3835SOL     OW13117   8.219   7.412   0.348 -0.1233  0.3808  0.3439
 3835SOL    HW113118   8.204   7.327   0.306 -0.1186 -0.6024  2.2113
 3835SOL    HW213119   8.135   7.433   0.389  1.0216 -1.1078  3.8610
 3836SOL     OW13120   6.217   0.532   9.280 -0.0155  0.6582  0.0043
 3836SOL    HW113121   6.231   0.498   9.368 -1.3526  1.3436  0.5075
 3836SOL    HW213122   6.298   0.578   9.258  0.3375  0.4596  0.8547
 3837SOL     OW13123   8.639   2.906   2.094  0.5860 -0.6814  0.1260
 3837SOL    HW113124   8.607   2.848   2.024  0.5765 -1.5088  0.8074
 3837SOL    HW213125   8.654   2.990   2.050  1.2483 -1.3731 -1.0238
 3838SOL     OW13126   6.942   7.959   8.571  0.2543 -0.1084 -0.4109
 3838SOL    HW113127   6.999   8.035   8.560  0.3570 -0.0161  0.6351
 3838SOL    HW213128   6.932   7.924   8.483  0.8208  0.6742 -0.8037
 3839SOL     OW13129   4.116   5.980   1.382 -0.2288 -0.4978 -0.0160
 3839SOL    HW113130   4.155   5.992   1.296  1.0072 -3.0283  0.0911
 3839SOL    HW213131   4.022   5.979   1.366 -0.0102 -2.6811 -1.7109
 3840SOL     OW13132   2.326   2.139   6.237  0.4714  0.7215  0.4574
 3840SOL    HW113133   2.299   2.228   6.257 -0.9024  0.5116 -0.3262
 3840SOL    HW213134   2.365   2.106   6.318 -0.2457  1.5827  1.1707
 3841SOL     OW13135   3.878   7.545   1.088 -0.2057  0.1136  0.2876
 3841SOL    HW113136   3.788   7.563   1.061  0.6015  0.7071 -2.2552
 3841SOL    HW213137   3.931   7.573   1.014  2.1694  0.5813  2.0513
 3842SOL     OW13138   7.837   9.293   0.930  0.1523  0.1212 -0.1897
 3842SOL    HW113139   7.907   9.317   0.990 -0.1713 -0.7013  0.5441
 3842SOL    HW213140   7.830   9.367   0.869  0.6698  0.8508  0.6233
 3843SOL     OW13141   4.636   3.920   3.150 -0.4428  0.0380  0.3842
 3843SOL    HW113142   4.602   3.996   3.102 -2.4871 -0.7693  0.4799
 3843SOL    HW213143   4.732   3.928   3.143 -0.6457  0.9529 -2.2224
 3844SOL     OW13144   0.007   9.194   8.569  0.1484  0.1143 -0.4397
 3844SOL    HW113145   0.027   9.225   8.480  1.6460 -0.8859 -0.4822
 3844SOL    HW213146  -0.088   9.201   8.575  0.0633  0.7287 -1.9198
 3845SOL     OW13147   1.210   2.611   9.333 -0.2908 -0.0703 -0.2972
 3845SOL    HW113148   1.269   2.661   9.276 -0.9353  0.5885 -0.3966
 3845SOL    HW213149   1.233   2.520   9.316 -0.0650  0.1349 -1.1695
 3846SOL     OW13150   1.429   7.348   1.971  0.1735  0.5597 -0.5404
 3846SOL    HW113151   1.430   7.266   1.922 -2.9868 -2.0423  3.1807
 3846SOL    HW213152   1.340   7.381   1.962 -0.4193  0.2317  2.6609
 3847SOL     OW13153   5.508   1.297   8.737 -0.0003 -0.1360  0.2461
 3847SOL    HW113154   5.493   1.203   8.752 -0.8678  0.0200  0.3890
 3847SOL    HW213155   5.578   1.299   8.671  0.0200 -0.8814  0.2292
 3848SOL     OW13156   2.595   2.094   4.636  0.8394  0.2173 -0.0504
 3848SOL    HW113157   2.667   2.132   4.585 -0.2931  1.4193 -0.8439
 3848SOL    HW213158   2.636   2.061   4.716  2.0606  2.5402  0.3816
 3849SOL     OW13159   1.071   7.819   6.474  0.6928  0.3125  0.1047
 3849SOL    HW113160   1.155   7.860   6.454  0.5696  0.9839  0.9129
 3849SOL    HW213161   1.093   7.728   6.494  1.2048  0.4455  0.1630
 3850SOL     OW13162   0.932   5.788   1.816 -0.0782 -0.7398 -0.5893
 3850SOL    HW113163   0.969   5.761   1.732  1.3794  0.4977 -0.3874
 3850SOL    HW213164   0.863   5.850   1.793 -1.1102 -1.9602 -0.9139
 3851SOL     OW13165   4.504   0.830   6.369  0.2526  0.1587 -0.2085
 3851SOL    HW113166   4.516   0.778   6.448 -0.5200  1.1771  0.6154
 3851SOL    HW213167   4.559   0.908   6.382 -0.5884  0.7759 -0.2324
 3852SOL     OW13168   7.702   4.197   5.607 -0.0244 -0.5358  0.2732
 3852SOL    HW113169   7.677   4.111   5.639  1.0673 -1.6793 -1.7355
 3852SOL    HW213170   7.644   4.214   5.532 -0.4630  0.6478  0.8513
 3853SOL     OW13171   2.743   6.378   0.356  0.3215 -0.6826  0.4411
 3853SOL    HW113172   2.830   6.412   0.336  0.3733 -1.3889 -0.6072
 3853SOL    HW213173   2.694   6.387   0.275 -0.3077 -1.1433  0.7603
 3854SOL     OW13174   0.596   1.838   6.599  0.5322 -0.5024 -0.2012
 3854SOL    HW113175   0.508   1.835   6.636 -0.3838 -3.2285 -2.1812
 3854SOL    HW213176   0.652   1.801   6.667 -0.1336 -0.2462  0.5000
 3855SOL     OW13177   4.788   6.920   5.936  0.2464  0.5163 -0.1075
 3855SOL    HW113178   4.803   6.911   6.030 -1.6738  0.2147  0.2143
 3855SOL    HW213179   4.745   7.005   5.926 -1.6421 -0.4157 -0.3826
 3856SOL     OW13180   9.141   6.252   9.526  0.2273  0.3636  0.4338
 3856SOL    HW113181   9.087   6.311   9.474 -0.4380 -1.4264 -0.9633
 3856SOL    HW213182   9.081   6.211   9.587  0.1611 -0.8344 -0.4051
 3857SOL     OW13183   1.526   6.909   7.193  0.1678 -0.2909  0.0608
 3857SOL    HW113184   1.465   6.982   7.192  0.3565 -0.1160  0.5948
 3857SOL    HW213185   1.526   6.875   7.104  2.0176  1.9734 -0.8866
 3858SOL     OW13186   0.899   8.392   6.234 -0.0701  0.7456 -0.6978
 3858SOL    HW113187   0.821   8.355   6.275  0.3721 -2.2017 -2.2877
 3858SOL    HW213188   0.869   8.427   6.150  0.2572 -0.1951 -1.2159
 3859SOL     OW13189   6.020   5.970   9.800  0.2566 -0.6100  0.3813
 3859SOL    HW113190   5.941   6.019   9.820  0.5774  0.7399 -1.3766
 3859SOL    HW213191   6.037   5.989   9.708  1.5230 -2.4811  0.1808
 3860SOL     OW13192   7.630   8.951   1.288 -0.0352  0.1537  0.3891
 3860SOL    HW113193   7.697   8.884   1.295 -1.4226 -1.3207  0.1725
 3860SOL    HW213194   7.575   8.923   1.215  0.2562  2.4103 -0.7931
 3861SOL     OW13195   5.156   5.743   6.834 -0.8400 -0.0337 -0.4079
 3861SOL    HW113196   5.070   5.750   6.792 -1.5220 -1.1910  0.7456
 3861SOL    HW213197   5.181   5.834   6.852 -1.0965  0.4167 -2.1277
 3862SOL     OW13198   2.773   2.673   6.844  0.7847  0.0304 -0.0375
 3862SOL    HW113199   2.835   2.685   6.916  0.3509 -1.4183  0.6157
 3862SOL    HW213200   2.784   2.750   6.789  2.7255  0.0959  0.3904
 3863SOL     OW13201   9.453   2.345   6.705  0.3085 -0.0149  0.0392
 3863SOL    HW113202   9.459   2.291   6.783  1.2247 -1.7615 -1.1836
 3863SOL    HW213203   9.364   2.381   6.707  0.0579 -0.6583  1.4551
 3864SOL     OW13204   8.918   9.123   0.091 -0.1048 -0.8134  0.4000
 3864SOL    HW113205   8.845   9.101   0.150 -1.0886 -1.5985 -1.0523
 3864SOL    HW213206   8.886   9.100   0.004  1.1201  0.8135 -0.5255
 3865SOL     OW13207   5.552   2.741   4.629 -0.2165  0.1406  0.5108
 3865SOL    HW113208   5.512   2.704   4.550 -0.7288  1.8721 -0.1138
 3865SOL    HW213209   5.592   2.667   4.674  1.1374 -0.7454 -1.9774
 3866SOL     OW13210   8.151   9.828   8.489  0.0300  0.5413  0.5542
 3866SOL    HW113211   8.128   9.887   8.561  2.0381  0.1184  1.6261
 3866SOL    HW213212   8.134   9.740   8.524  0.1438  0.3731  0.1924
 3867SOL     OW13213   8.155   1.088   5.347 -0.3232 -0.3748  0.1243
 3867SOL    HW113214   8.139   1.082   5.253 -0.3568  0.6328  0.0602
 3867SOL    HW213215   8.081   1.040   5.387 -0.8625  0.0760 -0.3275
 3868SOL     OW13216   4.936   6.300   3.628  0.4107  0.2962  0.2377
 3868SOL    HW113217   4.963   6.213   3.599  1.4459  0.8538 -0.5155
 3868SOL    HW213218   5.015   6.339   3.664  0.3717  1.5653 -1.0153
 3869SOL     OW13219   9.376   8.581   2.651  1.0122  0.0161  0.4265
 3869SOL    HW113220   9.353   8.663   2.696  0.0587  0.4386 -0.7834
 3869SOL    HW213221   9.434   8.608   2.580 -1.0002 -0.0357 -1.3080
 3870SOL     OW13222   9.075   7.939   1.604  0.2101 -0.1567  0.1008
 3870SOL    HW113223   8.994   7.913   1.560 -0.7923  0.7202  1.3505
 3870SOL    HW213224   9.053   8.021   1.648  1.5476 -0.3047  1.1061
 3871SOL     OW13225   0.354   6.105   3.769 -0.3099 -0.8141  0.2749
 3871SOL    HW113226   0.439   6.148   3.767 -0.4943 -0.4529  0.2034
 3871SOL    HW213227   0.361   6.040   3.839 -0.0383 -0.6609  0.3882
 3872SOL     OW13228   9.414   8.673   0.705  0.0557  0.0510 -0.2031
 3872SOL    HW113229   9.454   8.753   0.739 -0.3207  0.8136 -1.4692
 3872SOL    HW213230   9.384   8.626   0.782  1.7545  0.3211  0.6724
 3873SOL     OW13231   7.343   5.578   6.488  0.0715  0.0928 -0.3266
 3873SOL    HW113232   7.262   5.627   6.476  0.5136  0.5301 -1.7943
 3873SOL    HW213233   7.318   5.487   6.475 -0.5838 -0.0214  1.5103
 3874SOL     OW13234   5.924   3.148   7.919 -0.7075  0.2753 -0.1763
 3874SOL    HW113235   5.962   3.179   7.837  1.6997  0.7458  1.0296
 3874SOL    HW213236   5.862   3.080   7.893 -0.0212  0.4273 -2.3732
 3875SOL     OW13237   0.440   6.661   7.151  0.1178  0.5394 -0.2209
 3875SOL    HW113238   0.476   6.749   7.157  0.7895  0.2311  0.5015
 3875SOL    HW213239   0.347   6.672   7.170  0.5367  0.8609  1.9901
 3876SOL     OW13240   2.273   4.603   0.828 -0.7600  0.2889 -0.1756
 3876SOL    HW113241   2.246   4.661   0.757  0.0553  0.9381  0.0200
 3876SOL    HW213242   2.368   4.613   0.832 -0.6529 -0.7361  0.1530
 3877SOL     OW13243   0.142   5.137   8.326 -0.4249  0.4412  0.3516
 3877SOL    HW113244   0.100   5.222   8.343 -0.7747  0.2609  0.3920
 3877SOL    HW213245   0.093   5.100   8.253 -0.3922  0.1879  0.4596
 3878SOL     OW13246   7.656   2.895   8.871  0.4790 -0.2008  0.5625
 3878SOL    HW113247   7.568   2.932   8.862  0.5105 -0.1640  0.3942
 3878SOL    HW213248   7.644   2.801   8.868  0.6620 -0.2022 -1.7683
 3879SOL     OW13249   1.083   5.658   9.836 -0.1183 -0.2160 -0.0740
 3879SOL    HW113250   1.046   5.570   9.828  0.1959 -0.4495  0.8935
 3879SOL    HW213251   1.008   5.713   9.859 -0.6883  0.1509 -2.4584
 3880SOL     OW13252   6.122   8.054   7.756 -0.4662  0.4719 -0.4734
 3880SOL    HW113253   6.152   8.032   7.668 -0.5109  0.4061 -0.4718
 3880SOL    HW213254   6.075   8.137   7.745 -0.2349  0.6044 -0.4680
 3881SOL     OW13255   3.120   9.578   7.944 -0.1476 -0.1953  0.4910
 3881SOL    HW113256   3.192   9.611   7.891 -1.2725  1.9971  0.2023
 3881SOL    HW213257   3.049   9.563   7.882 -0.7375  0.1792  1.0558
 3882SOL     OW13258   3.995   6.844   8.678 -0.2583  0.0807 -0.2751
 3882SOL    HW113259   4.062   6.786   8.642 -0.6320 -1.9363  2.0388
 3882SOL    HW213260   4.018   6.853   8.770 -2.5894  0.1086  0.3637
 3883SOL     OW13261   4.476   7.227   0.877  0.5558  0.4978 -0.6011
 3883SOL    HW113262   4.541   7.225   0.808  0.4056 -0.9754 -0.7487
 3883SOL    HW213263   4.502   7.156   0.937  0.5170  1.5434  0.7071
 3884SOL     OW13264   8.157   0.359   0.928  0.1908  0.1404  0.3332
 3884SOL    HW113265   8.228   0.354   0.865  0.2418  1.1809  0.2937
 3884SOL    HW213266   8.200   0.370   1.013  0.1120 -0.9271  0.5295
 3885SOL     OW13267   0.907   6.201   2.915 -0.2521 -0.2076  0.5087
 3885SOL    HW113268   0.952   6.242   2.842  0.6347  0.1938  1.2630
 3885SOL    HW213269   0.825   6.251   2.923 -0.9624 -1.0540 -0.9718
 3886SOL     OW13270   5.351   7.127   2.275 -0.2718 -0.5196  0.3766
 3886SOL    HW113271   5.307   7.198   2.322 -0.4429  0.7053 -1.5129
 3886SOL    HW213272   5.430   7.108   2.327  1.3614  3.1049 -0.4894
 3887SOL     OW13273   0.855   2.407   5.108  0.1642 -0.1446  0.3039
 3887SOL    HW113274   0.881   2.429   5.019 -0.3548  0.0487  0.2000
 3887SOL    HW213275   0.933   2.364   5.145  1.2475  1.8752  0.5425
 3888SOL     OW13276   1.286   8.989   3.892  0.5763  0.2912 -0.0015
 3888SOL    HW113277   1.260   9.079   3.871  0.1310  0.3012  0.5551
 3888SOL    HW213278   1.353   8.998   3.959  0.6702  0.2152 -0.0858
 3889SOL     OW13279   2.732   4.618   5.823 -0.2270  0.1927 -0.5069
 3889SOL    HW113280   2.711   4.615   5.729 -2.3411  1.6762 -0.1260
 3889SOL    HW213281   2.707   4.532   5.855 -0.6650  0.0957 -1.0801
 3890SOL     OW13282   5.591   7.952   1.241 -0.2483 -0.0303  0.3879
 3890SOL    HW113283   5.645   7.894   1.294 -1.2942 -0.6827  0.7693
 3890SOL    HW213284   5.588   7.911   1.155 -0.1547 -0.0034  0.3718
 3891SOL     OW13285   3.862   3.377   1.311 -0.1900  0.0348 -0.1411
 3891SOL    HW113286   3.832   3.326   1.236  0.3695 -0.5396  0.0131
 3891SOL    HW213287   3.950   3.344   1.328 -0.2438  0.2848  0.6536
 3892SOL     OW13288   4.210   1.173   1.699 -0.3183  0.6140 -0.6242
 3892SOL    HW113289   4.227   1.144   1.609  0.2722 -0.9547 -0.0428
 3892SOL    HW213290   4.296   1.171   1.741 -0.8582 -0.4985  0.4733
 3893SOL     OW13291   0.508   0.289   7.224  0.4859 -0.2777 -0.0594
 3893SOL    HW113292   0.601   0.280   7.206  0.3560 -1.4096 -0.2423
 3893SOL    HW213293   0.497   0.255   7.313  0.3750  0.7185  0.3241
 3894SOL     OW13294   7.060   5.197   2.458 -0.6438 -0.2735  0.5342
 3894SOL    HW113295   7.132   5.162   2.406 -0.4370  0.4245  0.3419
 3894SOL    HW213296   7.098   5.210   2.545 -0.6180 -0.1744  0.5077
 3895SOL     OW13297   3.366   9.214   6.308  0.3851 -0.0448  0.3622
 3895SOL    HW113298   3.374   9.245   6.398 -0.0614 -1.3792  0.8964
 3895SOL    HW213299   3.454   9.184   6.285 -0.0369 -2.3242  1.4155
 3896SOL     OW13300   4.632   9.401   3.925 -0.0313 -0.6873 -0.0001
 3896SOL    HW113301   4.538   9.404   3.943  0.3211  1.7126  1.9839
 3896SOL    HW213302   4.665   9.330   3.980 -0.6356 -1.5716 -0.7438
 3897SOL     OW13303   9.652   4.112   5.132 -0.4696  0.5590  0.3964
 3897SOL    HW113304   9.642   4.207   5.125 -0.1968  0.5071 -1.0395
 3897SOL    HW213305   9.565   4.078   5.114 -0.4063  0.5171  0.1664
 3898SOL     OW13306   7.120   5.261   9.193 -0.0054  0.3248  0.2058
 3898SOL    HW113307   7.128   5.350   9.227  1.2344  0.3377 -0.0693
 3898SOL    HW213308   7.210   5.230   9.186 -0.2915 -0.2143 -1.6282
 3899SOL     OW13309   5.683   8.055   0.141  0.1445  0.2505 -0.2195
 3899SOL    HW113310   5.705   8.052   0.234 -0.7280  1.7117  0.0734
 3899SOL    HW213311   5.670   7.964   0.116  0.3061 -0.1619  1.1178
 3900SOL     OW13312   5.774   2.653   1.982 -0.1421  0.9607  0.1543
 3900SOL    HW113313   5.834   2.607   2.041 -0.1153  2.8075  1.6458
 3900SOL    HW213314   5.689   2.648   2.027 -0.4808  0.9773 -0.4745
 3901SOL     OW13315   1.467   2.464   6.069 -0.2929 -0.3404 -0.2826
 3901SOL    HW113316   1.492   2.380   6.105  1.0320  0.2435  0.2065
 3901SOL    HW213317   1.536   2.486   6.007 -0.8842  0.1661 -0.7843
 3902SOL     OW13318   2.214   0.193   4.065 -0.4276  0.0066  0.0882
 3902SOL    HW113319   2.147   0.256   4.040  0.0871  0.9047  0.8785
 3902SOL    HW213320   2.224   0.205   4.160  0.1537 -0.8020  0.1443
 3903SOL     OW13321   7.545   8.765   2.973 -0.1361  0.1673 -0.1257
 3903SOL    HW113322   7.551   8.726   2.886 -1.0261  0.4822 -0.3352
 3903SOL    HW213323   7.529   8.691   3.032 -1.0533  0.1269 -0.4227
 3904SOL     OW13324   2.092   5.479   3.444 -0.4265  0.1489  0.2291
 3904SOL    HW113325   2.086   5.560   3.495 -2.5789  0.0267  0.2631
 3904SOL    HW213326   2.096   5.410   3.510 -1.2427  0.0988  0.2342
 3905SOL     OW13327   6.015   0.378   3.587  0.0203 -0.1711 -0.4978
 3905SOL    HW113328   6.086   0.354   3.646 -1.1646 -1.2284  0.5415
 3905SOL    HW213329   5.990   0.466   3.614  1.9322  0.9033 -1.9208
 3906SOL     OW13330   2.097   9.005   5.690 -0.1854  0.4539  0.0330
 3906SOL    HW113331   2.191   8.992   5.694 -0.1701 -0.3006 -1.6846
 3906SOL    HW213332   2.085   9.099   5.698  0.8229  0.6769 -0.7975
 3907SOL     OW13333   8.113   8.590   7.607  0.2626 -0.1934 -0.1198
 3907SOL    HW113334   8.124   8.599   7.702  0.0432 -2.2628  0.1502
 3907SOL    HW213335   8.026   8.626   7.589 -0.3592 -1.2076  0.7370
 3908SOL     OW13336   0.823   7.848   6.339  0.3847 -0.0684 -0.1878
 3908SOL    HW113337   0.902   7.856   6.393 -1.4627  1.3085  2.5336
 3908SOL    HW213338   0.828   7.923   6.279  0.0677  1.4292  1.5759
 3909SOL     OW13339   0.539   9.542   4.043  0.1751 -0.2795 -0.1590
 3909SOL    HW113340   0.508   9.485   4.114 -0.3520 -1.7535 -1.5060
 3909SOL    HW213341   0.465   9.602   4.027  0.1866 -0.1288  0.3301
 3910SOL     OW13342   0.875   4.686   4.878 -0.5042  0.0304 -0.6671
 3910SOL    HW113343   0.922   4.726   4.805  0.5289  1.1971  0.5846
 3910SOL    HW213344   0.943   4.660   4.940 -1.4051  0.6801  0.6565
 3911SOL     OW13345   1.672   6.339   6.415  0.1646  0.3238 -0.2238
 3911SOL    HW113346   1.748   6.317   6.361  0.4385  0.5141  0.0760
 3911SOL    HW213347   1.705   6.333   6.505  0.0851  1.3321 -0.1181
 3912SOL     OW13348   6.706   0.113   8.987  0.2965 -0.0280  0.2355
 3912SOL    HW113349   6.727   0.095   9.078  1.2140 -0.8912 -0.1395
 3912SOL    HW213350   6.629   0.059   8.969  0.8161 -0.7646  0.1759
 3913SOL     OW13351   7.700   3.678   3.066  0.5485 -0.6609  0.1142
 3913SOL    HW113352   7.736   3.607   3.119  1.2421  0.1463  0.7495
 3913SOL    HW213353   7.728   3.658   2.977 -0.2892 -1.8175  0.0874
 3914SOL     OW13354   9.241   2.990   6.422 -0.0020 -0.2303  0.1043
 3914SOL    HW113355   9.177   3.039   6.371  1.1027  0.2539 -0.8706
 3914SOL    HW213356   9.322   2.997   6.372  1.2759  0.6790  2.1380
 3915SOL     OW13357   1.986   8.615   1.213  0.0249 -0.1829  0.7767
 3915SOL    HW113358   1.997   8.529   1.255 -0.2719  0.4377  2.2060
 3915SOL    HW213359   1.938   8.667   1.278 -0.3368  0.8884 -0.3084
 3916SOL     OW13360   6.542   5.906   4.029 -0.2164 -0.2262  0.0868
 3916SOL    HW113361   6.550   5.968   4.102  2.0405  0.2162 -0.4738
 3916SOL    HW213362   6.548   5.820   4.071  0.2735  0.0069  0.5078
 3917SOL     OW13363   7.770   4.473   0.105 -0.3223 -0.0191  0.0927
 3917SOL    HW113364   7.816   4.510   0.180  0.8344  0.2848 -0.7363
 3917SOL    HW213365   7.784   4.379   0.112  0.6461  0.0858 -0.2670
 3918SOL     OW13366   0.421   0.053   0.111 -0.1537  0.2957 -0.1360
 3918SOL    HW113367   0.352   0.068   0.175 -0.1308  1.6649 -0.4080
 3918SOL    HW213368   0.448   0.140   0.083  1.2372 -0.2268 -0.5261
 3919SOL     OW13369   2.121   8.323   0.331  0.2862  0.7647  0.3448
 3919SOL    HW113370   2.112   8.416   0.312  0.7967  1.0571  1.4453
 3919SOL    HW213371   2.215   8.310   0.343  0.2841 -0.0261 -0.4347
 3920SOL     OW13372   0.215   9.476   4.949  0.2614  0.0667 -0.1404
 3920SOL    HW113373   0.257   9.529   5.017 -0.1868  2.3703 -1.5245
 3920SOL    HW213374   0.174   9.541   4.891 -3.3198 -1.9167 -0.1035
 3921SOL     OW13375   3.865   4.874   5.386  0.4298  0.1932  0.2239
 3921SOL    HW113376   3.960   4.882   5.376  0.5175 -0.1016  0.7624
 3921SOL    HW213377   3.840   4.948   5.441  0.1138  1.1546 -1.1481
 3922SOL     OW13378   9.563   5.040   4.134 -0.0872  0.1978  0.1750
 3922SOL    HW113379   9.527   5.128   4.145  2.0798  1.2022 -0.2006
 3922SOL    HW213380   9.510   5.001   4.063 -0.7877  1.3585  0.0353
 3923SOL     OW13381   2.559   0.582   9.451  0.2637 -0.4507 -0.2526
 3923SOL    HW113382   2.561   0.487   9.461 -0.5776 -0.4353  0.0609
 3923SOL    HW213383   2.561   0.596   9.356  1.9402 -0.7271 -0.2979
 3924SOL     OW13384   7.089   4.399   1.391  0.5506 -0.3676 -0.1199
 3924SOL    HW113385   7.097   4.493   1.371  1.1517  0.1105  2.0522
 3924SOL    HW213386   7.018   4.395   1.456  1.4341 -1.2222  0.8311
 3925SOL     OW13387   0.707   5.077   4.635  0.2309 -0.3622  0.0411
 3925SOL    HW113388   0.640   5.103   4.697 -0.9931  1.8423 -2.0271
 3925SOL    HW213389   0.660   5.060   4.553  1.9223 -1.5904 -0.7550
 3926SOL     OW13390   7.890   6.764   1.621  0.5499 -0.2221 -0.3168
 3926SOL    HW113391   7.968   6.803   1.581  1.4014 -1.0342  0.4837
 3926SOL    HW213392   7.904   6.670   1.613 -0.7161 -0.3780 -0.8147
 3927SOL     OW13393   3.622   3.859   0.949 -0.1610 -0.0181 -0.8538
 3927SOL    HW113394   3.548   3.848   0.889 -0.2426 -0.0546 -0.7448
 3927SOL    HW213395   3.690   3.802   0.914 -0.0480  0.3109 -1.1813
 3928SOL     OW13396   4.192   2.413   1.216  0.1210 -0.5471  0.3440
 3928SOL    HW113397   4.110   2.459   1.195  0.0099 -0.9521 -0.1261
 3928SOL    HW213398   4.174   2.366   1.297  0.0300 -0.2798  0.4794
 3929SOL     OW13399   5.675   4.050   9.528 -0.2827 -0.6307 -0.1438
 3929SOL    HW113400   5.582   4.026   9.526 -0.1365 -1.1713 -1.1426
 3929SOL    HW213401   5.699   4.060   9.436  1.2462 -2.9292 -0.0714
 3930SOL     OW13402   5.492   1.531   2.791  0.3861  0.3816  0.7354
 3930SOL    HW113403   5.457   1.505   2.877  1.3004 -0.0083  1.0011
 3930SOL    HW213404   5.539   1.613   2.808  1.2897 -0.1319  0.7947
 3931SOL     OW13405   9.222   3.135   8.487 -0.2681 -0.2291  0.8212
 3931SOL    HW113406   9.133   3.100   8.477 -0.5726  0.9516 -1.4068
 3931SOL    HW213407   9.267   3.108   8.408  0.2290  2.1371  0.1968
 3932SOL     OW13408   9.663   3.891   6.310 -0.3999  0.4934 -0.4670
 3932SOL    HW113409   9.609   3.909   6.387 -1.2589  0.1416 -0.9772
 3932SOL    HW213410   9.607   3.837   6.253  0.5914 -0.1323 -0.8728
 3933SOL     OW13411   5.432   6.270   6.697 -0.2773 -0.0763  0.0672
 3933SOL    HW113412   5.426   6.223   6.780 -0.7209 -0.0860  0.0316
 3933SOL    HW213413   5.364   6.337   6.703  0.8807  1.1275  0.4717
 3934SOL     OW13414   8.623   7.746   8.569  1.1173 -0.0837 -0.4907
 3934SOL    HW113415   8.707   7.785   8.546  0.9598  1.4425  1.2404
 3934SOL    HW213416   8.631   7.724   8.662 -0.5532  0.6989 -0.1068
 3935SOL     OW13417   8.483   8.823   0.279 -0.4386  0.1837 -0.5165
 3935SOL    HW113418   8.548   8.755   0.300  1.2638  2.0273  0.4746
 3935SOL    HW213419   8.440   8.841   0.363 -2.8078 -1.4663 -1.2703
 3936SOL     OW13420   6.241   3.368   6.328  0.1789  0.5014 -0.1781
 3936SOL    HW113421   6.200   3.328   6.404 -0.0145  0.9052 -0.0688
 3936SOL    HW213422   6.332   3.382   6.355  1.0517 -2.4893 -1.1934
 3937SOL     OW13423   7.250   7.478   5.738 -0.1456  0.0277 -0.1536
 3937SOL    HW113424   7.247   7.528   5.657  0.9549  0.5291  0.1073
 3937SOL    HW213425   7.205   7.533   5.802 -1.8373 -0.7642 -0.6002
 3938SOL     OW13426   3.844   0.794   1.674  0.6153 -0.3715 -0.3930
 3938SOL    HW113427   3.821   0.721   1.732 -0.4074  0.5062  0.3389
 3938SOL    HW213428   3.829   0.760   1.586  0.7133 -1.2289 -0.0892
 3939SOL     OW13429   8.595   5.876   2.007 -0.4195  0.2973 -0.0693
 3939SOL    HW113430   8.645   5.818   1.949 -2.3965 -1.8220  0.1542
 3939SOL    HW213431   8.557   5.942   1.949  0.0996  0.0275 -0.7227
 3940SOL     OW13432   7.678   3.777   7.208  0.3436  0.1821 -0.4307
 3940SOL    HW113433   7.719   3.842   7.151  0.0783 -2.0017 -3.3072
 3940SOL    HW213434   7.587   3.805   7.215  0.7852  1.4944  0.5868
 3941SOL     OW13435   7.188   2.196   4.225  0.4234  0.0780 -0.2716
 3941SOL    HW113436   7.122   2.195   4.155 -1.1048  2.1130  1.0134
 3941SOL    HW213437   7.235   2.114   4.215 -0.2512 -0.0657 -3.1756
 3942SOL     OW13438   3.369   9.278   5.079  0.5769 -0.1817  0.4468
 3942SOL    HW113439   3.340   9.194   5.114 -0.2237 -0.6615 -1.2407
 3942SOL    HW213440   3.327   9.343   5.134 -0.5433 -0.9014  0.4700
 3943SOL     OW13441   1.956   1.956   2.311 -0.1913  0.3401  0.7055
 3943SOL    HW113442   1.980   1.869   2.278  0.8603  0.7612  0.2977
 3943SOL    HW213443   2.015   2.015   2.264 -1.5240  1.3661  0.2917
 3944SOL     OW13444   4.805   4.631   0.382  0.1424 -0.1182 -0.5484
 3944SOL    HW113445   4.897   4.614   0.404  0.1027  0.3584 -0.0081
 3944SOL    HW213446   4.809   4.664   0.292  0.5685  0.4829 -0.3201
 3945SOL     OW13447   0.412   1.633   0.309  0.0334 -0.0432 -0.2731
 3945SOL    HW113448   0.366   1.567   0.361  0.3649  0.2507  0.4021
 3945SOL    HW213449   0.473   1.583   0.254 -1.0647 -0.4432 -1.1816
 3946SOL     OW13450   3.729   1.671   2.553 -0.0455  0.3058  0.2886
 3946SOL    HW113451   3.708   1.753   2.509 -0.1635 -0.2723 -0.7700
 3946SOL    HW213452   3.654   1.654   2.609  0.0760  1.0225  0.6759
 3947SOL     OW13453   6.005   7.155   7.519  0.0546 -0.0685 -0.0368
 3947SOL    HW113454   6.074   7.119   7.464  0.8231 -0.2613  1.0212
 3947SOL    HW213455   5.940   7.085   7.525  0.9203 -0.8232  0.9312
 3948SOL     OW13456   7.106   8.393   2.699  0.0137  0.0902  0.0101
 3948SOL    HW113457   7.106   8.467   2.638 -1.0177  0.1001  0.0050
 3948SOL    HW213458   7.154   8.424   2.775  0.1358  0.5452 -0.2480
 3949SOL     OW13459   5.732   5.336   3.631  0.3536 -0.1031  0.7824
 3949SOL    HW113460   5.732   5.241   3.634 -1.1730 -0.1382  0.4660
 3949SOL    HW213461   5.687   5.363   3.711 -2.0488  0.2223 -0.6052
 3950SOL     OW13462   3.503   2.650   3.694  0.0001 -0.1310 -0.1121
 3950SOL    HW113463   3.494   2.604   3.777 -3.3424 -0.4912 -0.5347
 3950SOL    HW213464   3.454   2.731   3.706 -1.0745 -0.4638 -1.8536
 3951SOL     OW13465   9.273   2.318   4.480 -0.2166 -0.5228 -0.0031
 3951SOL    HW113466   9.237   2.353   4.399 -1.2426 -0.0909  0.6274
 3951SOL    HW213467   9.197   2.292   4.532  0.2218  1.7644  1.9759
 3952SOL     OW13468   2.063   4.713   4.630 -0.4947 -0.3822  0.2078
 3952SOL    HW113469   2.018   4.640   4.674 -2.0956 -0.2531 -1.1270
 3952SOL    HW213470   2.126   4.671   4.572 -0.6888 -0.6730  0.2048
 3953SOL     OW13471   9.638   8.933   3.275  0.1559 -0.6315  0.1649
 3953SOL    HW113472   9.646   8.888   3.191 -0.4338 -0.7444  0.1640
 3953SOL    HW213473   9.709   8.897   3.329 -1.1222 -2.6313  0.6290
 3954SOL     OW13474   1.338   1.717   3.163 -0.0595  0.6243 -0.6163
 3954SOL    HW113475   1.409   1.778   3.183  0.4296 -0.6161  1.8935
 3954SOL    HW213476   1.373   1.662   3.093  1.3160  0.3676  0.2187
 3955SOL     OW13477   8.212   7.299   6.507 -0.0486  0.3677 -0.1025
 3955SOL    HW113478   8.148   7.261   6.566 -1.1664  1.3186 -0.6574
 3955SOL    HW213479   8.196   7.393   6.511  0.9850  0.5880 -0.6398
 3956SOL     OW13480   2.115   5.193   1.727 -0.0472 -0.3139  0.6079
 3956SOL    HW113481   2.063   5.115   1.706 -1.1253  1.1662 -2.9078
 3956SOL    HW213482   2.053   5.252   1.769 -0.6226  0.4687 -1.2547
 3957SOL     OW13483   8.443   2.029   9.781  0.4121 -1.0725 -0.3151
 3957SOL    HW113484   8.530   2.024   9.742  0.5694 -0.0694 -0.1142
 3957SOL    HW213485   8.407   1.941   9.770  0.1338 -0.6658 -3.4657
 3958SOL     OW13486   7.485   9.467   5.769 -0.6659 -0.4864  0.2762
 3958SOL    HW113487   7.516   9.403   5.705 -3.6825 -1.6021 -0.2532
 3958SOL    HW213488   7.473   9.417   5.850 -0.4442  0.0398  0.6408
 3959SOL     OW13489   2.150   9.120   6.605 -0.0640  0.0847 -0.4480
 3959SOL    HW113490   2.087   9.175   6.652 -1.2111 -0.0301 -1.7823
 3959SOL    HW213491   2.096   9.065   6.548  1.0470 -2.3233  0.6620
 3960SOL     OW13492   2.392   8.239   8.875  0.2086 -0.1318 -0.2868
 3960SOL    HW113493   2.353   8.152   8.888  1.7776 -0.8519 -0.0687
 3960SOL    HW213494   2.437   8.232   8.791  1.3079  0.0744  0.2650
 3961SOL     OW13495   3.520   9.472   4.396  0.2257  0.5235  0.3759
 3961SOL    HW113496   3.510   9.534   4.468  3.4612  0.3698  1.1320
 3961SOL    HW213497   3.431   9.446   4.373 -0.9584  0.9711  3.9683
 3962SOL     OW13498   2.679   3.215   7.979 -0.3953  0.0454  0.0589
 3962SOL    HW113499   2.772   3.227   7.961  0.0673 -0.1481  2.1306
 3962SOL    HW213500   2.641   3.302   7.968 -0.3980 -0.1922 -2.6537
 3963SOL     OW13501   0.620   2.757   6.076 -0.6873 -0.0497  0.2998
 3963SOL    HW113502   0.655   2.669   6.065 -1.9062 -0.6838  1.2355
 3963SOL    HW213503   0.670   2.794   6.148 -1.0661 -0.4833  0.7930
 3964SOL     OW13504   5.610   5.238   2.058 -0.6897 -0.2798 -0.2581
 3964SOL    HW113505   5.558   5.290   2.120 -1.0671 -0.8120 -0.1212
 3964SOL    HW213506   5.567   5.152   2.057 -0.0131 -0.6231 -0.4028
 3965SOL     OW13507   4.351   8.481   0.880  0.0936 -0.0698 -0.5039
 3965SOL    HW113508   4.296   8.403   0.876 -0.7981  0.5076  0.1940
 3965SOL    HW213509   4.360   8.499   0.974  0.1860  0.7375 -0.6624
 3966SOL     OW13510   1.482   7.892   5.595  0.0268 -0.0414 -0.0661
 3966SOL    HW113511   1.443   7.965   5.546 -1.0242 -0.9726 -0.6701
 3966SOL    HW213512   1.417   7.873   5.663  0.2415 -0.4988  0.0083
 3967SOL     OW13513   5.646   4.622   1.931 -0.2078  0.2705 -0.3524
 3967SOL    HW113514   5.711   4.692   1.921  0.7327 -0.6975 -1.3519
 3967SOL    HW213515   5.646   4.578   1.846 -0.7720 -0.9388  0.2494
 3968SOL     OW13516   7.132   2.998   7.090 -0.4599 -0.1915  0.0936
 3968SOL    HW113517   7.199   3.000   7.158 -0.9637  1.1006  0.5850
 3968SOL    HW213518   7.181   2.996   7.008  0.2023  0.9720  0.4380
 3969SOL     OW13519   3.546   0.951   6.188  0.2359 -0.3100  0.1926
 3969SOL    HW113520   3.637   0.921   6.181  0.1944 -0.2009 -1.2997
 3969SOL    HW213521   3.496   0.886   6.139 -0.2522  0.5313 -0.4597
 3970SOL     OW13522   1.457   2.461   8.706  0.3497 -0.2631 -0.4923
 3970SOL    HW113523   1.481   2.369   8.719  0.2447 -0.3723 -1.0367
 3970SOL    HW213524   1.364   2.465   8.731  0.5409 -0.1417  0.2382
 3971SOL     OW13525   4.790   2.305   5.526  0.0073  0.6359  0.0708
 3971SOL    HW113526   4.731   2.346   5.589  0.1308 -0.2011  0.7669
 3971SOL    HW213527   4.877   2.334   5.553  0.0008  0.9062 -0.2028
 3972SOL     OW13528   5.997   2.062   6.821 -0.3451 -0.0874 -0.0747
 3972SOL    HW113529   5.984   2.005   6.898  0.3515  2.0292  1.7084
 3972SOL    HW213530   6.088   2.091   6.827 -0.1187 -0.2593 -2.0320
 3973SOL     OW13531   4.083   7.959   4.766  0.3184  0.2091 -0.2891
 3973SOL    HW113532   4.088   7.869   4.796 -0.4443  0.2647  0.0218
 3973SOL    HW213533   4.174   7.984   4.750  0.5326 -0.6168 -0.4080
 3974SOL     OW13534   0.348   6.060   1.942  0.3591  0.2915  0.2408
 3974SOL    HW113535   0.392   6.137   1.979  0.7426 -0.2172  0.8588
 3974SOL    HW213536   0.417   6.015   1.893  0.2945 -0.0048  0.4223
 3975SOL     OW13537   8.256   1.964   5.860 -0.4361  0.0946 -0.2184
 3975SOL    HW113538   8.275   1.943   5.951 -0.5775 -2.1735 -0.6520
 3975SOL    HW213539   8.172   1.921   5.842  0.5677 -1.3187 -1.9364
 3976SOL     OW13540   6.702   2.125   3.424  0.4538 -0.1064  0.0328
 3976SOL    HW113541   6.728   2.217   3.436  1.8923 -0.3465 -0.9298
 3976SOL    HW213542   6.609   2.128   3.405  0.6014  1.2222 -0.5721
 3977SOL     OW13543   7.187   7.070   0.097  0.2890  0.0541 -0.6100
 3977SOL    HW113544   7.230   7.010   0.157  0.8274  1.1982  0.1643
 3977SOL    HW213545   7.237   7.151   0.102 -0.3456  0.5484 -1.7330
 3978SOL     OW13546   2.621   3.173   5.340  0.1954  0.2375  0.3874
 3978SOL    HW113547   2.701   3.171   5.287  1.4723  0.0060  2.2140
 3978SOL    HW213548   2.603   3.081   5.361 -1.8426  0.0650 -1.7374
 3979SOL     OW13549   1.669   1.420   3.724 -0.5110 -0.1676 -0.0038
 3979SOL    HW113550   1.657   1.511   3.753 -0.6095 -0.3340  0.4919
 3979SOL    HW213551   1.730   1.427   3.650 -0.8065  0.3348 -0.2076
 3980SOL     OW13552   4.042   3.121   9.275 -0.0943 -0.1044 -0.0248
 3980SOL    HW113553   4.051   3.216   9.269  0.8563 -0.1975 -0.1927
 3980SOL    HW213554   3.984   3.098   9.202 -0.1752  0.3227 -0.1009
 3981SOL     OW13555   2.253   1.361   8.122 -0.5799  0.3033 -0.5182
 3981SOL    HW113556   2.323   1.338   8.184 -0.9007 -0.8502 -0.5635
 3981SOL    HW213557   2.289   1.342   8.036 -0.5999  0.6682 -0.6099
 3982SOL     OW13558   4.228   8.161   1.860 -0.0202 -0.2336 -0.0412
 3982SOL    HW113559   4.141   8.182   1.824 -0.9450 -1.6210  1.2797
 3982SOL    HW213560   4.238   8.067   1.844 -0.0309 -0.6877  2.3572
 3983SOL     OW13561   8.569   3.510   0.514  0.0819  0.3525 -0.2993
 3983SOL    HW113562   8.529   3.432   0.554  1.2270 -0.8287 -1.3636
 3983SOL    HW213563   8.517   3.526   0.435 -1.1208  1.6604  0.7010
 3984SOL     OW13564   7.301   3.234   0.438 -0.3320  0.0927  0.3132
 3984SOL    HW113565   7.356   3.258   0.513 -1.6741 -0.2076  1.4341
 3984SOL    HW213566   7.343   3.275   0.363  0.6733  0.9772  1.3310
 3985SOL     OW13567   7.278   1.632   8.973  0.2052  0.6555  0.0922
 3985SOL    HW113568   7.268   1.541   8.945  3.1177 -0.2545  1.5829
 3985SOL    HW213569   7.189   1.668   8.972 -0.9903 -2.0908 -0.8449
 3986SOL     OW13570   6.036   1.653   7.065 -0.4132 -0.3060 -0.6251
 3986SOL    HW113571   6.003   1.672   6.977 -0.1597  3.2331 -0.1112
 3986SOL    HW213572   6.129   1.671   7.060 -0.4661  0.3401  0.4472
 3987SOL     OW13573   6.031   8.984   7.088  0.7823  0.3052  0.3900
 3987SOL    HW113574   5.998   9.031   7.012  1.4595 -2.0403 -1.4770
 3987SOL    HW213575   6.109   9.032   7.115  0.7510  0.9520 -0.6371
 3988SOL     OW13576   1.777   0.566   0.518  0.1262  0.7572  0.0339
 3988SOL    HW113577   1.857   0.514   0.507  0.8429  1.6846  0.7533
 3988SOL    HW213578   1.707   0.503   0.501  0.9878  0.1492 -1.6242
 3989SOL     OW13579   5.790   1.694   8.909 -0.3382  0.4328 -0.0138
 3989SOL    HW113580   5.796   1.776   8.860  0.5484  0.5815  0.3412
 3989SOL    HW213581   5.848   1.706   8.984  0.7681 -0.9678 -0.6003
 3990SOL     OW13582   7.001   8.477   9.603 -0.1040 -0.1576  0.4197
 3990SOL    HW113583   7.028   8.567   9.588 -0.7173 -0.1473 -0.7422
 3990SOL    HW213584   6.924   8.483   9.660 -1.8706  0.2820 -1.8614
 3991SOL     OW13585   1.977   5.183   0.691 -0.2260  0.0157 -0.2973
 3991SOL    HW113586   1.908   5.139   0.739  1.2365 -2.7242 -0.5326
 3991SOL    HW213587   2.044   5.203   0.757  0.5373 -1.1565 -0.6865
 3992SOL     OW13588   6.822   5.323   1.643 -0.0673 -0.1129 -0.0864
 3992SOL    HW113589   6.912   5.323   1.609 -0.6404 -0.8730 -1.6906
 3992SOL    HW213590   6.824   5.258   1.714  1.0448  1.1708  1.1186
 3993SOL     OW13591   6.026   0.453   1.759  0.3184 -0.0770 -0.0070
 3993SOL    HW113592   5.961   0.383   1.753  1.6363 -1.4662  1.1688
 3993SOL    HW213593   6.019   0.500   1.676 -3.1015  0.7106  0.5557
 3994SOL     OW13594   3.143   8.809   5.639 -0.3569  0.3796  0.7944
 3994SOL    HW113595   3.098   8.742   5.690  0.2713 -0.3595  0.3988
 3994SOL    HW213596   3.216   8.763   5.597 -0.8069  0.9642 -0.7277
 3995SOL     OW13597   7.325   6.950   6.174 -0.0809  0.3429  0.1751
 3995SOL    HW113598   7.256   6.893   6.207 -0.9854  1.0782 -0.4071
 3995SOL    HW213599   7.406   6.914   6.212 -0.8738  0.1067  1.7357
 3996SOL     OW13600   8.504   2.482   2.772  0.2009 -0.6138 -0.9111
 3996SOL    HW113601   8.494   2.484   2.867 -1.0890 -1.1354 -1.0099
 3996SOL    HW213602   8.486   2.390   2.748 -0.9543 -0.1941 -1.7771
 3997SOL     OW13603   1.735   4.566   7.990  0.8775  0.0065 -0.5093
 3997SOL    HW113604   1.804   4.531   8.046  1.1344  0.4641 -0.5327
 3997SOL    HW213605   1.781   4.610   7.919  0.5541 -1.0425 -1.3977
 3998SOL     OW13606   0.807   3.860   4.901 -0.4102  0.5549  0.7929
 3998SOL    HW113607   0.774   3.856   4.811 -2.0848  0.7271  1.3664
 3998SOL    HW213608   0.896   3.827   4.895 -0.8181 -0.3820 -0.7781
 3999SOL     OW13609   3.069   3.454   6.691 -0.2960  0.0225 -0.4165
 3999SOL    HW113610   3.049   3.534   6.740  0.3368 -0.5009  0.7329
 3999SOL    HW213611   3.078   3.387   6.758  2.2601 -0.3892 -1.0834
 4000SOL     OW13612   9.672   3.350   1.717  0.2651  0.1568  0.0995
 4000SOL    HW113613   9.622   3.328   1.795  1.0340  0.2304  0.6267
 4000SOL    HW213614   9.640   3.437   1.692  1.7350  1.2644  1.8162
 4001SOL     OW13615   6.659   2.146   1.469  0.3275  0.3561 -0.5009
 4001SOL    HW113616   6.656   2.127   1.563 -1.4956  0.0348 -0.5765
 4001SOL    HW213617   6.619   2.232   1.460 -0.9372 -0.2512 -1.0794
 4002SOL     OW13618   5.239   4.103   6.679 -0.1363 -0.2148  0.2217
 4002SOL    HW113619   5.190   4.024   6.698 -0.1260 -0.4475 -0.6862
 4002SOL    HW213620   5.183   4.152   6.619  0.6065 -0.3507 -0.6009
 4003SOL     OW13621   2.739   1.726   2.731 -0.2052 -0.5519  0.6111
 4003SOL    HW113622   2.735   1.718   2.826  1.6672  1.1984  0.8985
 4003SOL    HW213623   2.720   1.818   2.713  2.4142 -0.1435 -0.4234
 4004SOL     OW13624   1.421   6.282   9.554  0.2698  0.3666  0.1798
 4004SOL    HW113625   1.466   6.217   9.500  2.2052  2.1152 -0.4761
 4004SOL    HW213626   1.382   6.343   9.491 -1.4947 -0.1028  0.7763
 4005SOL     OW13627   5.951   9.056   9.672  0.0950 -0.1176 -0.7539
 4005SOL    HW113628   6.009   9.064   9.596  1.3779  0.2667  0.2328
 4005SOL    HW213629   5.965   9.137   9.721 -1.1685 -0.0975 -0.4117
 4006SOL     OW13630   6.108   8.950   3.416 -0.1155 -0.0823 -0.1644
 4006SOL    HW113631   6.134   8.921   3.329  0.2458  0.3131 -0.1913
 4006SOL    HW213632   6.134   9.042   3.419  0.3431 -0.2325  0.5444
 4007SOL     OW13633   2.901   7.794   8.672 -0.2938  0.1352 -0.8125
 4007SOL    HW113634   2.872   7.822   8.759  0.5518 -2.8048  0.5360
 4007SOL    HW213635   2.826   7.745   8.637  0.2244 -0.8086 -0.6397
 4008SOL     OW13636   8.585   6.869   9.139  0.1505 -0.2058 -0.4039
 4008SOL    HW113637   8.638   6.912   9.072  1.0595 -0.1085  0.3644
 4008SOL    HW213638   8.646   6.852   9.211 -0.8260 -0.2584  0.4283
 4009SOL     OW13639   6.587   6.762   4.256  0.3250 -0.2440 -0.0013
 4009SOL    HW113640   6.606   6.832   4.193 -0.8401 -1.5463 -1.9175
 4009SOL    HW213641   6.567   6.685   4.201 -0.7003 -1.4740  1.9691
 4010SOL     OW13642   7.718   4.991   5.684  0.0437  0.1079  0.2996
 4010SOL    HW113643   7.654   4.956   5.745 -0.9860  2.4564  0.6762
 4010SOL    HW213644   7.795   5.009   5.737  0.3388 -0.8562  0.2268
 4011SOL     OW13645   0.153   4.444   3.496  0.3577 -0.1520  0.0749
 4011SOL    HW113646   0.107   4.516   3.453  1.5879  0.2361 -0.6669
 4011SOL    HW213647   0.216   4.488   3.554  0.4995 -0.6372  0.2932
 4012SOL     OW13648   1.270   9.401   9.725  0.0439  0.3288 -0.6138
 4012SOL    HW113649   1.215   9.407   9.647  1.9009 -2.3970 -2.3261
 4012SOL    HW213650   1.321   9.482   9.725 -0.3715  0.6076 -1.9508
 4013SOL     OW13651   4.688   0.178   5.439  0.1110  0.3922  0.0246
 4013SOL    HW113652   4.733   0.255   5.403 -0.7427  0.6057 -0.6299
 4013SOL    HW213653   4.757   0.126   5.478  0.5845  2.1007  1.6278
 4014SOL     OW13654   0.463   9.812   1.210 -0.0190 -0.1905 -0.6960
 4014SOL    HW113655   0.374   9.779   1.219 -0.1865 -0.0797 -1.8133
 4014SOL    HW213656   0.481   9.807   1.116  0.6378  1.1102 -0.6617
 4015SOL     OW13657   0.039   1.297   1.491  0.4518 -0.2050 -0.0336
 4015SOL    HW113658   0.123   1.255   1.506 -0.1950 -1.4188  0.3157
 4015SOL    HW213659   0.060   1.390   1.482  1.9022 -0.5603 -0.6504
 4016SOL     OW13660   9.301   8.682   3.297 -0.2866  0.5794  0.0234
 4016SOL    HW113661   9.353   8.663   3.218  0.7102 -1.3561  1.0755
 4016SOL    HW213662   9.211   8.663   3.271 -0.1876  1.5787 -1.1221
 4017SOL     OW13663   0.039   7.082   6.076  0.1203 -0.3002  0.5181
 4017SOL    HW113664   0.043   7.146   6.006  0.2819  0.4940  1.2405
 4017SOL    HW213665   0.121   7.032   6.068  0.2015 -0.1199  0.2358
 4018SOL     OW13666   7.908   7.926   9.739 -0.1675 -0.2311 -0.1679
 4018SOL    HW113667   7.910   7.997   9.675 -1.4238  0.9307  1.0201
 4018SOL    HW213668   7.816   7.913   9.758  0.1543 -0.8221  1.1122
 4019SOL     OW13669   4.551   8.994   6.978  0.2172  0.9445 -0.2832
 4019SOL    HW113670   4.609   8.919   6.965  0.4279  0.3441  3.1007
 4019SOL    HW213671   4.609   9.066   7.002 -0.2276  0.6823  1.8187
 4020SOL     OW13672   0.971   7.084   4.651 -0.0255  0.1205 -0.1955
 4020SOL    HW113673   0.973   7.153   4.585 -0.2444 -0.2101 -0.5511
 4020SOL    HW213674   0.878   7.058   4.655 -0.0508  0.2955  0.4002
 4021SOL     OW13675   9.729   7.318   7.017  0.4922 -0.0802  0.5218
 4021SOL    HW113676   9.671   7.300   7.091  0.1636 -2.1502 -0.1500
 4021SOL    HW213677   9.672   7.354   6.949  0.3809 -0.1955  0.5542
 4022SOL     OW13678   3.639   4.771   1.404  0.2202  0.4868  0.7273
 4022SOL    HW113679   3.674   4.699   1.353 -0.0497  2.3549 -2.3537
 4022SOL    HW213680   3.689   4.848   1.376 -1.6868  2.0611  1.3783
 4023SOL     OW13681   2.572   8.267   6.390 -0.1721  0.1263 -0.2904
 4023SOL    HW113682   2.622   8.290   6.312 -0.0217  0.0793 -0.2081
 4023SOL    HW213683   2.495   8.323   6.387  0.4508  1.0355  0.1863
 4024SOL     OW13684   1.604   2.792   7.697  0.1829 -0.3093 -0.0669
 4024SOL    HW113685   1.691   2.832   7.684  0.0088 -0.2071 -1.0522
 4024SOL    HW213686   1.543   2.866   7.695 -0.2938 -0.6275 -3.4145
 4025SOL     OW13687   7.190   7.032   3.634  0.0205 -0.1581 -0.2268
 4025SOL    HW113688   7.239   7.114   3.645  0.2407 -0.2695 -0.3865
 4025SOL    HW213689   7.257   6.965   3.620 -0.2143 -0.1339 -1.5802
 4026SOL     OW13690   7.758   3.197   4.665  0.2408  0.4724  0.0143
 4026SOL    HW113691   7.812   3.167   4.591 -2.4794  0.5919 -2.2069
 4026SOL    HW213692   7.745   3.118   4.718  1.8328  0.2576  0.1408
 4027SOL     OW13693   5.497   6.108   3.776  0.5464 -0.4423 -0.2926
 4027SOL    HW113694   5.509   6.203   3.771  0.0778 -0.4412 -1.7247
 4027SOL    HW213695   5.484   6.091   3.870  0.7399  0.8872 -0.0061
 4028SOL     OW13696   3.498   1.208   6.559  0.6366  0.2770  0.7202
 4028SOL    HW113697   3.570   1.146   6.551  0.0834 -0.5725  1.9466
 4028SOL    HW213698   3.434   1.163   6.614 -0.0117  1.7492  1.2165
 4029SOL     OW13699   2.819   8.148   7.865 -0.3981 -0.6169 -0.3256
 4029SOL    HW113700   2.777   8.088   7.803  0.1029 -1.5276  0.1995
 4029SOL    HW213701   2.912   8.140   7.847 -0.3863  1.9780 -2.0133
 4030SOL     OW13702   9.004   5.434   3.764  0.0766  0.1544 -0.0133
 4030SOL    HW113703   9.091   5.399   3.782 -0.1722 -0.1865  0.5847
 4030SOL    HW213704   9.007   5.462   3.673  0.6566 -0.3276 -0.1480
 4031SOL     OW13705   3.294   7.793   6.613  0.1662  0.2213  0.4552
 4031SOL    HW113706   3.211   7.778   6.567  0.8268 -1.7269 -0.2043
 4031SOL    HW213707   3.283   7.745   6.696  0.0407  1.3519  1.1095
 4032SOL     OW13708   7.049   8.145   6.394  0.0620 -0.7810  0.2264
 4032SOL    HW113709   7.035   8.050   6.390 -1.9356 -0.4851 -0.9820
 4032SOL    HW213710   6.963   8.181   6.418  0.6895  0.7491  0.2778
 4033SOL     OW13711   7.192   0.531   3.763  0.8178  0.2094  0.2457
 4033SOL    HW113712   7.286   0.537   3.780  0.7674 -0.6945  0.8772
 4033SOL    HW213713   7.152   0.589   3.827  0.8884 -0.0805  0.5510
 4034SOL     OW13714   5.135   5.118   4.218  0.1967 -0.0701 -0.0825
 4034SOL    HW113715   5.041   5.104   4.233  0.1881 -0.6035 -0.6136
 4034SOL    HW213716   5.161   5.178   4.288 -0.5843  0.2547 -0.0568
 4035SOL     OW13717   3.354   7.043   1.635 -0.4551 -0.0242  0.7208
 4035SOL    HW113718   3.305   7.108   1.686 -1.1093 -0.2795  0.4303
 4035SOL    HW213719   3.418   7.008   1.696  0.7636  1.7855  0.5553
 4036SOL     OW13720   3.401   9.307   9.283  0.4683 -0.1673 -0.0181
 4036SOL    HW113721   3.456   9.349   9.217  0.0767 -0.0784 -0.2909
 4036SOL    HW213722   3.452   9.311   9.364  1.0391 -0.4541 -0.3600
 4037SOL     OW13723   8.885   4.976   4.004  0.3725 -0.0705 -0.2233
 4037SOL    HW113724   8.930   5.055   4.034  0.5217 -0.0977 -0.3735
 4037SOL    HW213725   8.904   4.911   4.072  0.6703 -0.1182 -0.3470
 4038SOL     OW13726   3.853   6.123   5.765  0.3879 -0.1468  0.1601
 4038SOL    HW113727   3.792   6.163   5.827  0.1948  0.9723 -0.7250
 4038SOL    HW213728   3.929   6.181   5.765 -0.0642  0.5019 -1.4573
 4039SOL     OW13729   4.352   2.144   4.246  0.4370  0.4968 -0.2802
 4039SOL    HW113730   4.365   2.104   4.332  0.2210 -0.3861 -0.6540
 4039SOL    HW213731   4.346   2.071   4.185  1.9866  1.1465 -1.2669
 4040SOL     OW13732   5.428   8.517   6.056  0.2049  0.0787  0.5829
 4040SOL    HW113733   5.379   8.480   5.982  1.8396  3.3303 -2.4175
 4040SOL    HW213734   5.493   8.451   6.078  0.4811 -0.5428 -1.8187
 4041SOL     OW13735   8.659   2.158   7.624 -0.0056 -0.1633  0.1229
 4041SOL    HW113736   8.653   2.063   7.622 -0.1024 -0.2850  2.5281
 4041SOL    HW213737   8.738   2.176   7.676  0.3200  1.0837 -0.7517
 4042SOL     OW13738   6.295   6.711   9.537  0.3932 -0.4570  0.4531
 4042SOL    HW113739   6.208   6.721   9.499  0.1823 -0.6944  0.8622
 4042SOL    HW213740   6.345   6.785   9.502  0.2074 -0.6677 -0.2689
 4043SOL     OW13741   3.497   0.773   3.736  0.6098  0.1342 -0.2063
 4043SOL    HW113742   3.420   0.820   3.771  0.7281 -0.1273  0.4219
 4043SOL    HW213743   3.571   0.824   3.768  0.7395 -0.4555  0.4615
 4044SOL     OW13744   0.244   0.397   4.807 -0.2709 -0.6347  0.0774
 4044SOL    HW113745   0.311   0.334   4.836 -1.5872 -2.1903 -0.1178
 4044SOL    HW213746   0.210   0.434   4.888  0.9357  0.3307  0.1739
 4045SOL     OW13747   2.818   0.879   1.484 -0.0733 -0.0886 -0.1310
 4045SOL    HW113748   2.868   0.809   1.441  0.3916 -0.8552  1.5611
 4045SOL    HW213749   2.882   0.949   1.497  0.7057 -1.1101  2.1297
 4046SOL     OW13750   0.528   2.159   4.591 -0.7363  0.1811 -0.1420
 4046SOL    HW113751   0.571   2.197   4.668  0.2410 -1.8746  0.3857
 4046SOL    HW213752   0.467   2.227   4.562 -1.8400  0.6714  3.0096
 4047SOL     OW13753   7.233   6.923   6.610  0.2511 -0.6524  0.6071
 4047SOL    HW113754   7.231   6.990   6.678 -1.9555 -0.8839  0.8453
 4047SOL    HW213755   7.192   6.965   6.534  0.0112 -1.3199  0.3594
 4048SOL     OW13756   6.758   0.778   3.854 -0.2546 -0.8321 -0.2194
 4048SOL    HW113757   6.725   0.693   3.824  0.4728 -1.3924  0.5157
 4048SOL    HW213758   6.823   0.804   3.788 -0.3610 -0.9238 -0.3599
 4049SOL     OW13759   1.189   7.986   0.392  0.3074  0.6060  0.4674
 4049SOL    HW113760   1.182   8.021   0.481  1.3235  1.8158  0.0884
 4049SOL    HW213761   1.146   7.900   0.397  1.6492 -0.0065  2.4852
 4050SOL     OW13762   0.838   3.086   4.423 -0.6077 -0.5055 -0.0288
 4050SOL    HW113763   0.912   3.138   4.393  0.4374 -1.9409 -0.0529
 4050SOL    HW213764   0.854   2.998   4.388 -0.8671 -1.5264  2.2168
 4051SOL     OW13765   2.987   2.873   9.031  0.0509 -0.0971  0.0120
 4051SOL    HW113766   3.052   2.894   8.963 -0.4344  0.3406 -0.3307
 4051SOL    HW213767   3.028   2.903   9.112  1.0432 -1.4973  0.0665
 4052SOL     OW13768   3.551   5.709   8.838  0.0145 -0.2437  0.3450
 4052SOL    HW113769   3.593   5.682   8.756 -0.7773  0.0817 -0.1752
 4052SOL    HW213770   3.620   5.700   8.904  0.5913 -0.7406 -0.3130
 4053SOL     OW13771   1.777   2.613   8.989 -0.3238 -0.7693  0.5546
 4053SOL    HW113772   1.692   2.588   9.026 -1.8036  1.1186 -1.3771
 4053SOL    HW213773   1.822   2.657   9.061 -1.0103 -1.6668  1.5679
 4054SOL     OW13774   2.306   0.702   3.918  0.2861  0.1210  0.4892
 4054SOL    HW113775   2.241   0.731   3.853  2.9671 -0.2844 -2.6361
 4054SOL    HW213776   2.335   0.782   3.961  0.3183  0.7677 -0.7056
 4055SOL     OW13777   6.809   1.997   5.560 -0.1377 -0.2673  0.9232
 4055SOL    HW113778   6.810   1.910   5.518 -0.6212 -1.1504  2.6418
 4055SOL    HW213779   6.746   2.047   5.508 -0.5692 -1.2512  0.4605
 4056SOL     OW13780   8.500   5.652   4.424  0.1025  0.6184 -0.1751
 4056SOL    HW113781   8.468   5.705   4.351  1.4073  1.2273 -0.3243
 4056SOL    HW213782   8.435   5.666   4.493 -0.4268  1.1063 -0.7538
 4057SOL     OW13783   8.298   7.497   8.912 -0.3408 -0.4296  0.1729
 4057SOL    HW113784   8.313   7.443   8.835 -3.6333 -1.6890  0.2349
 4057SOL    HW213785   8.213   7.540   8.895 -0.8056 -0.1625  2.7483
 4058SOL     OW13786   7.663   4.982   8.497 -0.0174  0.8886 -1.2011
 4058SOL    HW113787   7.585   5.001   8.548  3.0672  0.1438  4.6219
 4058SOL    HW213788   7.716   5.061   8.503  0.1223  1.2388 -4.6867
 4059SOL     OW13789   9.154   5.501   6.702  0.1750 -0.4033 -0.4202
 4059SOL    HW113790   9.236   5.469   6.665  0.0773 -0.6799 -0.4027
 4059SOL    HW213791   9.087   5.442   6.667 -0.1276  0.3276 -1.1088
 4060SOL     OW13792   4.365   4.248   3.362  0.1951 -0.4885  0.1237
 4060SOL    HW113793   4.339   4.176   3.304  0.7747 -2.1474  1.8216
 4060SOL    HW213794   4.436   4.211   3.415  1.0252  1.5995  0.5667
 4061SOL     OW13795   2.230   4.668   3.734  0.0086  0.1530  0.0323
 4061SOL    HW113796   2.253   4.628   3.818 -1.0481 -1.9844 -0.6153
 4061SOL    HW213797   2.263   4.607   3.669 -0.0549  1.2850 -1.1043
 4062SOL     OW13798   3.139   8.476   3.669  0.0831 -0.0853 -0.1685
 4062SOL    HW113799   3.151   8.564   3.705 -2.3791  0.4713 -0.5660
 4062SOL    HW213800   3.047   8.456   3.684  0.0079 -1.6208 -2.2705
 4063SOL     OW13801   4.257   2.426   3.206  0.8121 -0.8749 -0.5761
 4063SOL    HW113802   4.209   2.452   3.284  0.0496  0.2001 -1.3732
 4063SOL    HW213803   4.343   2.468   3.215  0.9518 -1.2695 -0.0374
 4064SOL     OW13804   7.713   2.933   6.855 -0.6033 -0.3110  0.1220
 4064SOL    HW113805   7.725   2.897   6.943 -0.3315  1.3802  0.8007
 4064SOL    HW213806   7.790   2.903   6.806 -1.3926 -2.3799  0.0115
 4065SOL     OW13807   1.407   5.122   3.758  0.5665 -0.1795  0.5023
 4065SOL    HW113808   1.350   5.136   3.683  1.9889  2.3277 -0.2345
 4065SOL    HW213809   1.348   5.102   3.831 -1.0551  0.3013 -0.6299
 4066SOL     OW13810   6.819   9.501   1.899  0.2408 -0.5689 -0.5357
 4066SOL    HW113811   6.851   9.468   1.815  1.2293 -0.4334 -0.2251
 4066SOL    HW213812   6.867   9.452   1.964 -1.6588 -1.8122  0.0110
 4067SOL     OW13813   2.482   3.790   8.291  0.3240 -0.2762  0.7353
 4067SOL    HW113814   2.565   3.787   8.338  0.3401 -0.1448  0.7160
 4067SOL    HW213815   2.506   3.800   8.199  0.3237 -1.7784  0.5427
 4068SOL     OW13816   9.715   9.696   2.459 -0.4183 -0.2149  0.7992
 4068SOL    HW113817   9.774   9.745   2.401 -1.4811  1.1701  0.8363
 4068SOL    HW213818   9.759   9.696   2.544 -0.1448  0.1870  0.6593
 4069SOL     OW13819   6.833   7.505   4.988 -0.1105  0.9005  0.2546
 4069SOL    HW113820   6.895   7.470   4.925 -0.6769  1.5898 -0.7072
 4069SOL    HW213821   6.748   7.473   4.959 -0.2630  0.2654  1.3454
 4070SOL     OW13822   9.614   6.937   6.605 -0.2576 -0.4324  0.4786
 4070SOL    HW113823   9.640   6.867   6.545 -0.3835 -1.7570  1.9052
 4070SOL    HW213824   9.524   6.956   6.581  0.1434  0.1317 -0.7049
 4071SOL     OW13825   3.579   1.042   9.675  0.0004 -0.6053 -0.3590
 4071SOL    HW113826   3.595   1.117   9.618  1.8587 -1.0746 -0.5269
 4071SOL    HW213827   3.666   1.015   9.704 -0.8545 -0.5809  2.4926
 4072SOL     OW13828   3.155   1.750   2.059  0.1414 -0.0559 -0.3208
 4072SOL    HW113829   3.139   1.663   2.021  0.6004  0.2908 -1.3504
 4072SOL    HW213830   3.237   1.779   2.018 -0.0282  0.8769 -0.0217
 4073SOL     OW13831   0.819   9.759   2.628 -0.0995 -0.0172 -0.1161
 4073SOL    HW113832   0.862   9.803   2.701 -0.2552  2.8912 -1.6588
 4073SOL    HW213833   0.892   9.723   2.577  0.4011  2.0648 -0.9738
 4074SOL     OW13834   0.586   3.155   3.650  0.3752 -0.6336  0.2672
 4074SOL    HW113835   0.583   3.086   3.583  0.7237 -0.5071  0.1158
 4074SOL    HW213836   0.497   3.160   3.684  0.3709 -1.2167  0.3366
 4075SOL     OW13837   6.263   0.532   8.634  0.6574  0.5248 -0.1157
 4075SOL    HW113838   6.357   0.537   8.651  0.7802  1.5869 -0.9990
 4075SOL    HW213839   6.224   0.529   8.721  1.5133 -0.1030  0.2622
 4076SOL     OW13840   4.463   3.155   7.633 -0.2143  0.0995  0.0017
 4076SOL    HW113841   4.449   3.249   7.637  0.2539  0.1447  0.7912
 4076SOL    HW213842   4.377   3.119   7.611 -0.7089  0.6156  1.0493
 4077SOL     OW13843   5.635   3.418   3.445 -0.0540  0.5460 -0.0700
 4077SOL    HW113844   5.654   3.447   3.535 -1.4362 -0.2946  0.5155
 4077SOL    HW213845   5.543   3.394   3.446  0.1268 -0.3347 -1.4967
 4078SOL     OW13846   8.016   5.412   1.250 -0.5824  0.6757  0.4976
 4078SOL    HW113847   8.069   5.402   1.171  1.4546  0.4306  1.8194
 4078SOL    HW213848   7.939   5.357   1.234  2.0318 -3.4662  0.5393
 4079SOL     OW13849   1.384   4.187   9.301  0.4838  0.5340  0.0419
 4079SOL    HW113850   1.415   4.119   9.361  0.5951 -0.6591 -1.3335
 4079SOL    HW213851   1.437   4.264   9.323  3.0841 -0.8673 -0.8626
 4080SOL     OW13852   4.231   2.137   9.331  0.4518  0.2737  0.3010
 4080SOL    HW113853   4.271   2.186   9.259  0.2078 -0.3063 -0.2529
 4080SOL    HW213854   4.265   2.048   9.320  0.9877  0.3431  1.3599
 4081SOL     OW13855   6.452   8.652   5.174  0.6805 -0.1830 -0.2470
 4081SOL    HW113856   6.369   8.630   5.216  0.3879  1.0669 -0.1331
 4081SOL    HW213857   6.428   8.680   5.085  1.1478 -1.3384 -0.7608
 4082SOL     OW13858   6.219   6.150   1.731  0.4234  0.5719  0.0593
 4082SOL    HW113859   6.231   6.082   1.797  1.3423  1.1832  0.5525
 4082SOL    HW213860   6.142   6.123   1.682 -1.2895  0.8817  2.3814
 4083SOL     OW13861   9.387   8.899   9.355  0.0788  0.6681  0.4809
 4083SOL    HW113862   9.392   8.983   9.401 -0.3326  1.5558 -1.0331
 4083SOL    HW213863   9.435   8.913   9.273  1.8533 -1.2456  1.1063
 4084SOL     OW13864   8.590   2.552   8.880  0.1247  0.4941 -0.1621
 4084SOL    HW113865   8.675   2.594   8.867  0.3772 -0.1716 -0.7699
 4084SOL    HW213866   8.526   2.618   8.853  0.5444  0.1411 -2.2485
 4085SOL     OW13867   5.975   7.645   3.271  0.1195  0.1524 -0.4944
 4085SOL    HW113868   5.941   7.713   3.329  1.1917 -0.1375  0.5347
 4085SOL    HW213869   5.933   7.660   3.187 -0.9345  1.0409  0.1755
 4086SOL     OW13870   4.672   1.509   3.027  0.0632 -0.3076  0.0205
 4086SOL    HW113871   4.615   1.565   3.080  0.3311 -1.5775  1.7666
 4086SOL    HW213872   4.734   1.569   2.987 -0.0472  0.7284  1.3273
 4087SOL     OW13873   4.426   7.703   5.123 -0.2329 -0.5355  0.3340
 4087SOL    HW113874   4.511   7.685   5.082 -0.3483  1.3040 -0.8557
 4087SOL    HW213875   4.447   7.725   5.213  0.2410 -2.6829  0.8084
 4088SOL     OW13876   3.109   4.476   5.934  0.1359  0.1180  0.0323
 4088SOL    HW113877   3.054   4.399   5.921 -0.7893  0.6405  0.7272
 4088SOL    HW213878   3.052   4.550   5.912  0.5772  0.6666  0.6948
 4089SOL     OW13879   7.027   9.561   6.815  0.1769 -0.6029 -0.0647
 4089SOL    HW113880   7.037   9.515   6.899 -2.7837  0.3053  0.9226
 4089SOL    HW213881   6.946   9.526   6.779  1.4318 -1.0131 -2.6642
 4090SOL     OW13882   0.648   8.670   3.572  0.1610 -0.1803  0.0390
 4090SOL    HW113883   0.727   8.641   3.618  1.1112 -1.9058 -2.4664
 4090SOL    HW213884   0.665   8.762   3.549  0.7497 -0.0798  0.8547
 4091SOL     OW13885   9.338   8.988   8.079  0.7961 -0.4367 -0.2142
 4091SOL    HW113886   9.414   9.016   8.130 -0.3605  2.2288  0.2125
 4091SOL    HW213887   9.336   9.045   8.003 -0.7345 -0.4709 -0.2453
 4092SOL     OW13888   0.114   5.431   9.254 -0.4175 -1.0701 -0.2098
 4092SOL    HW113889   0.165   5.482   9.192  0.9988 -0.7059  1.1823
 4092SOL    HW213890   0.023   5.453   9.235  0.0117 -0.4494 -1.6679
 4093SOL     OW13891   2.315   3.709   6.190  0.7310 -0.3180  0.2207
 4093SOL    HW113892   2.314   3.730   6.096 -0.3959  0.3854  0.3698
 4093SOL    HW213893   2.408   3.709   6.213  0.9553  1.3586 -0.5092
 4094SOL     OW13894   5.075   1.136   6.879  0.2796 -0.2719 -0.2783
 4094SOL    HW113895   5.032   1.116   6.961 -1.7446 -1.8544 -1.6239
 4094SOL    HW213896   5.168   1.142   6.901 -0.2942  0.4882  2.2675
 4095SOL     OW13897   6.118   0.477   8.844  0.5697  0.3790  0.0152
 4095SOL    HW113898   6.079   0.488   8.931 -0.2110 -3.3251  0.2744
 4095SOL    HW213899   6.044   0.452   8.789  1.4646  0.2977 -1.1684
 4096SOL     OW13900   9.687   3.168   1.295 -0.2960 -0.1487 -0.1642
 4096SOL    HW113901   9.738   3.217   1.231 -0.7617 -0.3326 -0.6836
 4096SOL    HW213902   9.656   3.091   1.247 -1.8934  0.4431 -0.1647
 4097SOL     OW13903   8.429   7.141   6.379  0.2950  0.3824 -0.8916
 4097SOL    HW113904   8.401   7.056   6.345  1.6892 -0.3775 -0.2180
 4097SOL    HW213905   8.371   7.158   6.454  1.5558 -1.1977  0.5245
 4098SOL     OW13906   5.538   8.225   3.971  0.0646 -0.2841  0.2561
 4098SOL    HW113907   5.599   8.230   3.897  0.4275 -0.7713  0.5143
 4098SOL    HW213908   5.586   8.176   4.038 -0.3266 -0.0052  0.7502
 4099SOL     OW13909   1.418   4.902   4.980 -0.2562 -1.3984  0.2411
 4099SOL    HW113910   1.429   4.888   5.074  0.3570 -1.0772  0.2219
 4099SOL    HW213911   1.436   4.995   4.968 -3.9930 -0.5082  0.3354
 4100SOL     OW13912   2.497   8.071   9.142  0.2709 -0.1786  0.2964
 4100SOL    HW113913   2.440   8.047   9.069  1.7507  0.4063 -1.1231
 4100SOL    HW213914   2.444   8.129   9.196 -0.6894 -0.1783 -0.6140
 4101SOL     OW13915   4.209   3.867   7.690  0.1899 -0.4811 -0.1935
 4101SOL    HW113916   4.127   3.903   7.656  0.5641  0.3822 -0.1991
 4101SOL    HW213917   4.236   3.803   7.623 -0.5664 -0.9143 -0.0954
 4102SOL     OW13918   0.135   3.470   6.880 -0.1678 -0.3637 -0.7499
 4102SOL    HW113919   0.167   3.408   6.814 -3.3088 -0.0376 -2.7424
 4102SOL    HW213920   0.132   3.554   6.835 -1.2993  0.1077  0.1500
 4103SOL     OW13921   5.277   1.426   6.660  0.5084  0.1196  0.0530
 4103SOL    HW113922   5.344   1.486   6.693  1.1227  0.3277 -1.4566
 4103SOL    HW213923   5.309   1.339   6.682  0.9837  0.2491 -0.0943
 4104SOL     OW13924   2.300   7.933   1.419 -0.4983 -0.3340  0.6937
 4104SOL    HW113925   2.223   7.971   1.461  0.8021  0.4892  2.4654
 4104SOL    HW213926   2.327   7.999   1.354  0.1570  0.5761  1.8533
 4105SOL     OW13927   8.728   7.889   0.295 -0.1947  0.0443 -0.0077
 4105SOL    HW113928   8.652   7.907   0.350 -0.1825 -0.2328  0.1036
 4105SOL    HW213929   8.728   7.793   0.286  0.2567  0.0255  0.1664
 4106SOL     OW13930   0.320   9.724   4.699 -0.0385 -0.4690  0.2229
 4106SOL    HW113931   0.380   9.787   4.660  0.0641  0.0321  1.1629
 4106SOL    HW213932   0.342   9.640   4.657  0.9157 -0.1875  0.1398
 4107SOL     OW13933   1.652   8.381   3.144  0.0741 -0.2579 -0.4214
 4107SOL    HW113934   1.673   8.468   3.176 -1.3904 -0.3272  0.8938
 4107SOL    HW213935   1.559   8.370   3.163  0.3122 -2.2763 -0.0919
 4108SOL     OW13936   5.834   3.967   3.542 -0.0394 -0.1900 -0.2862
 4108SOL    HW113937   5.925   3.942   3.526  0.3059 -0.4200  1.7763
 4108SOL    HW213938   5.785   3.885   3.530  0.2936 -0.5149  0.5406
 4109SOL     OW13939   9.549   1.570   9.371  0.4057 -0.2440  0.2685
 4109SOL    HW113940   9.545   1.542   9.462  0.5702  0.8921  0.6331
 4109SOL    HW213941   9.604   1.648   9.372 -0.6359  0.5280 -0.6087
 4110SOL     OW13942   0.257   2.900   6.925 -0.3738  0.0708 -0.1545
 4110SOL    HW113943   0.244   2.820   6.976  2.1942 -0.3341 -0.0409
 4110SOL    HW213944   0.341   2.887   6.881 -1.8155  0.9211 -3.5541
 4111SOL     OW13945   0.801   5.043   0.062  0.1496 -0.2332  0.3980
 4111SOL    HW113946   0.798   5.047   0.157  0.1464 -1.8173  0.4922
 4111SOL    HW213947   0.820   5.133   0.034  1.5720 -0.0101  1.9412
 4112SOL     OW13948   8.887   6.990   4.628  0.4011  0.1917 -0.0029
 4112SOL    HW113949   8.962   6.931   4.643  0.5873  1.2540  4.2897
 4112SOL    HW213950   8.815   6.951   4.678 -1.2062  0.6680 -1.8189
 4113SOL     OW13951   5.014   5.376   4.938  0.5514  0.0216  0.3804
 4113SOL    HW113952   5.041   5.327   5.016  0.2270  0.2155  0.6216
 4113SOL    HW213953   4.992   5.463   4.972  1.5668  0.4757 -0.1159
 4114SOL     OW13954   4.408   7.464   1.856  0.0607  0.1682  0.0749
 4114SOL    HW113955   4.391   7.371   1.868  2.6969 -0.2822  1.1053
 4114SOL    HW213956   4.385   7.481   1.765 -0.8122 -1.3884 -0.0268
 4115SOL     OW13957   9.109   2.023   3.136 -0.0965  0.3345 -0.2528
 4115SOL    HW113958   9.089   2.070   3.055 -0.8064 -0.2608 -0.4437
 4115SOL    HW213959   9.023   2.013   3.179  0.3145  0.9375  0.7413
 4116SOL     OW13960   0.380   7.829   2.135  0.0470 -0.2442  0.1928
 4116SOL    HW113961   0.418   7.744   2.110  0.7844 -0.4372  1.8494
 4116SOL    HW213962   0.286   7.812   2.140  0.1849 -0.9857  0.5217
 4117SOL     OW13963   3.306   8.608   7.295 -0.2533 -0.1320 -0.5808
 4117SOL    HW113964   3.398   8.604   7.267  0.4148  0.2655  1.3775
 4117SOL    HW213965   3.290   8.524   7.339  0.6463  1.3520  2.9893
 4118SOL     OW13966   5.780   2.263   6.287 -0.6980  0.1502  0.3762
 4118SOL    HW113967   5.686   2.246   6.280 -0.7158  0.0213  0.8951
 4118SOL    HW213968   5.820   2.201   6.226 -0.8833 -0.5288  0.9335
 4119SOL     OW13969   5.231   9.319   3.076 -0.5756  0.0043 -0.0469
 4119SOL    HW113970   5.325   9.327   3.058 -0.6108 -0.0901 -0.2646
 4119SOL    HW213971   5.189   9.336   2.992 -0.7551  0.0637  0.0556
 4120SOL     OW13972   3.318   1.475   7.084  0.2433  0.0130  0.5908
 4120SOL    HW113973   3.400   1.516   7.109  0.8090  1.3333 -2.8634
 4120SOL    HW213974   3.342   1.384   7.066  1.0462  0.4303 -0.5741
 4121SOL     OW13975   9.536   2.429   4.534  0.8733  0.2224  0.6077
 4121SOL    HW113976   9.533   2.502   4.472  2.8159 -0.1319  0.0171
 4121SOL    HW213977   9.445   2.410   4.554  0.3045  2.4960  0.4184
 4122SOL     OW13978   7.498   3.344   0.577 -0.1303 -0.0592 -0.4075
 4122SOL    HW113979   7.507   3.341   0.672  1.0465 -0.5914 -0.5090
 4122SOL    HW213980   7.550   3.269   0.546  1.3480  1.3524 -1.5519
 4123SOL     OW13981   6.072   8.205   3.068  0.6784  0.4643  0.3359
 4123SOL    HW113982   6.135   8.197   3.140 -0.1425  1.7271  1.2401
 4123SOL    HW213983   6.038   8.294   3.076  0.1158  0.4173 -1.2616
 4124SOL     OW13984   5.559   5.634   4.226 -0.1613  0.4104 -0.5548
 4124SOL    HW113985   5.645   5.596   4.242  0.3889  1.3102 -1.2937
 4124SOL    HW213986   5.498   5.569   4.261  0.7254 -1.3230 -2.0019
 4125SOL     OW13987   6.126   0.306   0.906  0.0983 -0.3859  0.2423
 4125SOL    HW113988   6.155   0.235   0.964  0.9273 -0.3668 -0.1311
 4125SOL    HW213989   6.066   0.358   0.960 -0.1168 -1.0754  0.6812
 4126SOL     OW13990   4.757   5.240   6.527 -0.0156 -0.2037  0.1624
 4126SOL    HW113991   4.711   5.321   6.548 -1.2374 -1.3135  2.1506
 4126SOL    HW213992   4.694   5.189   6.476  0.3652 -0.3065 -0.2077
 4127SOL     OW13993   2.289   1.191   3.009 -0.6929  0.1518  0.5153
 4127SOL    HW113994   2.260   1.179   2.918  1.8570  0.4032 -0.4230
 4127SOL    HW213995   2.292   1.286   3.021 -2.4084  0.1204  1.3921
 4128SOL     OW13996   7.567   5.220   6.283 -0.3159 -0.4584 -0.6177
 4128SOL    HW113997   7.620   5.284   6.236  0.5391 -0.9275 -0.3144
 4128SOL    HW213998   7.603   5.219   6.372 -0.9725 -0.6317 -0.3490
 4129SOL     OW13999   2.894   0.581   9.333 -0.0617  0.1155 -0.1921
 4129SOL    HW114000   2.986   0.604   9.343  0.1478 -0.7237 -0.1150
 4129SOL    HW214001   2.876   0.521   9.405 -0.2047 -1.0680 -1.1762
 4130SOL     OW14002   8.514   5.236   2.681 -0.2820  0.0147  0.5292
 4130SOL    HW114003   8.445   5.170   2.672  0.1395 -0.4664  0.8238
 4130SOL    HW214004   8.532   5.263   2.591  1.1711 -1.9593  0.1678
 4131SOL     OW14005   2.846   3.763   2.254 -0.1292  0.3321 -0.1171
 4131SOL    HW114006   2.816   3.780   2.343  1.4657  2.1865  0.1207
 4131SOL    HW214007   2.796   3.685   2.227 -0.7607 -0.1948  2.3038
 4132SOL     OW14008   3.933   8.036   9.166 -0.8219  0.2794  0.0054
 4132SOL    HW114009   3.936   8.089   9.087 -1.8419 -1.1376 -1.0184
 4132SOL    HW214010   4.007   7.976   9.157 -0.7614  0.3107  0.2822
 4133SOL     OW14011   5.590   6.302   0.225 -0.6823 -0.8691 -0.2213
 4133SOL    HW114012   5.636   6.237   0.278  0.0606  0.2569  0.5557
 4133SOL    HW214013   5.499   6.295   0.252 -0.5623 -1.4087  0.0456
 4134SOL     OW14014   4.734   0.874   9.601  0.2836  0.1843 -0.0302
 4134SOL    HW114015   4.780   0.949   9.639  1.2147  0.2131 -1.1790
 4134SOL    HW214016   4.698   0.906   9.519 -0.7175 -0.2010  0.2406
 4135SOL     OW14017   8.878   4.738   3.391 -0.4353  0.2393  0.6638
 4135SOL    HW114018   8.934   4.685   3.448  0.3330 -0.3706 -0.6029
 4135SOL    HW214019   8.790   4.723   3.423 -0.0419 -0.2389  1.5633
 4136SOL     OW14020   8.062   6.388   4.759 -0.3758 -0.3811 -0.7366
 4136SOL    HW114021   8.078   6.481   4.745 -0.6934  0.0298  1.2537
 4136SOL    HW214022   7.978   6.384   4.806 -0.2003 -1.6256 -0.4703
 4137SOL     OW14023   8.807   7.510   2.952 -0.2309  0.4399  0.0071
 4137SOL    HW114024   8.821   7.416   2.946 -1.2199  0.3395 -0.9951
 4137SOL    HW214025   8.875   7.541   3.012 -1.2043 -1.2062  2.0709
 4138SOL     OW14026   8.595   9.570   1.409  0.4032  0.0395  0.6151
 4138SOL    HW114027   8.582   9.507   1.480 -0.1942 -0.2556  0.2503
 4138SOL    HW214028   8.683   9.550   1.375 -0.8112 -2.5379 -1.3679
 4139SOL     OW14029   7.362   0.601   4.028  0.0594 -0.0822  0.1751
 4139SOL    HW114030   7.345   0.681   3.979 -2.7991 -1.1731 -0.8217
 4139SOL    HW214031   7.444   0.567   3.991  0.3768  1.4407 -0.5944
 4140SOL     OW14032   0.854   9.141   7.701 -0.2928  0.0055  0.1563
 4140SOL    HW114033   0.930   9.173   7.651  0.4866 -1.2582  0.4992
 4140SOL    HW214034   0.809   9.221   7.729 -0.9640  0.8167 -2.7935
 4141SOL     OW14035   2.843   2.524   7.459 -0.3731 -0.3579  0.3211
 4141SOL    HW114036   2.821   2.555   7.547 -0.2026  0.0526  0.2196
 4141SOL    HW214037   2.761   2.533   7.410 -0.7642 -1.5996  0.7117
 4142SOL     OW14038   5.485   6.043   4.036  0.4153 -0.3305 -0.3185
 4142SOL    HW114039   5.514   6.126   4.073  0.1543 -0.7194  0.8077
 4142SOL    HW214040   5.534   5.976   4.084 -0.6989 -0.8953  0.0774
 4143SOL     OW14041   7.009   8.588   2.451  0.4366 -0.1759  1.1091
 4143SOL    HW114042   6.943   8.519   2.439  0.4221 -0.1505  1.0427
 4143SOL    HW214043   6.959   8.667   2.469  0.4855 -0.3626  2.1210
 4144SOL     OW14044   2.645   2.356   4.792  0.2290 -0.0447  0.0108
 4144SOL    HW114045   2.738   2.349   4.813 -0.2296  0.2575  2.3107
 4144SOL    HW214046   2.615   2.266   4.783  0.4864 -0.1757  0.4756
 4145SOL     OW14047   9.076   7.037   4.992  0.3948  0.3684  0.2178
 4145SOL    HW114048   9.153   7.062   5.044  0.4673  1.7934 -0.5107
 4145SOL    HW214049   9.080   6.942   4.987  2.7182  0.4370 -0.6680
 4146SOL     OW14050   5.224   9.451   0.553 -0.7195  0.1370 -0.2660
 4146SOL    HW114051   5.146   9.419   0.598 -0.5789 -0.2155 -0.2744
 4146SOL    HW214052   5.243   9.535   0.594 -2.3167  1.2321 -1.6445
 4147SOL     OW14053   6.765   2.264   6.469  0.1325 -0.2352  0.3789
 4147SOL    HW114054   6.737   2.355   6.475  1.1117  0.0478  0.8117
 4147SOL    HW214055   6.815   2.260   6.388 -1.1117 -0.7420 -0.3967
 4148SOL     OW14056   2.720   2.419   4.464 -0.5348  0.4131 -0.0919
 4148SOL    HW114057   2.758   2.354   4.523  0.3711  1.1459  0.1575
 4148SOL    HW214058   2.784   2.430   4.395 -1.6933 -0.5967 -1.3746
 4149SOL     OW14059   6.054   2.302   1.966 -0.2503 -0.0056  0.0304
 4149SOL    HW114060   5.970   2.255   1.963  0.3663 -1.1929  0.5683
 4149SOL    HW214061   6.075   2.309   2.059 -0.2739  1.2750 -0.0507
 4150SOL     OW14062   7.208   9.670   3.722  0.0994  0.1449 -0.2876
 4150SOL    HW114063   7.240   9.632   3.804  2.3749  1.6618 -0.3685
 4150SOL    HW214064   7.174   9.595   3.673 -0.7862 -0.8891  1.7657
 4151SOL     OW14065   8.048   0.010   2.926  0.1795  0.5363  0.0952
 4151SOL    HW114066   7.962   0.049   2.909  0.2098 -0.0106 -1.5301
 4151SOL    HW214067   8.108   0.084   2.927 -0.4058  1.0402  2.2811
 4152SOL     OW14068   9.815   8.272   0.757  0.0993  0.2674  0.3499
 4152SOL    HW114069   9.805   8.261   0.851  0.6372  0.1142  0.3877
 4152SOL    HW214070   9.791   8.364   0.741  1.3794  0.7027  0.8294
 4153SOL     OW14071   2.755   7.094   2.476  0.0685  0.3126 -0.8728
 4153SOL    HW114072   2.844   7.083   2.508 -1.1545 -2.0315  2.0735
 4153SOL    HW214073   2.713   7.151   2.540 -0.6841  1.2667 -2.1487
 4154SOL     OW14074   2.344   0.447   4.026  0.2560 -0.0519 -0.0306
 4154SOL    HW114075   2.256   0.419   4.000 -0.5210  1.1555  1.1314
 4154SOL    HW214076   2.354   0.532   3.984  0.5041  0.2073  0.5458
 4155SOL     OW14077   5.830   0.034   4.450  0.2150  0.4752  0.1341
 4155SOL    HW114078   5.754  -0.003   4.493  0.6206  2.4414  2.7727
 4155SOL    HW214079   5.797   0.110   4.403  0.3709  0.6655  0.3295
 4156SOL     OW14080   9.203   0.413   6.556 -1.0241 -0.1149 -0.4551
 4156SOL    HW114081   9.214   0.491   6.611 -0.3357 -0.4498 -0.1041
 4156SOL    HW214082   9.262   0.428   6.482  3.0725 -2.4018  1.9593
 4157SOL     OW14083   2.799   6.716   7.470  1.0155  0.6078 -0.2747
 4157SOL    HW114084   2.714   6.741   7.433  0.4361  0.4512  0.9202
 4157SOL    HW214085   2.783   6.631   7.512  1.6297  0.8215  0.4053
 4158SOL     OW14086   0.508   1.696   8.628  0.3949  0.0988 -0.2363
 4158SOL    HW114087   0.524   1.608   8.594 -0.6688 -0.7380  1.3160
 4158SOL    HW214088   0.575   1.751   8.586  0.7729 -1.3375 -1.6010
 4159SOL     OW14089   1.886   5.871   4.023 -0.7137  0.0342 -0.3160
 4159SOL    HW114090   1.877   5.964   4.045  1.0936 -0.1865  1.7100
 4159SOL    HW214091   1.967   5.844   4.067  0.3803 -1.8400 -3.2197
 4160SOL     OW14092   5.642   9.763   8.124 -0.3312  0.1318 -0.0012
 4160SOL    HW114093   5.635   9.681   8.174  0.3257  0.9710  1.5389
 4160SOL    HW214094   5.734   9.788   8.133 -0.2561  0.4542 -1.4530
 4161SOL     OW14095   4.315   6.807   0.120  0.3071 -0.3078  0.3255
 4161SOL    HW114096   4.320   6.881   0.060 -1.3625 -0.2519  0.1940
 4161SOL    HW214097   4.236   6.760   0.093  0.5319 -1.3122  1.3369
 4162SOL     OW14098   6.185   2.136   8.994 -0.5188 -0.1999  0.0317
 4162SOL    HW114099   6.264   2.190   8.993  0.8358 -2.0493  0.5380
 4162SOL    HW214100   6.168   2.117   8.902 -0.2336  0.0402 -0.0738
 4163SOL     OW14101   1.289   7.946   1.371 -0.1726 -0.2680  0.3442
 4163SOL    HW114102   1.365   8.003   1.356 -1.1684  0.5242 -2.3237
 4163SOL    HW214103   1.310   7.865   1.325 -0.5616 -0.3936  0.3836
 4164SOL     OW14104   9.793   1.565   8.210  0.1779  0.3408 -0.1915
 4164SOL    HW114105   9.798   1.633   8.142  0.7711 -0.7578 -1.2881
 4164SOL    HW214106   9.869   1.582   8.265  0.4017  0.4878 -0.5377
 4165SOL     OW14107   6.426   9.351   1.439  0.2203  0.4294  0.3939
 4165SOL    HW114108   6.485   9.421   1.411 -0.0915  0.0602 -1.3146
 4165SOL    HW214109   6.483   9.276   1.456  0.4233  0.6808  0.8247
 4166SOL     OW14110   3.961   7.059   3.992 -0.2562  0.0427 -0.0964
 4166SOL    HW114111   3.931   7.148   3.974  0.7416  0.3923 -0.1397
 4166SOL    HW214112   3.974   7.058   4.087 -0.7094 -0.2062 -0.0366
 4167SOL     OW14113   8.366   3.378   9.036 -0.3813  0.1042 -0.2510
 4167SOL    HW114114   8.275   3.400   9.017 -0.1355  0.4894 -1.0304
 4167SOL    HW214115   8.395   3.329   8.959  0.9874  2.6738 -1.4892
 4168SOL     OW14116   8.196   3.767   0.412  0.3104 -0.3891 -0.1477
 4168SOL    HW114117   8.246   3.773   0.331 -0.0378  0.9498 -0.2898
 4168SOL    HW214118   8.202   3.675   0.437 -0.2799 -1.0267 -2.1367
 4169SOL     OW14119   0.710   0.622   2.202 -0.1247  0.0473  0.1346
 4169SOL    HW114120   0.777   0.651   2.140  0.6039  0.1185  0.9460
 4169SOL    HW214121   0.639   0.589   2.146 -0.0225  1.2651 -0.7674
 4170SOL     OW14122   1.675   7.338   6.980  0.4233  0.3541 -0.9235
 4170SOL    HW114123   1.714   7.341   6.893 -1.5861 -0.8766 -1.9383
 4170SOL    HW214124   1.749   7.323   7.039  1.6335 -0.5024 -2.5874
 4171SOL     OW14125   6.483   6.839   6.069  0.2741 -0.3063  0.1612
 4171SOL    HW114126   6.480   6.934   6.074 -2.3366 -0.3533  1.2997
 4171SOL    HW214127   6.427   6.817   5.994  1.3942 -0.9564 -0.5109
 4172SOL     OW14128   5.729   5.426   5.311 -0.0517  0.0963  0.1986
 4172SOL    HW114129   5.774   5.440   5.394 -0.4832  0.1959  0.4189
 4172SOL    HW214130   5.791   5.455   5.244 -0.1889  1.2407  0.5509
 4173SOL     OW14131   4.975   6.437   6.909 -0.1695 -0.3781  0.5001
 4173SOL    HW114132   5.009   6.439   6.999 -1.4127 -0.6398  0.9959
 4173SOL    HW214133   4.935   6.350   6.900  1.2676 -0.9548 -0.8385
 4174SOL     OW14134   3.044   3.695   3.789 -0.1364  0.5782 -0.0310
 4174SOL    HW114135   3.020   3.690   3.882 -1.1235  0.8164 -0.2688
 4174SOL    HW214136   3.133   3.660   3.787  0.2671  1.4565  1.1391
 4175SOL     OW14137   6.086   3.079   1.954  0.2652 -0.0575 -0.1365
 4175SOL    HW114138   6.074   3.135   1.877  0.5654 -0.8504 -0.7708
 4175SOL    HW214139   6.064   2.991   1.924 -2.0983 -0.0675  1.3507
 4176SOL     OW14140   3.654   7.653   7.036  0.4117 -0.0757  0.2669
 4176SOL    HW114141   3.722   7.642   7.104 -0.8394 -0.1459  1.5499
 4176SOL    HW214142   3.608   7.570   7.035 -0.1756  0.2503 -0.0123
 4177SOL     OW14143   8.752   6.789   4.890  0.2441  0.2955 -0.5420
 4177SOL    HW114144   8.750   6.787   4.985 -0.6360 -0.3882 -0.5537
 4177SOL    HW214145   8.682   6.728   4.864 -1.0608  2.1434 -1.6132
 4178SOL     OW14146   9.001   6.922   3.505  0.0741 -0.5084  0.0245
 4178SOL    HW114147   8.919   6.884   3.536  0.8308 -1.7285  0.5862
 4178SOL    HW214148   9.031   6.863   3.436 -0.2011  0.6944 -1.1751
 4179SOL     OW14149   0.369   4.969   7.846  0.4211  0.2649 -0.0215
 4179SOL    HW114150   0.341   5.060   7.838 -0.5943  0.1005  1.2282
 4179SOL    HW214151   0.335   4.941   7.931 -2.2035 -2.2577 -1.6827
 4180SOL     OW14152   7.516   6.794   4.935  0.0124  0.1169  0.2365
 4180SOL    HW114153   7.561   6.720   4.895  1.7196  0.5003  1.3226
 4180SOL    HW214154   7.426   6.765   4.944  0.4757 -1.5298 -0.0846
 4181SOL     OW14155   7.975   7.118   4.961 -0.3148  0.0404 -0.1351
 4181SOL    HW114156   8.007   7.028   4.967  1.0149  0.5670  1.8245
 4181SOL    HW214157   8.047   7.171   4.996 -2.6985  1.4827  2.9826
 4182SOL     OW14158   0.790   6.746   7.233  0.5286  0.5749 -0.3212
 4182SOL    HW114159   0.873   6.785   7.259  0.1088  1.3092 -0.0401
 4182SOL    HW214160   0.806   6.710   7.146  1.2232  0.4364 -0.1399
 4183SOL     OW14161   6.486   6.185   3.355  0.1650 -0.0692 -0.1047
 4183SOL    HW114162   6.509   6.095   3.375 -0.1932 -0.2261 -0.3725
 4183SOL    HW214163   6.399   6.179   3.315  0.2214  0.3731 -0.3035
 4184SOL     OW14164   4.432   5.092   8.233 -0.0238  0.0282 -0.1111
 4184SOL    HW114165   4.422   5.017   8.175  0.0876 -0.6868  0.7749
 4184SOL    HW214166   4.352   5.143   8.220  0.1936  0.1218 -1.2111
 4185SOL     OW14167   3.629   9.172   2.027 -0.1630  0.0873 -0.2992
 4185SOL    HW114168   3.554   9.184   1.968 -0.8622  0.5047  0.6549
 4185SOL    HW214169   3.609   9.091   2.075  2.2264 -2.5353 -3.2617
 4186SOL     OW14170   1.701   6.616   9.015 -0.9546 -0.5643 -0.5462
 4186SOL    HW114171   1.654   6.683   9.065 -0.0537  0.6500 -1.2651
 4186SOL    HW214172   1.652   6.535   9.030 -2.8059  0.4889 -0.6272
 4187SOL     OW14173   2.803   9.464   8.319  0.1551 -0.5115 -0.0147
 4187SOL    HW114174   2.810   9.403   8.392  0.2060 -0.1401  0.2947
 4187SOL    HW214175   2.890   9.464   8.279  0.1076 -0.7670 -0.1160
 4188SOL     OW14176   3.388   7.481   5.865 -0.6222 -0.2430 -0.1741
 4188SOL    HW114177   3.473   7.442   5.844 -0.6135 -0.0057 -0.5995
 4188SOL    HW214178   3.362   7.527   5.785 -2.1913 -2.1413 -0.8453
 4189SOL     OW14179   4.307   1.365   7.962 -0.4890  0.3197  0.0640
 4189SOL    HW114180   4.251   1.430   8.004  0.2204  2.1088 -1.6158
 4189SOL    HW214181   4.383   1.415   7.932 -0.6382 -0.9476 -2.7195
 4190SOL     OW14182   3.519   1.474   7.674 -0.3575  0.3972 -0.2648
 4190SOL    HW114183   3.549   1.389   7.704  0.1501  0.2084 -1.2900
 4190SOL    HW214184   3.589   1.534   7.698  0.1577  0.2069 -1.2743
 4191SOL     OW14185   0.772   2.101   8.635 -0.3189  0.2318  0.0513
 4191SOL    HW114186   0.825   2.174   8.668  0.0518  0.4517 -0.9810
 4191SOL    HW214187   0.719   2.140   8.566 -2.9048  0.3262  1.9464
 4192SOL     OW14188   5.555   6.987   8.193  0.1971 -0.6700 -0.1866
 4192SOL    HW114189   5.581   6.897   8.173 -0.2177 -0.7579 -0.3411
 4192SOL    HW214190   5.599   7.006   8.276  0.2436 -1.0375 -0.1222
 4193SOL     OW14191   8.123   8.740   4.237 -0.5379 -0.0073  0.0501
 4193SOL    HW114192   8.143   8.834   4.236 -1.3018  0.1835 -1.8510
 4193SOL    HW214193   8.046   8.732   4.292 -0.4099  0.4605  0.3036
 4194SOL     OW14194   6.676   6.571   2.407 -0.3666 -0.1260 -0.5510
 4194SOL    HW114195   6.690   6.489   2.454  2.2746 -1.2528 -3.0205
 4194SOL    HW214196   6.600   6.555   2.351 -0.5639 -0.4752 -0.1859
 4195SOL     OW14197   0.118   0.682   2.273 -0.0539 -0.2629  0.1818
 4195SOL    HW114198   0.099   0.607   2.328 -1.3443 -0.7799 -0.8936
 4195SOL    HW214199   0.188   0.653   2.215  0.9501  0.1134  1.1706
 4196SOL     OW14200   1.261   7.583   6.158  0.6840 -0.0969  0.4376
 4196SOL    HW114201   1.271   7.619   6.070  1.1956  1.8362  1.2186
 4196SOL    HW214202   1.349   7.589   6.196 -0.0304  1.6803  1.9533
 4197SOL     OW14203   0.215   4.444   1.077 -0.1681 -0.1931  0.3123
 4197SOL    HW114204   0.164   4.379   1.029 -0.6346 -0.6029  1.3313
 4197SOL    HW214205   0.201   4.526   1.029 -0.2997 -0.6585 -0.4646
 4198SOL     OW14206   0.273   0.609   3.427  0.0295  0.6864 -0.3190
 4198SOL    HW114207   0.274   0.600   3.332  1.2943 -3.0526 -0.1119
 4198SOL    HW214208   0.338   0.678   3.445 -0.5363  1.7482 -2.1160
 4199SOL     OW14209   7.669   5.663   6.223  0.3690 -0.1483 -0.3555
 4199SOL    HW114210   7.656   5.722   6.297 -2.7733 -2.0178  0.7695
 4199SOL    HW214211   7.730   5.710   6.165  1.8393  2.0116  2.6558
 4200SOL     OW14212   5.957   3.532   5.122 -0.4873 -0.0942 -0.0913
 4200SOL    HW114213   6.008   3.574   5.191 -3.6583  1.5788  1.4624
 4200SOL    HW214214   5.946   3.600   5.055 -2.5830  0.4615  0.7337
 4201SOL     OW14215   7.692   2.618   5.726 -0.4334 -0.6469  0.1695
 4201SOL    HW114216   7.632   2.550   5.755 -0.1562 -1.1955 -0.5096
 4201SOL    HW214217   7.745   2.575   5.658  1.8031 -0.6780  1.8429
 4202SOL     OW14218   4.635   6.146   7.661  0.3863 -0.3935  0.0055
 4202SOL    HW114219   4.665   6.222   7.710 -0.0594 -0.7262  0.8127
 4202SOL    HW214220   4.540   6.149   7.666  0.3493 -0.6703 -0.4668
 4203SOL     OW14221   9.551   2.842   6.829  0.0412 -0.7277 -0.7748
 4203SOL    HW114222   9.564   2.748   6.838 -0.1308 -0.6159  1.1499
 4203SOL    HW214223   9.549   2.875   6.919  1.0608  1.2628 -1.4040
 4204SOL     OW14224   4.273   9.810   8.237  0.2653  0.3296 -0.4532
 4204SOL    HW114225   4.305   9.729   8.197  0.8112  0.0667  0.4940
 4204SOL    HW214226   4.179   9.797   8.246  0.4694 -0.5922  0.5315
 4205SOL     OW14227   4.854   5.303   8.084 -0.0717  0.0410  0.7183
 4205SOL    HW114228   4.897   5.221   8.061  0.7042  0.1763  1.6207
 4205SOL    HW214229   4.813   5.286   8.169 -0.7233  0.3001  0.4598
 4206SOL     OW14230   7.589   1.601   3.097  0.3048  0.0749 -0.8539
 4206SOL    HW114231   7.538   1.574   3.173  0.9597  1.3095  0.0786
 4206SOL    HW214232   7.625   1.520   3.061  1.6469 -0.4026  1.3961
 4207SOL     OW14233   3.127   6.464   4.876  0.0938 -0.5434 -0.2366
 4207SOL    HW114234   3.039   6.461   4.837  0.5550 -1.7908 -1.2231
 4207SOL    HW214235   3.186   6.441   4.805  1.1083 -1.1388  0.7745
 4208SOL     OW14236   7.982   4.680   8.528  0.0814  0.4857 -0.1503
 4208SOL    HW114237   7.949   4.665   8.440 -0.4296 -1.1306  0.2854
 4208SOL    HW214238   8.076   4.664   8.522  0.0922  0.6746 -0.4696
 4209SOL     OW14239   7.052   1.209   0.177 -0.2338 -1.3901 -0.0100
 4209SOL    HW114240   7.125   1.148   0.165  0.4702 -0.4664 -0.5889
 4209SOL    HW214241   6.979   1.154   0.206  0.6148 -2.3731  0.3287
 4210SOL     OW14242   5.043   3.075   5.934  0.2387  0.8166 -0.6330
 4210SOL    HW114243   4.975   3.016   5.899  0.9661  0.1463 -0.9502
 4210SOL    HW214244   4.995   3.135   5.991 -0.3399 -1.2081  1.1758
 4211SOL     OW14245   9.272   1.953   2.854 -0.0558 -0.3106 -0.3402
 4211SOL    HW114246   9.259   1.888   2.785 -1.0085 -2.9332  2.1079
 4211SOL    HW214247   9.214   2.025   2.830 -1.7298 -1.9202 -1.4097
 4212SOL     OW14248   5.586   8.470   6.755  0.5066 -0.1913 -0.3864
 4212SOL    HW114249   5.508   8.479   6.700  0.0383  1.6059  0.4944
 4212SOL    HW214250   5.652   8.523   6.710 -0.0360  1.7488  0.9595
 4213SOL     OW14251   0.234   9.645   5.371  0.0949  0.1714 -0.2779
 4213SOL    HW114252   0.274   9.689   5.446  1.9589 -1.3515 -0.2887
 4213SOL    HW214253   0.230   9.553   5.396 -0.2064 -0.2148 -1.6509
 4214SOL     OW14254   9.458   4.903   8.809  0.1400  0.5506  0.7512
 4214SOL    HW114255   9.451   4.981   8.754  1.0838  0.5015  0.5489
 4214SOL    HW214256   9.371   4.894   8.849 -1.4981 -0.8652 -2.6652
 4215SOL     OW14257   3.513   7.057   0.288 -0.0652 -0.3099 -0.8683
 4215SOL    HW114258   3.489   7.033   0.198  1.5746  0.0580 -1.4361
 4215SOL    HW214259   3.471   6.989   0.342 -2.2974  0.2800 -1.7373
 4216SOL     OW14260   0.853   7.056   1.599 -0.0758 -0.1199 -0.4042
 4216SOL    HW114261   0.858   7.139   1.550 -0.3155 -0.6261 -1.3084
 4216SOL    HW214262   0.761   7.030   1.592 -0.1100 -0.2088  0.3147
 4217SOL     OW14263   5.062   2.447   3.427 -0.2501 -0.6797  0.2541
 4217SOL    HW114264   4.995   2.408   3.371 -1.1128  0.4769  0.4442
 4217SOL    HW214265   5.017   2.465   3.510  0.0120  1.0102  0.0592
 4218SOL     OW14266   7.445   2.324   2.476 -0.0404 -0.4746 -0.3044
 4218SOL    HW114267   7.466   2.259   2.543 -1.8891 -1.7414 -0.8725
 4218SOL    HW214268   7.438   2.275   2.395  4.2608  1.3379 -2.0191
 4219SOL     OW14269   4.069   7.903   5.340 -0.6870 -0.1003  0.9512
 4219SOL    HW114270   3.979   7.879   5.357 -1.5293  1.1329 -1.2932
 4219SOL    HW214271   4.085   7.980   5.395 -1.4810  0.5172  0.3272
 4220SOL     OW14272   6.879   4.604   1.823  0.0828 -0.0238 -0.2548
 4220SOL    HW114273   6.949   4.574   1.881  1.9939  1.5772 -1.6255
 4220SOL    HW214274   6.899   4.696   1.807 -1.7257  0.1886 -1.5891
 4221SOL     OW14275   4.642   6.787   2.278 -0.4080  0.3135 -0.3766
 4221SOL    HW114276   4.632   6.857   2.342 -1.2998 -1.9093  2.1006
 4221SOL    HW214277   4.553   6.755   2.263  0.0467 -0.7822 -0.8649
 4222SOL     OW14278   8.545   7.736   4.000  0.0808  0.1319 -0.3959
 4222SOL    HW114279   8.502   7.714   3.918 -1.8194  1.3013  0.2249
 4222SOL    HW214280   8.531   7.659   4.055 -1.2104  0.4561 -0.2346
 4223SOL     OW14281   6.878   2.864   0.150  0.2775  0.8704  0.3879
 4223SOL    HW114282   6.882   2.933   0.084 -0.9603  1.8254  1.2613
 4223SOL    HW214283   6.851   2.909   0.230 -0.9380 -0.6788  0.9024
 4224SOL     OW14284   8.991   2.503   7.426  0.3578 -0.3593  0.0044
 4224SOL    HW114285   8.925   2.530   7.362  0.3829 -0.1242  0.0760
 4224SOL    HW214286   8.941   2.471   7.501  0.3151 -2.0389 -0.6995
 4225SOL     OW14287   7.225   2.577   2.072 -0.1323  0.2010  0.5291
 4225SOL    HW114288   7.228   2.672   2.070  0.7451  0.2040 -1.8992
 4225SOL    HW214289   7.253   2.553   2.160  2.1376  2.1619  0.4482
 4226SOL     OW14290   6.561   0.702   6.416  0.4792  0.2191  0.3289
 4226SOL    HW114291   6.656   0.701   6.409  0.6066 -0.1434  1.7814
 4226SOL    HW214292   6.542   0.647   6.492 -0.8499  0.8448  0.4812
 4227SOL     OW14293   1.188   7.845   8.064 -0.2159 -0.1887 -0.2232
 4227SOL    HW114294   1.248   7.796   8.120  0.8272 -0.0084 -1.1564
 4227SOL    HW214295   1.191   7.935   8.098  1.2690  0.1686 -1.2043
 4228SOL     OW14296   2.900   7.815   2.917 -0.0574  0.3601  0.0723
 4228SOL    HW114297   2.970   7.881   2.919 -0.3999  0.7516 -0.4320
 4228SOL    HW214298   2.886   7.791   3.008  0.8366  0.1685  0.1687
 4229SOL     OW14299   9.446   8.509   7.110  0.0679  0.2244 -0.2049
 4229SOL    HW114300   9.520   8.553   7.153 -0.0295 -0.9434  1.2312
 4229SOL    HW214301   9.487   8.438   7.060 -0.0655 -0.3536  0.4999
 4230SOL     OW14302   7.655   0.483   2.859  0.6306  0.3743 -0.0989
 4230SOL    HW114303   7.569   0.449   2.834  0.0626  1.8517 -0.2344
 4230SOL    HW214304   7.664   0.564   2.809  1.6964  0.7249  0.6297
 4231SOL     OW14305   0.721   0.984   2.201 -0.1283  0.2511 -0.4169
 4231SOL    HW114306   0.743   0.909   2.146  1.7928  1.1789 -0.9841
 4231SOL    HW214307   0.790   0.987   2.267 -0.2593  1.4343 -0.3155
 4232SOL     OW14308   2.001   2.604   6.373 -0.5656  0.4497 -0.3621
 4232SOL    HW114309   1.922   2.659   6.378 -0.5604  0.4723 -0.5153
 4232SOL    HW214310   1.967   2.516   6.355 -0.4604  0.8214 -2.6425
 4233SOL     OW14311   1.191   0.726   0.317 -0.2123  0.1643  0.1208
 4233SOL    HW114312   1.195   0.685   0.230  1.1215 -0.1859  0.3337
 4233SOL    HW214313   1.204   0.819   0.299 -0.0263  0.1050 -0.0598
 4234SOL     OW14314   9.613   8.287   1.397  0.0174 -0.3564 -0.2246
 4234SOL    HW114315   9.543   8.334   1.352  0.0204 -1.1329 -1.0769
 4234SOL    HW214316   9.669   8.355   1.434  0.5747  0.3590 -2.2598
 4235SOL     OW14317   9.756   5.272   0.869 -0.1995  0.1092 -0.0025
 4235SOL    HW114318   9.823   5.219   0.825 -0.7217 -0.2352 -0.3902
 4235SOL    HW214319   9.784   5.274   0.960  1.4274  1.6247 -0.4633
 4236SOL     OW14320   1.738   9.072   6.540 -0.3105  0.1544  0.5333
 4236SOL    HW114321   1.668   9.111   6.488 -1.7552 -4.4869 -1.5925
 4236SOL    HW214322   1.810   9.060   6.478 -0.8025 -2.4161  0.3531
 4237SOL     OW14323   5.423   3.115   1.155 -0.2290  0.4624 -0.8115
 4237SOL    HW114324   5.450   3.025   1.138  0.2985  0.9269 -2.7288
 4237SOL    HW214325   5.489   3.149   1.215 -2.2468 -1.3150  2.7874
 4238SOL     OW14326   8.885   4.566   1.622 -0.6798 -0.2281  0.0277
 4238SOL    HW114327   8.815   4.615   1.579  2.2203  2.7772 -1.8142
 4238SOL    HW214328   8.936   4.528   1.550 -0.1097 -1.9297  1.2573
 4239SOL     OW14329   5.875   6.478   8.654  0.0458 -0.2878  0.1672
 4239SOL    HW114330   5.899   6.516   8.739  2.3817 -0.9413 -0.1321
 4239SOL    HW214331   5.943   6.414   8.636 -1.2188 -1.2428 -1.5480
 4240SOL     OW14332   3.492   5.307   7.775  0.0086 -0.4798  0.1076
 4240SOL    HW114333   3.553   5.289   7.704 -1.2805  1.3027 -1.5693
 4240SOL    HW214334   3.544   5.299   7.854  2.5520  1.3206 -1.2402
 4241SOL     OW14335   7.055   9.449   3.632  0.3748 -0.0435  0.0439
 4241SOL    HW114336   7.050   9.377   3.569 -1.6019 -1.3519  1.5707
 4241SOL    HW214337   6.971   9.494   3.623  1.2289  1.5357 -0.2430
 4242SOL     OW14338   7.391   1.984   8.665 -0.1430  0.4868 -0.0909
 4242SOL    HW114339   7.452   1.976   8.738 -0.6738 -1.0621  0.2200
 4242SOL    HW214340   7.447   1.981   8.587  0.3665  1.5118  0.2141
 4243SOL     OW14341   1.484   4.741   1.924 -0.4902  0.2266  0.1458
 4243SOL    HW114342   1.409   4.758   1.981 -0.2284 -1.6478  1.1156
 4243SOL    HW214343   1.538   4.821   1.931 -0.9771  0.4572  1.7154
 4244SOL     OW14344   7.279   3.094   9.753 -0.1171  0.8493 -0.4589
 4244SOL    HW114345   7.185   3.111   9.759  0.1720  2.4221 -0.1791
 4244SOL    HW214346   7.305   3.069   9.842 -0.3169  0.0299 -0.6161
 4245SOL     OW14347   9.836   8.620   4.963  0.6075  0.1138  0.5268
 4245SOL    HW114348   9.789   8.701   4.984  0.4664 -0.0605  0.8877
 4245SOL    HW214349   9.797   8.591   4.881  0.8427  0.5530  0.2581
 4246SOL     OW14350   7.123   8.332   6.604  0.4647  0.2645 -0.6273
 4246SOL    HW114351   7.098   8.259   6.661 -0.2812 -0.2812 -1.6263
 4246SOL    HW214352   7.134   8.292   6.518  0.5604  1.2472 -1.0840
 4247SOL     OW14353   5.588   7.628   3.088  0.1547  0.2684 -0.2115
 4247SOL    HW114354   5.535   7.553   3.062  1.1305 -0.1099 -1.1820
 4247SOL    HW214355   5.668   7.620   3.038  1.3494  0.5821  1.5449
 4248SOL     OW14356   8.373   6.181   1.345 -0.0187  0.0212 -0.2542
 4248SOL    HW114357   8.460   6.144   1.329  1.1544  2.0760  0.9676
 4248SOL    HW214358   8.358   6.241   1.271  0.5018  1.1261  0.5076
 4249SOL     OW14359   8.302   6.504   2.335 -0.6566  0.0230 -0.3165
 4249SOL    HW114360   8.397   6.508   2.328 -0.6725  0.7552 -0.2381
 4249SOL    HW214361   8.281   6.563   2.407 -1.0595 -1.3347  0.7279
 4250SOL     OW14362   9.423   5.896   4.469 -0.2649  0.4892  0.3699
 4250SOL    HW114363   9.455   5.900   4.379  1.2854  0.7948  0.8976
 4250SOL    HW214364   9.355   5.829   4.468  0.0344  0.1779 -0.9326
 4251SOL     OW14365   3.807   9.452   8.771  0.3905  0.1778  0.2480
 4251SOL    HW114366   3.885   9.408   8.804  1.2209  0.5098 -1.1721
 4251SOL    HW214367   3.735   9.391   8.789  1.2751 -1.0326 -0.2084
 4252SOL     OW14368   2.055   7.252   1.384  0.0203  0.2025  0.3345
 4252SOL    HW114369   2.149   7.270   1.382  0.0447 -0.0069 -0.6268
 4252SOL    HW214370   2.024   7.276   1.297 -0.7520 -0.0827  0.5265
 4253SOL     OW14371   7.632   3.241   4.307  0.2400 -0.5761  0.1404
 4253SOL    HW114372   7.567   3.197   4.252 -0.6063 -1.2447  1.6377
 4253SOL    HW214373   7.623   3.334   4.286 -0.9498 -0.6988  0.0631
 4254SOL     OW14374   9.649   1.565   7.436  0.0979 -0.1008 -0.4162
 4254SOL    HW114375   9.634   1.487   7.382  0.3839 -0.3053 -0.2063
 4254SOL    HW214376   9.573   1.621   7.420  0.3632  0.0210 -1.3382
 4255SOL     OW14377   3.196   6.626   3.212 -0.2293  0.1127  0.4106
 4255SOL    HW114378   3.280   6.605   3.253  0.0850  2.8270  1.3836
 4255SOL    HW214379   3.195   6.722   3.207 -0.7856  0.1770 -4.8684
 4256SOL     OW14380   0.773   6.542   3.111  0.2396  0.1078  0.5190
 4256SOL    HW114381   0.749   6.630   3.084 -0.9760 -0.2886  0.2495
 4256SOL    HW214382   0.751   6.539   3.205 -0.3070 -0.0889  0.3903
 4257SOL     OW14383   6.977   6.527   3.718 -0.5314 -0.0664  0.3173
 4257SOL    HW114384   6.883   6.544   3.707 -0.5535  0.2183  0.9297
 4257SOL    HW214385   6.984   6.476   3.798 -0.1358  0.1915  0.4517
 4258SOL     OW14386   9.500   4.745   3.034  0.4821 -0.1562  0.2403
 4258SOL    HW114387   9.441   4.683   3.075  1.8812 -1.5455  0.2605
 4258SOL    HW214388   9.472   4.830   3.066  0.1861 -1.0041  2.3870
 4259SOL     OW14389   8.907   9.727   7.444 -0.1402 -0.1127  0.3843
 4259SOL    HW114390   8.921   9.822   7.451 -0.9118 -0.0761  1.7348
 4259SOL    HW214391   8.851   9.705   7.519 -0.7569 -1.4884 -0.4358
 4260SOL     OW14392   6.724   8.833   0.346  0.3068 -0.1414  0.5160
 4260SOL    HW114393   6.704   8.744   0.318 -1.8810  0.4160  0.1382
 4260SOL    HW214394   6.645   8.883   0.326  1.2973  1.7905  1.1769
 4261SOL     OW14395   4.772   1.939   3.598 -0.0375  0.1984  0.3162
 4261SOL    HW114396   4.684   1.901   3.599 -0.2688  0.7140 -0.0349
 4261SOL    HW214397   4.767   2.011   3.661 -0.0124  0.5393 -0.0677
 4262SOL     OW14398   7.747   4.447   1.274 -0.3243 -0.1228 -0.3737
 4262SOL    HW114399   7.753   4.481   1.186  0.0220  0.2110 -0.2207
 4262SOL    HW214400   7.674   4.385   1.271 -0.2935 -0.1323 -0.8960
 4263SOL     OW14401   9.299   6.741   8.293 -0.2688  0.4853 -0.0267
 4263SOL    HW114402   9.303   6.778   8.205  0.1180 -0.0220 -0.2275
 4263SOL    HW214403   9.390   6.731   8.319 -0.2674 -1.9202 -0.6764
 4264SOL     OW14404   4.165   3.844   0.850  0.1996 -0.0390 -0.1033
 4264SOL    HW114405   4.251   3.822   0.813  0.1575 -0.0300 -0.2069
 4264SOL    HW214406   4.183   3.910   0.917  0.1091  1.0766 -1.1579
 4265SOL     OW14407   2.671   8.386   9.563  0.1219  0.0689  0.0051
 4265SOL    HW114408   2.743   8.394   9.500  0.7074  1.3353  0.8064
 4265SOL    HW214409   2.701   8.320   9.625 -0.3749 -1.0403 -0.8908
 4266SOL     OW14410   8.283   7.650   4.265 -0.5609 -0.0704  0.3256
 4266SOL    HW114411   8.276   7.685   4.176 -0.4952  0.5105  0.5495
 4266SOL    HW214412   8.214   7.693   4.314 -0.1511  0.1381  0.7283
 4267SOL     OW14413   6.842   2.691   6.030 -0.0467 -0.1695  0.4268
 4267SOL    HW114414   6.912   2.626   6.021  0.5138  0.5316 -0.4237
 4267SOL    HW214415   6.781   2.651   6.092 -0.0968 -1.8377 -0.6307
 4268SOL     OW14416   5.443   7.000   9.354 -0.2701  0.3300 -0.4506
 4268SOL    HW114417   5.511   7.009   9.421 -1.1890  0.6561  0.4777
 4268SOL    HW214418   5.364   6.979   9.404 -0.5155 -1.8708 -1.6284
 4269SOL     OW14419   4.590   1.334   4.533  0.2441  0.3139 -0.2351
 4269SOL    HW114420   4.592   1.429   4.531 -1.7030  0.4000 -1.6824
 4269SOL    HW214421   4.662   1.307   4.477  0.1773  0.9808 -0.6556
 4270SOL     OW14422   1.548   8.907   6.660  0.1314 -0.4677  0.1464
 4270SOL    HW114423   1.578   8.926   6.749 -2.3962  0.8047  0.8193
 4270SOL    HW214424   1.607   8.957   6.604  2.3742 -2.0436  0.9686
 4271SOL     OW14425   3.862   3.022   8.684 -0.0950 -0.0897 -0.1686
 4271SOL    HW114426   3.949   2.981   8.685  0.3246  0.7547 -0.2822
 4271SOL    HW214427   3.807   2.961   8.636 -0.1750 -1.7940  1.9105
 4272SOL     OW14428   2.784   3.244   8.888 -0.3916 -0.1647 -0.9414
 4272SOL    HW114429   2.799   3.172   8.827 -0.1261  1.7871 -3.3010
 4272SOL    HW214430   2.690   3.260   8.885 -0.4671 -0.4426 -0.3299
 4273SOL     OW14431   1.815   0.691   0.779  0.5440  0.0929 -0.2257
 4273SOL    HW114432   1.787   0.661   0.693  1.1814 -0.8891 -0.0982
 4273SOL    HW214433   1.825   0.611   0.831  2.0249  0.5221  0.1972
 4274SOL     OW14434   9.033   6.001   6.128 -0.2796 -0.3979 -0.1676
 4274SOL    HW114435   9.087   5.922   6.129 -1.8824 -1.5444  0.2595
 4274SOL    HW214436   8.947   5.971   6.098 -0.7734  1.3058 -0.5516
 4275SOL     OW14437   2.474   1.485   3.327 -0.2894  0.5250  0.4685
 4275SOL    HW114438   2.522   1.526   3.399  0.8542  1.2515 -0.6754
 4275SOL    HW214439   2.477   1.549   3.256 -2.2096  0.2146  0.0595
 4276SOL     OW14440   6.475   4.757   7.764 -0.0412  0.1496 -0.0454
 4276SOL    HW114441   6.464   4.664   7.742 -0.0743  0.3895 -1.1167
 4276SOL    HW214442   6.458   4.803   7.681 -0.7662  1.1609  0.6441
 4277SOL     OW14443   9.767   9.820   6.678  0.1858  0.4061 -1.2226
 4277SOL    HW114444   9.674   9.840   6.670  0.1689  0.2632 -1.4047
 4277SOL    HW214445   9.812   9.892   6.634  0.2178  1.0926 -0.0966
 4278SOL     OW14446   7.001   8.776   8.759 -0.0510 -0.3217  0.1012
 4278SOL    HW114447   6.992   8.681   8.771  0.1814 -0.4680 -0.8208
 4278SOL    HW214448   6.912   8.809   8.764 -0.2052 -0.6772 -0.2330
 4279SOL     OW14449   7.644   9.246   6.181 -0.6267  0.0918  0.3412
 4279SOL    HW114450   7.733   9.280   6.190 -0.0588 -1.3505  0.5137
 4279SOL    HW214451   7.656   9.153   6.164 -2.1317 -0.5573  2.3794
 4280SOL     OW14452   6.523   8.321   0.169 -0.8957 -0.0043  0.3269
 4280SOL    HW114453   6.606   8.363   0.146 -0.4549 -0.6760  0.6633
 4280SOL    HW214454   6.548   8.244   0.220 -1.7475  0.0878  0.9139
 4281SOL     OW14455   9.150   0.933   4.069 -0.1078  0.1261 -0.2420
 4281SOL    HW114456   9.093   0.985   4.013 -0.1989  0.6522  0.3234
 4281SOL    HW214457   9.122   0.955   4.158  0.6830  0.0549  0.0310
 4282SOL     OW14458   1.029   1.132   8.822  0.2086 -0.8601 -0.1617
 4282SOL    HW114459   1.110   1.128   8.772  0.0584 -1.7018 -0.3479
 4282SOL    HW214460   1.057   1.150   8.912  0.4686  0.8579 -0.5473
 4283SOL     OW14461   0.617   8.876   0.443  0.1672 -0.1013 -0.1775
 4283SOL    HW114462   0.650   8.865   0.354  0.3897 -0.1685 -0.0862
 4283SOL    HW214463   0.524   8.852   0.437  0.1006  0.2196 -0.4601
 4284SOL     OW14464   1.615   3.101   2.915  0.1558 -0.2258 -0.3703
 4284SOL    HW114465   1.590   3.034   2.978 -1.3302 -0.3734 -1.0839
 4284SOL    HW214466   1.711   3.099   2.915  0.1974 -0.4885  1.5707
 4285SOL     OW14467   2.589   2.137   5.575 -0.3841  0.0995  0.3306
 4285SOL    HW114468   2.544   2.090   5.645  0.0689  2.1548  2.1153
 4285SOL    HW214469   2.653   2.192   5.620  0.7586  0.6428 -1.8083
 4286SOL     OW14470   8.111   5.576   8.808 -0.0165 -0.4435  0.0103
 4286SOL    HW114471   8.058   5.653   8.830 -0.7695 -1.3149  1.3773
 4286SOL    HW214472   8.172   5.567   8.882  0.8083 -0.5359 -0.6665
 4287SOL     OW14473   4.998   2.382   8.360  0.1425 -0.0754  0.2055
 4287SOL    HW114474   4.980   2.476   8.369  0.0774 -0.0171 -0.4928
 4287SOL    HW214475   4.916   2.346   8.327 -0.1195 -0.5249  1.2828
 4288SOL     OW14476   4.176   8.793   2.608  0.3322  0.4999 -0.7513
 4288SOL    HW114477   4.083   8.773   2.596  0.8233 -1.5414 -1.6013
 4288SOL    HW214478   4.188   8.797   2.703 -0.8443  2.1023 -0.6413
 4289SOL     OW14479   8.386   7.132   2.300  0.0760  0.0616 -0.0971
 4289SOL    HW114480   8.394   7.195   2.371  0.6899 -0.6095  0.4345
 4289SOL    HW214481   8.327   7.175   2.237  1.4949  1.7171 -0.3688
 4290SOL     OW14482   9.370   1.863   3.661 -0.0937  0.7888 -0.5152
 4290SOL    HW114483   9.304   1.861   3.591 -0.0006  4.0908 -0.8606
 4290SOL    HW214484   9.453   1.869   3.614 -0.0642  3.6380 -0.2624
 4291SOL     OW14485   6.419   3.820   1.345  0.2201  0.3534 -0.2248
 4291SOL    HW114486   6.471   3.786   1.273 -0.7400  1.2216 -1.3549
 4291SOL    HW214487   6.396   3.909   1.318 -0.0294  0.7527  1.2212
 4292SOL     OW14488   5.593   3.049   7.274 -0.0623  0.9360  0.3097
 4292SOL    HW114489   5.537   3.109   7.324 -1.0104 -1.2743  2.0794
 4292SOL    HW214490   5.542   3.027   7.197 -0.5644  0.8358  0.6695
 4293SOL     OW14491   0.704   0.372   9.636 -0.2752 -0.2510 -0.2502
 4293SOL    HW114492   0.799   0.360   9.631 -0.1247  0.7478 -0.0084
 4293SOL    HW214493   0.690   0.412   9.722 -0.7640  0.9758 -0.8879
 4294SOL     OW14494   5.136   7.235   6.413 -0.1425  0.2496  0.1744
 4294SOL    HW114495   5.216   7.194   6.447 -0.5020 -0.4564  0.1934
 4294SOL    HW214496   5.123   7.312   6.467  0.1470 -0.0137  0.6221
 4295SOL     OW14497   2.683   1.888   8.427 -0.1414  0.1660 -0.7803
 4295SOL    HW114498   2.632   1.819   8.468 -1.0128  2.4037  2.2810
 4295SOL    HW214499   2.618   1.947   8.390  0.2524  1.6563  0.7656
 4296SOL     OW14500   0.698   6.124   2.563  0.1478 -0.4962  0.4135
 4296SOL    HW114501   0.794   6.132   2.561  0.2045 -0.6792  1.6363
 4296SOL    HW214502   0.667   6.188   2.499  1.0253  0.8345  1.2760
 4297SOL     OW14503   3.028   1.467   3.749  0.6826 -0.2453 -0.3760
 4297SOL    HW114504   2.957   1.461   3.684  1.8661 -1.4074 -1.6287
 4297SOL    HW214505   2.984   1.492   3.830 -0.7514  2.1878 -1.7867
 4298SOL     OW14506   7.538   3.549   5.515  0.6233 -0.0201 -0.6345
 4298SOL    HW114507   7.544   3.644   5.503  1.6268 -0.1318 -1.1154
 4298SOL    HW214508   7.531   3.515   5.425  0.4073 -0.4120 -0.4704
 4299SOL     OW14509   5.113   7.026   0.277  0.1229  0.3038 -0.5204
 4299SOL    HW114510   5.069   7.083   0.341  0.0695 -1.0996  0.7399
 4299SOL    HW214511   5.072   6.940   0.289  2.2482 -0.7245 -0.2661
 4300SOL     OW14512   5.311   7.897   1.573  0.0658  0.0381  0.0413
 4300SOL    HW114513   5.402   7.869   1.573  0.0396 -0.0511  0.2976
 4300SOL    HW214514   5.261   7.819   1.551  0.0576  0.1162 -0.2234
 4301SOL     OW14515   8.914   8.662   1.675  0.6330  0.0725 -0.6758
 4301SOL    HW114516   8.906   8.724   1.602  0.6888 -0.0013 -0.7442
 4301SOL    HW214517   8.834   8.610   1.672  0.2581  0.5998 -0.1948
 4302SOL     OW14518   6.883   4.324   4.700 -0.1677 -0.1964  0.1133
 4302SOL    HW114519   6.895   4.349   4.792 -0.8629 -1.2532  0.5121
 4302SOL    HW214520   6.872   4.407   4.653 -3.5801  0.3221  1.5202
 4303SOL     OW14521   7.846   1.042   2.737 -0.6207  0.6347  0.2274
 4303SOL    HW114522   7.893   1.115   2.777  1.3463 -0.2379 -0.3386
 4303SOL    HW214523   7.872   0.966   2.789 -1.2607  0.0947 -0.2272
 4304SOL     OW14524   9.731   3.614   7.943 -1.0280 -0.0600 -0.1932
 4304SOL    HW114525   9.735   3.708   7.956 -1.6707 -0.0525 -0.0107
 4304SOL    HW214526   9.818   3.590   7.911 -0.3139  0.3526  1.3206
 4305SOL     OW14527   1.778   0.227   4.905 -0.0270 -0.3447 -0.1511
 4305SOL    HW114528   1.742   0.166   4.841 -0.7263  0.4273 -0.5173
 4305SOL    HW214529   1.856   0.183   4.939 -0.3205 -1.2838 -0.6497
 4306SOL     OW14530   9.531   5.960   2.281  0.2861  0.6288  0.1107
 4306SOL    HW114531   9.554   5.882   2.332 -4.1995 -2.0297 -1.3028
 4306SOL    HW214532   9.600   5.968   2.216  0.5814 -2.6841 -0.1310
 4307SOL     OW14533   5.554   9.175   5.373  0.6419 -0.2299  0.0241
 4307SOL    HW114534   5.548   9.173   5.469  0.5680  1.0121  0.0559
 4307SOL    HW214535   5.601   9.256   5.354  0.4448 -0.3515 -1.0067
 4308SOL     OW14536   2.612   3.888   6.901  0.1986  0.3524  0.5627
 4308SOL    HW114537   2.537   3.887   6.960 -1.1401  1.5907 -1.0143
 4308SOL    HW214538   2.574   3.876   6.814  1.9403  0.1178 -0.2127
 4309SOL     OW14539   6.687   4.294   0.426 -0.0222  0.0156  0.1113
 4309SOL    HW114540   6.726   4.350   0.494  0.0590  1.1419 -0.8299
 4309SOL    HW214541   6.602   4.269   0.462 -0.8851  2.2973 -0.1610
 4310SOL     OW14542   2.712   8.495   2.530 -0.2985 -0.6066 -0.2637
 4310SOL    HW114543   2.766   8.460   2.459 -0.6041 -1.8149  0.0802
 4310SOL    HW214544   2.761   8.571   2.562  1.7821 -2.2729  0.7473
 4311SOL     OW14545   6.853   7.402   1.764  0.3148 -0.0672 -0.3542
 4311SOL    HW114546   6.862   7.469   1.696  4.1475 -1.6497 -1.6971
 4311SOL    HW214547   6.804   7.332   1.722  1.2876 -0.3805 -1.0107
 4312SOL     OW14548   5.259   4.416   5.314 -0.1471 -0.1859  0.5324
 4312SOL    HW114549   5.263   4.460   5.229 -0.3876 -0.5196  0.3436
 4312SOL    HW214550   5.309   4.335   5.301 -0.5240 -0.4334  0.5830
 4313SOL     OW14551   2.124   0.984   6.728 -0.2509 -0.1278 -0.5042
 4313SOL    HW114552   2.073   1.025   6.658  1.3219  1.2928 -0.8886
 4313SOL    HW214553   2.117   1.044   6.801 -2.2162 -1.8011  0.7847
 4314SOL     OW14554   6.410   4.838   9.037 -0.6005  0.3133 -0.2644
 4314SOL    HW114555   6.419   4.806   9.126 -1.5840  0.9169  0.0665
 4314SOL    HW214556   6.500   4.853   9.007 -0.2251 -0.8431  0.2551
 4315SOL     OW14557   0.597   4.835   5.870  0.1414  0.1078 -0.1247
 4315SOL    HW114558   0.644   4.838   5.954  0.1111 -0.0063 -0.1024
 4315SOL    HW214559   0.600   4.742   5.845  0.6900  0.2351 -0.5553
 4316SOL     OW14560   8.283   6.534   9.414  0.1016  0.3604  0.2153
 4316SOL    HW114561   8.358   6.487   9.378 -0.6038 -1.2589  0.7798
 4316SOL    HW214562   8.304   6.545   9.507 -0.7023 -0.8833  0.5701
 4317SOL     OW14563   5.243   7.422   1.708  0.4794  0.1802 -0.0853
 4317SOL    HW114564   5.147   7.427   1.712  0.5044 -0.3451  2.2044
 4317SOL    HW214565   5.261   7.333   1.680  0.3023  0.0595  0.1856
 4318SOL     OW14566   0.956   4.873   7.827 -0.4181 -0.2591  0.5685
 4318SOL    HW114567   1.024   4.901   7.889  0.7492 -0.2857 -0.6693
 4318SOL    HW214568   0.940   4.949   7.772 -0.4943 -0.6472  0.0498
 4319SOL     OW14569   4.823   7.330   3.773 -0.1540 -0.4197  0.3612
 4319SOL    HW114570   4.886   7.286   3.715 -0.7013 -1.2593  0.3924
 4319SOL    HW214571   4.755   7.362   3.713 -0.6144 -1.1066  0.5060
 4320SOL     OW14572   4.831   5.976   9.700 -0.3150  0.0075  0.8647
 4320SOL    HW114573   4.896   5.912   9.673 -0.0115  0.4261  0.5960
 4320SOL    HW214574   4.797   5.942   9.783  0.0488 -0.3474  0.8707
 4321SOL     OW14575   8.071   9.159   1.839 -0.2186 -0.0635  0.2609
 4321SOL    HW114576   8.049   9.078   1.885 -1.2960 -0.4444 -0.8698
 4321SOL    HW214577   8.007   9.223   1.871 -0.2386 -0.0260  0.1463
 4322SOL     OW14578   4.162   2.810   2.520 -0.4153  0.1945 -0.0709
 4322SOL    HW114579   4.234   2.868   2.543 -0.9116  0.4759  0.8112
 4322SOL    HW214580   4.188   2.725   2.557  0.2695 -0.1612 -1.2852
 4323SOL     OW14581   0.301   1.659   9.750 -0.4125 -0.6422 -0.5602
 4323SOL    HW114582   0.343   1.577   9.724 -0.7070 -0.3143 -2.1903
 4323SOL    HW214583   0.269   1.696   9.667 -0.8169  0.8157  0.2276
 4324SOL     OW14584   2.188   6.065   3.378  0.1215  0.3468  0.3037
 4324SOL    HW114585   2.182   6.087   3.472  0.5296  0.1318  0.3795
 4324SOL    HW214586   2.147   5.979   3.372  0.2544  0.2826  0.3137
 4325SOL     OW14587   8.454   6.969   7.602 -0.4054  0.5778 -0.3228
 4325SOL    HW114588   8.455   7.014   7.517 -0.1587 -1.6434 -1.5847
 4325SOL    HW214589   8.526   6.906   7.596 -2.4994 -2.0407  0.1042
 4326SOL     OW14590   3.870   6.686   3.401 -0.0542 -0.4401 -0.0797
 4326SOL    HW114591   3.948   6.644   3.436 -0.5028 -0.9463  0.3320
 4326SOL    HW214592   3.825   6.721   3.478 -0.1119  0.0612 -0.3374
 4327SOL     OW14593   8.893   6.175   0.154 -0.0405  0.3754 -0.3410
 4327SOL    HW114594   8.953   6.101   0.149 -0.4858  0.0508 -0.9726
 4327SOL    HW214595   8.874   6.183   0.248  1.4578  0.8807 -0.0488
 4328SOL     OW14596   3.403   2.912   3.492  0.3630 -0.1819  0.3385
 4328SOL    HW114597   3.309   2.916   3.507 -0.0461 -3.2196 -0.6807
 4328SOL    HW214598   3.412   2.872   3.405  2.5605 -0.8097  0.7864
 4329SOL     OW14599   8.175   8.407   1.496  0.1541  0.7093  0.5034
 4329SOL    HW114600   8.199   8.315   1.486  0.6544  0.9258 -0.3515
 4329SOL    HW214601   8.100   8.406   1.555 -1.2231 -0.4564 -1.1718
 4330SOL     OW14602   7.393   5.864   0.114 -0.4702  0.1378 -0.0093
 4330SOL    HW114603   7.368   5.774   0.094 -0.2990  0.0467  0.1838
 4330SOL    HW214604   7.473   5.878   0.062 -0.2499  0.0337  0.3021
 4331SOL     OW14605   1.553   1.270   8.616  0.9281 -0.3510 -0.2277
 4331SOL    HW114606   1.481   1.283   8.554  0.2457  2.3312  0.9713
 4331SOL    HW214607   1.546   1.344   8.676  2.6166 -1.9016  2.0257
 4332SOL     OW14608   6.985   2.758   5.583 -0.0505  0.1968  0.0907
 4332SOL    HW114609   6.918   2.778   5.518  0.7808 -0.7445 -1.1229
 4332SOL    HW214610   6.973   2.665   5.603  0.9367 -0.0273 -0.2520
 4333SOL     OW14611   9.190   9.615   4.673 -0.5986  0.3094 -0.5919
 4333SOL    HW114612   9.271   9.588   4.715 -0.9737 -0.3179 -0.2566
 4333SOL    HW214613   9.216   9.640   4.584  0.0202  0.5284 -0.3505
 4334SOL     OW14614   7.878   5.283   4.908  0.2295 -0.2357 -0.2325
 4334SOL    HW114615   7.868   5.224   4.983 -0.3715 -1.0903 -0.9560
 4334SOL    HW214616   7.837   5.236   4.835  1.2096  0.3616 -1.2049
 4335SOL     OW14617   8.680   1.059   6.837 -0.0765 -0.3647 -0.2192
 4335SOL    HW114618   8.643   1.132   6.788  0.2811  0.2932  0.4806
 4335SOL    HW214619   8.773   1.078   6.843 -0.5158  1.3772  3.6130
 4336SOL     OW14620   5.383   7.730   9.710 -0.0169  0.3575 -0.1256
 4336SOL    HW114621   5.324   7.767   9.643  0.6155  1.3179 -0.1613
 4336SOL    HW214622   5.368   7.635   9.704 -2.5424  0.6317  0.7708
 4337SOL     OW14623   1.489   2.692   8.888 -0.4325  0.2017 -0.3506
 4337SOL    HW114624   1.459   2.609   8.852 -0.0119 -0.2434  0.2952
 4337SOL    HW214625   1.576   2.705   8.849 -0.7686  0.6833 -0.9674
 4338SOL     OW14626   8.254   3.437   2.672  0.1914 -0.6216  0.2832
 4338SOL    HW114627   8.249   3.511   2.611 -0.3111 -1.1977 -0.3802
 4338SOL    HW214628   8.336   3.452   2.720  0.4424  0.0070 -0.3149
 4339SOL     OW14629   4.136   7.889   3.528 -0.5583  0.3093  0.6110
 4339SOL    HW114630   4.066   7.839   3.569 -1.0611  0.2431 -0.2980
 4339SOL    HW214631   4.188   7.824   3.481  0.5842  0.2552  1.9037
 4340SOL     OW14632   4.468   7.069   8.363 -0.5793  0.2855  0.9094
 4340SOL    HW114633   4.498   7.076   8.272 -0.5608 -0.2863  0.8667
 4340SOL    HW214634   4.373   7.079   8.358 -0.5229  0.8232  0.8946
 4341SOL     OW14635   9.751   4.122   1.624 -0.1156  0.1873  0.1391
 4341SOL    HW114636   9.830   4.129   1.678  0.0413  0.1837 -0.0872
 4341SOL    HW214637   9.774   4.167   1.543 -0.7847  1.3234  0.5578
 4342SOL     OW14638   3.938   6.219   6.922  0.0042 -0.3974  0.1170
 4342SOL    HW114639   3.905   6.291   6.868 -0.7017 -0.9075 -0.1509
 4342SOL    HW214640   3.970   6.155   6.858  0.5111 -0.3857  0.3518
 4343SOL     OW14641   4.578   8.997   8.120 -0.3026  0.4498  0.8639
 4343SOL    HW114642   4.499   8.955   8.153 -0.1731 -0.3157  0.2316
 4343SOL    HW214643   4.562   9.007   8.026 -0.0536  1.2015  0.8966
 4344SOL     OW14644   7.093   1.945   1.263  0.0173 -0.2005 -0.7182
 4344SOL    HW114645   7.155   1.996   1.210  0.1933  0.2813 -0.0631
 4344SOL    HW214646   7.147   1.876   1.302 -0.1289 -0.6058 -1.2350
 4345SOL     OW14647   2.012   1.394   1.685  0.4800 -0.7863  0.2901
 4345SOL    HW114648   2.095   1.440   1.698 -0.0826  0.9277 -1.6979
 4345SOL    HW214649   1.986   1.366   1.772  1.5302  1.5354  1.4215
 4346SOL     OW14650   2.885   4.455   3.888 -0.4150 -0.1367 -0.6951
 4346SOL    HW114651   2.796   4.447   3.923  0.0451  1.4147  1.0171
 4346SOL    HW214652   2.872   4.488   3.799 -1.5853  1.1558 -0.1000
 4347SOL     OW14653   3.027   2.237   9.446 -0.3520 -0.0159  0.5073
 4347SOL    HW114654   3.046   2.312   9.388 -2.6589  0.6098  0.4821
 4347SOL    HW214655   3.037   2.161   9.389  0.0711  0.3986  0.0070
 4348SOL     OW14656   9.401   8.174   3.929 -0.0457  0.1762 -0.2440
 4348SOL    HW114657   9.367   8.108   3.990  0.8524  1.3663  1.6569
 4348SOL    HW214658   9.331   8.238   3.921  0.5657  1.1156  1.3321
 4349SOL     OW14659   3.056   6.041   7.275 -0.0921 -0.0946 -0.3104
 4349SOL    HW114660   3.084   6.130   7.297 -0.4547  0.0704 -0.4937
 4349SOL    HW214661   2.987   6.021   7.339  2.5588 -1.7528  2.2843
 4350SOL     OW14662   3.799   0.178   5.126 -0.4424  0.2478 -0.2585
 4350SOL    HW114663   3.763   0.159   5.213 -0.2675  1.6105  0.1393
 4350SOL    HW214664   3.890   0.204   5.143 -0.3782  0.4333 -0.8570
 4351SOL     OW14665   1.654   5.751   1.898 -0.1940  0.0584  0.5950
 4351SOL    HW114666   1.703   5.775   1.819 -0.3107  1.6674  0.9782
 4351SOL    HW214667   1.683   5.814   1.964 -0.5061 -0.9122  1.7016
 4352SOL     OW14668   8.820   5.733   5.311 -0.1734 -0.5933 -0.4518
 4352SOL    HW114669   8.751   5.787   5.273 -0.4811 -0.7130 -0.0699
 4352SOL    HW214670   8.862   5.691   5.236  0.9077  1.1400 -0.8915
 4353SOL     OW14671   1.122   1.586   1.882 -0.2589  0.3225  0.2136
 4353SOL    HW114672   1.056   1.532   1.838 -0.1003  1.2127 -1.1761
 4353SOL    HW214673   1.075   1.625   1.955 -0.8366 -0.3189  0.1977
 4354SOL     OW14674   1.513   7.283   2.526  0.0121  0.3183 -0.0455
 4354SOL    HW114675   1.608   7.286   2.527  0.0573 -0.3975 -0.8079
 4354SOL    HW214676   1.486   7.341   2.597  1.0257 -0.0465  0.6644
 4355SOL     OW14677   3.628   5.341   9.484 -0.0359  0.8800  0.0451
 4355SOL    HW114678   3.692   5.359   9.553 -1.5661 -0.4481  1.9274
 4355SOL    HW214679   3.594   5.428   9.460  1.4341  1.4721  0.0172
 4356SOL     OW14680   5.908   0.420   2.623 -0.4488 -0.0965 -0.5422
 4356SOL    HW114681   5.984   0.370   2.593  0.7644  1.9656 -1.1099
 4356SOL    HW214682   5.847   0.418   2.550  0.7760  1.4893 -1.6865
 4357SOL     OW14683   0.944   1.465   2.183  0.0880 -0.5129 -0.2953
 4357SOL    HW114684   0.869   1.467   2.243  0.7978  2.5602  0.6655
 4357SOL    HW214685   0.929   1.539   2.124  1.5457 -0.8535 -1.1331
 4358SOL     OW14686   4.181   0.781   7.487 -0.0592  0.0226 -0.5363
 4358SOL    HW114687   4.135   0.795   7.404 -1.6610 -0.3034  0.2573
 4358SOL    HW214688   4.170   0.863   7.535 -1.0411 -0.5119  0.2010
 4359SOL     OW14689   9.232   2.969   0.890 -0.5643  0.3794 -0.0541
 4359SOL    HW114690   9.257   2.963   0.982 -1.0176  1.4016  0.1501
 4359SOL    HW214691   9.137   2.978   0.891 -0.5151  1.1135 -0.5685
 4360SOL     OW14692   3.957   3.517   5.652 -0.2274 -0.6658  0.2520
 4360SOL    HW114693   4.039   3.520   5.601 -0.1016  0.2245  0.4918
 4360SOL    HW214694   3.912   3.439   5.619  0.8908 -1.3969  0.3951
 4361SOL     OW14695   5.451   4.021   7.724  0.2492  0.8080  0.2765
 4361SOL    HW114696   5.370   3.997   7.769  0.0986 -3.1102 -1.6987
 4361SOL    HW214697   5.422   4.073   7.649 -0.5208 -0.6129 -0.4477
 4362SOL     OW14698   8.558   4.756   7.569 -0.7027  0.7006  0.2351
 4362SOL    HW114699   8.594   4.841   7.547  1.5374 -0.4830 -1.0112
 4362SOL    HW214700   8.610   4.726   7.644  0.3423 -0.6183 -0.9631
 4363SOL     OW14701   4.925   2.097   6.821  0.0527  0.3233 -0.0887
 4363SOL    HW114702   4.890   2.031   6.881 -0.9148 -1.0269 -2.0351
 4363SOL    HW214703   4.983   2.049   6.763  2.7201  1.9773  1.0311
 4364SOL     OW14704   6.585   2.063   6.479  0.5018 -0.1756 -0.1458
 4364SOL    HW114705   6.645   2.131   6.508 -0.5630 -0.1256  2.1868
 4364SOL    HW214706   6.619   1.983   6.518 -0.6834 -0.2080  0.8886
 4365SOL     OW14707   5.711   5.039   6.397 -0.6090  0.5724 -0.1830
 4365SOL    HW114708   5.657   4.999   6.465 -0.0890  0.9450  0.4551
 4365SOL    HW214709   5.678   5.129   6.390 -0.0743  0.7998  0.2068
 4366SOL     OW14710   8.620   8.661   3.912 -0.1232 -0.0182 -0.2683
 4366SOL    HW114711   8.663   8.747   3.917  1.7195 -0.9321  0.6688
 4366SOL    HW214712   8.579   8.651   3.997  0.8759 -0.6368  0.1551
 4367SOL     OW14713   4.671   1.305   8.479  0.1382  0.2202 -0.3293
 4367SOL    HW114714   4.726   1.263   8.413 -0.2866 -0.7191 -0.0938
 4367SOL    HW214715   4.687   1.255   8.559 -1.9363 -0.8448 -0.5225
 4368SOL     OW14716   2.975   8.275   1.110 -0.1172 -0.4235  0.3116
 4368SOL    HW114717   2.888   8.242   1.086 -1.1191  2.8122 -1.0092
 4368SOL    HW214718   3.021   8.283   1.026 -0.0040  1.4897  0.5044
 4369SOL     OW14719   5.753   0.284   8.689 -0.1794 -0.0751 -0.5039
 4369SOL    HW114720   5.846   0.304   8.677 -0.8750  2.3615 -2.7890
 4369SOL    HW214721   5.731   0.225   8.616 -0.3300 -1.2196  0.4325
 4370SOL     OW14722   7.098   9.349   3.896  0.2495  0.1911  0.4321
 4370SOL    HW114723   7.095   9.372   3.803 -2.1495  2.5047  0.9595
 4370SOL    HW214724   7.093   9.253   3.898 -2.9354  0.1835 -1.8237
 4371SOL     OW14725   5.295   1.702   7.034  0.0979 -0.5251  0.1041
 4371SOL    HW114726   5.322   1.772   7.094  0.9580 -0.9029  0.1805
 4371SOL    HW214727   5.202   1.717   7.020  0.2955  0.7160  0.0112
 4372SOL     OW14728   3.819   8.106   7.622 -0.4026 -0.0393  0.1179
 4372SOL    HW114729   3.851   8.068   7.704 -1.5033 -0.3559  0.4084
 4372SOL    HW214730   3.749   8.048   7.594  0.4438 -0.3553 -1.4656
 4373SOL     OW14731   5.023   2.092   4.988  0.4700  0.1306 -0.0636
 4373SOL    HW114732   5.112   2.114   5.015  0.6865 -0.5419 -0.2116
 4373SOL    HW214733   4.966   2.140   5.049  0.9350  0.1647  0.3463
 4374SOL     OW14734   5.592   7.072   1.409 -0.0016  0.2937  0.0364
 4374SOL    HW114735   5.603   7.008   1.480  0.4615  0.6338  0.2779
 4374SOL    HW214736   5.499   7.094   1.411 -0.0976 -0.1132  0.1798
 4375SOL     OW14737   2.481   9.184   4.158 -0.1240  0.1868 -0.0106
 4375SOL    HW114738   2.433   9.245   4.102  0.3478  2.2106  1.6518
 4375SOL    HW214739   2.570   9.219   4.162  0.5276 -1.3829 -0.0607
 4376SOL     OW14740   3.831   1.173   3.216 -0.5902  0.2553  0.0229
 4376SOL    HW114741   3.832   1.080   3.238  0.4649  0.1630 -0.3419
 4376SOL    HW214742   3.798   1.175   3.126 -0.2481  0.1940 -0.1060
 4377SOL     OW14743   9.812   3.581   1.269  0.4489 -0.0424  0.3848
 4377SOL    HW114744   9.898   3.589   1.310  0.5310 -0.4652  0.3053
 4377SOL    HW214745   9.788   3.670   1.243  0.4307  0.2179  1.2718
 4378SOL     OW14746   4.728   3.297   5.042  0.2151 -0.6625 -0.0810
 4378SOL    HW114747   4.652   3.347   5.015  1.2690  1.6417  0.9278
 4378SOL    HW214748   4.737   3.228   4.976 -1.4702  0.3071 -1.3911
 4379SOL     OW14749   5.783   0.105   1.657  0.0153 -0.5093  0.2643
 4379SOL    HW114750   5.864   0.057   1.646  0.6868  0.5201  0.5844
 4379SOL    HW214751   5.730   0.049   1.714  1.6178  0.0415  2.4434
 4380SOL     OW14752   5.934   3.920   6.352  0.3698  0.0880 -0.4807
 4380SOL    HW114753   5.850   3.897   6.312  2.0788 -2.6782 -2.7926
 4380SOL    HW214754   5.968   3.991   6.297  1.0524 -1.1810 -1.7435
 4381SOL     OW14755   7.248   2.643   7.093 -0.1022  0.4975 -0.5865
 4381SOL    HW114756   7.162   2.685   7.088 -0.4120 -0.1030 -0.3895
 4381SOL    HW214757   7.302   2.706   7.141 -1.4688 -0.7022  2.9054
 4382SOL     OW14758   7.110   3.949   4.578  0.1258  0.1968 -0.1882
 4382SOL    HW114759   7.197   3.989   4.585 -0.2273  0.6342  3.0607
 4382SOL    HW214760   7.051   4.023   4.565 -0.1254  0.3727  1.7615
 4383SOL     OW14761   2.673   6.817   4.623  0.2228  0.3085 -0.1291
 4383SOL    HW114762   2.641   6.866   4.698 -0.1351  0.2902 -0.2656
 4383SOL    HW214763   2.758   6.783   4.650  0.7811  1.5400 -0.2591
 4384SOL     OW14764   7.929   7.689   3.945 -0.0292  0.1536 -0.0426
 4384SOL    HW114765   7.998   7.755   3.944  2.3000 -1.9513  2.7869
 4384SOL    HW214766   7.959   7.621   3.885  1.4140 -1.5435  2.4225
 4385SOL     OW14767   2.724   6.195   8.406 -0.3619 -0.4619  0.1435
 4385SOL    HW114768   2.810   6.169   8.373 -0.2332 -1.2588  1.0535
 4385SOL    HW214769   2.668   6.198   8.328  0.1351 -1.4437 -0.2715
 4386SOL     OW14770   6.315   9.170   4.059 -0.5283  0.0989 -0.3762
 4386SOL    HW114771   6.277   9.201   4.141  1.5012  0.6847  0.4102
 4386SOL    HW214772   6.377   9.239   4.034 -0.2545 -0.6215 -1.7793
 4387SOL     OW14773   2.209   3.888   2.539 -0.0204 -0.2556  0.0479
 4387SOL    HW114774   2.276   3.840   2.490 -0.2585  0.9733 -1.5607
 4387SOL    HW214775   2.134   3.828   2.542  0.7598 -1.2250  0.9394
 4388SOL     OW14776   6.001   8.194   0.311  0.7422 -0.3130  0.6447
 4388SOL    HW114777   5.961   8.278   0.286  1.2915  0.4017  2.0502
 4388SOL    HW214778   5.926   8.138   0.332  0.3970  0.1808  0.7624
 4389SOL     OW14779   3.263   4.277   2.777 -0.5976 -0.2414  0.3459
 4389SOL    HW114780   3.275   4.371   2.770  1.8357 -0.2770  2.5945
 4389SOL    HW214781   3.303   4.241   2.698 -1.4279  0.5435 -0.4605
 4390SOL     OW14782   6.647   2.876   3.096  0.0851  0.3225 -0.1314
 4390SOL    HW114783   6.663   2.970   3.085  0.3821  0.3575  0.5631
 4390SOL    HW214784   6.608   2.868   3.183 -0.6203 -0.1287 -0.4787
 4391SOL     OW14785   2.743   0.931   5.419  0.6713  0.4103 -0.1466
 4391SOL    HW114786   2.673   0.954   5.358  2.1113  0.2271 -1.9425
 4391SOL    HW214787   2.740   0.836   5.426 -0.5474  0.5101  1.4654
 4392SOL     OW14788   6.698   3.450   7.039  0.6969 -0.7095  0.0920
 4392SOL    HW114789   6.790   3.472   7.027  0.2143  0.8927 -1.0098
 4392SOL    HW214790   6.671   3.497   7.118  0.2306  0.9741 -1.0106
 4393SOL     OW14791   3.456   6.775   9.595  0.2239 -0.1925  0.4363
 4393SOL    HW114792   3.436   6.773   9.689  0.2626 -1.2888  0.4279
 4393SOL    HW214793   3.373   6.751   9.553  0.0681  0.7927  0.1565
 4394SOL     OW14794   5.803   4.571   3.890 -0.3978  0.2632 -0.1331
 4394SOL    HW114795   5.860   4.632   3.935  0.5413 -0.8520  0.2424
 4394SOL    HW214796   5.835   4.570   3.800  0.3485 -0.5221  0.1255
 4395SOL     OW14797   0.581   6.271   6.186  0.1197  0.2140 -0.1192
 4395SOL    HW114798   0.654   6.243   6.131  2.1376 -0.8366  2.8312
 4395SOL    HW214799   0.598   6.364   6.202  1.3431 -0.1930  1.1614
 4396SOL     OW14800   3.334   4.571   0.280  0.3104 -0.1172 -0.0030
 4396SOL    HW114801   3.279   4.623   0.339  0.8788  1.5511 -0.8704
 4396SOL    HW214802   3.417   4.563   0.326  0.7311  1.1255 -0.4959
 4397SOL     OW14803   5.828   6.336   1.990  0.0400  0.2142  0.2231
 4397SOL    HW114804   5.786   6.258   1.955 -0.7976  1.0453 -0.6806
 4397SOL    HW214805   5.890   6.362   1.923  0.0005  0.5679  0.3229
 4398SOL     OW14806   5.026   5.584   7.022 -0.1232  0.4607  0.0919
 4398SOL    HW114807   5.089   5.639   6.974 -1.2676  2.8594  1.1440
 4398SOL    HW214808   4.999   5.638   7.096 -1.3580 -1.5986  1.2372
 4399SOL     OW14809   4.616   3.257   9.448 -0.1823  0.5795 -0.0946
 4399SOL    HW114810   4.702   3.251   9.488 -1.1465 -2.1123  1.8643
 4399SOL    HW214811   4.633   3.289   9.359  2.6343  1.3967  0.6314
 4400SOL     OW14812   5.038   7.190   1.864 -0.1786  0.5214  0.3202
 4400SOL    HW114813   5.007   7.280   1.854 -0.0213  0.7015  1.3662
 4400SOL    HW214814   5.134   7.197   1.866 -0.0619  0.1162 -1.4407
 4401SOL     OW14815   5.473   0.628   1.200 -0.6447  0.0408  0.0757
 4401SOL    HW114816   5.401   0.567   1.215 -0.3880 -0.4113 -0.4789
 4401SOL    HW214817   5.499   0.657   1.287 -1.8075  0.5883  0.2621
 4402SOL     OW14818   1.723   7.671   0.592 -0.0953 -0.3560  0.2183
 4402SOL    HW114819   1.712   7.665   0.687 -0.3388  2.1373  0.4203
 4402SOL    HW214820   1.816   7.657   0.577 -0.2200 -1.8067  0.6795
 4403SOL     OW14821   3.109   2.618   5.215  0.3144 -0.0175 -0.0890
 4403SOL    HW114822   3.091   2.593   5.124 -0.2690  0.0374  0.0064
 4403SOL    HW214823   3.194   2.662   5.212  0.0122  0.5429 -0.7044
 4404SOL     OW14824   5.335   5.394   4.731  0.7520 -0.3781 -0.9594
 4404SOL    HW114825   5.332   5.457   4.802 -1.2652 -2.4391  0.9728
 4404SOL    HW214826   5.288   5.436   4.659  0.6782  0.8580 -0.2071
 4405SOL     OW14827   3.837   3.159   1.933 -0.1985 -0.2812 -0.4664
 4405SOL    HW114828   3.769   3.169   1.999  0.4743 -1.2076  0.4001
 4405SOL    HW214829   3.832   3.239   1.881  1.3830  2.1248  2.7401
 4406SOL     OW14830   1.707   5.451   4.811  0.5650  0.3079  0.5052
 4406SOL    HW114831   1.720   5.544   4.831 -0.0702  0.3461  0.7854
 4406SOL    HW214832   1.727   5.406   4.892 -0.0458  0.2906  0.6569
 4407SOL     OW14833   3.090   4.056   3.914 -0.6340 -0.0629  0.2421
 4407SOL    HW114834   3.063   4.003   3.989 -1.3681 -1.6989 -1.1190
 4407SOL    HW214835   3.009   4.071   3.865  0.1580 -0.9489 -1.4049
 4408SOL     OW14836   5.196   0.082   7.684 -0.3490 -0.0965 -0.2938
 4408SOL    HW114837   5.250   0.117   7.612  1.6299  0.0104  1.1588
 4408SOL    HW214838   5.149   0.158   7.717 -0.0304  0.1674 -0.4407
 4409SOL     OW14839   9.692   8.047   4.615  0.1512  0.0897 -0.0866
 4409SOL    HW114840   9.755   8.074   4.547 -0.5388  0.5830 -0.5376
 4409SOL    HW214841   9.674   8.126   4.665 -0.5460  0.0870 -0.3221
 4410SOL     OW14842   3.473   0.276   5.187 -0.0624 -0.0330 -0.1966
 4410SOL    HW114843   3.512   0.234   5.110 -0.0958 -1.2674  0.4537
 4410SOL    HW214844   3.388   0.233   5.198 -0.1024  0.2077  0.4831
 4411SOL     OW14845   7.117   6.798   7.260  0.2566 -0.4124  0.1035
 4411SOL    HW114846   7.120   6.869   7.325  0.6548  0.4915 -0.8834
 4411SOL    HW214847   7.027   6.764   7.267  0.5922 -1.0690  1.8709
 4412SOL     OW14848   6.568   0.051   6.063 -0.3235  0.4587  0.6249
 4412SOL    HW114849   6.475   0.069   6.077 -0.3367 -0.1764  1.4580
 4412SOL    HW214850   6.602   0.031   6.151  0.2748 -0.7726  0.1437
 4413SOL     OW14851   0.199   9.838   9.406  0.1476  0.0004  0.5640
 4413SOL    HW114852   0.136   9.781   9.450  1.0441 -0.7997  0.8560
 4413SOL    HW214853   0.239   9.783   9.339 -0.4116  0.8941 -0.5399
 4414SOL     OW14854   9.466   9.324   4.626  0.0061  0.4723  0.0351
 4414SOL    HW114855   9.371   9.321   4.615  0.0473  0.3824 -0.2997
 4414SOL    HW214856   9.489   9.416   4.618  0.0311  0.4118 -0.6014
 4415SOL     OW14857   1.568   5.157   0.582 -0.4667  0.3823  0.4457
 4415SOL    HW114858   1.560   5.106   0.502  2.1296 -0.3812  0.5642
 4415SOL    HW214859   1.649   5.207   0.570 -1.8301  2.9228  1.2151
 4416SOL     OW14860   2.553   5.255   0.726 -0.2497  0.1513  0.2569
 4416SOL    HW114861   2.644   5.233   0.706 -0.7089 -1.6169 -0.0729
 4416SOL    HW214862   2.555   5.283   0.818  0.3817 -1.7153  0.8582
 4417SOL     OW14863   7.706   8.167   9.392 -0.1634 -0.2884  0.0461
 4417SOL    HW114864   7.623   8.132   9.424 -0.6331  0.2162 -0.5863
 4417SOL    HW214865   7.737   8.101   9.329  0.4742 -1.0033  1.0890
 4418SOL     OW14866   7.269   0.276   5.421  0.4057  0.1976 -0.2267
 4418SOL    HW114867   7.237   0.323   5.498  2.6492  1.7746 -0.1910
 4418SOL    HW214868   7.361   0.300   5.413  0.5728 -0.8939 -2.7050
 4419SOL     OW14869   4.912   0.864   7.724  1.0584  0.3555 -0.3786
 4419SOL    HW114870   4.897   0.959   7.722  1.4518  0.4190 -0.2122
 4419SOL    HW214871   4.902   0.837   7.632 -2.1358  0.0769 -0.0913
 4420SOL     OW14872   7.823   4.716   7.290  0.5882  0.2623  0.1460
 4420SOL    HW114873   7.780   4.724   7.205 -2.3137 -1.7927  1.2729
 4420SOL    HW214874   7.884   4.643   7.279  3.5678  2.7254 -1.2460
 4421SOL     OW14875   3.461   5.052   2.031  0.2406  0.3413  0.1593
 4421SOL    HW114876   3.527   5.108   2.071  0.1255  0.3111  0.3900
 4421SOL    HW214877   3.387   5.110   2.014 -0.1535  0.1108  1.0592
 4422SOL     OW14878   3.308   7.113   1.138  0.8338  0.0181 -0.1732
 4422SOL    HW114879   3.283   7.079   1.052 -0.3512 -0.7244  0.4340
 4422SOL    HW214880   3.347   7.198   1.120 -0.9189  0.6190 -1.3203
 4423SOL     OW14881   1.446   4.451   9.109 -0.6258 -0.2019  0.6970
 4423SOL    HW114882   1.446   4.466   9.203 -0.7932 -0.3613  0.7224
 4423SOL    HW214883   1.356   4.425   9.088 -0.5561 -0.3035  0.5164
 4424SOL     OW14884   1.804   9.056   7.217  0.0727 -0.5623 -0.1744
 4424SOL    HW114885   1.804   9.005   7.136  0.6166  0.4591 -0.8361
 4424SOL    HW214886   1.881   9.112   7.211 -0.8313  0.7927  0.2171
 4425SOL     OW14887   3.759   7.512   0.100  0.0617  0.1188  0.2069
 4425SOL    HW114888   3.776   7.552   0.015 -0.2531 -0.8497 -0.3307
 4425SOL    HW214889   3.683   7.456   0.085  0.1664 -0.2678  1.0630
 4426SOL     OW14890   0.777   5.337   6.251 -0.0180  0.3575  0.3230
 4426SOL    HW114891   0.746   5.364   6.337 -0.5802 -0.1087  0.2653
 4426SOL    HW214892   0.698   5.315   6.202  0.3648 -0.3297  0.0044
 4427SOL     OW14893   6.351   9.484   7.933 -0.2793  0.1669 -0.2764
 4427SOL    HW114894   6.436   9.462   7.972 -0.4621 -0.8511 -0.4029
 4427SOL    HW214895   6.311   9.544   7.995  1.6693  2.9881 -1.5446
 4428SOL     OW14896   0.771   9.028   7.990 -0.2811 -0.2473  0.5786
 4428SOL    HW114897   0.716   9.089   7.941 -1.0153  0.6425  2.4092
 4428SOL    HW214898   0.822   9.084   8.049  0.6640 -1.2678  0.7566
 4429SOL     OW14899   5.207   6.427   6.734 -0.1332 -0.3578 -0.6179
 4429SOL    HW114900   5.132   6.444   6.792  0.5397  2.0607 -0.3484
 4429SOL    HW214901   5.249   6.512   6.724  0.8944 -1.0715 -3.1617
 4430SOL     OW14902   0.922   9.728   1.178 -0.6444 -0.3494 -0.5276
 4430SOL    HW114903   1.014   9.751   1.163 -0.3551  0.0567  1.6035
 4430SOL    HW214904   0.873   9.800   1.139 -0.0407 -0.1436 -0.9231
 4431SOL     OW14905   3.983   7.447   1.324 -0.1505  0.0619  0.2463
 4431SOL    HW114906   3.900   7.440   1.371 -0.5364 -0.9686 -0.5606
 4431SOL    HW214907   3.959   7.476   1.236  0.5024  1.2311  0.4210
 4432SOL     OW14908   5.732   2.962   9.716 -0.4351  0.5550 -0.3443
 4432SOL    HW114909   5.690   2.951   9.630 -0.4492 -0.2171 -0.2414
 4432SOL    HW214910   5.744   2.873   9.749  0.6812  0.7910 -0.0727
 4433SOL     OW14911   5.259   1.281   1.455  0.7461 -0.7155 -0.4610
 4433SOL    HW114912   5.273   1.189   1.480  1.4226 -0.6396 -0.5636
 4433SOL    HW214913   5.176   1.304   1.498  0.7989 -1.2355 -0.0602
 4434SOL     OW14914   2.865   8.664   7.484 -0.2344 -0.2636  0.6483
 4434SOL    HW114915   2.894   8.656   7.393 -0.9934 -1.8078  0.5209
 4434SOL    HW214916   2.922   8.605   7.533  0.6724  1.1250  1.3291
 4435SOL     OW14917   9.305   3.727   6.906  0.0216  0.4479  0.2480
 4435SOL    HW114918   9.288   3.751   6.815  4.1373 -0.9901 -1.1630
 4435SOL    HW214919   9.373   3.788   6.935  0.0740 -0.2487  1.7200
 4436SOL     OW14920   8.245   9.457   6.793  0.5064 -0.2765 -0.2799
 4436SOL    HW114921   8.308   9.438   6.863  0.5931  0.7140 -0.0755
 4436SOL    HW214922   8.174   9.503   6.837  1.2634  1.7367 -1.0568
 4437SOL     OW14923   0.451   8.310   5.889  0.1504  0.2045 -0.1468
 4437SOL    HW114924   0.477   8.401   5.907  0.3389  0.4265 -1.4270
 4437SOL    HW214925   0.393   8.317   5.813 -2.8362 -0.3895  1.9119
 4438SOL     OW14926   5.812   7.924   4.916  0.1363 -0.4707 -0.3035
 4438SOL    HW114927   5.737   7.883   4.958 -0.5005 -1.2833 -2.1549
 4438SOL    HW214928   5.888   7.877   4.951 -0.3802 -1.2117 -0.1601
 4439SOL     OW14929   5.030   0.233   1.101 -0.1549  0.0298  0.0777
 4439SOL    HW114930   5.060   0.214   1.012 -1.0215 -0.7654 -0.0528
 4439SOL    HW214931   5.017   0.328   1.102  0.0522  0.0696 -0.5762
 4440SOL     OW14932   5.557   1.174   0.402  0.0375 -0.8973  0.2921
 4440SOL    HW114933   5.517   1.237   0.461  2.6410  0.3745  0.8301
 4440SOL    HW214934   5.535   1.205   0.314 -2.5281 -1.9259  0.4706
 4441SOL     OW14935   2.617   8.805   8.338  0.8990  0.1389 -0.0572
 4441SOL    HW114936   2.671   8.883   8.323 -0.3865  1.0963  0.0804
 4441SOL    HW214937   2.650   8.768   8.420  0.1019  1.8495  1.0958
 4442SOL     OW14938   3.338   3.776   5.732 -0.2466 -0.0043 -0.6907
 4442SOL    HW114939   3.359   3.806   5.821  0.0984 -1.0213 -0.4203
 4442SOL    HW214940   3.284   3.847   5.696  0.8292  1.1009 -0.2086
 4443SOL     OW14941   9.251   3.673   6.400 -0.7321  0.1178  0.2199
 4443SOL    HW114942   9.209   3.736   6.341  0.4321  2.0965  1.3943
 4443SOL    HW214943   9.230   3.588   6.362 -2.8539  1.1444 -1.1500
 4444SOL     OW14944   9.599   7.380   9.156 -0.5834 -0.2568 -0.2427
 4444SOL    HW114945   9.632   7.381   9.246 -1.8769 -1.2938  0.2623
 4444SOL    HW214946   9.676   7.403   9.103  0.3965 -0.4104  1.0532
 4445SOL     OW14947   7.419   5.799   7.217  0.5824  0.6351 -0.4978
 4445SOL    HW114948   7.500   5.759   7.185 -0.6531 -2.0618 -0.5074
 4445SOL    HW214949   7.358   5.789   7.144 -0.1021  1.6116 -0.0718
 4446SOL     OW14950   3.258   7.183   6.514  0.2235 -0.5096 -0.0221
 4446SOL    HW114951   3.291   7.114   6.571  0.6679 -0.1427  0.1680
 4446SOL    HW214952   3.244   7.140   6.429  1.1316 -0.6869 -0.0910
 4447SOL     OW14953   6.429   3.876   6.793  0.0362  0.0439  0.1772
 4447SOL    HW114954   6.362   3.927   6.749  0.7471  0.5884 -0.2773
 4447SOL    HW214955   6.389   3.790   6.806 -0.7806  0.3952  0.0025
 4448SOL     OW14956   1.851   8.925   1.704 -0.2982  0.2961 -0.5528
 4448SOL    HW114957   1.771   8.973   1.724  0.1671  0.9010 -0.0485
 4448SOL    HW214958   1.836   8.837   1.737 -0.3984  0.6712  0.4578
 4449SOL     OW14959   9.794   4.423   1.250  0.5380  0.8610 -0.4824
 4449SOL    HW114960   9.845   4.503   1.237  0.8231  0.8992  0.7919
 4449SOL    HW214961   9.843   4.373   1.315 -0.9565  0.8249  0.6735
 4450SOL     OW14962   2.291   7.312   0.080 -0.2062 -0.2722 -0.4247
 4450SOL    HW114963   2.291   7.407   0.072  1.9065  0.1436  2.4776
 4450SOL    HW214964   2.374   7.285   0.041 -1.6431 -1.2497 -2.9920
 4451SOL     OW14965   3.912   8.771   7.383  0.1557 -0.2162  0.5049
 4451SOL    HW114966   3.922   8.713   7.458  2.6814  0.0618  0.4688
 4451SOL    HW214967   3.916   8.859   7.420 -0.4389 -0.0664  0.2250
 4452SOL     OW14968   9.510   5.977   5.834 -0.0795  0.1577 -0.2296
 4452SOL    HW114969   9.426   5.972   5.787  0.1873 -0.7111 -0.6336
 4452SOL    HW214970   9.576   5.973   5.765  0.3193 -1.1299  0.1979
 4453SOL     OW14971   5.311   1.748   5.695  0.0009  0.0788 -0.4607
 4453SOL    HW114972   5.340   1.782   5.610  0.6094 -1.5660 -0.9504
 4453SOL    HW214973   5.314   1.653   5.685 -1.4469 -0.1525  0.9090
 4454SOL     OW14974   0.959   8.973   0.901 -0.0784 -0.3519  0.3429
 4454SOL    HW114975   0.999   9.059   0.891  0.5325 -0.4431  1.8419
 4454SOL    HW214976   1.025   8.911   0.870  1.6422 -0.6020  4.0155
 4455SOL     OW14977   3.300   0.441   2.807  0.5226  0.6801  0.1831
 4455SOL    HW114978   3.320   0.384   2.733 -1.4959  0.6416 -0.3976
 4455SOL    HW214979   3.320   0.387   2.884  1.7954  0.4051 -0.3064
 4456SOL     OW14980   7.022   1.528   7.501 -0.0768 -0.0264 -0.4967
 4456SOL    HW114981   7.087   1.525   7.571 -0.5634 -2.2644 -0.0620
 4456SOL    HW214982   6.943   1.490   7.540 -0.9749  0.5555 -1.6758
 4457SOL     OW14983   6.201   5.869   4.003 -0.1133  0.3761  0.6968
 4457SOL    HW114984   6.251   5.950   4.015 -0.3980  0.6793 -0.0970
 4457SOL    HW214985   6.122   5.896   3.957 -1.0991 -0.0815  2.0624
 4458SOL     OW14986   3.073   0.058   5.429 -0.2479 -0.0548  0.2739
 4458SOL    HW114987   3.089   0.101   5.513  0.6031 -0.7469  0.4760
 4458SOL    HW214988   2.990   0.013   5.441 -0.3936  0.2863  0.5675
 4459SOL     OW14989   8.597   2.534   4.041 -0.0020  0.1052 -0.0709
 4459SOL    HW114990   8.627   2.544   4.131 -0.2654  0.2756 -0.0004
 4459SOL    HW214991   8.671   2.563   3.988  0.7316 -1.4361  0.0462
 4460SOL     OW14992   4.831   5.390   7.707  0.0213 -0.1553 -0.8612
 4460SOL    HW114993   4.832   5.391   7.803  0.3319  1.0437 -0.8554
 4460SOL    HW214994   4.837   5.482   7.682 -1.0125 -0.3768 -2.0358
 4461SOL     OW14995   1.840   1.779   9.368 -0.2224  0.1849 -0.6837
 4461SOL    HW114996   1.805   1.746   9.286 -1.4543 -1.0819  0.2964
 4461SOL    HW214997   1.790   1.859   9.386  0.4077  0.7503 -1.3924
 4462SOL     OW14998   3.949   3.934   0.695 -0.2793 -0.6122  0.0711
 4462SOL    HW114999   4.023   3.887   0.733 -0.8022 -0.9305  0.7077
 4462SOL    HW215000   3.942   4.015   0.745 -0.4416 -0.6445  0.1035
 4463SOL     OW15001   5.450   7.395   8.770 -0.3106 -0.4237  0.0995
 4463SOL    HW115002   5.422   7.468   8.825  0.0681  0.1452 -0.4547
 4463SOL    HW215003   5.543   7.383   8.791 -0.2270 -0.3663 -0.2274
 4464SOL     OW15004   7.492   3.249   1.255 -0.0898  0.1986 -0.0782
 4464SOL    HW115005   7.471   3.200   1.176 -0.8787  0.8942 -0.3136
 4464SOL    HW215006   7.534   3.185   1.313  2.0540  0.0729 -1.6737
 4465SOL     OW15007   9.345   3.296   9.174 -0.4089  0.1790 -0.2738
 4465SOL    HW115008   9.318   3.360   9.108  1.8937 -0.0705 -1.5573
 4465SOL    HW215009   9.382   3.349   9.245  1.0038  0.3427 -1.1004
 4466SOL     OW15010   0.567   1.154   6.754  0.0077  0.5748 -0.0530
 4466SOL    HW115011   0.561   1.193   6.841 -0.1056  0.4516 -0.0055
 4466SOL    HW215012   0.583   1.061   6.770 -0.3341  0.4946 -0.1560
 4467SOL     OW15013   5.190   0.392   1.890 -0.5462  0.2345  0.6465
 4467SOL    HW115014   5.097   0.398   1.867 -0.7832  1.5728  1.8794
 4467SOL    HW215015   5.230   0.354   1.812 -2.0966 -0.2551  0.0341
 4468SOL     OW15016   1.492   5.743   3.472 -0.4207 -0.0101 -0.2188
 4468SOL    HW115017   1.557   5.790   3.421 -0.9733 -0.5331 -1.4607
 4468SOL    HW215018   1.539   5.666   3.505  0.3062  1.0224  1.2687
 4469SOL     OW15019   1.998   7.045   7.386  0.2214 -0.0917  0.4516
 4469SOL    HW115020   1.944   7.102   7.331  0.6265  0.0887  0.2359
 4469SOL    HW215021   1.994   6.959   7.342  0.4884  0.0349  0.1787
 4470SOL     OW15022   4.908   0.285   9.390  0.4453  0.2108  0.5251
 4470SOL    HW115023   4.855   0.230   9.332 -0.3940  0.7168  0.7980
 4470SOL    HW215024   4.906   0.239   9.474  2.3969 -0.9951 -0.0138
 4471SOL     OW15025   9.274   9.312   9.769  0.0021 -0.0145  0.1375
 4471SOL    HW115026   9.224   9.231   9.760 -0.3592 -0.0158  1.9055
 4471SOL    HW215027   9.356   9.285   9.810 -0.3654  0.5753  1.2952
 4472SOL     OW15028   7.807   1.688   2.404  0.0748  0.1722 -0.1628
 4472SOL    HW115029   7.766   1.612   2.363  0.5986  1.3874 -3.1336
 4472SOL    HW215030   7.810   1.666   2.497 -1.7789 -2.4801 -0.6342
 4473SOL     OW15031   7.823   5.076   3.802 -0.5107  0.2785  0.4603
 4473SOL    HW115032   7.762   5.075   3.728 -0.4270 -0.1088  0.3941
 4473SOL    HW215033   7.863   5.163   3.799  0.6745 -0.2674 -0.9402
 4474SOL     OW15034   7.008   1.060   2.200  0.0488  0.3116  0.0676
 4474SOL    HW115035   7.024   0.983   2.254  0.4972  0.0636 -0.4134
 4474SOL    HW215036   6.915   1.053   2.176  0.2366 -0.4293 -0.4984
 4475SOL     OW15037   9.628   6.475   8.872 -0.0816 -0.1384  0.7286
 4475SOL    HW115038   9.537   6.504   8.885 -0.3835 -1.0756  0.7815
 4475SOL    HW215039   9.672   6.499   8.953 -0.8929 -1.8925  1.7635
 4476SOL     OW15040   2.658   0.718   9.725 -0.5219  0.1416 -0.5022
 4476SOL    HW115041   2.606   0.652   9.680 -1.3324  1.1584 -1.0958
 4476SOL    HW215042   2.699   0.769   9.654 -1.0507  1.1666 -0.0914
 4477SOL     OW15043   7.920   8.065   0.305  0.2911  0.0512 -0.1165
 4477SOL    HW115044   7.955   8.067   0.395  0.9551 -0.1750 -0.3623
 4477SOL    HW215045   7.948   7.980   0.271 -0.0556  0.0915 -0.5023
 4478SOL     OW15046   2.495   6.330   7.085 -0.4549 -0.1468  0.7424
 4478SOL    HW115047   2.575   6.372   7.052  0.0563 -0.4968  1.4928
 4478SOL    HW215048   2.527   6.256   7.136 -1.3410 -1.7963 -0.9676
 4479SOL     OW15049   7.572   1.572   0.277 -0.1292 -0.0414 -0.2213
 4479SOL    HW115050   7.622   1.625   0.215 -1.3186 -0.0043 -1.1998
 4479SOL    HW215051   7.579   1.619   0.360 -1.4601  1.9349 -1.1303
 4480SOL     OW15052   0.022   0.863   3.845 -0.0114  0.0117 -0.0655
 4480SOL    HW115053   0.036   0.814   3.764 -0.0223 -0.5049  0.2448
 4480SOL    HW215054   0.098   0.844   3.899  0.0478  0.4429  0.0118
 4481SOL     OW15055   7.800   1.230   8.584 -0.3387  0.0240  0.0877
 4481SOL    HW115056   7.865   1.237   8.514 -0.0950  0.4732  0.3490
 4481SOL    HW215057   7.793   1.319   8.619  0.5259 -0.4208  1.4987
 4482SOL     OW15058   9.555   1.338   4.065 -0.2434 -0.0922  0.6797
 4482SOL    HW115059   9.587   1.420   4.104 -1.8533  1.3879 -0.8928
 4482SOL    HW215060   9.465   1.357   4.039  0.0365 -1.5911 -1.8109
 4483SOL     OW15061   7.687   8.100   1.185 -0.5402 -0.3083 -0.5475
 4483SOL    HW115062   7.775   8.072   1.211 -1.2243 -1.4908  0.6345
 4483SOL    HW215063   7.694   8.119   1.092  1.6121  2.3546  0.0295
 4484SOL     OW15064   0.877   7.796   8.436  0.6963  0.5308 -0.2704
 4484SOL    HW115065   0.971   7.802   8.451  0.6906 -1.1307  0.7581
 4484SOL    HW215066   0.839   7.856   8.500  1.0641  2.7826 -2.0500
 4485SOL     OW15067   9.110   2.200   2.886  0.1806 -0.2394 -0.2682
 4485SOL    HW115068   9.029   2.247   2.904  0.3610 -0.6262  1.8482
 4485SOL    HW215069   9.177   2.249   2.933  0.6709 -1.5266  0.4442
 4486SOL     OW15070   6.456   5.552   7.742  0.0002  0.2064  0.0946
 4486SOL    HW115071   6.384   5.544   7.806 -0.2451 -0.8537 -0.2861
 4486SOL    HW215072   6.533   5.519   7.789 -0.2162 -0.7449 -0.2023
 4487SOL     OW15073   6.025   2.528   9.556 -0.2607 -0.8068 -0.5129
 4487SOL    HW115074   6.110   2.570   9.567 -0.4073 -0.6626  0.1165
 4487SOL    HW215075   5.979   2.581   9.491 -0.2125 -0.3495 -0.1756
 4488SOL     OW15076   3.513   4.022   2.096 -0.5950 -0.9846 -0.3412
 4488SOL    HW115077   3.587   3.974   2.132 -1.2215 -1.5579  0.1942
 4488SOL    HW215078   3.552   4.101   2.059  0.2501 -1.1597  0.1507
 4489SOL     OW15079   6.575   7.358   9.397  0.5619  0.0439  0.0404
 4489SOL    HW115080   6.595   7.276   9.442  0.3555  0.6596  1.2979
 4489SOL    HW215081   6.657   7.383   9.355  0.0326 -2.0632 -2.5603
 4490SOL     OW15082   7.584   1.262   4.025 -0.1375 -0.1477  0.0028
 4490SOL    HW115083   7.575   1.202   3.951  1.3949  0.7982 -1.0130
 4490SOL    HW215084   7.569   1.349   3.988  0.1454  0.3076  0.9190
 4491SOL     OW15085   5.340   5.006   6.205  0.9478 -0.2522 -0.4299
 4491SOL    HW115086   5.353   5.071   6.273 -1.3733  0.2057 -0.3298
 4491SOL    HW215087   5.360   4.922   6.247  1.2525  0.1755  0.2790
 4492SOL     OW15088   6.406   4.595   6.221  0.1510 -0.5581 -0.5108
 4492SOL    HW115089   6.363   4.559   6.143  0.2029  0.7637 -1.1750
 4492SOL    HW215090   6.350   4.568   6.294  0.7924 -2.9286 -0.8257
 4493SOL     OW15091   4.846   3.812   9.682 -0.5914  0.4145  0.0167
 4493SOL    HW115092   4.760   3.839   9.715 -1.3616 -0.9345 -0.7533
 4493SOL    HW215093   4.831   3.723   9.648  0.6564  0.8860 -1.9123
 4494SOL     OW15094   6.701   2.209   4.456  0.6602  0.3113 -0.4645
 4494SOL    HW115095   6.721   2.294   4.495  0.2129 -0.0926  0.6772
 4494SOL    HW215096   6.763   2.149   4.495 -0.7122 -0.3670  0.7630
 4495SOL     OW15097   2.300   2.244   8.724 -0.0608  0.1168 -0.1632
 4495SOL    HW115098   2.264   2.296   8.796 -1.1233  1.4637 -1.5893
 4495SOL    HW215099   2.274   2.154   8.743 -0.0983  0.4009  1.2416
 4496SOL     OW15100   7.260   3.627   6.499  0.9605  0.1429  0.3373
 4496SOL    HW115101   7.305   3.647   6.417  1.9830 -2.4223  0.1813
 4496SOL    HW215102   7.329   3.596   6.557 -0.0678 -0.1217  1.4562
 4497SOL     OW15103   2.479   6.639   0.687  0.0980 -0.2621 -0.3864
 4497SOL    HW115104   2.387   6.647   0.663  0.0553 -0.6633 -0.3636
 4497SOL    HW215105   2.489   6.695   0.764 -0.3744 -1.0323  0.2553
 4498SOL     OW15106   5.008   8.486   8.665 -0.1450  0.6503 -0.1302
 4498SOL    HW115107   4.996   8.441   8.582 -0.1806 -0.0999  0.2790
 4498SOL    HW215108   5.065   8.429   8.716 -3.7910 -1.3028  2.1593
 4499SOL     OW15109   8.943   1.328   7.437  0.3711  0.2145 -0.5472
 4499SOL    HW115110   9.037   1.346   7.439  0.2446  0.8385 -0.0841
 4499SOL    HW215111   8.902   1.412   7.455 -0.3111  0.1845 -1.8730
 4500SOL     OW15112   8.822   3.549   3.222  0.3967 -0.5992 -0.2384
 4500SOL    HW115113   8.742   3.601   3.230  0.0294 -1.3311  1.3330
 4500SOL    HW215114   8.801   3.466   3.266  1.8919 -0.9358 -0.1113
 4501SOL     OW15115   2.664   8.795   5.417  0.4489  0.6954  0.3353
 4501SOL    HW115116   2.663   8.708   5.456  0.6636 -0.0175 -1.1787
 4501SOL    HW215117   2.756   8.819   5.415  0.4612  0.6323  0.0803
 4502SOL     OW15118   4.333   2.300   5.980 -0.4311  0.4479 -0.1089
 4502SOL    HW115119   4.325   2.224   5.921  4.2611 -1.0204  0.6880
 4502SOL    HW215120   4.271   2.282   6.050  0.1078 -2.4563 -0.2287
 4503SOL     OW15121   6.800   8.959   2.083 -0.0787  0.3543  0.1654
 4503SOL    HW115122   6.809   9.024   2.153  0.5116 -1.1086  1.5139
 4503SOL    HW215123   6.872   8.977   2.023  0.9402  0.0976  1.2757
 4504SOL     OW15124   6.898   2.340   9.726 -0.1613 -0.4269 -0.1924
 4504SOL    HW115125   6.814   2.340   9.680 -0.2966 -1.6583  0.0107
 4504SOL    HW215126   6.877   2.312   9.815  0.4325 -0.5807 -0.0912
 4505SOL     OW15127   4.092   2.972   2.109  0.5358 -0.9876 -0.3290
 4505SOL    HW115128   4.182   2.941   2.095 -0.2267 -2.3656 -2.6617
 4505SOL    HW215129   4.071   3.020   2.029 -1.0417 -1.2870 -0.1236
 4506SOL     OW15130   0.285   3.933   8.452 -0.1927 -0.4148 -0.8940
 4506SOL    HW115131   0.351   3.886   8.503  2.1566  2.3832 -1.0541
 4506SOL    HW215132   0.253   4.001   8.511 -0.4030  0.3550 -1.8605
 4507SOL     OW15133   9.801   7.041   1.152  0.5261  0.2059 -0.0447
 4507SOL    HW115134   9.849   7.000   1.079  0.9895  1.8486 -0.6931
 4507SOL    HW215135   9.714   7.059   1.117 -0.5092 -2.3225  0.9833
 4508SOL     OW15136   8.307   4.101   6.929  0.6174  0.0365 -0.2045
 4508SOL    HW115137   8.248   4.030   6.905 -1.7356  0.4709  3.4820
 4508SOL    HW215138   8.358   4.067   7.003  1.9216  1.0902 -0.5760
 4509SOL     OW15139   2.988   3.863   5.244 -0.4417  0.4264  0.0083
 4509SOL    HW115140   2.924   3.817   5.298  0.3419 -1.1393 -0.3620
 4509SOL    HW215141   3.028   3.927   5.303  0.4466 -1.2801  1.3358
 4510SOL     OW15142   4.867   7.285   2.382 -0.0272  0.2749  0.7043
 4510SOL    HW115143   4.815   7.241   2.315  1.1022 -0.6414  0.4055
 4510SOL    HW215144   4.815   7.362   2.405 -0.7331  0.2693 -0.7604
 4511SOL     OW15145   1.537   5.746   4.166  0.7347  0.7604 -0.2509
 4511SOL    HW115146   1.505   5.706   4.247 -1.3848 -0.4752 -1.5946
 4511SOL    HW215147   1.617   5.699   4.146  0.4192 -0.0453  0.3138
 4512SOL     OW15148   6.591   5.651   1.709  0.1215 -0.5150 -0.2430
 4512SOL    HW115149   6.520   5.659   1.646  1.4935 -0.1386 -1.8208
 4512SOL    HW215150   6.607   5.740   1.738  0.8605 -0.3940 -0.9828
 4513SOL     OW15151   4.964   4.232   6.118  0.0372  0.5663  0.5223
 4513SOL    HW115152   5.005   4.308   6.079 -2.2756  1.2577 -0.7461
 4513SOL    HW215153   5.025   4.160   6.102  1.5659  1.8536  0.4194
 4514SOL     OW15154   4.037   4.876   2.620 -0.7812 -0.4364  0.4888
 4514SOL    HW115155   4.127   4.893   2.647 -1.4085  0.3956  2.2285
 4514SOL    HW215156   4.006   4.960   2.586 -1.2500 -0.3923  1.0060
 4515SOL     OW15157   9.305   9.792   0.105 -0.1192  0.3507 -0.0234
 4515SOL    HW115158   9.235   9.844   0.066 -0.5358  1.4467  2.0945
 4515SOL    HW215159   9.271   9.702   0.103 -1.1273  0.7170  0.0124
 4516SOL     OW15160   2.586   5.463   9.482 -0.0462 -0.4056 -0.8767
 4516SOL    HW115161   2.600   5.482   9.389  0.5506  1.8273 -0.3941
 4516SOL    HW215162   2.494   5.437   9.487 -0.1416 -0.3668 -2.0694
 4517SOL     OW15163   3.657   8.397   3.764  0.2701  0.4836  0.2808
 4517SOL    HW115164   3.650   8.492   3.757 -0.2517  0.4173 -0.1752
 4517SOL    HW215165   3.736   8.375   3.715  0.1952  0.6509  0.0824
 4518SOL     OW15166   8.285   1.582   7.169  0.5167 -0.5124  0.1459
 4518SOL    HW115167   8.284   1.666   7.122  0.2200 -0.1049  0.8592
 4518SOL    HW215168   8.193   1.566   7.189  0.7604 -0.0011  1.7627
 4519SOL     OW15169   6.535   0.880   9.485  0.1095 -0.2656  0.0873
 4519SOL    HW115170   6.478   0.878   9.408 -0.3652 -3.0808  0.4111
 4519SOL    HW215171   6.620   0.850   9.453  1.3829  3.1554 -0.2230
 4520SOL     OW15172   5.857   1.140   5.668 -0.7924 -0.0918  0.3038
 4520SOL    HW115173   5.897   1.095   5.593  2.2539  1.3995  0.8704
 4520SOL    HW215174   5.822   1.069   5.722  0.8223 -1.5349 -0.4409
 4521SOL     OW15175   1.620   7.764   6.228 -0.2155  0.0106 -0.3801
 4521SOL    HW115176   1.675   7.694   6.193  1.6370  0.6802  1.0014
 4521SOL    HW215177   1.667   7.845   6.207  1.9917  0.4604  4.6242
 4522SOL     OW15178   1.401   0.303   2.610  0.1605 -0.0618 -0.1482
 4522SOL    HW115179   1.368   0.231   2.555 -0.7154 -0.1796  0.5106
 4522SOL    HW215180   1.413   0.376   2.549  0.9725 -0.7252 -0.8135
 4523SOL     OW15181   3.377   4.761   9.587  0.3736 -0.1100 -0.5625
 4523SOL    HW115182   3.312   4.742   9.654  0.2078  2.3368  0.0629
 4523SOL    HW215183   3.333   4.742   9.504  0.0741 -1.7430 -0.0629
 4524SOL     OW15184   7.502   4.029   4.331 -0.0070  0.0467 -0.2906
 4524SOL    HW115185   7.559   3.979   4.274  0.9390  0.3411  0.3667
 4524SOL    HW215186   7.429   3.970   4.351  0.5462 -0.6729 -0.3786
 4525SOL     OW15187   9.384   2.043   1.408  0.4349 -0.0866 -0.2005
 4525SOL    HW115188   9.312   2.024   1.348 -1.5081  1.3762  1.5337
 4525SOL    HW215189   9.424   1.957   1.425 -2.7058 -1.5076  0.9027
 4526SOL     OW15190   0.457   7.227   5.009  0.1923  0.0399  0.2123
 4526SOL    HW115191   0.543   7.267   5.020  0.2667  0.3202 -1.1405
 4526SOL    HW215192   0.395   7.293   5.040  0.4611 -0.1767  1.2194
 4527SOL     OW15193   5.395   8.546   9.837  0.1768  0.0261  0.3504
 4527SOL    HW115194   5.366   8.482   9.771  0.7271  1.4644 -1.3652
 4527SOL    HW215195   5.487   8.561   9.817 -0.3100  2.4968 -0.3461
 4528SOL     OW15196   0.006   0.759   9.723 -0.2623  0.3149 -0.1998
 4528SOL    HW115197  -0.033   0.693   9.780  0.3424 -0.9519 -1.1970
 4528SOL    HW215198   0.046   0.709   9.652  0.4529  1.7468 -0.8549
 4529SOL     OW15199   6.858   9.637   3.129 -0.5489  0.5381  0.5767
 4529SOL    HW115200   6.855   9.662   3.222  0.8113  0.7254  0.5885
 4529SOL    HW215201   6.951   9.631   3.109 -0.8234  0.8031 -0.8735
 4530SOL     OW15202   1.362   7.370   5.349 -0.1259 -0.1605 -0.1672
 4530SOL    HW115203   1.310   7.295   5.322 -1.1623  0.1525  0.8846
 4530SOL    HW215204   1.299   7.442   5.356  0.5749  0.4169  0.4070
 4531SOL     OW15205   2.023   9.426   2.404 -0.9300 -0.2287  0.0060
 4531SOL    HW115206   2.041   9.336   2.376  0.5136 -0.6414  2.0058
 4531SOL    HW215207   2.098   9.449   2.459 -1.2981  2.2059 -0.4054
 4532SOL     OW15208   4.760   0.628   8.451 -0.3401 -0.1863  0.1733
 4532SOL    HW115209   4.721   0.716   8.454 -0.8626 -0.4222  0.3959
 4532SOL    HW215210   4.809   0.626   8.369  0.9074  0.8333  0.8420
 4533SOL     OW15211   3.462   3.495   1.730 -0.0732  0.2805  0.9871
 4533SOL    HW115212   3.502   3.579   1.752  0.1159 -0.1821  2.5164
 4533SOL    HW215213   3.375   3.498   1.769 -0.9425  0.6019 -0.8505
 4534SOL     OW15214   7.246   1.314   9.618  0.0365  0.0184 -0.9400
 4534SOL    HW115215   7.183   1.258   9.571 -0.7158 -0.9191  1.0610
 4534SOL    HW215216   7.261   1.387   9.559 -1.0591 -0.9539 -2.5160
 4535SOL     OW15217   1.149   6.898   4.787 -0.0386  0.0892  0.3310
 4535SOL    HW115218   1.105   6.825   4.831 -0.1907 -0.0936 -0.1189
 4535SOL    HW215219   1.083   6.967   4.783 -0.9149 -0.7837 -1.9185
 4536SOL     OW15220   2.775   9.557   9.369  0.0358 -0.2215  0.6204
 4536SOL    HW115221   2.797   9.465   9.356  0.5894 -0.2505  1.6733
 4536SOL    HW215222   2.686   9.565   9.334 -0.5263 -1.4590  1.6916
 4537SOL     OW15223   9.275   6.214   2.511 -0.0273  0.5259 -0.1009
 4537SOL    HW115224   9.349   6.217   2.571 -0.2292 -0.5607  0.2213
 4537SOL    HW215225   9.304   6.156   2.441 -0.2485  0.8194 -0.4385
 4538SOL     OW15226   7.725   0.453   6.315  0.2570  0.2578  0.0867
 4538SOL    HW115227   7.731   0.358   6.302  0.0046  0.3302 -0.6228
 4538SOL    HW215228   7.801   0.475   6.368 -1.2023 -0.7600  2.8146
 4539SOL     OW15229   0.496   4.654   2.916  0.3570 -0.1294  0.3988
 4539SOL    HW115230   0.553   4.601   2.861  0.3562 -1.5166  1.6650
 4539SOL    HW215231   0.438   4.591   2.959 -2.3755  1.2220 -1.0091
 4540SOL     OW15232   4.176   8.401   7.529 -0.5454  0.0272 -0.4292
 4540SOL    HW115233   4.202   8.447   7.450 -0.5990 -0.7053 -0.8810
 4540SOL    HW215234   4.247   8.417   7.591  0.0963 -0.4380 -1.0405
 4541SOL     OW15235   8.529   3.486   1.791  0.0744 -0.1913 -0.3657
 4541SOL    HW115236   8.494   3.426   1.856 -1.0772  1.4278  0.5759
 4541SOL    HW215237   8.517   3.573   1.829  0.5743  0.7371 -2.1874
 4542SOL     OW15238   1.616   4.929   7.402 -0.3926  0.0445  0.1026
 4542SOL    HW115239   1.645   4.985   7.474 -1.8472 -0.0754  0.8207
 4542SOL    HW215240   1.618   4.986   7.325  0.0284  0.5146  0.4548
 4543SOL     OW15241   3.775   7.867   1.991  0.0183  0.1708 -0.0962
 4543SOL    HW115242   3.719   7.791   1.976 -0.5558  0.4726  0.4285
 4543SOL    HW215243   3.864   7.832   1.995 -0.2193 -0.4362 -0.0818
 4544SOL     OW15244   5.452   3.344   7.631 -0.0405  0.0493 -0.0358
 4544SOL    HW115245   5.492   3.272   7.679  0.0323 -0.7056 -1.1765
 4544SOL    HW215246   5.515   3.415   7.636  0.9949 -0.7631 -0.8924
 4545SOL     OW15247   4.191   7.431   1.086  0.3747 -0.3998 -0.0304
 4545SOL    HW115248   4.232   7.506   1.044 -1.6529  0.0992 -1.2590
 4545SOL    HW215249   4.263   7.385   1.130  1.9823  1.0940 -0.9926
 4546SOL     OW15250   2.025   9.612   1.087  0.4148  0.5061 -0.3822
 4546SOL    HW115251   2.097   9.611   1.024  0.4848  2.3010 -0.3845
 4546SOL    HW215252   1.985   9.699   1.076  0.2894  0.7946  1.8631
 4547SOL     OW15253   6.545   2.299   2.893 -0.3470 -0.3888  0.3629
 4547SOL    HW115254   6.517   2.351   2.968  2.0766  1.6304  0.0366
 4547SOL    HW215255   6.489   2.328   2.821 -0.9968 -0.4487  0.8411
 4548SOL     OW15256   2.581   9.247   1.483 -0.3019  0.2825 -0.2694
 4548SOL    HW115257   2.518   9.278   1.418  0.0222 -1.3606 -1.4452
 4548SOL    HW215258   2.633   9.325   1.505 -2.2122  1.4834  0.1623
 4549SOL     OW15259   2.803   7.112   1.746  0.1544 -0.0388  0.3009
 4549SOL    HW115260   2.861   7.151   1.680  0.3698  1.1426  1.1562
 4549SOL    HW215261   2.800   7.019   1.723 -0.8264  0.5131 -2.1564
 4550SOL     OW15262   3.822   1.784   0.822 -0.1464 -0.3375  0.1860
 4550SOL    HW115263   3.756   1.816   0.761 -1.2186 -0.5133  1.2161
 4550SOL    HW215264   3.847   1.860   0.874 -1.9608 -0.8430  1.9577
 4551SOL     OW15265   3.116   0.877   5.822 -0.0622  0.0634  0.0058
 4551SOL    HW115266   3.022   0.889   5.835 -0.3378  0.2206 -1.8704
 4551SOL    HW215267   3.129   0.783   5.827 -0.6348 -0.1116 -1.4861
 4552SOL     OW15268   5.512   6.835   3.699  0.3417 -0.3613  0.1757
 4552SOL    HW115269   5.549   6.779   3.631  1.3679  0.4918  0.0118
 4552SOL    HW215270   5.492   6.775   3.771 -0.4821 -1.2299 -0.7397
 4553SOL     OW15271   3.912   6.906   6.420  0.1372  0.4264  0.3873
 4553SOL    HW115272   4.003   6.879   6.408 -0.3249 -1.1791  0.3786
 4553SOL    HW215273   3.894   6.961   6.343  1.3150  1.4229  0.7934
 4554SOL     OW15274   5.089   0.157   3.111  0.0560 -0.7523  0.0968
 4554SOL    HW115275   5.089   0.082   3.171 -2.5409 -1.2809 -0.4323
 4554SOL    HW215276   5.020   0.215   3.145  1.1357  0.7813 -0.2560
 4555SOL     OW15277   6.187   0.181   6.262 -0.3419  0.2444 -0.7573
 4555SOL    HW115278   6.214   0.133   6.183  0.5780 -0.3925 -0.0822
 4555SOL    HW215279   6.234   0.264   6.256  0.6535 -0.2660 -0.3307
 4556SOL     OW15280   0.470   0.699   5.631  0.4101 -0.4207  0.6217
 4556SOL    HW115281   0.565   0.686   5.626  0.3715 -0.3469 -0.9479
 4556SOL    HW215282   0.441   0.641   5.701  1.4117 -1.8853 -0.1254
 4557SOL     OW15283   2.884   0.547   0.796 -0.3076  0.2098 -0.4233
 4557SOL    HW115284   2.947   0.476   0.800 -0.0032  0.5288  1.4474
 4557SOL    HW215285   2.907   0.604   0.870 -2.0004  0.9937 -0.4474
 4558SOL     OW15286   0.362   6.302   7.893 -0.4653  0.2856  0.5401
 4558SOL    HW115287   0.454   6.327   7.887 -0.9247  2.0583  0.1933
 4558SOL    HW215288   0.340   6.311   7.985 -0.1531 -0.7450  0.7254
 4559SOL     OW15289   3.784   9.190   8.237 -0.2752  0.1855  0.6387
 4559SOL    HW115290   3.807   9.283   8.238 -1.8744  0.6232  0.0640
 4559SOL    HW215291   3.689   9.189   8.227 -0.3685 -1.5164  1.3174
 4560SOL     OW15292   5.112   2.621   8.791 -0.1264 -0.5664  0.5651
 4560SOL    HW115293   5.132   2.529   8.812 -1.1939 -1.1302 -0.7100
 4560SOL    HW215294   5.022   2.618   8.757  0.7275  0.5133 -2.0573
 4561SOL     OW15295   1.671   5.657   6.650 -0.3782 -0.3307  0.5518
 4561SOL    HW115296   1.611   5.727   6.624 -1.9749 -1.7194  0.2200
 4561SOL    HW215297   1.650   5.585   6.589  1.2331 -1.0839  0.8290
 4562SOL     OW15298   9.822   5.597   3.782  0.1494  0.3719 -0.1472
 4562SOL    HW115299   9.798   5.593   3.874  0.4688  0.9256 -0.0317
 4562SOL    HW215300   9.901   5.652   3.780  0.7613 -0.4985 -0.6301
 4563SOL     OW15301   2.766   3.571   0.088 -0.3980  0.3836 -0.5009
 4563SOL    HW115302   2.805   3.570   0.000  0.8190 -1.9025 -0.0189
 4563SOL    HW215303   2.768   3.480   0.116 -1.8597  0.8857  1.4707
 4564SOL     OW15304   7.511   7.362   7.196  0.2659  0.0988 -0.3444
 4564SOL    HW115305   7.469   7.277   7.206  1.3026 -0.3639  0.2219
 4564SOL    HW215306   7.447   7.414   7.147 -1.9370  0.1160  2.2706
 4565SOL     OW15307   4.715   3.463   0.523 -1.0065 -0.7232  0.0212
 4565SOL    HW115308   4.764   3.398   0.572 -1.0725  0.7731  2.2010
 4565SOL    HW215309   4.757   3.547   0.544 -1.7083  0.1051 -1.6587
 4566SOL     OW15310   7.785   6.433   3.988 -0.8601  0.6233  0.8934
 4566SOL    HW115311   7.752   6.409   3.901  0.8386  0.2741  0.3141
 4566SOL    HW215312   7.713   6.412   4.047 -2.1943  1.1866 -0.4479
 4567SOL     OW15313   1.679   2.683   8.416  0.5900 -0.1918  0.3641
 4567SOL    HW115314   1.660   2.594   8.384  0.7712  0.5625 -2.0429
 4567SOL    HW215315   1.724   2.725   8.343  0.5343  1.8835  1.4714
 4568SOL     OW15316   8.216   1.397   4.621 -0.3093  0.1450  0.3851
 4568SOL    HW115317   8.173   1.365   4.542 -0.0355  1.4437 -0.3260
 4568SOL    HW215318   8.170   1.478   4.642 -1.1164 -0.7582  2.2365
 4569SOL     OW15319   4.483   4.921   5.955  0.2562 -0.3922  0.5434
 4569SOL    HW115320   4.544   4.935   6.027  0.6644  2.3848 -0.2196
 4569SOL    HW215321   4.528   4.956   5.878 -0.6320 -2.2174 -0.8663
 4570SOL     OW15322   3.875   3.055   8.287  0.5769 -0.3175 -0.7196
 4570SOL    HW115323   3.958   3.024   8.250  1.2800  0.8220 -0.1815
 4570SOL    HW215324   3.850   3.129   8.232  0.3428 -0.1686 -0.4186
 4571SOL     OW15325   3.949   4.167   0.163 -0.3865  0.5156  0.4621
 4571SOL    HW115326   4.000   4.088   0.148  0.7562  1.0515  1.3220
 4571SOL    HW215327   3.858   4.137   0.171  0.0953 -0.7711  1.3176
 4572SOL     OW15328   9.104   9.262   6.848  1.0266  0.1967 -0.2706
 4572SOL    HW115329   9.074   9.353   6.845  0.6513  0.0562 -1.0615
 4572SOL    HW215330   9.062   9.221   6.773  1.4233 -0.5661 -0.0818
 4573SOL     OW15331   4.915   8.339   4.626 -0.4646 -0.0172 -0.1231
 4573SOL    HW115332   4.880   8.421   4.592  1.4614  1.8292  1.9609
 4573SOL    HW215333   4.997   8.325   4.578 -2.2134 -2.5289 -2.6590
 4574SOL     OW15334   8.651   3.290   6.180  0.1886 -0.5860 -0.2747
 4574SOL    HW115335   8.680   3.309   6.270  1.3805  1.8489 -1.0733
 4574SOL    HW215336   8.642   3.195   6.177 -1.2963 -0.6727  2.8161
 4575SOL     OW15337   6.923   6.409   4.495  0.2044 -0.0587  0.5534
 4575SOL    HW115338   6.888   6.495   4.475  2.0339  0.7054  0.4611
 4575SOL    HW215339   6.910   6.398   4.589 -0.2686  0.1963  0.5185
 4576SOL     OW15340   1.061   9.055   6.520  0.4240 -0.0246 -0.2208
 4576SOL    HW115341   0.971   9.040   6.491  1.4008 -0.4308 -3.4311
 4576SOL    HW215342   1.065   9.019   6.609 -2.5280 -0.0203 -0.0087
 4577SOL     OW15343   7.349   6.644   5.127  0.0694  0.8238 -0.2170
 4577SOL    HW115344   7.325   6.596   5.206  0.8647  1.3954  0.3936
 4577SOL    HW215345   7.402   6.583   5.077 -2.7628 -0.5783 -1.7468
 4578SOL     OW15346   9.193   8.434   1.432  0.9204  0.0292  0.2554
 4578SOL    HW115347   9.099   8.421   1.420  0.5785  1.5258  1.0914
 4578SOL    HW215348   9.200   8.505   1.496  2.6216  0.3258 -0.1986
 4579SOL     OW15349   9.506   6.488   2.422  0.9123 -0.0970 -0.3043
 4579SOL    HW115350   9.479   6.519   2.336  2.9611 -0.3282 -1.0728
 4579SOL    HW215351   9.538   6.399   2.408  0.0997 -0.6201  0.9351
 4580SOL     OW15352   3.378   2.375   9.473 -0.0353  0.2092  0.2852
 4580SOL    HW115353   3.296   2.413   9.440  0.0057  0.4467  0.4514
 4580SOL    HW215354   3.366   2.281   9.464 -0.5895  0.2148  0.9234
 4581SOL     OW15355   0.123   8.540   3.426  0.3147 -0.0629 -0.6078
 4581SOL    HW115356   0.211   8.557   3.460 -0.0618 -0.7932  0.7925
 4581SOL    HW215357   0.118   8.593   3.347  0.6532  3.0719  1.3055
 4582SOL     OW15358   2.658   9.048   8.475 -0.3564 -1.1028 -0.5102
 4582SOL    HW115359   2.570   9.038   8.439  1.0119 -1.1518 -4.2656
 4582SOL    HW215360   2.670   8.970   8.531 -2.1671 -1.8254 -1.0537
 4583SOL     OW15361   7.300   2.582   9.332 -0.0112 -0.1536 -0.5989
 4583SOL    HW115362   7.374   2.633   9.300 -0.1337 -1.6659 -3.6835
 4583SOL    HW215363   7.333   2.492   9.339 -1.3017 -0.7126 -1.2392
 4584SOL     OW15364   3.758   2.566   1.786  0.1981  0.0514  0.2766
 4584SOL    HW115365   3.711   2.483   1.779  0.9876 -0.4887  1.2340
 4584SOL    HW215366   3.814   2.556   1.862  3.1920  0.0094 -1.7753
 4585SOL     OW15367   4.133   7.947   6.931  0.2019 -0.1771  0.4039
 4585SOL    HW115368   4.224   7.917   6.942 -0.5805 -2.7931  0.4823
 4585SOL    HW215369   4.083   7.894   6.994 -1.3473  1.5938  0.7464
 4586SOL     OW15370   5.971   1.037   6.117  0.1240 -0.3124 -0.2688
 4586SOL    HW115371   6.003   0.978   6.049 -2.0183 -1.7725 -0.1026
 4586SOL    HW215372   5.912   1.097   6.071 -1.0263 -1.0564  0.1971
 4587SOL     OW15373   4.725   5.810   1.887  0.1140  0.2842  0.7397
 4587SOL    HW115374   4.645   5.861   1.901  0.1886  0.7670 -0.5381
 4587SOL    HW215375   4.796   5.873   1.900  0.2628  0.0725  0.9577
 4588SOL     OW15376   9.090   2.302   3.637 -0.3937 -0.2892  0.2389
 4588SOL    HW115377   9.060   2.240   3.571 -3.6682 -0.4398  1.6851
 4588SOL    HW215378   9.103   2.250   3.716 -0.0652  0.4072  0.6601
 4589SOL     OW15379   1.198   3.921   9.772 -0.3687  0.3631  0.1975
 4589SOL    HW115380   1.116   3.969   9.759 -0.5664 -0.0977 -0.3361
 4589SOL    HW215381   1.263   3.988   9.795 -0.8617  0.7475  0.4769
 4590SOL     OW15382   4.764   4.656   1.325  0.0564 -0.2166 -0.4450
 4590SOL    HW115383   4.805   4.721   1.269 -1.4545  0.1882 -1.1367
 4590SOL    HW215384   4.723   4.594   1.264 -0.0478 -0.8043  0.2061
 4591SOL     OW15385   0.333   4.887   8.111 -0.2736  0.1010 -0.2033
 4591SOL    HW115386   0.324   4.919   8.201  1.3811 -0.2849  0.1351
 4591SOL    HW215387   0.348   4.793   8.120  1.1442  0.2457 -0.7756
 4592SOL     OW15388   1.586   2.317   9.651 -0.2297  0.0745 -0.0593
 4592SOL    HW115389   1.645   2.325   9.575  0.2197 -0.9802  0.1534
 4592SOL    HW215390   1.534   2.397   9.649 -0.3149  0.0160 -1.5588
 4593SOL     OW15391   3.177   6.957   4.467 -0.1702 -0.5265  0.3556
 4593SOL    HW115392   3.161   7.008   4.388  2.5183 -0.6519 -0.3753
 4593SOL    HW215393   3.167   6.866   4.440  1.2906 -0.5986 -0.0697
 4594SOL     OW15394   7.485   1.911   2.118 -0.3306 -0.1606  0.2792
 4594SOL    HW115395   7.507   1.993   2.162 -1.3306  0.2257  0.0826
 4594SOL    HW215396   7.430   1.937   2.044  0.0094 -0.9434 -0.2612
 4595SOL     OW15397   0.540   6.177   4.176  0.2349 -0.0728  0.2739
 4595SOL    HW115398   0.629   6.162   4.145  0.6700  0.7018  1.1041
 4595SOL    HW215399   0.538   6.270   4.199 -0.6988 -0.1458  0.5364
 4596SOL     OW15400   0.114   5.275   5.479 -0.1661  0.4371 -0.1536
 4596SOL    HW115401   0.163   5.194   5.468 -1.1786 -0.2009 -0.1194
 4596SOL    HW215402   0.140   5.329   5.404 -0.0331 -0.2168 -0.5894
 4597SOL     OW15403   1.269   9.730   0.297  0.4372 -0.2755 -0.0684
 4597SOL    HW115404   1.257   9.727   0.392  2.1987 -1.0725  0.1694
 4597SOL    HW215405   1.326   9.656   0.277 -1.9754 -1.7289 -2.1286
 4598SOL     OW15406   7.427   5.076   8.770  0.3309  0.0878  0.1893
 4598SOL    HW115407   7.407   4.992   8.813  0.8959 -0.3904 -0.4607
 4598SOL    HW215408   7.478   5.124   8.835 -1.3521  0.6180  1.1993
 4599SOL     OW15409   3.608   1.611   9.143  0.3066  0.2557  0.0526
 4599SOL    HW115410   3.570   1.524   9.129 -0.0960  0.2779  0.9265
 4599SOL    HW215411   3.546   1.672   9.104 -0.2238  0.2450  0.8556
 4600SOL     OW15412   9.001   1.330   5.252 -0.0971  0.8122  0.0113
 4600SOL    HW115413   9.045   1.383   5.185 -2.0509  0.9464 -1.2286
 4600SOL    HW215414   9.020   1.240   5.226 -0.1938  0.8728 -0.2839
 4601SOL     OW15415   8.475   9.132   4.761  0.1817 -0.1121  0.4408
 4601SOL    HW115416   8.390   9.112   4.723  0.8390 -1.9053 -0.1826
 4601SOL    HW215417   8.535   9.070   4.720  1.7938  1.0875  0.8896
 4602SOL     OW15418   3.109   8.253   9.409 -0.0047  0.2054  0.4600
 4602SOL    HW115419   3.148   8.312   9.344 -1.5504 -0.8942 -1.6154
 4602SOL    HW215420   3.152   8.169   9.394  0.6719  0.2630  1.9356
 4603SOL     OW15421   3.693   0.341   1.899 -0.9256 -0.3115  0.1858
 4603SOL    HW115422   3.728   0.255   1.921 -0.0189  0.1597  0.6226
 4603SOL    HW215423   3.633   0.324   1.827 -0.0840 -1.1934 -0.3305
 4604SOL     OW15424   0.656   7.328   7.117  0.1378  0.2034  0.7819
 4604SOL    HW115425   0.601   7.267   7.167  0.0623 -0.7164 -0.3799
 4604SOL    HW215426   0.594   7.393   7.084  0.3508  1.5031  2.8166
 4605SOL     OW15427   9.324   6.923   9.144 -0.7440  0.5396 -0.5627
 4605SOL    HW115428   9.363   6.879   9.220 -2.2725  0.4998  0.2432
 4605SOL    HW215429   9.364   7.010   9.143 -0.1865  0.2953 -0.1396
 4606SOL     OW15430   8.631   5.255   0.269 -0.7999  0.1426  0.4988
 4606SOL    HW115431   8.707   5.299   0.231 -0.6794 -0.6631 -0.2492
 4606SOL    HW215432   8.564   5.322   0.275 -0.8395  0.3020 -1.2416
 4607SOL     OW15433   5.095   7.799   5.305 -0.0746 -0.3867  0.4525
 4607SOL    HW115434   4.999   7.804   5.305 -0.0476  0.3055 -0.0132
 4607SOL    HW215435   5.119   7.824   5.216  0.6573  2.0628  1.2586
 4608SOL     OW15436   6.808   8.095   2.344 -0.2747  0.1216  0.8915
 4608SOL    HW115437   6.785   8.106   2.252 -0.5947 -1.3965  0.7622
 4608SOL    HW215438   6.772   8.172   2.387 -1.5351  0.0781 -0.0218
 4609SOL     OW15439   6.415   9.744   5.692  0.0108 -0.5356 -0.1264
 4609SOL    HW115440   6.501   9.743   5.734 -0.1187  0.0023  0.1662
 4609SOL    HW215441   6.426   9.803   5.617  0.1835 -1.3254 -0.7380
 4610SOL     OW15442   0.420   7.411   3.411 -0.0373 -0.2964  0.1765
 4610SOL    HW115443   0.334   7.430   3.372 -0.6683 -3.9135 -0.5833
 4610SOL    HW215444   0.483   7.433   3.343 -0.2955  1.9270  0.5649
 4611SOL     OW15445   0.880   6.136   2.253  0.4841 -0.2110  0.3194
 4611SOL    HW115446   0.885   6.041   2.248  0.9320 -0.1622 -0.3025
 4611SOL    HW215447   0.944   6.160   2.319 -0.3991 -0.4060  1.2644
 4612SOL     OW15448   3.042   2.024   6.085  0.4631  0.3318  0.8122
 4612SOL    HW115449   3.002   2.034   6.171 -0.2003 -2.2079  0.8673
 4612SOL    HW215450   3.136   2.025   6.102  0.3380 -0.1212  1.5914
 4613SOL     OW15451   9.329   1.856   2.454 -0.0080  0.0469  0.2008
 4613SOL    HW115452   9.289   1.894   2.376  1.1792  0.9008 -0.0191
 4613SOL    HW215453   9.272   1.783   2.478 -1.5010  1.0222 -0.2779
 4614SOL     OW15454   8.752   7.861   1.795 -0.1279  0.0927 -0.0556
 4614SOL    HW115455   8.715   7.922   1.731  0.5274 -1.1148 -1.6468
 4614SOL    HW215456   8.677   7.814   1.831 -0.4207 -0.0733 -0.8652
 4615SOL     OW15457   6.870   0.552   3.988 -0.0135  0.1937 -0.0567
 4615SOL    HW115458   6.917   0.634   3.972 -0.4461  0.6149  0.7912
 4615SOL    HW215459   6.908   0.518   4.069 -1.7478  0.9958  1.1458
 4616SOL     OW15460   5.508   9.834   3.898 -0.1924  0.1060 -0.1734
 4616SOL    HW115461   5.537   9.744   3.888 -1.5606 -0.5138  1.0851
 4616SOL    HW215462   5.553   9.865   3.976 -1.0072 -0.0637  0.3763
 4617SOL     OW15463   4.818   2.393   8.111  0.0518  0.0447  0.2913
 4617SOL    HW115464   4.869   2.312   8.105  1.0018  0.5172  1.5633
 4617SOL    HW215465   4.748   2.373   8.173  0.3457  0.2295  0.6819
 4618SOL     OW15466   8.851   8.801   2.229  0.1045  0.0783 -0.2799
 4618SOL    HW115467   8.790   8.860   2.183 -0.3372 -0.0999  0.0723
 4618SOL    HW215468   8.872   8.734   2.165  0.1418  0.2899 -0.4921
 4619SOL     OW15469   7.723   1.293   6.084  0.4352  0.6003 -0.3523
 4619SOL    HW115470   7.689   1.380   6.106  0.0011  0.1049  0.9942
 4619SOL    HW215471   7.694   1.236   6.155  0.7471 -0.6558 -1.1861
 4620SOL     OW15472   5.169   2.548   9.741  0.2757 -0.0564  0.1621
 4620SOL    HW115473   5.095   2.543   9.680 -3.0625  0.8358  3.7589
 4620SOL    HW215474   5.186   2.456   9.764  1.5724 -0.4063 -1.9102
 4621SOL     OW15475   6.624   3.011   0.944 -0.1574  0.3521  0.0313
 4621SOL    HW115476   6.715   2.992   0.922 -0.6440  0.6116 -2.4998
 4621SOL    HW215477   6.572   2.958   0.884 -1.7349 -0.1188  1.6961
 4622SOL     OW15478   6.397   8.604   2.924  0.0010 -0.0748  0.4133
 4622SOL    HW115479   6.421   8.537   2.860  0.5165 -0.3771  0.9078
 4622SOL    HW215480   6.343   8.558   2.988  0.2553  0.0063  0.6907
 4623SOL     OW15481   8.722   2.180   5.802  0.0645  0.3869  0.2217
 4623SOL    HW115482   8.658   2.136   5.747 -0.1317  1.8956 -0.8340
 4623SOL    HW215483   8.804   2.175   5.751  0.8812 -1.6633  1.6236
 4624SOL     OW15484   2.861   7.016   0.081  0.2010 -0.1756 -0.2262
 4624SOL    HW115485   2.953   7.032   0.099  0.5825 -1.3755 -0.9450
 4624SOL    HW215486   2.855   7.017  -0.014 -0.2221 -1.4786 -0.2430
 4625SOL     OW15487   3.219   5.069   7.641  0.1191  0.3157  0.2957
 4625SOL    HW115488   3.233   5.157   7.606  1.7410 -0.8887 -2.4221
 4625SOL    HW215489   3.126   5.067   7.663 -0.0514  2.5627  0.0781
 4626SOL     OW15490   4.492   3.967   5.525 -0.4238 -0.4776  0.2152
 4626SOL    HW115491   4.430   3.916   5.576 -0.7224  0.2778  0.6220
 4626SOL    HW215492   4.551   3.902   5.487 -0.1174 -1.0506  1.6098
 4627SOL     OW15493   0.234   7.469   1.524  0.1079  0.4385 -0.1261
 4627SOL    HW115494   0.248   7.443   1.615  0.4865  0.8395 -0.0652
 4627SOL    HW215495   0.139   7.471   1.514  0.0521  0.8572  0.4039
 4628SOL     OW15496   4.202   0.797   1.324  0.3881 -0.2604  0.1623
 4628SOL    HW115497   4.149   0.872   1.297 -0.3339 -0.8478 -0.0839
 4628SOL    HW215498   4.188   0.791   1.419 -0.6799 -0.9115 -0.0129
 4629SOL     OW15499   7.118   4.560   7.888 -0.0603 -0.2621 -0.2525
 4629SOL    HW115500   7.042   4.612   7.915 -0.1110  0.6005 -1.9589
 4629SOL    HW215501   7.175   4.561   7.965 -1.2849 -0.0151  0.6927
 4630SOL     OW15502   5.884   6.234   6.718  0.4699  0.1785  0.3873
 4630SOL    HW115503   5.883   6.246   6.813  1.4785 -2.3470  0.8169
 4630SOL    HW215504   5.931   6.151   6.706  0.2985  0.4065 -2.3248
 4631SOL     OW15505   2.609   8.239   2.234  0.1467  0.4285 -0.4785
 4631SOL    HW115506   2.581   8.148   2.236  2.1622 -0.2744 -1.0405
 4631SOL    HW215507   2.682   8.243   2.296 -0.3623  1.8430  0.0689
 4632SOL     OW15508   5.417   4.528   9.014 -0.4318  0.0981 -0.0985
 4632SOL    HW115509   5.367   4.450   9.037 -0.4122 -1.2157 -3.7898
 4632SOL    HW215510   5.488   4.532   9.078  0.4885 -3.9196 -0.6013
 4633SOL     OW15511   7.351   5.377   2.221  0.0270 -0.3147  0.0399
 4633SOL    HW115512   7.310   5.401   2.304 -0.0899  4.0922 -1.0430
 4633SOL    HW215513   7.283   5.328   2.174 -2.1144  1.9818  0.4833
 4634SOL     OW15514   7.051   3.399   7.742 -0.1386  0.5067  0.4393
 4634SOL    HW115515   6.998   3.477   7.724 -0.4404  0.1311 -0.3099
 4634SOL    HW215516   7.128   3.434   7.788  0.4761  1.4664 -1.2231
 4635SOL     OW15517   4.321   3.439   6.805 -0.6266  0.3732 -0.4042
 4635SOL    HW115518   4.269   3.496   6.861 -0.6946 -0.5373  0.4784
 4635SOL    HW215519   4.411   3.449   6.837  0.0826  2.9809 -2.7688
 4636SOL     OW15520   2.252   7.832   6.887  0.5875 -0.1571 -0.1958
 4636SOL    HW115521   2.331   7.857   6.840  0.6713  0.6336  0.3417
 4636SOL    HW215522   2.202   7.780   6.824  1.5085 -0.6317 -0.5513
 4637SOL     OW15523   9.437   6.065   4.693  0.4743  0.2442 -0.1178
 4637SOL    HW115524   9.438   6.050   4.598  1.1016 -0.0901 -0.0675
 4637SOL    HW215525   9.346   6.087   4.713  0.7491  2.7844 -1.1704
 4638SOL     OW15526   3.697   2.146   2.933  0.2643 -0.2354 -0.3891
 4638SOL    HW115527   3.616   2.094   2.937 -0.0943  0.2178 -1.5522
 4638SOL    HW215528   3.728   2.148   3.024 -0.3353 -1.4939 -0.1281
 4639SOL     OW15529   8.750   0.583   0.831  0.5475 -0.0447  0.0017
 4639SOL    HW115530   8.844   0.599   0.831  0.9174 -1.3171  3.4943
 4639SOL    HW215531   8.713   0.659   0.877 -0.0350  0.0250 -0.5732
 4640SOL     OW15532   6.661   8.789   2.243 -0.4125 -0.0581 -0.4833
 4640SOL    HW115533   6.618   8.799   2.327  0.1641 -2.1158  0.1279
 4640SOL    HW215534   6.698   8.875   2.224 -0.9345  0.5613  1.1354
 4641SOL     OW15535   0.861   8.466   2.852 -0.4331 -0.0074 -0.1380
 4641SOL    HW115536   0.781   8.471   2.905 -0.3206  2.0133 -0.0760
 4641SOL    HW215537   0.863   8.550   2.805  1.1501 -0.4310 -0.8664
 4642SOL     OW15538   7.258   7.259   0.960  0.2052  0.2319 -0.3742
 4642SOL    HW115539   7.201   7.309   1.018 -2.3823 -1.8958 -0.8433
 4642SOL    HW215540   7.219   7.270   0.873  0.1132 -1.6809 -0.6255
 4643SOL     OW15541   3.185   4.758   4.423  0.3474  0.0666 -0.1213
 4643SOL    HW115542   3.100   4.743   4.465 -0.2228  2.0714 -0.4828
 4643SOL    HW215543   3.164   4.798   4.339  1.6424 -0.0141 -0.5140
 4644SOL     OW15544   5.601   6.716   7.996 -0.1985  0.4607 -0.1019
 4644SOL    HW115545   5.623   6.682   7.909 -0.8813 -0.8445  0.2152
 4644SOL    HW215546   5.682   6.756   8.028  0.8032 -1.3653 -0.2597
 4645SOL     OW15547   7.347   3.562   4.903 -0.2128  0.1822 -0.3402
 4645SOL    HW115548   7.432   3.526   4.928 -0.7357 -0.7061  0.2321
 4645SOL    HW215549   7.288   3.487   4.904 -0.8474  0.6441 -1.5156
 4646SOL     OW15550   4.300   8.762   4.830  0.1955  0.2089  0.5262
 4646SOL    HW115551   4.385   8.736   4.867  1.2077  0.8942 -1.2120
 4646SOL    HW215552   4.246   8.683   4.836  0.8850 -0.1945  1.8130
 4647SOL     OW15553   2.817   4.582   3.179 -0.2658 -0.3910  0.0440
 4647SOL    HW115554   2.813   4.620   3.091  1.1292 -0.3426 -0.0295
 4647SOL    HW215555   2.727   4.586   3.211 -0.5178  1.1072 -0.7394
 4648SOL     OW15556   3.864   3.173   9.530 -0.3567  0.1090 -0.1308
 4648SOL    HW115557   3.858   3.220   9.447 -2.4763  3.0466  1.4706
 4648SOL    HW215558   3.935   3.217   9.577  0.2048 -0.9075 -0.0042
 4649SOL     OW15559   5.530   2.119   2.786 -0.2864 -0.4903  0.2239
 4649SOL    HW115560   5.448   2.105   2.835 -0.0943 -2.1735  0.1181
 4649SOL    HW215561   5.505   2.176   2.713 -1.2197 -0.4423  0.5663
 4650SOL     OW15562   8.513   1.217   3.125  0.0995 -0.3473 -0.1253
 4650SOL    HW115563   8.508   1.128   3.159  2.1529 -0.1392  0.8704
 4650SOL    HW215564   8.538   1.206   3.034 -0.7711 -0.7876 -0.3274
 4651SOL     OW15565   2.619   6.365   5.162  0.0383  0.1381 -0.1760
 4651SOL    HW115566   2.612   6.362   5.257  0.1657  1.2407 -0.1145
 4651SOL    HW215567   2.538   6.407   5.133 -0.5721 -1.3286 -0.6637
 4652SOL     OW15568   7.887   0.747   2.726  0.0550  0.2133 -0.4596
 4652SOL    HW115569   7.845   0.767   2.642 -1.4037 -1.6325 -0.2283
 4652SOL    HW215570   7.964   0.694   2.703 -0.6246 -0.7146 -0.6215
 4653SOL     OW15571   7.247   8.327   7.007  0.1940  0.0414  0.2602
 4653SOL    HW115572   7.337   8.318   6.977 -0.9755 -1.3713 -3.3282
 4653SOL    HW215573   7.237   8.260   7.075  1.7439  0.0773  0.5537
 4654SOL     OW15574   5.546   5.730   2.556 -0.2037 -0.2583  0.0642
 4654SOL    HW115575   5.515   5.740   2.645  0.1200 -0.9292  0.2619
 4654SOL    HW215576   5.554   5.635   2.544 -0.3101 -0.1768 -0.6945
 4655SOL     OW15577   8.334   6.896   6.125 -0.1611  0.8911  0.2051
 4655SOL    HW115578   8.430   6.903   6.123 -0.2315  2.0989  0.0155
 4655SOL    HW215579   8.317   6.823   6.184  0.8644  1.9177  1.8759
 4656SOL     OW15580   5.229   9.644   9.370 -0.2905  0.9484 -0.4732
 4656SOL    HW115581   5.253   9.733   9.344  1.4699  0.5138 -0.4581
 4656SOL    HW215582   5.152   9.624   9.318 -0.1325  2.1351 -1.2054
 4657SOL     OW15583   6.003   1.459   6.828  0.0016  0.0172  0.3747
 4657SOL    HW115584   5.955   1.384   6.793 -0.6044 -0.4880  2.1788
 4657SOL    HW215585   6.068   1.421   6.887 -0.5109  0.8937  1.5416
 4658SOL     OW15586   2.356   9.189   2.137 -0.3206  0.0945  0.3253
 4658SOL    HW115587   2.332   9.254   2.071  0.8388 -1.2405 -1.5323
 4658SOL    HW215588   2.438   9.221   2.173  1.5851 -1.3391 -2.3278
 4659SOL     OW15589   4.589   0.238   1.414 -0.1176 -0.0080 -0.1800
 4659SOL    HW115590   4.522   0.258   1.480  0.0475 -0.0665  0.0064
 4659SOL    HW215591   4.635   0.320   1.400  0.3919 -0.1877  0.3950
 4660SOL     OW15592   5.287   5.548   6.002  0.3324  0.3394 -0.4550
 4660SOL    HW115593   5.379   5.575   5.997 -0.0784  1.6814 -1.1419
 4660SOL    HW215594   5.258   5.578   6.088  0.3489  0.5253 -0.5144
 4661SOL     OW15595   1.390   3.805   8.372  0.0499  0.3780 -0.3595
 4661SOL    HW115596   1.468   3.805   8.427 -1.0166 -0.5785  1.2538
 4661SOL    HW215597   1.420   3.771   8.288  1.1396 -1.2717  0.6324
 4662SOL     OW15598   7.909   5.683   0.058  0.0581 -0.3299  0.1454
 4662SOL    HW115599   7.888   5.592   0.038  2.6552 -0.9317 -0.1911
 4662SOL    HW215600   7.933   5.721  -0.027 -0.4892  0.5390  0.3662
 4663SOL     OW15601   2.748   9.577   4.371 -0.1025 -0.4641  0.5673
 4663SOL    HW115602   2.692   9.655   4.368  1.1570  0.4433 -0.4527
 4663SOL    HW215603   2.691   9.507   4.402 -2.1618  0.1349 -1.6017
 4664SOL     OW15604   8.286   5.736   6.184 -0.3582  0.5759  0.4421
 4664SOL    HW115605   8.276   5.685   6.264  0.2307 -0.7174 -0.2807
 4664SOL    HW215606   8.331   5.677   6.123 -0.3781  1.6864 -0.6894
 4665SOL     OW15607   6.726   1.322   1.235 -0.3450 -0.5009 -1.3548
 4665SOL    HW115608   6.797   1.317   1.171 -1.2247 -1.3802 -2.3066
 4665SOL    HW215609   6.753   1.262   1.304  0.9366  0.9721 -0.5236
 4666SOL     OW15610   4.361   5.529   8.155  0.1656 -0.3575  0.7626
 4666SOL    HW115611   4.426   5.552   8.220 -1.4394  0.2498  2.2338
 4666SOL    HW215612   4.306   5.607   8.147  0.4637 -0.3205 -1.5562
 4667SOL     OW15613   3.589   5.322   4.630 -0.0525 -0.1683 -0.0205
 4667SOL    HW115614   3.634   5.238   4.635 -0.1322 -0.2577 -0.8000
 4667SOL    HW215615   3.508   5.308   4.680  0.2383 -0.3536  0.4022
 4668SOL     OW15616   3.047   0.186   8.104 -0.2341  0.0648  0.4864
 4668SOL    HW115617   3.028   0.177   8.197  0.2464 -0.9433  0.4961
 4668SOL    HW215618   3.115   0.121   8.086 -0.6819 -0.1220 -0.6700
 4669SOL     OW15619   7.101   5.701   0.090 -0.2102 -0.3928  0.4941
 4669SOL    HW115620   7.162   5.628   0.087  1.3814  0.8899  0.5020
 4669SOL    HW215621   7.095   5.725   0.182  0.4187  0.4007  0.3369
 4670SOL     OW15622   6.390   7.698   7.166 -0.3349  0.2648 -0.0750
 4670SOL    HW115623   6.386   7.666   7.076  0.2334 -1.4456  0.4604
 4670SOL    HW215624   6.427   7.786   7.159 -2.7725  1.2678 -1.7012
 4671SOL     OW15625   9.136   5.991   8.199  0.5147  0.2773 -0.0955
 4671SOL    HW115626   9.105   6.058   8.139  1.5725 -1.1504 -2.3729
 4671SOL    HW215627   9.059   5.937   8.217  0.3892  0.1467 -0.9934
 4672SOL     OW15628   7.229   4.272   5.695  0.4939 -0.2352  0.0048
 4672SOL    HW115629   7.277   4.355   5.703  0.3011 -0.2175  1.1519
 4672SOL    HW215630   7.141   4.293   5.726  0.4602 -0.8708  0.3549
 4673SOL     OW15631   0.420   8.640   3.741 -0.1617 -0.2011 -0.6136
 4673SOL    HW115632   0.494   8.633   3.680  0.7473 -0.6390  0.5092
 4673SOL    HW215633   0.450   8.701   3.808 -0.2646 -1.4420  0.6054
 4674SOL     OW15634   2.574   6.399   0.150 -0.0905  0.1509 -0.2409
 4674SOL    HW115635   2.486   6.436   0.153 -1.3778 -2.6952  1.5254
 4674SOL    HW215636   2.593   6.389   0.056 -1.1284  1.8233 -0.6649
 4675SOL     OW15637   2.128   4.375   7.769  0.4734 -0.5833 -0.2098
 4675SOL    HW115638   2.064   4.305   7.784 -1.7975  0.9653 -1.8724
 4675SOL    HW215639   2.179   4.346   7.694  0.0187 -0.7918 -0.4424
 4676SOL     OW15640   5.857   0.154   0.229 -0.6287 -0.1726  0.2668
 4676SOL    HW115641   5.783   0.207   0.201 -0.0717 -0.1433 -1.1995
 4676SOL    HW215642   5.934   0.202   0.198  0.0601  0.0109  2.1170
 4677SOL     OW15643   7.331   9.581   2.052 -0.2426  0.2073 -0.2770
 4677SOL    HW115644   7.292   9.666   2.073  1.4343  1.0796 -0.5190
 4677SOL    HW215645   7.418   9.603   2.019  0.3405 -1.6399 -0.0350
 4678SOL     OW15646   2.339   3.599   8.006 -0.4282  0.3151 -0.3224
 4678SOL    HW115647   2.303   3.549   8.079 -0.8143  0.2032 -0.5903
 4678SOL    HW215648   2.264   3.622   7.952 -0.0381 -0.5036 -1.2501
 4679SOL     OW15649   5.991   2.627   0.878  0.8100  0.1342 -0.2157
 4679SOL    HW115650   6.047   2.558   0.843  1.1413 -0.3621  1.2646
 4679SOL    HW215651   6.001   2.699   0.815  0.0343 -1.3063 -2.0696
 4680SOL     OW15652   8.280   6.568   7.151  0.3370 -0.3083 -0.2529
 4680SOL    HW115653   8.240   6.505   7.212  0.8922 -0.7172 -0.3119
 4680SOL    HW215654   8.358   6.600   7.197  0.1099  0.2751 -0.2604
 4681SOL     OW15655   6.088   9.242   9.069  0.3152  0.0935  0.2619
 4681SOL    HW115656   6.037   9.309   9.115  1.4925  0.9237  0.3974
 4681SOL    HW215657   6.063   9.251   8.977  0.7166  0.9771  0.2279
 4682SOL     OW15658   5.893   0.690   1.361 -0.3085  0.8860 -0.8072
 4682SOL    HW115659   5.816   0.692   1.418  0.2212  0.0800 -0.0425
 4682SOL    HW215660   5.967   0.676   1.421  0.7445  3.8903 -1.2479
 4683SOL     OW15661   4.340   8.596   6.595  0.4971 -0.0498 -0.4491
 4683SOL    HW115662   4.353   8.690   6.584  0.9033  0.2383  1.9781
 4683SOL    HW215663   4.384   8.575   6.678  1.8152 -2.7015 -1.6857
 4684SOL     OW15664   7.113   1.152   7.688  0.0827 -0.2753 -0.5174
 4684SOL    HW115665   7.019   1.135   7.692 -0.0233 -0.2029 -2.0335
 4684SOL    HW215666   7.120   1.247   7.700  0.0305 -0.3515  0.1876
 4685SOL     OW15667   3.342   1.550   0.988 -0.6151 -0.9473 -0.3577
 4685SOL    HW115668   3.403   1.529   0.916 -0.9236 -1.8687 -0.3638
 4685SOL    HW215669   3.379   1.504   1.063 -1.7732 -2.2845 -0.5641
 4686SOL     OW15670   7.230   8.944   0.569 -0.2941 -0.0366  0.1355
 4686SOL    HW115671   7.159   8.979   0.516 -0.3548 -3.3854 -2.2480
 4686SOL    HW215672   7.186   8.892   0.637 -0.1716 -0.8874 -0.4257
 4687SOL     OW15673   6.438   9.310   6.316 -0.3057 -0.1579  0.0681
 4687SOL    HW115674   6.502   9.356   6.370 -0.3778 -0.0113  0.0287
 4687SOL    HW215675   6.487   9.237   6.278  0.2597  0.8185 -1.1825
 4688SOL     OW15676   5.075   6.422   3.992  0.1684 -0.3064 -0.1441
 4688SOL    HW115677   5.127   6.345   3.971  0.9324  0.3243 -0.6390
 4688SOL    HW215678   5.092   6.439   4.085  0.9565 -0.0330 -0.3329
 4689SOL     OW15679   8.213   3.697   0.720  0.1522 -0.0446 -0.4753
 4689SOL    HW115680   8.153   3.770   0.702  1.8694  1.7486  0.7115
 4689SOL    HW215681   8.243   3.669   0.634 -0.4177  0.7441 -0.9431
 4690SOL     OW15682   6.069   2.962   8.581 -0.1398  0.3915  0.2074
 4690SOL    HW115683   6.146   2.907   8.596 -1.4815 -1.6642 -0.0634
 4690SOL    HW215684   6.093   3.047   8.619  0.8187 -1.2949  3.8766
 4691SOL     OW15685   3.340   4.762   7.282 -0.1086 -0.0518  0.0151
 4691SOL    HW115686   3.353   4.673   7.315  0.2773  0.2245  0.6124
 4691SOL    HW215687   3.389   4.818   7.342 -0.2253  0.5550 -0.4430
 4692SOL     OW15688   3.285   9.113   2.895 -0.2241  0.1922  0.0495
 4692SOL    HW115689   3.239   9.133   2.813  0.9828  0.9615 -0.4666
 4692SOL    HW215690   3.279   9.018   2.902 -1.5478  0.2348 -0.1909
 4693SOL     OW15691   1.422   4.671   3.194 -0.4738 -0.0982  0.1725
 4693SOL    HW115692   1.482   4.642   3.126 -2.0974 -3.5307  0.0309
 4693SOL    HW215693   1.472   4.663   3.275  0.2496  0.2289 -0.2349
 4694SOL     OW15694   8.808   8.271   0.348 -0.6163  0.0514  0.2099
 4694SOL    HW115695   8.895   8.231   0.344 -1.1911 -1.2943  0.6528
 4694SOL    HW215696   8.793   8.305   0.260  1.3191  2.4913  0.7043
 4695SOL     OW15697   8.764   3.109   3.519  0.0264 -0.4781 -0.3726
 4695SOL    HW115698   8.772   3.046   3.590 -0.4913 -0.9278 -0.7014
 4695SOL    HW215699   8.767   3.056   3.439  0.5781  0.0177 -0.6840
 4696SOL     OW15700   0.762   9.025   2.663  0.3088  0.4960  0.4137
 4696SOL    HW115701   0.690   8.962   2.667  0.5843  0.0721 -0.9005
 4696SOL    HW215702   0.765   9.063   2.751  0.4536 -1.6772  1.4133
 4697SOL     OW15703   5.838   7.564   7.145 -0.1649  0.0424  0.3190
 4697SOL    HW115704   5.928   7.561   7.112 -0.5627 -0.6861 -0.7799
 4697SOL    HW215705   5.828   7.483   7.194  0.4741  1.2008  2.4768
 4698SOL     OW15706   9.197   5.065   3.217  0.7681 -1.0033 -0.0416
 4698SOL    HW115707   9.155   5.036   3.297 -0.7957  0.2258 -0.3622
 4698SOL    HW215708   9.132   5.049   3.148  1.4734 -0.6043 -0.8322
 4699SOL     OW15709   1.021   9.412   7.711  0.7880 -0.1566 -0.1561
 4699SOL    HW115710   1.092   9.349   7.698 -0.2404 -1.5029  0.5681
 4699SOL    HW215711   1.038   9.481   7.646  2.1075 -1.0056 -0.7516
 4700SOL     OW15712   7.019   4.343   3.475 -0.1808  0.1723  0.4152
 4700SOL    HW115713   7.103   4.377   3.505  0.1875 -0.4368  0.0862
 4700SOL    HW215714   6.960   4.418   3.478  0.2176  0.4653  1.2411
 4701SOL     OW15715   5.758   0.285   3.758  0.7173  0.3508 -0.7385
 4701SOL    HW115716   5.768   0.378   3.739  1.7730  0.2942 -0.4915
 4701SOL    HW215717   5.846   0.249   3.753  0.6790 -0.2070  1.3875
 4702SOL     OW15718   7.093   6.139   5.218 -0.0463  0.1717  0.2296
 4702SOL    HW115719   7.069   6.208   5.156 -0.5215  0.7100  0.9973
 4702SOL    HW215720   7.185   6.156   5.239 -0.3177  0.9034  0.8358
 4703SOL     OW15721   3.263   5.005   4.549  0.5572 -0.2660  0.4179
 4703SOL    HW115722   3.256   4.978   4.457  0.8898 -1.5662  0.7636
 4703SOL    HW215723   3.323   5.080   4.547 -1.8612  1.8107 -0.7997
 4704SOL     OW15724   7.503   9.162   4.587  0.3727  0.0813  0.2406
 4704SOL    HW115725   7.586   9.195   4.553 -0.1381  0.0303 -1.1090
 4704SOL    HW215726   7.445   9.158   4.510 -0.3773 -1.4320  0.8484
 4705SOL     OW15727   7.401   3.081   3.685  0.3276 -0.7622 -0.6891
 4705SOL    HW115728   7.337   3.037   3.741 -1.2651  1.8525 -0.2850
 4705SOL    HW215729   7.393   3.036   3.600  0.2127 -2.4705  0.1844
 4706SOL     OW15730   3.045   8.118   1.635 -0.0862 -0.0599 -0.0315
 4706SOL    HW115731   2.984   8.108   1.563 -1.0317  1.4249  0.5169
 4706SOL    HW215732   3.131   8.125   1.594 -0.6397  1.0451 -1.0315
 4707SOL     OW15733   4.134   0.338   7.399 -0.0774 -0.0617  0.4719
 4707SOL    HW115734   4.222   0.375   7.411  0.4289 -1.3750  0.9228
 4707SOL    HW215735   4.148   0.243   7.399 -1.2789 -0.2736 -1.1655
 4708SOL     OW15736   9.311   8.265   9.702 -0.4050 -1.1334  0.4570
 4708SOL    HW115737   9.385   8.208   9.724 -0.1527 -0.6736  0.8227
 4708SOL    HW215738   9.250   8.256   9.775 -0.3759 -0.9625  0.5046
 4709SOL     OW15739   4.305   6.108   8.556  0.1475  0.9246  0.2828
 4709SOL    HW115740   4.361   6.063   8.620 -0.3587 -0.2623 -0.0949
 4709SOL    HW215741   4.367   6.159   8.504  0.8670 -0.0994  0.0881
 4710SOL     OW15742   2.527   5.041   2.561 -0.0283  0.8471  0.3693
 4710SOL    HW115743   2.532   4.964   2.505  0.9704  1.1966 -0.0429
 4710SOL    HW215744   2.601   5.032   2.621  0.0199  1.4053  0.4027
 4711SOL     OW15745   9.736   9.326   8.976  0.7171 -0.5233  0.5034
 4711SOL    HW115746   9.737   9.420   8.993 -0.5390 -0.3951 -0.0618
 4711SOL    HW215747   9.794   9.314   8.901 -0.0865 -0.0219 -0.2149
 4712SOL     OW15748   3.830   3.681   3.275  0.2096  0.1453 -0.4777
 4712SOL    HW115749   3.749   3.681   3.224  0.0107  1.2575 -0.1858
 4712SOL    HW215750   3.805   3.641   3.359  0.8188 -2.8382 -1.5965
 4713SOL     OW15751   4.405   3.766   3.084 -0.2019 -0.3167 -0.0058
 4713SOL    HW115752   4.368   3.852   3.067 -0.2215 -0.7859 -2.8526
 4713SOL    HW215753   4.494   3.783   3.113 -1.2723  0.6909  3.0466
 4714SOL     OW15754   1.025   1.601   8.487  0.0799  0.5883  0.3759
 4714SOL    HW115755   1.055   1.593   8.578 -0.5515  2.0650  0.7464
 4714SOL    HW215756   0.940   1.557   8.486  0.4177 -0.0782  0.3045
 4715SOL     OW15757   4.626   4.441   0.095 -0.0757 -0.0621  0.3545
 4715SOL    HW115758   4.559   4.373   0.088 -1.0186  0.6957  1.4966
 4715SOL    HW215759   4.583   4.511   0.144  0.7823  1.4719 -0.9956
 4716SOL     OW15760   3.896   6.379   4.659  0.0839  0.5064  0.0558
 4716SOL    HW115761   3.885   6.425   4.576 -0.3709  2.6308  1.2314
 4716SOL    HW215762   3.983   6.405   4.691  0.3994 -0.5571  0.1111
 4717SOL     OW15763   6.824   2.220   4.012  0.7113 -0.4319 -0.3502
 4717SOL    HW115764   6.809   2.309   4.045  1.5894 -0.2487 -0.4113
 4717SOL    HW215765   6.918   2.217   3.994  0.9379 -1.8206  0.9256
 4718SOL     OW15766   2.591   2.092   9.697  0.2549 -0.2154  0.6494
 4718SOL    HW115767   2.650   2.162   9.669  0.2697 -0.8445 -0.9923
 4718SOL    HW215768   2.503   2.128   9.684  0.2568 -0.5809 -0.5244
 4719SOL     OW15769   3.588   7.896   3.909 -0.7981  0.4899 -0.4375
 4719SOL    HW115770   3.535   7.826   3.946 -1.1401  1.9417  2.0516
 4719SOL    HW215771   3.524   7.957   3.871 -0.5200 -0.3354 -2.3298
 4720SOL     OW15772   3.069   1.106   2.802  0.3726  0.3076 -0.2344
 4720SOL    HW115773   3.059   1.175   2.869 -0.1876  0.3993 -0.4011
 4720SOL    HW215774   3.105   1.032   2.850  0.0637  0.4038  0.1617
 4721SOL     OW15775   0.340   7.004   1.599 -0.7884  0.4480  0.4900
 4721SOL    HW115776   0.357   7.057   1.522  1.8653 -0.2950  0.4883
 4721SOL    HW215777   0.326   6.916   1.565  0.7814  0.0394  0.8281
 4722SOL     OW15778   5.672   2.871   8.861 -0.1330  0.2244 -0.2821
 4722SOL    HW115779   5.717   2.819   8.928 -1.5475 -2.6628 -1.4044
 4722SOL    HW215780   5.603   2.813   8.829 -2.9464  3.4359 -0.5500
 4723SOL     OW15781   3.744   8.691   8.991  0.6216  0.4057 -0.4229
 4723SOL    HW115782   3.675   8.700   8.925 -0.3502 -0.1428  0.4856
 4723SOL    HW215783   3.697   8.686   9.074  1.7108 -0.6334  0.1645
 4724SOL     OW15784   5.299   1.785   4.112  0.0646 -0.3172  0.0117
 4724SOL    HW115785   5.303   1.848   4.040 -0.2874  0.1044  0.3531
 4724SOL    HW215786   5.205   1.773   4.127  0.1274  0.7900  1.4230
 4725SOL     OW15787   9.403   8.806   5.996 -0.0578  0.6224 -0.1652
 4725SOL    HW115788   9.372   8.839   5.911 -0.0176 -0.1616 -0.4934
 4725SOL    HW215789   9.325   8.804   6.051 -0.6600 -1.3891 -1.0048
 4726SOL     OW15790   6.377   5.140   1.302  0.1668 -0.7324  0.0200
 4726SOL    HW115791   6.472   5.151   1.299  0.2025 -0.9897  0.2513
 4726SOL    HW215792   6.363   5.051   1.334 -0.1552 -0.4420  0.7215
 4727SOL     OW15793   4.027   9.144   1.847  0.6732  0.8584 -0.4448
 4727SOL    HW115794   4.086   9.170   1.918  0.7118  3.0889 -1.2133
 4727SOL    HW215795   4.065   9.184   1.769 -0.4136  0.0629 -1.4145
 4728SOL     OW15796   4.196   4.348   9.003  0.2122  0.0708 -0.0964
 4728SOL    HW115797   4.158   4.412   8.943  0.5966  1.9316  1.5513
 4728SOL    HW215798   4.141   4.270   8.992 -0.8390  0.9482 -1.5200
 4729SOL     OW15799   3.440   4.087   8.043  0.0911 -0.2931 -0.9168
 4729SOL    HW115800   3.477   4.023   7.983  0.6972 -1.7098  0.8936
 4729SOL    HW215801   3.509   4.106   8.105 -0.6671  0.7804 -0.3538
 4730SOL     OW15802   5.079   6.546   6.081  0.5177  0.0951 -0.2989
 4730SOL    HW115803   5.007   6.499   6.038 -0.7196  1.3341  0.3456
 4730SOL    HW215804   5.156   6.493   6.062 -0.4533 -0.9524 -1.5439
 4731SOL     OW15805   5.454   0.622   5.339  0.2031 -0.2944  0.1005
 4731SOL    HW115806   5.462   0.552   5.274 -0.2437  0.1967 -0.4930
 4731SOL    HW215807   5.372   0.666   5.317  0.0218 -0.1483  1.0305
 4732SOL     OW15808   0.416   6.818   8.187  0.1776  0.3586 -0.0688
 4732SOL    HW115809   0.325   6.808   8.159  0.1197  0.7854 -0.0500
 4732SOL    HW215810   0.414   6.894   8.245  0.5147  0.2578  0.0724
 4733SOL     OW15811   6.521   0.287   3.625  0.0883  0.2827  0.2161
 4733SOL    HW115812   6.497   0.349   3.557 -0.0542 -0.4387 -0.4060
 4733SOL    HW215813   6.544   0.207   3.578 -0.2978 -0.3233  1.0225
 4734SOL     OW15814   1.806   0.415   8.102  0.3326  0.5024  0.1215
 4734SOL    HW115815   1.840   0.350   8.040  0.3043  1.5663 -1.0659
 4734SOL    HW215816   1.774   0.486   8.046  1.9862  2.3650  1.4106
 4735SOL     OW15817   8.302   0.445   2.124  0.8769 -0.2419 -0.1248
 4735SOL    HW115818   8.380   0.397   2.150  1.1342  0.1509 -0.1798
 4735SOL    HW215819   8.290   0.422   2.031  0.7485 -0.5430 -0.0369
 4736SOL     OW15820   4.917   0.549   1.967 -0.0514 -0.0505  0.4750
 4736SOL    HW115821   4.949   0.565   1.878  0.7006  1.0003  0.9124
 4736SOL    HW215822   4.858   0.475   1.958  2.0540 -1.7360 -0.4902
 4737SOL     OW15823   6.880   8.727   0.888  0.2206  0.4157 -0.0772
 4737SOL    HW115824   6.845   8.733   0.799 -3.4084  0.0253  1.1521
 4737SOL    HW215825   6.892   8.633   0.903 -0.1769  0.4032  0.1724
 4738SOL     OW15826   9.279   1.433   3.049  0.1050  0.0311  0.3923
 4738SOL    HW115827   9.337   1.360   3.073  0.2296  0.2183  0.6698
 4738SOL    HW215828   9.327   1.511   3.077  0.0289  0.2269 -0.0196
 4739SOL     OW15829   7.626   1.078   7.149 -0.4015  0.0318  0.5876
 4739SOL    HW115830   7.579   1.055   7.068 -0.9457  2.6718  0.0766
 4739SOL    HW215831   7.710   1.032   7.142 -1.1630 -1.2532 -0.5840
 4740SOL     OW15832   1.696   6.349   8.329 -0.2632  0.0660  0.0308
 4740SOL    HW115833   1.689   6.265   8.373 -4.1807  0.0186 -0.3208
 4740SOL    HW215834   1.664   6.413   8.393  1.6714  1.1810 -0.0628
 4741SOL     OW15835   8.177   4.759   4.327  0.1744  0.3844 -0.6085
 4741SOL    HW115836   8.149   4.751   4.236 -1.5576  0.6454 -0.1424
 4741SOL    HW215837   8.102   4.799   4.372  1.2569  0.9327  0.7996
 4742SOL     OW15838   2.725   5.416   1.500  0.0910  0.6777 -0.1386
 4742SOL    HW115839   2.633   5.422   1.525 -0.2122  0.3527 -1.1376
 4742SOL    HW215840   2.747   5.324   1.510 -0.8158 -0.0419 -3.5591
 4743SOL     OW15841   8.745   5.601   5.869 -0.3105  0.4792 -0.0978
 4743SOL    HW115842   8.792   5.610   5.786  0.2486  1.1090  0.2834
 4743SOL    HW215843   8.682   5.531   5.853 -0.1744  0.5650 -1.0389
 4744SOL     OW15844   5.352   4.697   4.044  0.3152 -0.3935  0.1527
 4744SOL    HW115845   5.326   4.605   4.044  0.5942 -0.4759 -0.4183
 4744SOL    HW215846   5.270   4.745   4.031  0.0866 -0.5247  1.0116
 4745SOL     OW15847   6.372   7.104   8.275  0.4462  0.1936 -0.5145
 4745SOL    HW115848   6.394   7.068   8.189  1.9653 -0.8592  0.2777
 4745SOL    HW215849   6.321   7.034   8.317 -2.6639  1.7185 -1.4700
 4746SOL     OW15850   3.962   8.732   1.040 -0.5328 -0.2321  0.3732
 4746SOL    HW115851   3.952   8.711   0.948  0.8204  3.2073 -0.7047
 4746SOL    HW215852   3.892   8.795   1.058  1.9418  2.7947  0.2460
 4747SOL     OW15853   8.499   1.920   3.402  0.3695 -0.0255  0.4729
 4747SOL    HW115854   8.480   1.927   3.495 -0.3497 -1.1772  0.4335
 4747SOL    HW215855   8.419   1.948   3.359 -0.2524 -1.9364  0.2671
 4748SOL     OW15856   6.950   1.696   5.748 -0.3878 -0.6082 -0.0294
 4748SOL    HW115857   6.938   1.790   5.762 -1.3813 -0.7082 -0.1455
 4748SOL    HW215858   6.968   1.661   5.835  0.5941 -0.2330 -0.0706
 4749SOL     OW15859   9.758   5.119   7.284 -0.3579  0.1417 -0.3332
 4749SOL    HW115860   9.739   5.204   7.245 -1.7900  0.5961  1.2103
 4749SOL    HW215861   9.833   5.135   7.342 -2.8298  1.3921  2.8176
 4750SOL     OW15862   8.001   1.679   3.452 -0.4337  0.7625  0.7990
 4750SOL    HW115863   8.050   1.630   3.386 -0.6046  1.8632 -0.1836
 4750SOL    HW215864   7.910   1.677   3.421 -0.6176  0.7958  1.3189
 4751SOL     OW15865   1.595   6.561   6.037 -0.2032  0.3485  0.4652
 4751SOL    HW115866   1.687   6.580   6.015  0.1724  0.2455  1.8382
 4751SOL    HW215867   1.563   6.642   6.076 -0.5578  0.2315  0.4185
 4752SOL     OW15868   3.160   3.619   8.853 -0.2740 -0.0071  0.2435
 4752SOL    HW115869   3.085   3.563   8.834 -0.6941  0.6195  0.0198
 4752SOL    HW215870   3.155   3.635   8.948 -1.7423  1.8504 -0.0988
 4753SOL     OW15871   9.479   2.349   9.408  0.5086 -0.0878 -0.4909
 4753SOL    HW115872   9.542   2.280   9.426  0.2914 -0.5038 -1.2911
 4753SOL    HW215873   9.396   2.304   9.393  1.0688 -0.1303 -4.9395
 4754SOL     OW15874   1.337   3.569   4.204 -0.1640 -0.3170  0.2641
 4754SOL    HW115875   1.324   3.602   4.293 -0.2777  0.4379 -0.0300
 4754SOL    HW215876   1.386   3.638   4.159 -0.0829 -0.7053 -0.2551
 4755SOL     OW15877   6.223   7.727   6.705  0.3048  0.4464  0.2558
 4755SOL    HW115878   6.154   7.661   6.706  1.5064 -0.8498 -0.2352
 4755SOL    HW215879   6.219   7.767   6.792 -0.2199 -0.5103  0.6798
 4756SOL     OW15880   4.030   0.269   8.007 -0.0017 -0.1578 -0.1462
 4756SOL    HW115881   3.946   0.250   7.964 -0.3202 -0.6307  0.6628
 4756SOL    HW215882   4.046   0.362   7.990 -1.5642  0.3927  1.1701
 4757SOL     OW15883   4.607   5.447   6.936  0.1520  0.2039 -0.1093
 4757SOL    HW115884   4.586   5.523   6.881  1.2016  0.6973  0.1517
 4757SOL    HW215885   4.627   5.484   7.022 -1.9500 -0.5980  0.7965
 4758SOL     OW15886   9.652   2.062   5.690 -0.2724  0.0971  0.1872
 4758SOL    HW115887   9.583   2.103   5.743  0.9126  0.5860  1.4288
 4758SOL    HW215888   9.687   2.134   5.638  0.2895  0.1849  0.6765
 4759SOL     OW15889   9.418   0.392   6.779  0.1124 -0.2429 -0.3316
 4759SOL    HW115890   9.337   0.385   6.729  0.0490 -2.7232 -0.0125
 4759SOL    HW215891   9.486   0.405   6.713 -0.4435  1.0868 -0.6602
 4760SOL     OW15892   5.803   9.075   8.869  0.4227  0.2380 -0.4816
 4760SOL    HW115893   5.861   9.000   8.858  0.7552  0.4114  0.0384
 4760SOL    HW215894   5.727   9.039   8.916  1.9843  0.7886  2.8110
 4761SOL     OW15895   6.884   3.471   4.846  0.4313 -0.0385  0.1593
 4761SOL    HW115896   6.826   3.525   4.900 -0.7839 -1.9168  0.8215
 4761SOL    HW215897   6.898   3.523   4.767 -1.8877  0.6673  0.1252
 4762SOL     OW15898   6.571   5.694   9.630  0.0381  0.0869 -0.0467
 4762SOL    HW115899   6.491   5.734   9.663  0.5155  1.0542 -0.0471
 4762SOL    HW215900   6.558   5.600   9.644 -1.3783  0.1624 -0.6869
 4763SOL     OW15901   6.864   8.533   3.045  0.0826  0.1555 -0.1614
 4763SOL    HW115902   6.957   8.551   3.061 -0.0686  0.3256  0.5656
 4763SOL    HW215903   6.843   8.582   2.965  0.6950 -0.1484 -0.5172
 4764SOL     OW15904   9.708   1.529   1.680 -0.6122 -0.1943 -0.6983
 4764SOL    HW115905   9.781   1.544   1.619  0.6417  0.3625  0.8489
 4764SOL    HW215906   9.737   1.456   1.735 -0.5665  0.9218  0.8315
 4765SOL     OW15907   6.265   8.273   6.462 -0.9453 -0.0011  0.0779
 4765SOL    HW115908   6.243   8.332   6.535  0.4831  0.0648  0.4777
 4765SOL    HW215909   6.332   8.215   6.498 -1.5514 -1.1831 -0.6450
 4766SOL     OW15910   1.065   2.789   2.886 -0.2349 -0.0467  0.0018
 4766SOL    HW115911   1.083   2.717   2.826  0.7921 -0.5186  0.8363
 4766SOL    HW215912   1.151   2.830   2.901 -0.4943  0.1701  0.9800
 4767SOL     OW15913   4.777   5.618   2.132 -0.2333  0.2073  0.4153
 4767SOL    HW115914   4.687   5.629   2.162 -0.0757  0.9363  0.6216
 4767SOL    HW215915   4.782   5.672   2.053 -0.4194 -1.0693 -0.5075
 4768SOL     OW15916   6.938   5.186   8.446 -0.2767  0.3212  0.2969
 4768SOL    HW115917   6.871   5.217   8.385 -0.2067  0.8565  0.4876
 4768SOL    HW215918   7.018   5.232   8.420  0.1168 -0.6226 -0.1889
 4769SOL     OW15919   1.980   9.570   3.736 -0.2185  0.0907  0.1881
 4769SOL    HW115920   1.908   9.623   3.701 -0.8335  0.3727  1.7900
 4769SOL    HW215921   2.018   9.624   3.806 -1.5711 -1.9025  2.6267
 4770SOL     OW15922   1.464   2.831   3.933 -0.3914  0.2122  0.2789
 4770SOL    HW115923   1.429   2.814   3.845  0.3457  0.5911 -0.0870
 4770SOL    HW215924   1.530   2.898   3.921  1.6655 -1.6179  0.7035
 4771SOL     OW15925   0.507   0.936   0.381  0.9196  0.2189  0.2773
 4771SOL    HW115926   0.582   0.971   0.430  1.5590 -0.3892 -0.2353
 4771SOL    HW215927   0.437   0.931   0.445  0.9647  1.8797  0.5074
 4772SOL     OW15928   6.626   0.323   9.539 -0.5491 -0.2572  0.4773
 4772SOL    HW115929   6.693   0.300   9.475  0.1239 -0.6515  1.2979
 4772SOL    HW215930   6.557   0.365   9.488  0.9781  1.5584 -0.2024
 4773SOL     OW15931   8.668   5.704   8.176  0.3329 -0.2705 -0.8665
 4773SOL    HW115932   8.660   5.778   8.116  1.4626  0.9327  0.3597
 4773SOL    HW215933   8.579   5.671   8.187 -0.8104  3.0052  1.0188
 4774SOL     OW15934   1.895   8.136   8.456  0.2537  0.1981 -0.0627
 4774SOL    HW115935   1.854   8.186   8.385  0.5927  0.8777  0.2111
 4774SOL    HW215936   1.947   8.201   8.504  1.8279 -0.6758 -0.5203
 4775SOL     OW15937   4.198   8.539   4.655  0.2715 -0.0362  0.5596
 4775SOL    HW115938   4.257   8.468   4.632  0.8561  0.0851  1.6188
 4775SOL    HW215939   4.120   8.525   4.601  0.2790 -1.6191  0.9281
 4776SOL     OW15940   6.756   8.624   1.711  0.0756 -0.6600 -0.3118
 4776SOL    HW115941   6.831   8.644   1.768 -0.9173  2.3536  0.1532
 4776SOL    HW215942   6.793   8.623   1.623  0.8616 -0.2790 -0.0037
 4777SOL     OW15943   2.003   8.953   7.578  0.5699  0.0021  0.2748
 4777SOL    HW115944   2.090   8.940   7.616  0.9984  1.7471 -0.0572
 4777SOL    HW215945   1.989   8.876   7.523  1.4364 -0.8121  1.1511
 4778SOL     OW15946   0.068   8.281   3.385  0.1785  0.0786 -0.0406
 4778SOL    HW115947   0.100   8.366   3.418  3.2882 -1.0524  0.2211
 4778SOL    HW215948   0.020   8.243   3.458  0.3827  0.8390  0.5082
 4779SOL     OW15949   6.379   0.933   2.196  0.7089 -0.2941 -0.2029
 4779SOL    HW115950   6.323   0.940   2.274 -0.0006 -0.3006 -0.7054
 4779SOL    HW215951   6.453   0.991   2.215 -1.0638  2.3685 -0.8715
 4780SOL     OW15952   2.531   8.447   1.659 -0.1972  0.1540  0.5711
 4780SOL    HW115953   2.436   8.434   1.649 -0.1113 -0.3897  0.4306
 4780SOL    HW215954   2.549   8.530   1.616 -0.5861  0.1784  0.4531
 4781SOL     OW15955   1.269   2.476   5.497 -0.6067  0.2212 -0.1586
 4781SOL    HW115956   1.310   2.460   5.582 -0.0862  1.3448 -0.1734
 4781SOL    HW215957   1.196   2.414   5.493 -2.9511  2.5198  2.7100
 4782SOL     OW15958   6.722   8.958   8.077 -0.9812  0.4203 -0.2910
 4782SOL    HW115959   6.683   8.872   8.062  1.0989 -0.8012  0.7300
 4782SOL    HW215960   6.719   9.001   7.992 -2.5020 -0.4448 -0.7231
 4783SOL     OW15961   8.424   6.858   4.353 -0.0700  0.2768 -0.0103
 4783SOL    HW115962   8.336   6.859   4.391 -0.3224 -0.1731 -0.5654
 4783SOL    HW215963   8.472   6.795   4.405 -0.4927 -0.5407 -0.5840
 4784SOL     OW15964   7.457   7.344   4.156 -0.3059  0.6907 -0.7459
 4784SOL    HW115965   7.471   7.249   4.153 -0.4733  0.5897  0.7667
 4784SOL    HW215966   7.372   7.357   4.115 -0.0566  0.2427 -1.4156
 4785SOL     OW15967   4.692   7.920   4.311  0.4589  0.3181  0.3148
 4785SOL    HW115968   4.768   7.951   4.360 -0.9629  5.3515 -0.0538
 4785SOL    HW215969   4.623   7.911   4.376  0.4653 -0.8200  0.1854
 4786SOL     OW15970   7.980   8.694   8.725  0.3218  0.3393 -0.5671
 4786SOL    HW115971   8.016   8.686   8.637 -0.9528  0.8638 -1.1648
 4786SOL    HW215972   7.982   8.788   8.743 -0.9186  0.4111 -0.7114
 4787SOL     OW15973   3.775   4.232   4.499  0.3814 -0.8867  0.0608
 4787SOL    HW115974   3.698   4.177   4.489  1.1472 -2.5794  2.5366
 4787SOL    HW215975   3.832   4.184   4.559  2.4472  1.2714  0.0078
 4788SOL     OW15976   7.568   4.540   5.277  0.2625  0.5232  0.4477
 4788SOL    HW115977   7.548   4.546   5.183 -0.3537  0.1296  0.5482
 4788SOL    HW215978   7.660   4.563   5.283  0.1711  1.1045 -0.1923
 4789SOL     OW15979   4.229   2.371   8.001  0.3282  0.1793  0.2596
 4789SOL    HW115980   4.162   2.314   8.040  1.0251 -0.0997  1.0952
 4789SOL    HW215981   4.263   2.321   7.927  0.5260 -0.2603  0.6373
 4790SOL     OW15982   5.046   9.729   2.833 -0.2366  0.3214  0.5814
 4790SOL    HW115983   5.002   9.746   2.749  0.5749 -0.7987 -0.1008
 4790SOL    HW215984   5.064   9.816   2.868 -0.9322  0.8075 -0.2262
 4791SOL     OW15985   8.897   4.652   2.718  0.4815  0.3066  0.3460
 4791SOL    HW115986   8.960   4.721   2.696  1.6593 -1.3861 -1.9700
 4791SOL    HW215987   8.817   4.678   2.672  1.2262 -0.3012 -1.3823
 4792SOL     OW15988   2.702   2.788   2.310  0.5721 -0.4353  0.2685
 4792SOL    HW115989   2.734   2.703   2.281 -0.8540 -0.5350 -1.1281
 4792SOL    HW215990   2.745   2.851   2.252 -0.3859 -0.4320 -0.4536
 4793SOL     OW15991   8.787   4.301   9.232  0.0559 -0.0056  0.6001
 4793SOL    HW115992   8.692   4.310   9.238 -0.3184 -0.9327 -2.1492
 4793SOL    HW215993   8.807   4.221   9.280 -0.7627 -0.4826  0.1664
 4794SOL     OW15994   9.544   6.938   3.094 -0.2074 -0.1342 -0.4105
 4794SOL    HW115995   9.603   6.998   3.049  0.3063 -0.9736 -0.8897
 4794SOL    HW215996   9.573   6.851   3.066 -1.6516 -0.5695 -0.6522
 4795SOL     OW15997   9.183   2.752   2.505  0.3185  0.1548  0.0023
 4795SOL    HW115998   9.266   2.782   2.468 -0.4088  2.8157  0.2651
 4795SOL    HW215999   9.128   2.733   2.429  0.7373 -0.3423 -0.1841
 4796SOL     OW16000   4.579   2.148   6.789 -0.2241 -0.3120 -0.0997
 4796SOL    HW116001   4.594   2.210   6.860 -1.6895 -0.1571  0.1179
 4796SOL    HW216002   4.538   2.073   6.832 -4.9887  1.3294 -1.1098
 4797SOL     OW16003   2.813   4.040   6.251  0.0987  0.3480 -0.1141
 4797SOL    HW116004   2.845   3.951   6.234  0.3126  0.5498 -0.8381
 4797SOL    HW216005   2.875   4.096   6.203 -0.4865  0.8337 -0.3102
 4798SOL     OW16006   6.589   0.831   4.827 -0.0316 -0.1972  0.3919
 4798SOL    HW116007   6.628   0.865   4.907  1.2830 -0.6972 -0.0035
 4798SOL    HW216008   6.518   0.774   4.857  1.6175 -1.8834  1.3393
 4799SOL     OW16009   6.088   6.810   6.413  0.0913 -0.2280 -0.1758
 4799SOL    HW116010   6.175   6.790   6.377  0.9419 -0.0064  1.6190
 4799SOL    HW216011   6.097   6.898   6.449 -1.1483  0.1273 -0.6837
 4800SOL     OW16012   3.634   8.306   5.252  0.0104 -0.0608  0.0081
 4800SOL    HW116013   3.568   8.239   5.271 -0.4830  1.0310  2.5738
 4800SOL    HW216014   3.718   8.263   5.270 -0.0933 -0.7834 -1.1050
 4801SOL     OW16015   3.515   4.448   6.354 -0.4056 -0.1387 -0.5187
 4801SOL    HW116016   3.457   4.390   6.404 -2.7036  0.9378 -1.7724
 4801SOL    HW216017   3.479   4.535   6.369  1.1085  0.6201 -1.1344
 4802SOL     OW16018   0.701   9.031   4.966  0.1082  0.1134 -0.2601
 4802SOL    HW116019   0.696   8.972   5.041  2.1100  1.6585  1.2185
 4802SOL    HW216020   0.770   8.994   4.911 -0.8373 -0.6113 -0.9753
 4803SOL     OW16021   5.122   0.866   0.091 -0.3383 -0.1993 -0.4823
 4803SOL    HW116022   5.183   0.833   0.157 -2.1823  0.8084  1.9028
 4803SOL    HW216023   5.039   0.821   0.110 -1.3098  1.2323 -1.0844
 4804SOL     OW16024   2.558   7.761   4.494 -0.1679  0.8406  0.7083
 4804SOL    HW116025   2.569   7.666   4.492  0.5008  0.8616  2.0049
 4804SOL    HW216026   2.647   7.795   4.484 -0.3347  1.3067  0.8009
 4805SOL     OW16027   2.918   5.757   2.737 -0.3612  0.1128 -0.0844
 4805SOL    HW116028   2.867   5.805   2.802 -0.0281  0.9504 -0.4220
 4805SOL    HW216029   2.853   5.709   2.686 -0.5733 -1.1735  1.3248
 4806SOL     OW16030   9.711   7.868   5.781 -0.0477  0.3928  0.3074
 4806SOL    HW116031   9.670   7.866   5.868  0.3736 -0.2502  0.4946
 4806SOL    HW216032   9.705   7.960   5.755 -0.1163  0.6110  1.0489
 4807SOL     OW16033   4.506   5.067   1.130 -0.2366  0.0160 -0.2042
 4807SOL    HW116034   4.430   5.125   1.134 -1.1267 -1.0477 -1.1547
 4807SOL    HW216035   4.484   4.994   1.188  0.3476 -0.0012  0.0114
 4808SOL     OW16036   8.734   7.358   0.631 -0.2874 -0.0867  0.2223
 4808SOL    HW116037   8.804   7.327   0.688 -1.3422 -1.3119  0.8895
 4808SOL    HW216038   8.773   7.356   0.543 -0.1036 -2.8417  0.2915
 4809SOL     OW16039   2.560   8.028   4.094  0.0740  0.3381  0.1268
 4809SOL    HW116040   2.618   7.993   4.027 -0.3824 -0.4611  0.1344
 4809SOL    HW216041   2.522   8.106   4.054  1.9942  1.5553  0.5405
 4810SOL     OW16042   5.856   2.188   5.794  0.0877  0.1498  0.2212
 4810SOL    HW116043   5.856   2.283   5.807 -1.9300  0.2487 -0.0897
 4810SOL    HW216044   5.797   2.175   5.720 -0.3000 -1.4048  0.7740
 4811SOL     OW16045   0.598   4.072   1.760  0.3033  0.5187  0.2591
 4811SOL    HW116046   0.682   4.100   1.724  0.4793 -0.0937  0.1844
 4811SOL    HW216047   0.578   3.990   1.715  0.6976 -0.4466  1.7853
 4812SOL     OW16048   7.269   9.226   4.952 -0.1165 -0.2135  0.8889
 4812SOL    HW116049   7.348   9.276   4.970  0.9801 -0.6264 -2.2186
 4812SOL    HW216050   7.298   9.155   4.894 -2.8079 -0.0855 -0.7638
 4813SOL     OW16051   3.894   8.900   0.347 -0.0763  0.1133 -0.4117
 4813SOL    HW116052   3.892   8.949   0.429 -2.1315 -0.9920  0.2804
 4813SOL    HW216053   3.982   8.862   0.344 -0.5477 -1.4605  2.3581
 4814SOL     OW16054   2.029   3.925   8.785 -0.3144  0.3103  0.2733
 4814SOL    HW116055   1.998   3.837   8.805 -1.9790  0.9839  0.8950
 4814SOL    HW216056   2.110   3.912   8.737 -0.2994 -1.5446  0.7228
 4815SOL     OW16057   8.683   3.061   5.619 -0.4466  0.3976  0.2892
 4815SOL    HW116058   8.660   3.098   5.534 -0.3637 -0.3705 -0.0810
 4815SOL    HW216059   8.778   3.075   5.626  0.0381 -1.7840 -0.9239
 4816SOL     OW16060   7.423   6.840   5.382  0.3131 -0.0634  0.1971
 4816SOL    HW116061   7.397   6.775   5.316 -0.7757 -0.0824  0.6337
 4816SOL    HW216062   7.362   6.912   5.370  0.9895  0.5334  0.2750
 4817SOL     OW16063   1.544   8.750   8.904  0.0881 -0.0355  0.0415
 4817SOL    HW116064   1.602   8.822   8.883 -0.3759  1.4088  3.1338
 4817SOL    HW216065   1.576   8.717   8.989 -2.3404 -0.5186  0.8531
 4818SOL     OW16066   8.280   8.323   0.773 -0.2201  0.5252 -0.6318
 4818SOL    HW116067   8.227   8.375   0.834 -2.1983 -0.7680 -1.1543
 4818SOL    HW216068   8.312   8.387   0.709 -1.1299  1.3800 -0.2717
 4819SOL     OW16069   6.117   9.641   6.338  0.1506 -0.0273  0.2849
 4819SOL    HW116070   6.126   9.551   6.368 -2.3257 -0.5027 -0.1870
 4819SOL    HW216071   6.060   9.683   6.403 -0.0088  0.7428 -0.3361
 4820SOL     OW16072   0.542   0.069   2.693  0.2604 -0.6801 -0.0774
 4820SOL    HW116073   0.603   0.001   2.666  1.9475  1.0703 -0.9119
 4820SOL    HW216074   0.587   0.116   2.763 -0.8084 -0.3216  0.3987
 4821SOL     OW16075   0.809   2.160   9.784 -0.0595  0.0434  0.0783
 4821SOL    HW116076   0.754   2.234   9.809 -1.1389 -0.9124  0.6503
 4821SOL    HW216077   0.774   2.086   9.835 -0.7375 -1.4544 -2.3979
 4822SOL     OW16078   4.087   0.098   6.070 -0.0249 -0.8112  0.0152
 4822SOL    HW116079   4.103   0.180   6.023 -0.0639 -0.2535  0.9591
 4822SOL    HW216080   4.052   0.039   6.003  1.4879 -0.5760 -1.0302
 4823SOL     OW16081   0.035   4.679   7.974  0.0981  0.1775  0.1943
 4823SOL    HW116082   0.019   4.589   8.001  1.4113  0.2130  1.2177
 4823SOL    HW216083  -0.010   4.732   8.040 -0.7066  0.2870 -0.4275
 4824SOL     OW16084   2.175   8.487   4.889 -0.3004 -0.1956  0.5021
 4824SOL    HW116085   2.203   8.477   4.797 -0.9975 -1.0786  0.3705
 4824SOL    HW216086   2.098   8.432   4.896 -0.2605 -0.1216  1.6327
 4825SOL     OW16087   4.731   1.305   0.588 -0.1073  0.5588 -0.2435
 4825SOL    HW116088   4.649   1.262   0.612 -1.4732  3.0649 -0.0622
 4825SOL    HW216089   4.770   1.330   0.672  1.3553 -1.3642 -0.2839
 4826SOL     OW16090   5.285   0.844   2.097  0.3695 -0.0387  0.4203
 4826SOL    HW116091   5.364   0.897   2.112 -0.0420  0.6830  0.1080
 4826SOL    HW216092   5.230   0.861   2.173  1.6396 -2.7523  2.0892
 4827SOL     OW16093   1.186   5.131   9.106  0.5923  0.6358 -0.4840
 4827SOL    HW116094   1.246   5.100   9.038  2.6214  0.1009  1.4198
 4827SOL    HW216095   1.238   5.194   9.156 -0.9568  1.2895  0.3610
 4828SOL     OW16096   6.423   5.401   3.985  0.6548 -0.1138  0.6710
 4828SOL    HW116097   6.362   5.353   3.929  1.4584  2.1282 -2.4170
 4828SOL    HW216098   6.387   5.490   3.989  2.1395  0.5033  1.2614
 4829SOL     OW16099   7.023   8.647   5.169  0.4153  0.0091  0.1373
 4829SOL    HW116100   6.942   8.675   5.128  0.1232  0.1248  0.7866
 4829SOL    HW216101   7.027   8.552   5.154 -0.0328 -0.0567  0.4560
 4830SOL     OW16102   4.154   3.557   6.529  0.2377 -0.1765  0.3288
 4830SOL    HW116103   4.242   3.593   6.541 -0.1613  1.2199 -0.6453
 4830SOL    HW216104   4.103   3.595   6.600  0.2323 -0.3266  0.4057
 4831SOL     OW16105   5.423   5.735   0.239  0.4345  0.3093 -0.1834
 4831SOL    HW116106   5.494   5.676   0.263  2.7674  2.5559 -1.0415
 4831SOL    HW216107   5.349   5.707   0.292  1.4968 -3.0293 -0.2503
 4832SOL     OW16108   2.776   3.020   4.874 -0.2841 -0.7360  0.3040
 4832SOL    HW116109   2.811   2.932   4.860 -0.4042 -1.0154  1.6954
 4832SOL    HW216110   2.684   3.007   4.897 -0.9181 -0.0989 -1.6544
 4833SOL     OW16111   9.757   0.322   5.121  0.2708 -0.5380 -0.0569
 4833SOL    HW116112   9.727   0.242   5.165 -0.9551 -0.4363 -0.6834
 4833SOL    HW216113   9.682   0.380   5.121  0.8199  0.1955 -0.6168
 4834SOL     OW16114   9.667   9.528   9.660  0.4885  0.0792  0.2893
 4834SOL    HW116115   9.638   9.438   9.673  0.1530  0.0353 -0.7131
 4834SOL    HW216116   9.687   9.559   9.749  2.6887 -1.6568  0.5056
 4835SOL     OW16117   2.471   1.263   6.266  0.3844 -0.7637  0.3414
 4835SOL    HW116118   2.403   1.206   6.300  0.7748 -1.4209  0.0333
 4835SOL    HW216119   2.424   1.330   6.217 -0.1271 -0.3480  1.3616
 4836SOL     OW16120   8.152   6.129   7.084 -0.4347  0.3712  0.5674
 4836SOL    HW116121   8.129   6.064   7.018  0.5937 -1.7440  2.1520
 4836SOL    HW216122   8.070   6.174   7.103 -0.7078  1.2674 -2.2591
 4837SOL     OW16123   8.868   3.467   2.517 -0.1047  0.0312  0.0857
 4837SOL    HW116124   8.832   3.544   2.561  0.8808  0.6060 -0.0690
 4837SOL    HW216125   8.867   3.490   2.424  1.4616  0.4369  0.1451
 4838SOL     OW16126   1.677   0.764   3.165 -0.7874 -0.3914  0.7669
 4838SOL    HW116127   1.758   0.713   3.162 -0.5239  0.0452  0.2714
 4838SOL    HW216128   1.694   0.833   3.228 -0.6718 -0.1373  0.4613
 4839SOL     OW16129   7.154   4.447   9.609  0.6443  0.2031  0.0833
 4839SOL    HW116130   7.069   4.490   9.619  0.8247  0.1456  2.2959
 4839SOL    HW216131   7.135   4.368   9.557 -0.6433  0.1990  0.5380
 4840SOL     OW16132   4.708   2.465   6.723 -0.1648 -0.4375  0.7858
 4840SOL    HW116133   4.623   2.478   6.764  0.2204  0.7061  1.2406
 4840SOL    HW216134   4.769   2.455   6.795  0.1905 -0.6112  0.4666
 4841SOL     OW16135   6.725   1.090   2.078  0.2715  1.0230 -0.3086
 4841SOL    HW116136   6.690   1.150   2.012  4.2524  2.7309 -1.1118
 4841SOL    HW216137   6.746   1.010   2.030 -0.5954  0.6961 -0.1814
 4842SOL     OW16138   8.050   6.663   6.240 -0.4507 -0.5535 -0.0212
 4842SOL    HW116139   8.028   6.665   6.147 -0.5920  0.1008  0.0238
 4842SOL    HW216140   8.145   6.654   6.242 -0.3634  0.2300 -0.2386
 4843SOL     OW16141   1.339   2.029   0.481 -0.3795  0.1114  0.2723
 4843SOL    HW116142   1.399   2.098   0.509  0.5382 -0.5223 -0.0862
 4843SOL    HW216143   1.343   1.963   0.551 -0.4610 -0.0516  0.1260
 4844SOL     OW16144   7.304   6.501   1.643  0.0507 -0.0339  0.0431
 4844SOL    HW116145   7.308   6.579   1.698 -0.3832  1.2833 -1.6946
 4844SOL    HW216146   7.213   6.497   1.614  0.0956 -1.1412  0.0164
 4845SOL     OW16147   2.306   2.846   4.836 -0.2366 -0.3476 -0.5007
 4845SOL    HW116148   2.374   2.789   4.799 -0.7267 -2.2337  1.3340
 4845SOL    HW216149   2.230   2.830   4.780 -0.6276 -2.2805  0.4672
 4846SOL     OW16150   5.342   1.914   7.163  0.1142 -0.7188  0.0318
 4846SOL    HW116151   5.263   1.965   7.180  0.4959 -0.2959  0.6007
 4846SOL    HW216152   5.408   1.954   7.220  0.3392 -2.0523  0.7606
 4847SOL     OW16153   4.488   8.691   5.688  0.3727 -0.0314 -0.0474
 4847SOL    HW116154   4.480   8.678   5.593 -1.7522  1.5443 -0.1470
 4847SOL    HW216155   4.398   8.689   5.720  1.1176 -1.6241  2.1510
 4848SOL     OW16156   5.288   2.989   6.929  0.4433 -0.0175 -0.0313
 4848SOL    HW116157   5.200   2.974   6.963  0.9269 -1.3306  0.7378
 4848SOL    HW216158   5.305   2.914   6.872 -0.1423  1.8677 -2.8499
 4849SOL     OW16159   4.918   6.487   3.355  0.4180 -0.2398 -0.0050
 4849SOL    HW116160   4.865   6.534   3.291 -0.6690 -1.1721  0.1781
 4849SOL    HW216161   4.857   6.425   3.395  1.2258 -0.1300  1.4660
 4850SOL     OW16162   2.635   5.327   7.326 -0.5008 -0.6424 -0.4940
 4850SOL    HW116163   2.712   5.283   7.290 -1.3649 -1.6844 -1.1224
 4850SOL    HW216164   2.637   5.308   7.419  0.7767  0.5714 -0.2265
 4851SOL     OW16165   4.667   5.002   3.392 -0.2584  0.6210  0.5407
 4851SOL    HW116166   4.623   4.929   3.348  2.7872 -1.5133  0.6741
 4851SOL    HW216167   4.710   5.050   3.321  0.0934  0.5272  0.6868
 4852SOL     OW16168   7.555   8.672   2.704  0.0419  0.2475  0.4863
 4852SOL    HW116169   7.562   8.588   2.658  0.8117 -0.0575  1.1352
 4852SOL    HW216170   7.540   8.736   2.634  0.6932 -0.2668 -0.1453
 4853SOL     OW16171   1.024   5.794   1.071  0.0392 -0.6083  0.2694
 4853SOL    HW116172   0.937   5.832   1.081 -0.1395 -0.7633 -0.5946
 4853SOL    HW216173   1.078   5.866   1.037  0.4232 -0.3243  1.4354
 4854SOL     OW16174   1.461   8.478   0.634  0.2390  0.3975  0.0926
 4854SOL    HW116175   1.505   8.454   0.553 -1.7691  0.9274 -1.2283
 4854SOL    HW216176   1.368   8.469   0.614 -0.3117 -0.0040  2.5336
 4855SOL     OW16177   4.337   3.495   3.616 -0.1172  0.1063  0.4958
 4855SOL    HW116178   4.430   3.515   3.620 -0.2269  0.8639 -0.4245
 4855SOL    HW216179   4.293   3.575   3.645 -0.5048  0.2647 -0.4887
 4856SOL     OW16180   5.085   2.543   6.215 -0.1924  0.6565 -0.3797
 4856SOL    HW116181   5.027   2.596   6.271  1.0315  0.3396  1.2772
 4856SOL    HW216182   5.097   2.596   6.136 -0.2072  2.1800  0.5963
 4857SOL     OW16183   1.343   9.470   1.554  0.0402 -0.2111  0.1500
 4857SOL    HW116184   1.348   9.374   1.555  0.4750 -0.1933 -0.2438
 4857SOL    HW216185   1.261   9.489   1.510  0.0759 -0.4024 -0.0034
 4858SOL     OW16186   5.521   3.715   5.133 -0.3338 -0.4410 -0.2073
 4858SOL    HW116187   5.515   3.808   5.109 -0.7439 -0.4684 -0.2112
 4858SOL    HW216188   5.560   3.716   5.221 -2.0524 -0.1605  0.5891
 4859SOL     OW16189   6.188   4.695   9.326 -0.0214  0.1284 -0.1067
 4859SOL    HW116190   6.178   4.782   9.365 -0.2152 -0.2312  0.6526
 4859SOL    HW216191   6.269   4.660   9.364  0.2879  0.1368 -0.7356
 4860SOL     OW16192   9.035   3.439   4.065  0.2530 -0.0810 -0.4971
 4860SOL    HW116193   9.005   3.529   4.051 -0.2169  0.0617  1.2809
 4860SOL    HW216194   9.053   3.433   4.158  0.7769 -1.7000 -0.6639
 4861SOL     OW16195   7.461   4.715   7.851 -0.0902 -0.1436  0.4830
 4861SOL    HW116196   7.434   4.711   7.943  0.7508 -2.3938  0.6994
 4861SOL    HW216197   7.545   4.762   7.854 -0.0141 -0.2953  0.8949
 4862SOL     OW16198   4.533   2.211   1.406 -0.3921 -0.0559  0.1285
 4862SOL    HW116199   4.496   2.145   1.464 -0.7661  0.6506  0.7078
 4862SOL    HW216200   4.550   2.286   1.463  0.7042  0.0982 -0.3825
 4863SOL     OW16201   0.299   7.862   5.799 -0.5064 -0.3830  0.1954
 4863SOL    HW116202   0.298   7.899   5.887  1.5190 -0.3220  0.2318
 4863SOL    HW216203   0.324   7.934   5.742 -0.5824 -0.7167 -0.2713
 4864SOL     OW16204   7.854   8.506   0.610  0.6877 -0.2945 -0.2919
 4864SOL    HW116205   7.860   8.544   0.697  0.1244 -0.3975 -0.2000
 4864SOL    HW216206   7.769   8.461   0.610 -0.1868  1.2705 -1.5047
 4865SOL     OW16207   4.232   4.327   7.597 -0.3814 -0.2537 -0.5922
 4865SOL    HW116208   4.249   4.277   7.677 -1.2803  0.0292 -0.2227
 4865SOL    HW216209   4.146   4.297   7.568 -1.0396  1.2374 -0.2415
 4866SOL     OW16210   8.335   3.397   7.615  0.0613  0.3155  0.2036
 4866SOL    HW116211   8.352   3.436   7.701  3.8877 -0.2637 -0.1266
 4866SOL    HW216212   8.266   3.333   7.631 -0.6135  1.5022  2.4248
 4867SOL     OW16213   4.650   1.947   7.491 -0.1305 -0.6947 -0.3229
 4867SOL    HW116214   4.742   1.961   7.468 -0.2440  0.5080 -0.1310
 4867SOL    HW216215   4.632   2.011   7.560 -0.9346 -1.3760  0.1245
 4868SOL     OW16216   6.933   8.205   3.463 -0.6943  0.0401  0.3609
 4868SOL    HW116217   6.863   8.265   3.439 -0.7205 -0.3962 -0.7019
 4868SOL    HW216218   6.890   8.139   3.517 -0.6959  0.8745  1.4018
 4869SOL     OW16219   4.203   9.832   4.672  0.1875  0.1002 -0.1264
 4869SOL    HW116220   4.123   9.788   4.643  0.3284 -0.6664  0.6287
 4869SOL    HW216221   4.224   9.791   4.756  1.4100  0.2477 -0.3467
 4870SOL     OW16222   7.880   2.918   8.402 -0.3260 -0.0878 -0.4423
 4870SOL    HW116223   7.848   2.963   8.480 -1.1468 -1.7756  0.2554
 4870SOL    HW216224   7.964   2.959   8.383 -0.9596  1.5796  0.2342
 4871SOL     OW16225   0.348   8.402   5.642  0.2114  0.5314 -0.0285
 4871SOL    HW116226   0.303   8.420   5.559  0.0612  2.5394  0.4491
 4871SOL    HW216227   0.429   8.453   5.637  0.9361 -0.5310  0.4558
 4872SOL     OW16228   5.195   0.202   0.162 -0.1702  0.1616 -0.1048
 4872SOL    HW116229   5.265   0.266   0.163  0.2342 -0.2548 -0.9734
 4872SOL    HW216230   5.239   0.118   0.150 -0.4024 -0.6935  3.7293
 4873SOL     OW16231   9.808   7.125   4.900 -0.2636  0.0072  0.3984
 4873SOL    HW116232   9.759   7.051   4.865 -0.0429  0.3649 -0.7058
 4873SOL    HW216233   9.898   7.092   4.909 -0.0353  0.3054 -0.6730
 4874SOL     OW16234   9.183   1.732   1.094 -0.1189  0.3777 -0.3444
 4874SOL    HW116235   9.130   1.793   1.042  0.1002 -0.8808 -2.0866
 4874SOL    HW216236   9.259   1.784   1.121 -0.4236  1.1515 -0.9279
 4875SOL     OW16237   2.803   7.603   6.585  0.0823 -0.1281 -0.1672
 4875SOL    HW116238   2.877   7.664   6.586  0.3573 -0.4622  0.0800
 4875SOL    HW216239   2.743   7.636   6.651  1.7602 -1.9717  2.4779
 4876SOL     OW16240   3.552   8.173   6.183 -0.0052 -0.0891  0.0308
 4876SOL    HW116241   3.571   8.079   6.182 -0.7397 -0.2653  1.0168
 4876SOL    HW216242   3.527   8.191   6.274  0.4460  1.1315 -0.0718
 4877SOL     OW16243   4.549   4.634   4.888  0.5871  0.2398 -0.4985
 4877SOL    HW116244   4.582   4.603   4.804 -0.1001 -2.6607  0.1843
 4877SOL    HW216245   4.460   4.664   4.870 -0.2840 -2.1899 -0.5669
 4878SOL     OW16246   3.517   6.515   0.872  0.2884 -0.8312  0.0141
 4878SOL    HW116247   3.581   6.581   0.899  0.9416 -1.2614 -0.4327
 4878SOL    HW216248   3.571   6.441   0.843 -0.3958 -0.6753 -1.7135
 4879SOL     OW16249   0.584   0.924   6.909  0.4779 -0.6186  0.5974
 4879SOL    HW116250   0.598   0.832   6.888 -0.0313 -0.4666 -0.5189
 4879SOL    HW216251   0.491   0.929   6.932 -0.5523  0.1510 -2.9832
 4880SOL     OW16252   3.572   2.186   4.923  0.4336 -0.0446  0.3431
 4880SOL    HW116253   3.525   2.191   4.840  1.0381  1.0446  0.0556
 4880SOL    HW216254   3.546   2.101   4.960  0.9218 -1.0087 -1.4189
 4881SOL     OW16255   1.952   1.976   8.834  0.0756  0.1918 -0.2388
 4881SOL    HW116256   1.916   1.887   8.834 -0.4670  0.4041  0.2590
 4881SOL    HW216257   1.911   2.019   8.909  0.3633  0.8560 -0.4481
 4882SOL     OW16258   4.968   0.391   6.880  0.3580 -0.5505  0.2575
 4882SOL    HW116259   4.916   0.387   6.799  0.1099 -0.8354  0.4331
 4882SOL    HW216260   4.904   0.412   6.948  0.6749  0.4142  0.2773
 4883SOL     OW16261   7.594   7.371   8.944  0.1465 -0.1195 -0.2330
 4883SOL    HW116262   7.513   7.407   8.980  0.7608 -0.5612  1.7311
 4883SOL    HW216263   7.664   7.410   8.997  1.2051 -0.1671 -1.5255
 4884SOL     OW16264   0.094   1.558   2.093  0.0403 -0.4926  0.6435
 4884SOL    HW116265   0.132   1.478   2.057  2.5195  0.9116 -0.0886
 4884SOL    HW216266   0.067   1.609   2.016 -0.2502 -0.0430  1.0342
 4885SOL     OW16267   8.843   1.113   1.921  0.5266  0.3460 -0.1062
 4885SOL    HW116268   8.807   1.025   1.911  0.2259  0.5451 -0.8698
 4885SOL    HW216269   8.768   1.171   1.907  1.2771  0.8114 -2.8111
 4886SOL     OW16270   9.284   7.195   1.286 -0.6113 -0.2407 -0.6702
 4886SOL    HW116271   9.210   7.230   1.335 -1.3851  0.8174 -2.4667
 4886SOL    HW216272   9.362   7.226   1.332 -1.2983  0.7158 -0.1279
 4887SOL     OW16273   4.411   1.833   7.412  0.2389 -0.2347 -0.2665
 4887SOL    HW116274   4.505   1.851   7.413  0.0796  0.7580  1.2994
 4887SOL    HW216275   4.375   1.893   7.478 -1.5390 -0.3563 -1.0696
 4888SOL     OW16276   0.455   3.889   7.257 -0.1778  0.0982 -0.7320
 4888SOL    HW116277   0.438   3.954   7.188 -0.1139  0.9078 -0.0068
 4888SOL    HW216278   0.390   3.909   7.325  0.6715  0.2397  0.0641
 4889SOL     OW16279   5.546   9.605   5.454 -0.2873 -0.6342 -0.1750
 4889SOL    HW116280   5.562   9.683   5.508  1.9742 -1.6394  0.7489
 4889SOL    HW216281   5.488   9.635   5.384  1.0471  2.0648 -0.2508
 4890SOL     OW16282   9.002   9.523   8.706  0.1888  0.6182  0.2028
 4890SOL    HW116283   8.959   9.523   8.792 -0.9958  1.4528 -0.3736
 4890SOL    HW216284   9.042   9.436   8.700  1.6494  1.0539  2.2373
 4891SOL     OW16285   0.841   6.261   4.065  0.2939 -0.1947  0.1386
 4891SOL    HW116286   0.845   6.329   4.132  1.0422 -1.8820  1.8845
 4891SOL    HW216287   0.927   6.262   4.024 -0.2969  1.1252 -1.1864
 4892SOL     OW16288   7.200   0.975   8.053 -0.1594  0.1537  0.0283
 4892SOL    HW116289   7.228   1.046   7.995 -1.1302  0.1756 -0.4360
 4892SOL    HW216290   7.256   0.983   8.130  0.8332  0.4250 -0.6981
 4893SOL     OW16291   2.609   8.662   1.523  0.2223  0.6561  0.1134
 4893SOL    HW116292   2.572   8.635   1.439  1.6905 -1.5810  0.1294
 4893SOL    HW216293   2.670   8.733   1.501  0.0101  0.6279 -0.5833
 4894SOL     OW16294   5.868   1.622   0.642 -0.6012 -0.6592 -0.2737
 4894SOL    HW116295   5.879   1.681   0.567 -0.9397 -0.5186 -0.2133
 4894SOL    HW216296   5.829   1.543   0.604  0.3177 -1.0527 -0.4417
 4895SOL     OW16297   6.030   8.360   1.070 -0.0124  0.8532  0.0108
 4895SOL    HW116298   5.989   8.414   1.002  0.0673 -0.6083 -1.2702
 4895SOL    HW216299   6.122   8.358   1.046 -0.4081 -2.2895 -1.8950
 4896SOL     OW16300   7.023   1.810   8.289 -0.1136  0.0223 -0.3757
 4896SOL    HW116301   6.937   1.787   8.324 -0.6810 -0.3598 -1.9304
 4896SOL    HW216302   7.038   1.747   8.219  0.7233  1.0561 -1.1701
 4897SOL     OW16303   1.727   6.934   3.263  0.4165  0.1975 -0.2352
 4897SOL    HW116304   1.805   6.985   3.241  0.4227  0.3836  0.2142
 4897SOL    HW216305   1.705   6.888   3.181  1.7534 -0.8889 -0.0329
 4898SOL     OW16306   4.757   7.845   6.351  0.0977  0.1577  0.0197
 4898SOL    HW116307   4.727   7.821   6.263  0.8164  0.4242 -0.3088
 4898SOL    HW216308   4.744   7.940   6.356 -2.9472 -0.2409  1.3955
 4899SOL     OW16309   5.435   9.383   3.765 -0.5778 -0.0223 -0.5267
 4899SOL    HW116310   5.403   9.299   3.734 -1.8242 -0.0270  0.6792
 4899SOL    HW216311   5.364   9.445   3.745 -0.4590  0.3821  0.2646
 4900SOL     OW16312   1.841   1.074   7.984  0.0165 -0.0387  0.2423
 4900SOL    HW116313   1.894   0.995   7.983  0.3567  0.1782  0.7309
 4900SOL    HW216314   1.775   1.060   7.916  1.0062 -0.0919 -0.7351
 4901SOL     OW16315   4.400   0.924   6.970 -0.6796 -0.1964  0.2528
 4901SOL    HW116316   4.339   0.951   6.902 -0.5814  1.2188  0.7076
 4901SOL    HW216317   4.348   0.870   7.029 -1.2128  0.1081  0.0640
 4902SOL     OW16318   7.549   1.110   1.699  0.0019  0.1200  0.4604
 4902SOL    HW116319   7.573   1.161   1.622 -1.0908  2.2542  1.4405
 4902SOL    HW216320   7.630   1.104   1.750  0.3359  0.1366 -0.0648
 4903SOL     OW16321   0.841   6.925   2.173 -0.4050 -0.3069  0.3173
 4903SOL    HW116322   0.768   6.863   2.182 -0.4575 -0.1353  1.0980
 4903SOL    HW216323   0.911   6.887   2.226 -0.2486  0.0252  0.3469
 4904SOL     OW16324   7.231   0.685   0.523 -0.3486 -0.0409  0.4924
 4904SOL    HW116325   7.241   0.690   0.428 -1.1566 -1.1697  0.3317
 4904SOL    HW216326   7.213   0.775   0.549 -2.3268 -0.0341 -0.7091
 4905SOL     OW16327   4.529   5.017   2.942 -0.8874 -0.3243 -0.4024
 4905SOL    HW116328   4.613   4.982   2.971 -0.9725  0.2690  0.6280
 4905SOL    HW216329   4.478   4.940   2.917 -0.0841 -0.6981 -0.9552
 4906SOL     OW16330   3.719   4.904   5.939 -0.3812  0.1662  0.0399
 4906SOL    HW116331   3.814   4.905   5.930 -0.0376 -0.5554  2.6272
 4906SOL    HW216332   3.690   4.990   5.907  1.0304  0.1056 -1.4761
 4907SOL     OW16333   3.665   1.737   3.747 -0.5726  0.3491  0.1374
 4907SOL    HW116334   3.656   1.822   3.789 -0.1982  0.1042  0.7276
 4907SOL    HW216335   3.647   1.753   3.654 -2.3973  0.7305  0.5192
 4908SOL     OW16336   2.467   1.563   2.912  0.4395 -0.4501 -0.3002
 4908SOL    HW116337   2.489   1.479   2.951 -0.7669 -0.0181  1.4026
 4908SOL    HW216338   2.512   1.563   2.827  1.0920 -2.4603  0.0107
 4909SOL     OW16339   7.616   0.435   5.148  0.0676  0.0822 -0.5762
 4909SOL    HW116340   7.542   0.487   5.114 -0.8183 -1.2898 -0.8257
 4909SOL    HW216341   7.692   0.469   5.102 -0.8473 -0.4894 -2.6434
 4910SOL     OW16342   8.377   4.162   1.827  0.0016  0.3170 -0.1833
 4910SOL    HW116343   8.360   4.207   1.910  0.3849  1.5885 -0.7559
 4910SOL    HW216344   8.348   4.225   1.760 -0.8699 -0.9244 -1.0078
 4911SOL     OW16345   2.324   5.583   4.067 -0.3797 -0.4517 -0.5559
 4911SOL    HW116346   2.360   5.561   3.981  0.3001 -2.1137  0.1154
 4911SOL    HW216347   2.353   5.512   4.124 -1.5104  0.1911  0.8793
 4912SOL     OW16348   7.834   4.252   0.641 -0.0449 -0.3986  0.5736
 4912SOL    HW116349   7.783   4.272   0.719  0.1971  1.2759  0.3435
 4912SOL    HW216350   7.919   4.223   0.675 -0.2862 -0.7097  0.9225
 4913SOL     OW16351   5.024   5.191   8.834 -0.3649 -0.1360  0.1904
 4913SOL    HW116352   4.963   5.119   8.819 -0.5155 -0.1066  0.6579
 4913SOL    HW216353   5.099   5.149   8.877 -0.3472 -0.0563  0.2361
 4914SOL     OW16354   1.517   9.666   2.212  0.3757 -0.2159 -0.0008
 4914SOL    HW116355   1.430   9.705   2.208  0.8072  0.7487 -0.3036
 4914SOL    HW216356   1.504   9.581   2.254 -0.7650 -0.2487 -0.3898
 4915SOL     OW16357   0.168   8.171   7.906 -0.3524  0.1900 -0.0346
 4915SOL    HW116358   0.099   8.114   7.871 -0.0252  0.6045 -1.4416
 4915SOL    HW216359   0.126   8.219   7.977 -0.7450 -1.4919  0.9060
 4916SOL     OW16360   7.252   1.088   8.876  0.2878 -0.5605 -0.0249
 4916SOL    HW116361   7.285   1.070   8.788  0.5945  0.6331 -0.1704
 4916SOL    HW216362   7.327   1.074   8.933  0.5009  0.1221 -0.1278
 4917SOL     OW16363   4.436   2.439   3.971 -0.6163  0.1471 -0.0908
 4917SOL    HW116364   4.433   2.523   3.924  1.5045  1.2358  1.5795
 4917SOL    HW216365   4.523   2.405   3.953 -0.8454 -0.8633  0.6755
 4918SOL     OW16366   7.151   5.392   2.953  0.0467 -0.4795 -0.0835
 4918SOL    HW116367   7.084   5.459   2.968 -0.1096 -0.6354 -0.0788
 4918SOL    HW216368   7.122   5.317   3.006  0.8698 -0.1240  0.8865
 4919SOL     OW16369   6.028   0.379   8.584  0.3574 -1.1090  0.3551
 4919SOL    HW116370   6.021   0.352   8.492 -1.4943  0.0787  0.0872
 4919SOL    HW216371   6.102   0.439   8.586 -1.1282  0.8920 -0.9722
 4920SOL     OW16372   5.356   1.369   8.969  0.4992  0.2399  0.1664
 4920SOL    HW116373   5.435   1.405   9.009  0.4890  1.8102 -1.1535
 4920SOL    HW216374   5.386   1.326   8.889  0.0089  1.1183 -0.5056
 4921SOL     OW16375   0.408   3.398   5.085 -0.3782 -0.3588  0.8321
 4921SOL    HW116376   0.400   3.426   4.994  0.2960 -0.0596  0.8564
 4921SOL    HW216377   0.319   3.401   5.119 -0.4621  0.8423  0.5595
 4922SOL     OW16378   0.932   8.661   8.809  0.1932 -0.6055  0.1995
 4922SOL    HW116379   0.989   8.699   8.876 -0.1841 -1.5580  1.0956
 4922SOL    HW216380   0.848   8.649   8.853 -0.3538 -0.3376 -0.7476
 4923SOL     OW16381   6.233   5.507   0.947  0.3299  0.3431  0.9785
 4923SOL    HW116382   6.303   5.478   1.006  1.3155  3.2740  1.4377
 4923SOL    HW216383   6.161   5.445   0.962  2.3718 -2.0857  1.3503
 4924SOL     OW16384   7.246   2.046   4.535 -0.3583 -0.0518 -0.2357
 4924SOL    HW116385   7.238   1.966   4.483 -1.6171  0.7053 -1.2746
 4924SOL    HW216386   7.155   2.073   4.551 -0.0005 -0.0324  2.0437
 4925SOL     OW16387   5.878   6.147   7.264  0.9290 -0.6526  0.1758
 4925SOL    HW116388   5.784   6.150   7.278  0.4384  0.1618 -2.6076
 4925SOL    HW216389   5.913   6.216   7.321 -0.5656  1.1649 -0.9603
 4926SOL     OW16390   0.020   5.269   6.723 -0.7872 -0.3568  0.2825
 4926SOL    HW116391  -0.074   5.281   6.730 -0.4852  1.7829  1.2010
 4926SOL    HW216392   0.031   5.213   6.646 -2.7262  0.5218 -0.6917
 4927SOL     OW16393   8.985   0.051   7.089  0.1193  0.1282 -0.0476
 4927SOL    HW116394   8.898   0.087   7.069  0.4133  0.6589 -0.3894
 4927SOL    HW216395   9.021   0.110   7.155  1.2134  1.4147 -1.6859
 4928SOL     OW16396   4.400   4.622   7.107 -0.1006  0.2229 -0.2834
 4928SOL    HW116397   4.361   4.537   7.083  0.3481 -0.1477  0.2746
 4928SOL    HW216398   4.369   4.682   7.040 -2.2133  0.1057  0.5251
 4929SOL     OW16399   7.597   1.987   5.916 -0.5989 -0.1978 -0.4379
 4929SOL    HW116400   7.508   2.015   5.939 -0.6452 -1.4993  1.2323
 4929SOL    HW216401   7.611   1.908   5.969  2.1621  0.8732  0.6236
 4930SOL     OW16402   6.995   4.281   9.021 -0.4165  0.1798  0.2676
 4930SOL    HW116403   6.923   4.321   8.971 -0.2956 -0.6367 -0.5959
 4930SOL    HW216404   6.996   4.190   8.992  0.6382  0.0521  0.6571
 4931SOL     OW16405   7.599   8.088   8.252  0.7212 -0.1065 -0.1422
 4931SOL    HW116406   7.655   8.040   8.312 -0.2289 -0.2994  0.5967
 4931SOL    HW216407   7.652   8.098   8.173  1.3341 -1.3869  0.0904
 4932SOL     OW16408   9.100   9.295   9.515  0.0542 -0.1030  0.0733
 4932SOL    HW116409   9.158   9.275   9.589 -0.3463  0.2942  0.5088
 4932SOL    HW216410   9.081   9.388   9.526 -0.6668 -0.2328 -0.0576
 4933SOL     OW16411   8.733   1.626   6.559 -0.0884  0.2778  0.1374
 4933SOL    HW116412   8.734   1.533   6.538 -1.2740  0.5072 -1.0200
 4933SOL    HW216413   8.788   1.633   6.637 -0.6869 -1.5049  0.7628
 4934SOL     OW16414   2.282   9.107   3.311  0.5181  0.1575 -0.1007
 4934SOL    HW116415   2.237   9.024   3.329 -1.5031  1.1316 -0.4323
 4934SOL    HW216416   2.304   9.142   3.397 -1.6067  0.8211  0.2159
 4935SOL     OW16417   2.530   9.012   7.650 -0.2275  0.4706 -0.3651
 4935SOL    HW116418   2.581   9.060   7.714 -1.0143  2.3725 -1.0957
 4935SOL    HW216419   2.595   8.981   7.586  0.5705 -1.5329  1.3033
 4936SOL     OW16420   2.161   2.028   1.459 -0.7680 -0.1598 -0.1009
 4936SOL    HW116421   2.114   2.101   1.499  0.0574  0.9537 -1.0883
 4936SOL    HW216422   2.193   1.977   1.533  1.2029  2.1520  0.7615
 4937SOL     OW16423   4.027   7.787   1.983 -0.2157 -0.2174 -0.5402
 4937SOL    HW116424   4.036   7.693   1.995  1.5459  0.2310  3.2166
 4937SOL    HW216425   4.088   7.808   1.912 -0.2145 -1.8149 -1.0376
 4938SOL     OW16426   2.905   4.852   1.138  0.5499  0.0777 -0.1419
 4938SOL    HW116427   2.971   4.783   1.124  1.9740  1.6554 -1.7331
 4938SOL    HW216428   2.948   4.914   1.196  0.9132  1.5755 -1.9104
 4939SOL     OW16429   0.220   9.267   3.995  0.2171 -0.0292 -0.1587
 4939SOL    HW116430   0.265   9.186   3.971 -1.7277 -1.3024  0.2504
 4939SOL    HW216431   0.169   9.245   4.072  0.4732  1.9250  0.6385
 4940SOL     OW16432   8.351   2.553   5.106  0.5082 -0.6011  0.2266
 4940SOL    HW116433   8.324   2.478   5.159 -1.8156 -0.5754 -0.8143
 4940SOL    HW216434   8.381   2.515   5.024  1.7392 -0.4947  0.6060
 4941SOL     OW16435   2.326   0.327   8.666 -0.2911  0.2609 -0.4223
 4941SOL    HW116436   2.373   0.406   8.641  0.8772 -0.1921  0.2713
 4941SOL    HW216437   2.361   0.304   8.752 -1.0085 -0.6994 -0.3729
 4942SOL     OW16438   3.482   4.179   5.978  0.0791 -0.2655 -0.2543
 4942SOL    HW116439   3.537   4.230   6.037 -0.1947  1.9410 -1.7924
 4942SOL    HW216440   3.418   4.242   5.945 -1.3529 -2.0174 -0.9927
 4943SOL     OW16441   8.965   7.491   5.461  0.6167 -0.4946 -0.4626
 4943SOL    HW116442   8.906   7.434   5.411 -2.1662  0.6314  1.2896
 4943SOL    HW216443   9.027   7.431   5.502 -1.5228 -2.2290  0.4329
 4944SOL     OW16444   0.233   4.044   6.866 -0.1757  0.8588  0.3111
 4944SOL    HW116445   0.138   4.054   6.873 -0.3350 -0.4892  0.3040
 4944SOL    HW216446   0.246   3.967   6.812  0.9332  1.0297  0.2982
 4945SOL     OW16447   2.995   4.048   1.387  0.4252  0.1681 -0.2707
 4945SOL    HW116448   3.067   4.091   1.341  1.2174  0.9627  1.6315
 4945SOL    HW216449   2.918   4.097   1.361  0.9187  0.8981 -0.3894
 4946SOL     OW16450   7.302   1.980   5.102  0.0548  0.0021 -0.4359
 4946SOL    HW116451   7.354   2.039   5.156  1.8831 -1.3620 -0.6112
 4946SOL    HW216452   7.313   2.012   5.013 -2.0283  1.5644 -0.2066
 4947SOL     OW16453   3.535   6.135   5.604 -0.0781  0.4781 -0.3458
 4947SOL    HW116454   3.556   6.201   5.670  0.7578 -0.3187  0.2015
 4947SOL    HW216455   3.603   6.146   5.537  1.2698 -1.0683  0.6786
 4948SOL     OW16456   7.621   5.221   3.562  0.0713 -0.6694 -0.1052
 4948SOL    HW116457   7.655   5.276   3.491 -0.0956 -2.0961 -1.3397
 4948SOL    HW216458   7.536   5.259   3.584  0.2865 -0.0011 -0.4092
 4949SOL     OW16459   4.465   1.190   3.829 -0.4311  0.4070 -0.1910
 4949SOL    HW116460   4.446   1.103   3.794  0.3534  0.4047 -0.6313
 4949SOL    HW216461   4.557   1.205   3.808  0.1544  0.3261  2.0504
 4950SOL     OW16462   1.773   4.851   8.422  0.5042  0.2824 -0.4618
 4950SOL    HW116463   1.757   4.800   8.501 -0.0967  0.6999 -0.3085
 4950SOL    HW216464   1.845   4.910   8.446  0.7245 -0.0013 -0.4210
 4951SOL     OW16465   0.549   4.040   4.937  0.5969 -0.0389 -0.4999
 4951SOL    HW116466   0.543   4.111   5.002  1.2989  2.2566 -2.7900
 4951SOL    HW216467   0.459   4.009   4.928  0.7679 -2.5088  3.5258
 4952SOL     OW16468   8.907   7.186   2.062  0.1045 -0.5246 -0.6569
 4952SOL    HW116469   8.949   7.246   2.124  1.1213 -2.2657  0.4410
 4952SOL    HW216470   8.818   7.175   2.096 -0.6492  1.5519 -1.7975
 4953SOL     OW16471   7.022   1.320   2.778 -0.7777  0.5069 -0.3817
 4953SOL    HW116472   6.999   1.358   2.863 -0.4881 -0.7087  0.2625
 4953SOL    HW216473   7.115   1.339   2.767 -0.3344 -0.9407  0.4904
 4954SOL     OW16474   2.980   7.579   5.440 -0.4069  0.0091 -0.3952
 4954SOL    HW116475   2.980   7.670   5.467 -0.0553  0.0797 -0.6324
 4954SOL    HW216476   2.893   7.547   5.465 -0.2834  0.2142  0.3308
 4955SOL     OW16477   0.913   9.066   4.000 -0.5493  0.3985  0.0238
 4955SOL    HW116478   0.913   9.103   3.912  1.2239  0.5499  0.0353
 4955SOL    HW216479   0.886   9.137   4.057 -2.1057  0.1837 -0.4121
 4956SOL     OW16480   7.144   8.543   7.250  0.0866  0.0727  0.2644
 4956SOL    HW116481   7.236   8.534   7.223  0.5063  0.9342  1.3378
 4956SOL    HW216482   7.094   8.506   7.177  1.3258 -1.9446  0.3500
 4957SOL     OW16483   8.129   4.598   6.565  0.0292  0.1442  0.2306
 4957SOL    HW116484   8.051   4.626   6.516  0.2539  1.2965  0.5098
 4957SOL    HW216485   8.134   4.659   6.638  1.0641 -0.0683  0.3436
 4958SOL     OW16486   4.566   2.515   1.809 -0.6855  0.2089  0.1022
 4958SOL    HW116487   4.651   2.547   1.837 -0.6873  0.8136 -0.5486
 4958SOL    HW216488   4.503   2.567   1.859 -0.6733  0.2823  0.0423
 4959SOL     OW16489   9.076   7.762   2.342 -0.2079 -0.0601 -0.2062
 4959SOL    HW116490   8.984   7.736   2.341 -0.0589 -0.6210  0.1574
 4959SOL    HW216491   9.104   7.758   2.250 -0.5214  0.0397 -0.3061
 4960SOL     OW16492   8.417   0.336   8.618  0.1265  0.1511  0.0394
 4960SOL    HW116493   8.397   0.423   8.654 -0.8668  0.5546 -1.4158
 4960SOL    HW216494   8.415   0.348   8.523 -1.4448 -1.7587 -0.2378
 4961SOL     OW16495   4.430   2.199   9.838 -0.4646  0.3590  0.1879
 4961SOL    HW116496   4.361   2.242   9.889 -0.8006  1.3558 -1.0494
 4961SOL    HW216497   4.508   2.251   9.855 -0.3147  0.0173  0.5558
 4962SOL     OW16498   0.608   7.111   1.323 -0.9057 -0.3155 -0.2124
 4962SOL    HW116499   0.659   7.133   1.245 -0.5727  0.1828  0.1394
 4962SOL    HW216500   0.520   7.144   1.303 -0.5349  0.9192  0.0931
 4963SOL     OW16501   0.437   6.988   4.563 -0.8586  0.2793  0.3251
 4963SOL    HW116502   0.493   6.943   4.500  1.1373 -1.7045  3.2103
 4963SOL    HW216503   0.360   6.932   4.572 -1.4795  0.9251 -0.7595
 4964SOL     OW16504   3.019   7.810   9.158 -0.0513 -0.5280 -0.1486
 4964SOL    HW116505   3.084   7.879   9.173  0.7245 -1.0198 -1.1488
 4964SOL    HW216506   3.036   7.745   9.226  1.5634 -1.3954 -1.3320
 4965SOL     OW16507   7.856   3.138   9.489  0.0024  0.5740  0.6497
 4965SOL    HW116508   7.917   3.083   9.440  1.4499  2.0731  0.6680
 4965SOL    HW216509   7.912   3.192   9.545 -1.4675  0.6502  2.1422
 4966SOL     OW16510   8.866   0.368   4.626 -0.4155 -0.1759  0.2596
 4966SOL    HW116511   8.888   0.461   4.635 -0.3870  0.1266 -2.2686
 4966SOL    HW216512   8.951   0.325   4.615 -0.5309 -0.2047 -0.5866
 4967SOL     OW16513   7.662   7.718   3.972  0.0630  0.0654 -0.3910
 4967SOL    HW116514   7.737   7.702   3.915  0.9648 -0.7867  0.9555
 4967SOL    HW216515   7.691   7.789   4.029 -0.0208 -0.4718  0.3331
 4968SOL     OW16516   0.020   9.186   9.168  0.4874 -0.0165 -0.1608
 4968SOL    HW116517  -0.058   9.172   9.222  1.8980  0.3594  2.0498
 4968SOL    HW216518  -0.008   9.251   9.103 -2.0407 -2.4110 -1.7450
 4969SOL     OW16519   4.917   3.548   6.389 -0.5151 -0.0642  0.0999
 4969SOL    HW116520   4.988   3.607   6.363 -0.3751  0.7397  2.0940
 4969SOL    HW216521   4.962   3.471   6.425 -0.6788 -0.4465 -0.5076
 4970SOL     OW16522   9.302   0.144   8.682 -0.1453  0.3668  0.8289
 4970SOL    HW116523   9.269   0.057   8.704 -0.4019  0.8916  2.7628
 4970SOL    HW216524   9.225   0.191   8.649 -0.1896  0.0881  0.5352
 4971SOL     OW16525   0.926   4.484   3.294  0.1875  0.0854  0.0095
 4971SOL    HW116526   0.878   4.426   3.235  0.1653 -0.1802  0.2846
 4971SOL    HW216527   0.879   4.477   3.377  1.3836 -1.0937  0.6222
 4972SOL     OW16528   3.694   3.519   0.539 -0.3167  0.4713 -0.4018
 4972SOL    HW116529   3.672   3.429   0.564  1.5154 -0.0199 -0.4306
 4972SOL    HW216530   3.777   3.536   0.583  0.6193  1.2538 -2.3689
 4973SOL     OW16531   0.792   3.320   6.817 -0.0857 -0.2824  0.0554
 4973SOL    HW116532   0.822   3.298   6.728  0.0935 -0.1028  0.0695
 4973SOL    HW216533   0.758   3.238   6.852 -2.0104  0.0436 -0.8965
 4974SOL     OW16534   1.124   1.834   3.324 -0.5510 -0.1476 -0.0212
 4974SOL    HW116535   1.185   1.807   3.393  2.1012  0.8830 -1.7936
 4974SOL    HW216536   1.169   1.810   3.242 -2.3658  1.0498 -1.4446
 4975SOL     OW16537   3.338   9.605   7.294  0.1584  0.3556 -0.2669
 4975SOL    HW116538   3.306   9.559   7.371 -2.4142  0.8356 -0.9531
 4975SOL    HW216539   3.420   9.561   7.272  0.0903 -0.8938  1.7115
 4976SOL     OW16540   2.539   9.519   5.403  0.0333  0.2032  0.4171
 4976SOL    HW116541   2.542   9.614   5.416  2.3773  0.4149 -1.0729
 4976SOL    HW216542   2.604   9.485   5.464 -1.4857 -0.6142  1.6524
 4977SOL     OW16543   3.147   2.360   3.593  0.4722  0.7133  0.2052
 4977SOL    HW116544   3.139   2.390   3.684  0.1431  1.1888  0.0258
 4977SOL    HW216545   3.216   2.416   3.556 -0.1179  1.2345 -0.1212
 4978SOL     OW16546   3.028   6.036   5.458 -0.0906  0.0572  0.4804
 4978SOL    HW116547   3.086   6.077   5.522  0.2176 -0.6433  0.6642
 4978SOL    HW216548   2.995   5.958   5.502  0.2072 -0.4869 -0.2340
 4979SOL     OW16549   6.061   3.844   7.033 -0.1227 -0.4972 -0.3038
 4979SOL    HW116550   6.052   3.900   7.109  1.5777 -1.3076  0.5521
 4979SOL    HW216551   6.045   3.755   7.065  0.1573 -0.8039 -0.9641
 4980SOL     OW16552   6.862   2.295   6.159  0.4196  0.6817  0.3512
 4980SOL    HW116553   6.907   2.215   6.133  0.9932  1.1614 -0.1795
 4980SOL    HW216554   6.781   2.295   6.108  0.4102  0.4300  0.3663
 4981SOL     OW16555   9.827   7.979   0.719 -0.6454 -0.2154  0.1384
 4981SOL    HW116556   9.810   8.072   0.733 -2.7252 -0.3353 -1.0807
 4981SOL    HW216557   9.836   7.942   0.806 -0.0545  1.0862  0.6460
 4982SOL     OW16558   9.518   9.388   6.760 -0.4813 -0.0164  0.1428
 4982SOL    HW116559   9.450   9.453   6.776  1.4291  1.8164  1.2453
 4982SOL    HW216560   9.480   9.305   6.789 -2.7002  0.7030 -0.5725
 4983SOL     OW16561   8.733   8.887   3.162  0.6594 -0.7481  0.3165
 4983SOL    HW116562   8.696   8.899   3.074  3.1421  0.8846 -0.6071
 4983SOL    HW216563   8.693   8.957   3.214  2.2865  1.0290 -0.6833
 4984SOL     OW16564   9.653   0.393   2.509 -0.6542  0.2615 -0.0948
 4984SOL    HW116565   9.663   0.312   2.558 -0.1226  0.7436  0.6145
 4984SOL    HW216566   9.737   0.404   2.464 -0.4491  0.7834  0.3970
 4985SOL     OW16567   3.744   3.011   3.129 -0.2542  0.4061  0.0895
 4985SOL    HW116568   3.748   3.042   3.219  0.2981  0.5462  0.0196
 4985SOL    HW216569   3.721   3.088   3.077 -1.1723  0.2011  0.1690
 4986SOL     OW16570   9.772   6.497   1.678  0.3260  0.1298 -0.4820
 4986SOL    HW116571   9.757   6.580   1.632 -0.5067 -0.7306 -1.8598
 4986SOL    HW216572   9.686   6.454   1.679  0.9452 -1.2079 -0.8673
 4987SOL     OW16573   4.747   9.099   3.645 -0.4840 -0.5312  0.0085
 4987SOL    HW116574   4.743   9.145   3.729 -1.3622 -0.7011  0.0669
 4987SOL    HW216575   4.758   9.169   3.580  1.5236 -0.4864  0.3501
 4988SOL     OW16576   5.654   3.859   7.699  0.7436 -0.1409 -0.1569
 4988SOL    HW116577   5.565   3.896   7.702  0.4179 -0.7400 -1.7119
 4988SOL    HW216578   5.675   3.840   7.791  0.2681  2.2937  0.5498
 4989SOL     OW16579   8.292   2.882   4.634 -0.2433 -0.0082 -0.0349
 4989SOL    HW116580   8.199   2.897   4.617 -0.1357  0.6834 -0.0551
 4989SOL    HW216581   8.328   2.970   4.647  0.6310 -0.1810 -1.1557
 4990SOL     OW16582   6.162   3.339   3.501 -0.2506 -0.1105  0.0980
 4990SOL    HW116583   6.160   3.258   3.552 -0.8558  0.4549  0.9908
 4990SOL    HW216584   6.080   3.338   3.450 -1.2065  0.8171  1.5416
 4991SOL     OW16585   2.972   6.121   8.272  0.5851  0.3898 -0.3661
 4991SOL    HW116586   3.065   6.108   8.258  0.3086 -0.2221 -1.7524
 4991SOL    HW216587   2.948   6.191   8.212 -0.1432 -0.5761 -1.2419
 4992SOL     OW16588   5.310   0.214   1.420 -0.1906 -0.1013 -0.7190
 4992SOL    HW116589   5.365   0.167   1.357 -0.2374  0.0430 -0.8690
 4992SOL    HW216590   5.221   0.200   1.389 -0.1012  2.0571 -2.1786
 4993SOL     OW16591   0.326   6.500   5.489  0.0901 -0.1533  0.2387
 4993SOL    HW116592   0.323   6.595   5.482 -0.2117 -0.0500  1.4833
 4993SOL    HW216593   0.295   6.469   5.404  1.0860  0.8410 -0.5148
 4994SOL     OW16594   0.262   9.315   3.567 -0.2316  0.5079  0.3806
 4994SOL    HW116595   0.308   9.351   3.643  0.0437 -1.0197  0.9711
 4994SOL    HW216596   0.196   9.257   3.604 -0.3968  0.0819 -0.5451
 4995SOL     OW16597   4.035   2.660   6.769 -0.0528 -0.1309 -0.7049
 4995SOL    HW116598   3.941   2.675   6.757 -0.6554 -1.5838  1.4899
 4995SOL    HW216599   4.077   2.715   6.703 -2.3556  2.2287 -0.3702
 4996SOL     OW16600   0.119   2.841   7.866 -0.3198  0.2106 -0.9820
 4996SOL    HW116601   0.127   2.917   7.924 -2.5362  0.0015 -0.3070
 4996SOL    HW216602   0.191   2.851   7.803  0.4482  1.9476  0.0909
 4997SOL     OW16603   0.951   9.838   2.847 -0.5570  0.3796  0.4092
 4997SOL    HW116604   1.013   9.865   2.779 -0.4625 -1.2963 -0.2218
 4997SOL    HW216605   0.952   9.910   2.910  1.4653  0.7495  0.0439
 4998SOL     OW16606   7.707   9.833   5.937 -0.4088  0.2146  0.0024
 4998SOL    HW116607   7.756   9.838   6.019 -2.8382  0.9084  1.5147
 4998SOL    HW216608   7.633   9.775   5.957 -0.3347 -0.6674 -2.1136
 4999SOL     OW16609   0.410   8.323   8.893  0.1106 -0.3901 -0.6243
 4999SOL    HW116610   0.443   8.406   8.858 -0.5861  0.2139  0.1125
 4999SOL    HW216611   0.412   8.263   8.818 -1.8298  0.9967 -1.8688
 5000SOL     OW16612   6.626   2.122   0.545  0.4990 -0.0073 -0.0201
 5000SOL    HW116613   6.676   2.112   0.626  0.2324 -0.1767  0.1232
 5000SOL    HW216614   6.591   2.211   0.549 -1.7741 -0.8717  1.3513
 5001SOL     OW16615   7.796   7.205   3.133  0.7011 -0.4631  0.0064
 5001SOL    HW116616   7.758   7.267   3.196 -0.6823  0.3610 -1.5722
 5001SOL    HW216617   7.872   7.251   3.097  0.3155 -0.1233 -0.3744
 5002SOL     OW16618   0.952   7.736   0.883 -0.6366  0.3587 -0.0337
 5002SOL    HW116619   1.013   7.810   0.888 -0.4635  0.5597 -3.0816
 5002SOL    HW216620   1.007   7.661   0.862 -1.1737  0.0893 -0.5033
 5003SOL     OW16621   7.928   2.041   9.425  0.0428  0.4694  0.2973
 5003SOL    HW116622   7.832   2.039   9.427  0.0310  0.7949  0.1588
 5003SOL    HW216623   7.951   2.122   9.470  0.2141  0.9253 -0.5830
 5004SOL     OW16624   9.023   9.626   2.059 -0.1883  1.0039  0.4015
 5004SOL    HW116625   9.083   9.646   2.130  1.1913 -1.0782 -0.0978
 5004SOL    HW216626   9.016   9.708   2.010  1.2831  1.6356  1.1797
 5005SOL     OW16627   1.758   7.507   0.835  0.0531 -0.0576  0.1092
 5005SOL    HW116628   1.683   7.449   0.848  0.5946 -0.7320  0.3134
 5005SOL    HW216629   1.796   7.517   0.922  0.6475 -0.3566 -0.1066
 5006SOL     OW16630   0.795   2.731   7.781  0.3126 -0.3424  0.1599
 5006SOL    HW116631   0.783   2.636   7.787 -0.3846 -0.2915 -0.2861
 5006SOL    HW216632   0.787   2.762   7.872 -1.0617 -0.5458  0.1352
 5007SOL     OW16633   2.068   1.770   6.409  0.0961 -0.0977  0.3887
 5007SOL    HW116634   2.003   1.810   6.467  0.4616 -0.8507  1.3427
 5007SOL    HW216635   2.135   1.736   6.468  1.2691  0.4725 -0.5645
 5008SOL     OW16636   3.389   7.643   4.088  0.1390  0.4320 -0.7874
 5008SOL    HW116637   3.314   7.629   4.146  0.5804 -1.8328 -0.6889
 5008SOL    HW216638   3.350   7.658   4.002 -0.4507  0.3492 -0.5399
 5009SOL     OW16639   8.523   7.756   8.008 -0.1077  0.2212  0.0167
 5009SOL    HW116640   8.463   7.686   8.034  1.9677 -2.8399 -2.6884
 5009SOL    HW216641   8.573   7.775   8.088 -1.6656 -0.3418  1.1663
 5010SOL     OW16642   5.676   0.550   3.045  0.2249  0.1296  0.3178
 5010SOL    HW116643   5.638   0.496   3.114  2.1027 -0.2078  1.1419
 5010SOL    HW216644   5.625   0.529   2.967  0.0854 -1.8890  0.8984
 5011SOL     OW16645   2.857   2.889   4.251 -0.0796  0.3441 -0.1958
 5011SOL    HW116646   2.766   2.868   4.269  0.4658 -1.7627  0.5028
 5011SOL    HW216647   2.882   2.949   4.321 -0.1076 -1.6483  1.6429
 5012SOL     OW16648   5.682   1.615   5.521 -0.1135  0.7808 -0.0962
 5012SOL    HW116649   5.715   1.683   5.579  1.2500 -1.7700  2.3557
 5012SOL    HW216650   5.587   1.625   5.524 -0.1839  0.1837  3.4764
 5013SOL     OW16651   5.990   7.869   2.540  0.2305 -0.1482  0.0272
 5013SOL    HW116652   5.912   7.848   2.489  0.2886  0.0408 -0.1393
 5013SOL    HW216653   5.956   7.903   2.623  0.1321  0.5097 -0.2766
 5014SOL     OW16654   3.576   9.129   6.078  0.1262  0.5785 -0.4828
 5014SOL    HW116655   3.670   9.137   6.064 -0.0704  3.2900 -0.7260
 5014SOL    HW216656   3.556   9.038   6.055  2.3084  0.5589 -2.6999
 5015SOL     OW16657   8.124   8.051   3.462  0.0636  0.2881 -0.0311
 5015SOL    HW116658   8.056   8.096   3.511  0.8210  0.0436  1.2834
 5015SOL    HW216659   8.095   8.055   3.371 -1.5647  0.4121  0.4688
 5016SOL     OW16660   1.777   8.421   2.867 -0.5466  0.2351  0.0396
 5016SOL    HW116661   1.740   8.401   2.953  3.3182  1.1486  2.1445
 5016SOL    HW216662   1.829   8.500   2.882 -1.7910  2.0202 -3.8747
 5017SOL     OW16663   6.073   7.134   2.530 -0.3352 -0.3908  0.2024
 5017SOL    HW116664   6.054   7.156   2.439  0.0380 -0.0937  0.1923
 5017SOL    HW216665   6.040   7.209   2.580  0.9147  0.2021  0.1715
 5018SOL     OW16666   7.326   5.420   1.329  0.3391 -0.2205 -0.5732
 5018SOL    HW116667   7.297   5.424   1.238 -0.8876 -1.5478 -0.2693
 5018SOL    HW216668   7.355   5.509   1.349  1.2229 -0.0561 -2.4307
 5019SOL     OW16669   9.114   2.030   0.556  0.2860 -0.3448  0.8897
 5019SOL    HW116670   9.180   2.080   0.507  0.8465 -0.8582  1.1047
 5019SOL    HW216671   9.043   2.092   0.570  0.0651 -0.1929 -0.6513
 5020SOL     OW16672   1.328   7.613   1.844 -0.3890  0.4172  0.3182
 5020SOL    HW116673   1.332   7.704   1.816 -0.9087 -0.2583 -2.1258
 5020SOL    HW216674   1.414   7.597   1.884  0.2702  1.5561 -0.5767
 5021SOL     OW16675   2.615   3.407   6.603 -0.3282  0.4867  0.1270
 5021SOL    HW116676   2.531   3.449   6.620 -0.4792 -0.0041  0.6215
 5021SOL    HW216677   2.593   3.316   6.582  0.1064  0.2078  0.8248
 5022SOL     OW16678   3.915   0.750   8.627 -0.0495 -0.5921 -0.3444
 5022SOL    HW116679   3.820   0.736   8.626 -0.0297 -0.7159 -0.4871
 5022SOL    HW216680   3.934   0.777   8.717  0.0101 -2.1907  0.1439
 5023SOL     OW16681   3.779   8.449   0.578  0.0527 -0.1670 -0.5551
 5023SOL    HW116682   3.727   8.379   0.618 -0.2572  1.9609  3.1802
 5023SOL    HW216683   3.715   8.504   0.534 -0.3359  0.1355  0.3630
 5024SOL     OW16684   4.358   9.540   8.594  0.0243 -0.2652 -0.2545
 5024SOL    HW116685   4.447   9.564   8.570  0.4104 -0.4966  0.8659
 5024SOL    HW216686   4.365   9.452   8.631 -0.6463 -0.2457 -0.0603
 5025SOL     OW16687   4.893   6.216   6.236  0.0204  0.2065 -0.1870
 5025SOL    HW116688   4.937   6.181   6.158  1.1652  0.5400  0.2931
 5025SOL    HW216689   4.864   6.138   6.284  1.5244 -0.0977  0.2890
 5026SOL     OW16690   4.539   1.483   1.597 -0.2104 -0.4724 -0.1000
 5026SOL    HW116691   4.574   1.419   1.660 -0.2343 -0.3543  0.0347
 5026SOL    HW216692   4.567   1.568   1.632 -0.0386 -0.4190 -0.3672
 5027SOL     OW16693   3.308   7.410   7.285  0.2058  0.1563  0.5814
 5027SOL    HW116694   3.366   7.345   7.246 -2.1279 -2.8311  1.6765
 5027SOL    HW216695   3.324   7.403   7.379 -0.9149  0.2934  0.7937
 5028SOL     OW16696   1.659   4.156   7.979 -0.7066 -0.1875 -0.0610
 5028SOL    HW116697   1.631   4.206   8.056  0.1939 -0.5236  0.5062
 5028SOL    HW216698   1.725   4.095   8.013 -1.3907 -1.3856 -0.8327
 5029SOL     OW16699   9.626   0.125   7.175 -0.3573 -0.3256  0.0734
 5029SOL    HW116700   9.686   0.087   7.111 -2.4558 -1.7389 -1.1780
 5029SOL    HW216701   9.560   0.170   7.123 -1.0610  0.1470  1.3266
 5030SOL     OW16702   3.653   8.842   0.495  0.3690 -0.4231 -0.1889
 5030SOL    HW116703   3.738   8.853   0.452  0.2904 -0.4990 -0.3662
 5030SOL    HW216704   3.609   8.926   0.483  0.4654 -0.3462  0.0042
 5031SOL     OW16705   4.006   3.788   1.072  0.3722 -0.4104  0.3774
 5031SOL    HW116706   4.052   3.708   1.095  0.8986 -0.4201 -0.6467
 5031SOL    HW216707   4.066   3.833   1.013 -0.4294  0.1686 -0.0009
 5032SOL     OW16708   8.354   9.518   6.554  0.3868 -0.0816 -0.2727
 5032SOL    HW116709   8.373   9.606   6.586 -0.7946  0.2129 -0.3521
 5032SOL    HW216710   8.289   9.483   6.614  0.3495 -0.6451 -0.6274
 5033SOL     OW16711   4.961   2.496   4.695  0.0952  0.4184 -0.1689
 5033SOL    HW116712   4.887   2.546   4.730  0.5168  1.5391 -0.8297
 5033SOL    HW216713   5.021   2.563   4.661  1.9141 -0.3889  1.2817
 5034SOL     OW16714   3.863   5.599   0.522  0.0528  0.6354  0.0869
 5034SOL    HW116715   3.894   5.629   0.437 -0.9113  0.9042 -0.1772
 5034SOL    HW216716   3.856   5.679   0.575  2.7584  0.2763  1.1738
 5035SOL     OW16717   9.209   4.613   0.599 -0.1638  0.3959  0.8841
 5035SOL    HW116718   9.231   4.554   0.671 -0.5169 -0.5754  0.2021
 5035SOL    HW216719   9.113   4.618   0.601 -0.1176  1.5729  1.4186
 5036SOL     OW16720   0.619   6.304   2.327  0.1861  0.0715  0.4687
 5036SOL    HW116721   0.687   6.267   2.270  0.2798 -3.5941  2.6611
 5036SOL    HW216722   0.543   6.314   2.269  1.2999  0.0334 -1.0771
 5037SOL     OW16723   7.201   4.831   1.585 -0.0136 -0.1356  0.1233
 5037SOL    HW116724   7.221   4.803   1.674  0.2238  0.8102  0.3760
 5037SOL    HW216725   7.126   4.889   1.594 -0.5450 -0.7303 -0.4010
 5038SOL     OW16726   5.711   0.430   4.454 -0.0097 -0.0666 -0.1048
 5038SOL    HW116727   5.687   0.365   4.387  1.0419  0.4950 -1.0777
 5038SOL    HW216728   5.688   0.514   4.415  0.4348  0.2625  0.3337
 5039SOL     OW16729   8.217   8.762   5.647  0.4607  0.2697  0.6297
 5039SOL    HW116730   8.221   8.668   5.626  0.1007  0.0311  1.5658
 5039SOL    HW216731   8.126   8.786   5.629  0.9225  0.8512 -1.1647
 5040SOL     OW16732   1.978   4.769   0.388  0.4594  0.0529 -0.0646
 5040SOL    HW116733   1.945   4.683   0.362 -1.9174  1.0866 -0.7101
 5040SOL    HW216734   2.023   4.803   0.311  2.6212 -1.0741  0.6029
 5041SOL     OW16735   8.700   1.701   5.114 -0.5121 -0.2788  0.6600
 5041SOL    HW116736   8.608   1.696   5.086 -0.9387 -1.3098  2.1180
 5041SOL    HW216737   8.748   1.654   5.045 -1.0078  0.6015 -0.3155
 5042SOL     OW16738   7.871   5.805   8.736 -0.4292 -0.2124  0.6796
 5042SOL    HW116739   7.899   5.731   8.683  0.7671  1.0168 -0.4805
 5042SOL    HW216740   7.776   5.794   8.744 -0.0208 -3.2830  2.8405
 5043SOL     OW16741   6.178   5.261   1.437  0.0676  0.4296 -0.1476
 5043SOL    HW116742   6.104   5.212   1.399  0.8617 -0.0868 -1.0873
 5043SOL    HW216743   6.255   5.224   1.394  0.7402  2.1930 -0.5131
 5044SOL     OW16744   9.006   0.700   7.202  0.3792  0.4305  0.1702
 5044SOL    HW116745   8.977   0.721   7.291 -0.0202  2.2909 -0.3565
 5044SOL    HW216746   9.034   0.784   7.166  0.9547 -0.3720 -1.3204
 5045SOL     OW16747   4.621   6.403   5.640  0.3120  0.0384  0.4625
 5045SOL    HW116748   4.615   6.413   5.546  1.3894  1.9789  0.5450
 5045SOL    HW216749   4.546   6.349   5.664 -1.7487  1.9999 -1.1529
 5046SOL     OW16750   8.027   2.627   5.361  0.4560  0.7214 -0.5639
 5046SOL    HW116751   8.031   2.538   5.327  1.7925 -0.0659  1.4237
 5046SOL    HW216752   8.077   2.624   5.443  0.1700  3.2027 -0.1950
 5047SOL     OW16753   0.416   5.166   3.567 -0.1237  0.6401  0.1611
 5047SOL    HW116754   0.340   5.202   3.614 -1.3465  0.9516 -1.9372
 5047SOL    HW216755   0.415   5.073   3.588  1.4845  1.2297  3.5075
 5048SOL     OW16756   5.473   9.593   0.469 -0.0933  0.2415  0.0330
 5048SOL    HW116757   5.506   9.555   0.387  0.4742 -0.1044  0.4104
 5048SOL    HW216758   5.451   9.517   0.524 -1.6050  0.4656 -0.2262
 5049SOL     OW16759   7.763   4.479   9.634  0.2953 -0.0899 -0.7628
 5049SOL    HW116760   7.670   4.482   9.610  0.0411  0.2784  0.1997
 5049SOL    HW216761   7.762   4.468   9.730  1.2349 -2.3947 -0.9594
 5050SOL     OW16762   0.700   5.023   4.949 -0.2413  0.0084  0.2743
 5050SOL    HW116763   0.744   5.105   4.970 -0.2006  0.2516 -0.7303
 5050SOL    HW216764   0.756   4.955   4.986 -0.1518  0.4115  0.8983
 5051SOL     OW16765   5.991   5.793   1.605 -0.2300 -0.1588  0.5272
 5051SOL    HW116766   6.030   5.714   1.570  2.0963  1.1912 -0.1307
 5051SOL    HW216767   5.979   5.776   1.698 -0.4124 -1.5059  0.2653
 5052SOL     OW16768   2.379   5.319   8.435 -0.2506  0.5786 -0.5936
 5052SOL    HW116769   2.409   5.277   8.515 -0.3592 -1.4401 -1.5557
 5052SOL    HW216770   2.379   5.412   8.455  0.9884  0.2121  1.3167
 5053SOL     OW16771   1.960   6.417   6.948 -0.1993  0.3739  0.3569
 5053SOL    HW116772   1.896   6.351   6.974  0.3198  0.3857  1.7405
 5053SOL    HW216773   1.911   6.500   6.947 -0.7992  0.0297 -1.1691
 5054SOL     OW16774   8.572   2.952   2.355  0.0173  0.4747  0.1209
 5054SOL    HW116775   8.492   3.004   2.363 -1.3144 -1.2760 -0.9641
 5054SOL    HW216776   8.571   2.919   2.265  0.3593 -1.9783  0.9159
 5055SOL     OW16777   3.827   3.699   1.797  0.0486 -0.2655  0.0140
 5055SOL    HW116778   3.899   3.640   1.820  0.6140  0.3052 -0.2574
 5055SOL    HW216779   3.808   3.746   1.878 -0.6354 -1.0516  0.3212
 5056SOL     OW16780   8.646   8.441   4.252 -0.1168 -0.1429  0.4285
 5056SOL    HW116781   8.642   8.354   4.211 -1.8031  0.0134  0.1694
 5056SOL    HW216782   8.622   8.425   4.343 -0.8505  0.0959  0.2818
 5057SOL     OW16783   3.147   5.307   3.624  0.0385  0.1706  0.3825
 5057SOL    HW116784   3.118   5.339   3.539  0.3459 -1.3300 -0.3284
 5057SOL    HW216785   3.073   5.322   3.683  0.0273  1.7288  0.0109
 5058SOL     OW16786   4.458   9.452   2.571  0.0298 -0.5823 -0.5719
 5058SOL    HW116787   4.376   9.477   2.613 -0.4088  0.4341 -1.9522
 5058SOL    HW216788   4.472   9.361   2.596 -0.9228 -0.4153  0.6049
 5059SOL     OW16789   1.657   3.393   6.264  0.6884  0.4099  0.0210
 5059SOL    HW116790   1.646   3.303   6.233 -0.3567  0.7410 -0.6464
 5059SOL    HW216791   1.735   3.390   6.320  1.2449 -0.7098 -0.7572
 5060SOL     OW16792   8.453   3.468   4.376  0.1866 -0.3454 -0.4385
 5060SOL    HW116793   8.515   3.541   4.368  0.3997 -0.4835 -0.0900
 5060SOL    HW216794   8.479   3.424   4.457  0.4713 -1.2127 -0.9987
 5061SOL     OW16795   6.527   7.386   8.227  0.2734 -0.3694 -0.2673
 5061SOL    HW116796   6.506   7.294   8.244 -0.0543 -0.2777 -0.1588
 5061SOL    HW216797   6.609   7.384   8.178 -0.3450 -0.7757 -1.3238
 5062SOL     OW16798   7.171   0.213   6.304  0.5189 -0.7233  0.3379
 5062SOL    HW116799   7.172   0.307   6.287  0.4141 -1.1013 -2.1569
 5062SOL    HW216800   7.242   0.178   6.249 -0.5941 -2.2858 -0.1747
 5063SOL     OW16801   1.464   2.975   5.658  0.3484 -0.8990  0.6121
 5063SOL    HW116802   1.380   2.979   5.703  0.8664 -2.0325  1.7216
 5063SOL    HW216803   1.496   3.065   5.659 -0.1871 -0.7106  1.4594
 5064SOL     OW16804   4.814   2.569   8.940 -0.4861 -0.2843  0.0041
 5064SOL    HW116805   4.881   2.526   8.994 -1.0934 -0.4978  0.6151
 5064SOL    HW216806   4.824   2.530   8.853 -0.0719 -0.5919  0.1858
 5065SOL     OW16807   4.680   6.305   6.026 -0.1750  0.1507  0.5753
 5065SOL    HW116808   4.715   6.258   6.102 -0.0884  1.0163  1.0874
 5065SOL    HW216809   4.600   6.256   6.003 -0.1543 -0.1763  1.1684
 5066SOL     OW16810   8.414   9.830   8.441 -0.7100  0.4462  0.0379
 5066SOL    HW116811   8.446   9.826   8.532 -1.7831 -1.6019  0.3944
 5066SOL    HW216812   8.321   9.853   8.449 -1.2913 -1.5339 -0.3372
 5067SOL     OW16813   3.798   8.979   5.680  0.1769 -0.1483  0.0567
 5067SOL    HW116814   3.824   9.069   5.700 -1.8547  0.4176  0.4047
 5067SOL    HW216815   3.867   8.946   5.623  0.9765  1.6388 -0.0698
 5068SOL     OW16816   9.443   3.662   4.959 -0.0086 -0.3930  0.4584
 5068SOL    HW116817   9.498   3.593   4.921  0.2524 -0.6839  1.3513
 5068SOL    HW216818   9.413   3.626   5.042 -1.1566 -0.0372  0.2197
 5069SOL     OW16819   7.500   9.510   6.167  0.3642  0.3851 -0.0840
 5069SOL    HW116820   7.563   9.438   6.157  0.7890  0.7651 -0.1631
 5069SOL    HW216821   7.425   9.470   6.211  1.4671  0.3618  1.8539
 5070SOL     OW16822   0.289   0.852   4.007 -0.7526  0.4862  0.2075
 5070SOL    HW116823   0.324   0.851   4.096  3.3555  0.5345 -1.1672
 5070SOL    HW216824   0.273   0.760   3.986 -1.4417  0.4495  0.8738
 5071SOL     OW16825   1.912   3.940   4.740 -0.1858 -0.4401  0.2452
 5071SOL    HW116826   1.836   3.909   4.690 -0.3706 -1.3284  1.0365
 5071SOL    HW216827   1.883   3.938   4.831 -0.6818  3.4523  0.3480
 5072SOL     OW16828   2.916   5.215   7.176 -0.1964  0.4740 -0.4672
 5072SOL    HW116829   2.873   5.235   7.093 -1.3108  1.5614  0.3322
 5072SOL    HW216830   2.906   5.121   7.187 -1.7114  0.5971 -0.6699
 5073SOL     OW16831   7.036   3.423   2.980 -0.4828  0.1863  0.0268
 5073SOL    HW116832   7.088   3.479   2.923  1.3974 -0.2272  1.2428
 5073SOL    HW216833   6.947   3.460   2.976  0.0628  1.4410 -1.4481
 5074SOL     OW16834   5.216   4.223   4.468 -0.2512 -0.1887  0.0173
 5074SOL    HW116835   5.288   4.232   4.531 -0.7920  0.2778  0.5819
 5074SOL    HW216836   5.148   4.175   4.516 -0.7092  0.2610 -0.1715
 5075SOL     OW16837   1.502   2.267   0.438 -0.2252 -0.6195 -0.1054
 5075SOL    HW116838   1.521   2.357   0.409  0.7561 -0.4088  1.1107
 5075SOL    HW216839   1.484   2.219   0.357 -1.0631  0.7366 -0.7494
 5076SOL     OW16840   1.442   3.665   7.367 -0.2706  0.1103  0.0932
 5076SOL    HW116841   1.389   3.618   7.302  1.2467  0.7297 -1.6535
 5076SOL    HW216842   1.413   3.756   7.361 -0.6742  0.0431  0.8822
 5077SOL     OW16843   0.788   9.771   3.759  0.1826  0.2830 -0.2525
 5077SOL    HW116844   0.711   9.781   3.703  1.2934  0.4862 -1.7931
 5077SOL    HW216845   0.788   9.849   3.814 -1.7226 -0.5900  1.1406
 5078SOL     OW16846   7.250   5.124   1.074  0.4475 -0.5451  0.1763
 5078SOL    HW116847   7.197   5.200   1.100  1.0876  0.3827 -1.1232
 5078SOL    HW216848   7.187   5.064   1.034  0.1979  0.1163 -0.4536
 5079SOL     OW16849   2.153   3.005   2.749 -0.2086  0.2226 -0.5495
 5079SOL    HW116850   2.071   3.054   2.738 -0.9222 -0.8604 -0.2391
 5079SOL    HW216851   2.187   2.997   2.660  0.4630  2.1205 -0.5195
 5080SOL     OW16852   4.297   8.270   3.808  0.0788 -0.6141 -0.0731
 5080SOL    HW116853   4.256   8.336   3.865  0.5484 -0.3437 -0.0405
 5080SOL    HW216854   4.228   8.206   3.791 -0.8494  0.6759 -1.3603
 5081SOL     OW16855   4.204   2.408   2.369 -0.0247 -0.0270  0.2861
 5081SOL    HW116856   4.277   2.372   2.421  0.4634  1.0404  0.3629
 5081SOL    HW216857   4.126   2.384   2.418  0.2828 -0.9499  0.3509
 5082SOL     OW16858   5.361   4.163   6.236 -1.3190 -0.2212 -0.2699
 5082SOL    HW116859   5.437   4.108   6.221 -1.0064  0.5970 -1.9640
 5082SOL    HW216860   5.314   4.162   6.152 -1.4406  1.8455 -0.2768
 5083SOL     OW16861   5.289   0.872   5.754  0.1304  0.2689  0.1268
 5083SOL    HW116862   5.295   0.897   5.846  1.0660 -1.1514  0.4632
 5083SOL    HW216863   5.224   0.802   5.752  0.1456  0.2636 -0.2949
 5084SOL     OW16864   7.840   9.595   8.176  0.5377 -0.2150  0.4060
 5084SOL    HW116865   7.878   9.523   8.126  0.7864 -0.5291  1.0305
 5084SOL    HW216866   7.899   9.669   8.161  1.7673 -0.8370  1.7983
 5085SOL     OW16867   6.999   0.930   6.108  0.1342  0.1611 -0.4084
 5085SOL    HW116868   7.076   0.983   6.088  0.9363 -0.4812  0.7955
 5085SOL    HW216869   7.032   0.840   6.109 -1.0728 -0.3269 -1.8471
 5086SOL     OW16870   8.434   8.507   5.874 -0.2819  0.1052  0.0825
 5086SOL    HW116871   8.508   8.446   5.876 -0.7060 -0.4261 -0.0271
 5086SOL    HW216872   8.379   8.474   5.803 -1.0658 -0.0309  0.7466
 5087SOL     OW16873   7.953   5.530   7.266  0.6365  0.4637  0.1076
 5087SOL    HW116874   7.945   5.448   7.314  1.8362 -0.9264 -1.8896
 5087SOL    HW216875   7.962   5.597   7.333  0.5921 -1.1593  1.8013
 5088SOL     OW16876   1.373   6.712   7.493  0.1626 -0.2595  0.5737
 5088SOL    HW116877   1.320   6.640   7.526  1.0917 -1.3893 -0.3278
 5088SOL    HW216878   1.311   6.785   7.485 -1.7976 -2.0081 -2.2178
 5089SOL     OW16879   5.067   4.925   8.523  0.0081 -0.0831  0.1374
 5089SOL    HW116880   5.129   4.969   8.582  0.3989 -0.2078 -0.1775
 5089SOL    HW216881   5.118   4.908   8.443 -0.4947  0.0034 -0.2005
 5090SOL     OW16882   4.092   7.307   1.545  0.3947 -0.4256  0.4447
 5090SOL    HW116883   4.024   7.298   1.611 -1.2758 -0.7831 -1.2485
 5090SOL    HW216884   4.067   7.384   1.495  3.0228  1.3927  1.7020
 5091SOL     OW16885   0.710   9.735   5.378 -0.1040 -0.2203 -0.2199
 5091SOL    HW116886   0.643   9.693   5.325 -1.6996  0.7580  0.9155
 5091SOL    HW216887   0.753   9.797   5.318 -0.2551 -0.7993 -0.9391
 5092SOL     OW16888   0.667   8.879   0.186 -0.0829  0.2879  0.0313
 5092SOL    HW116889   0.664   8.973   0.168 -1.7721  0.3339  0.3834
 5092SOL    HW216890   0.596   8.843   0.133 -1.1745 -0.3998  1.8763
 5093SOL     OW16891   6.784   0.007   8.564 -0.2062  0.2535 -0.3147
 5093SOL    HW116892   6.689   0.004   8.548 -0.2678  1.0336 -0.1263
 5093SOL    HW216893   6.820  -0.060   8.506 -0.8795 -0.1052 -0.3343
 5094SOL     OW16894   3.967   4.613   9.143  0.1412  0.2065  0.0343
 5094SOL    HW116895   3.954   4.523   9.173  0.6503 -0.5076 -1.7721
 5094SOL    HW216896   3.880   4.643   9.118  0.1531 -0.2120 -0.5065
 5095SOL     OW16897   1.925   9.272   6.668 -0.0895 -0.3038  0.3279
 5095SOL    HW116898   1.853   9.237   6.719 -0.7219 -0.8696 -0.9178
 5095SOL    HW216899   1.897   9.265   6.577  2.2041 -2.1943 -0.3468
 5096SOL     OW16900   7.916   3.205   2.535 -0.0108  0.1718  0.1111
 5096SOL    HW116901   7.886   3.115   2.542 -1.3117  0.6848  2.0362
 5096SOL    HW216902   7.842   3.253   2.499 -0.9651  1.1275  3.0871
 5097SOL     OW16903   5.400   4.950   4.649 -0.6418 -0.5161  0.5667
 5097SOL    HW116904   5.424   4.924   4.738 -0.1505  0.1235  0.6371
 5097SOL    HW216905   5.386   4.868   4.602 -0.2190 -0.8761  1.0562
 5098SOL     OW16906   6.474   3.321   5.519  0.3496  0.0308  0.4835
 5098SOL    HW116907   6.432   3.330   5.434 -0.1974 -0.4565  0.7021
 5098SOL    HW216908   6.510   3.408   5.536  0.5447  0.1086 -0.2822
 5099SOL     OW16909   1.739   7.172   0.072  0.3541  0.3862  0.5398
 5099SOL    HW116910   1.705   7.258   0.049 -1.4371 -0.1486  0.9631
 5099SOL    HW216911   1.822   7.165   0.026 -0.2272  1.7183 -0.7874
 5100SOL     OW16912   9.759   6.121   3.578 -0.2353  0.2792  0.1977
 5100SOL    HW116913   9.836   6.066   3.595 -0.6863 -0.9328 -1.4503
 5100SOL    HW216914   9.687   6.076   3.623 -0.2279  0.7705  0.7261
 5101SOL     OW16915   5.386   5.118   6.440 -0.3795  0.0531  0.5174
 5101SOL    HW116916   5.415   5.093   6.527 -0.6564 -1.5740  0.1663
 5101SOL    HW216917   5.299   5.156   6.454 -1.1228 -1.6768  0.8072
 5102SOL     OW16918   6.693   2.932   6.932 -0.6491  0.6249 -0.7152
 5102SOL    HW116919   6.630   3.002   6.949 -1.0932  0.7643 -2.6278
 5102SOL    HW216920   6.694   2.924   6.836 -0.4624 -1.8492 -0.5715
 5103SOL     OW16921   5.943   6.815   1.308  0.0510  0.3943 -0.2626
 5103SOL    HW116922   5.907   6.836   1.222  1.2695  1.1409 -0.6146
 5103SOL    HW216923   5.964   6.900   1.347 -0.6585  0.0746  0.8620
 5104SOL     OW16924   0.444   3.006   5.800 -0.1419 -0.0401 -0.0441
 5104SOL    HW116925   0.488   2.959   5.729  0.0254 -0.0214  0.0482
 5104SOL    HW216926   0.497   3.083   5.814 -0.9886  0.7311 -0.9170
 5105SOL     OW16927   2.535   8.543   2.852  0.1989 -0.4576 -0.2326
 5105SOL    HW116928   2.560   8.463   2.805  1.5018 -0.5028  0.4821
 5105SOL    HW216929   2.510   8.604   2.783 -3.2582 -2.1865 -0.7250
 5106SOL     OW16930   0.585   2.562   2.579 -0.1016 -0.1965  0.0188
 5106SOL    HW116931   0.637   2.614   2.640 -1.1792 -0.0178  0.8080
 5106SOL    HW216932   0.542   2.626   2.523 -2.7068 -0.0488  2.0130
 5107SOL     OW16933   4.900   0.016   5.500 -0.0546 -0.1340  0.0143
 5107SOL    HW116934   4.925   0.011   5.592 -1.5184  0.6860  0.4778
 5107SOL    HW216935   4.981   0.040   5.455  0.5510  0.0228  1.1402
 5108SOL     OW16936   7.134   2.847   9.367 -0.0855 -0.4381 -0.7207
 5108SOL    HW116937   7.086   2.919   9.327  0.5586 -0.3300 -1.3179
 5108SOL    HW216938   7.226   2.869   9.353  0.1412 -0.6257  0.4409
 5109SOL     OW16939   6.464   1.305   1.120  0.3632  0.0673 -0.0501
 5109SOL    HW116940   6.535   1.317   1.184  0.6415  0.4699 -0.4332
 5109SOL    HW216941   6.504   1.326   1.036 -0.2175  0.2924 -0.2684
 5110SOL     OW16942   0.157   4.694   0.966  0.1053  0.2954 -0.4629
 5110SOL    HW116943   0.127   4.671   0.878  0.6760  0.1312 -0.6191
 5110SOL    HW216944   0.077   4.720   1.012 -0.2341  0.1509 -0.9545
 5111SOL     OW16945   1.218   4.606   7.446  0.7352  0.5909 -0.0085
 5111SOL    HW116946   1.230   4.697   7.474  0.5193  0.9557 -1.0715
 5111SOL    HW216947   1.253   4.554   7.519 -0.7048  1.4888  1.3902
 5112SOL     OW16948   8.889   8.792   2.744  0.0103 -0.0266  0.1011
 5112SOL    HW116949   8.853   8.783   2.656  0.5007 -0.9505 -0.0180
 5112SOL    HW216950   8.944   8.714   2.756  0.6420  0.5199  0.8995
 5113SOL     OW16951   1.614   7.719   9.811  0.0074  0.4087  0.1397
 5113SOL    HW116952   1.639   7.691   9.723 -0.1189 -0.4499  0.3671
 5113SOL    HW216953   1.520   7.704   9.815  0.0985 -0.0715  0.5990
 5114SOL     OW16954   6.495   1.264   6.256 -0.3821  0.0258  0.0339
 5114SOL    HW116955   6.457   1.350   6.269  0.0255  0.0215  1.3935
 5114SOL    HW216956   6.423   1.202   6.270 -0.4330  0.1027  0.1057
 5115SOL     OW16957   1.100   3.879   7.929  0.0833 -0.0785  0.5912
 5115SOL    HW116958   1.022   3.932   7.945 -0.0354 -0.7392  2.4196
 5115SOL    HW216959   1.075   3.821   7.857 -0.9028  0.1425  0.7434
 5116SOL     OW16960   2.037   1.751   5.438 -0.1284  0.1174  0.1003
 5116SOL    HW116961   1.957   1.721   5.479  0.1848 -0.3177  0.4089
 5116SOL    HW216962   2.089   1.788   5.509  0.2562 -0.2936  0.0386
 5117SOL     OW16963   4.796   7.730   5.283 -0.2195  0.0940 -0.2071
 5117SOL    HW116964   4.756   7.645   5.266  3.4541 -2.1098  0.8191
 5117SOL    HW216965   4.785   7.744   5.377  0.5712 -0.1059 -0.0748
 5118SOL     OW16966   8.421   4.922   0.557 -0.1253 -0.7285  0.3295
 5118SOL    HW116967   8.462   5.007   0.545 -0.2746 -0.3071  2.3526
 5118SOL    HW216968   8.333   4.942   0.590 -1.0965 -1.6587 -1.5610
 5119SOL     OW16969   1.661   2.068   6.086 -0.6085  0.6722  0.3297
 5119SOL    HW116970   1.735   2.069   6.146 -0.0599  2.6286 -0.3201
 5119SOL    HW216971   1.660   1.979   6.050  0.5755  0.2227  1.3490
 5120SOL     OW16972   1.729   3.822   0.115  0.0427 -0.0623  0.4136
 5120SOL    HW116973   1.788   3.898   0.106  1.0479 -0.8367  0.2526
 5120SOL    HW216974   1.756   3.780   0.197 -0.7563 -0.0481  0.6906
 5121SOL     OW16975   4.775   9.482   8.778  0.1230  0.1408 -0.7975
 5121SOL    HW116976   4.723   9.496   8.699 -0.2465 -2.1328 -1.0463
 5121SOL    HW216977   4.839   9.415   8.753 -1.8822 -2.8911  1.4748
 5122SOL     OW16978   4.111   1.592   0.743 -0.6991  0.4929  0.1751
 5122SOL    HW116979   4.053   1.598   0.819  0.3588  0.3078  1.0144
 5122SOL    HW216980   4.142   1.681   0.729  0.8435  0.1827  1.3728
 5123SOL     OW16981   0.460   1.805   7.264  0.3371 -0.2523 -0.1575
 5123SOL    HW116982   0.490   1.849   7.343  1.0468  0.0404 -0.5818
 5123SOL    HW216983   0.367   1.789   7.279  0.5351 -0.5066  0.8700
 5124SOL     OW16984   5.490   4.844   5.804 -0.0907 -0.1683 -0.3247
 5124SOL    HW116985   5.452   4.793   5.733  0.9921  0.5653 -1.4748
 5124SOL    HW216986   5.540   4.913   5.760 -0.1121  0.8472  1.1616
 5125SOL     OW16987   1.606   5.263   6.687 -0.5915 -0.2027  0.7607
 5125SOL    HW116988   1.682   5.300   6.732 -1.6906  0.4421  2.1510
 5125SOL    HW216989   1.574   5.334   6.631  1.6187 -1.4294 -2.3196
 5126SOL     OW16990   3.165   7.129   9.148 -0.2504 -0.3654  0.0545
 5126SOL    HW116991   3.113   7.189   9.095 -0.9745 -0.8774  0.1778
 5126SOL    HW216992   3.131   7.139   9.237 -0.7812 -1.3767 -0.0207
 5127SOL     OW16993   4.579   2.682   5.551 -0.1397  0.2276 -0.7668
 5127SOL    HW116994   4.491   2.679   5.513 -0.2528 -0.4884 -0.4644
 5127SOL    HW216995   4.638   2.675   5.476 -0.3241  1.2926 -1.0254
 5128SOL     OW16996   1.190   2.667   4.221 -0.2421  0.4774  0.2121
 5128SOL    HW116997   1.268   2.722   4.232 -0.1732  0.3521  0.3451
 5128SOL    HW216998   1.176   2.665   4.126 -1.0869  1.8984  0.2852
 5129SOL     OW16999   8.298   3.281   6.867  0.3260 -0.2360  0.5182
 5129SOL    HW117000   8.386   3.320   6.869 -0.2965  1.5651 -2.2646
 5129SOL    HW217001   8.241   3.352   6.839 -1.7098 -1.9036  0.2361
 5130SOL     OW17002   9.342   9.195   0.882 -0.0842 -0.3004  0.4454
 5130SOL    HW117003   9.394   9.266   0.920  0.3040 -0.3106 -0.0621
 5130SOL    HW217004   9.406   9.137   0.841 -0.5220 -0.0890 -0.5575
 5131SOL     OW17005   5.524   6.109   6.068 -0.2991  0.1180  0.2732
 5131SOL    HW117006   5.542   6.154   6.151 -1.2638  0.7523  0.1527
 5131SOL    HW217007   5.537   6.016   6.088 -0.9162  0.2296  1.2558
 5132SOL     OW17008   1.455   8.815   9.775 -0.4505  0.3553 -0.7182
 5132SOL    HW117009   1.418   8.753   9.839 -0.1200  0.3235 -0.5548
 5132SOL    HW217010   1.488   8.887   9.829 -1.8998  1.2540 -0.9807
 5133SOL     OW17011   3.451   1.746   6.201 -0.3880 -0.4116 -0.2491
 5133SOL    HW117012   3.493   1.665   6.230  0.5582  0.1689  0.0528
 5133SOL    HW217013   3.403   1.721   6.122 -1.6247 -1.6559  0.8378
 5134SOL     OW17014   9.148   8.870   6.819 -0.3552 -0.0523 -0.4177
 5134SOL    HW117015   9.219   8.900   6.762 -0.4215  1.7742  0.4081
 5134SOL    HW217016   9.191   8.849   6.902 -0.8211  1.9193  0.3805
 5135SOL     OW17017   9.625   7.030   0.900  0.3140 -0.7951  0.8125
 5135SOL    HW117018   9.646   7.052   0.809 -0.2854 -0.3321  0.7796
 5135SOL    HW217019   9.579   6.947   0.895 -0.9892 -0.0861  0.5395
 5136SOL     OW17020   1.870   3.933   3.439  0.1779 -0.3621  0.2475
 5136SOL    HW117021   1.819   4.006   3.472  0.3570 -0.2574  0.2908
 5136SOL    HW217022   1.819   3.855   3.463 -1.8099 -0.1612 -2.7516
 5137SOL     OW17023   4.898   5.050   1.994 -0.1850 -0.0593 -0.1666
 5137SOL    HW117024   4.877   4.958   1.980  0.0242  0.2050 -2.7747
 5137SOL    HW217025   4.813   5.095   1.993 -0.1196  0.1872 -3.2954
 5138SOL     OW17026   0.593   7.295   9.214  0.1014  0.4148 -0.3936
 5138SOL    HW117027   0.533   7.316   9.285  0.1674  0.5940 -0.3904
 5138SOL    HW217028   0.588   7.370   9.154  0.7823  0.7241 -0.0839
 5139SOL     OW17029   2.392   0.961   3.977  0.5203  0.3437 -0.1376
 5139SOL    HW117030   2.379   1.053   3.954  1.0168  0.6789  0.8293
 5139SOL    HW217031   2.476   0.960   4.022 -0.0377 -0.3692  0.9387
 5140SOL     OW17032   6.859   0.581   4.612 -0.0600 -0.6983  0.7177
 5140SOL    HW117033   6.894   0.609   4.697  0.9205 -0.4251  0.2476
 5140SOL    HW217034   6.872   0.657   4.556  0.4212 -1.2919  0.0183
 5141SOL     OW17035   3.944   7.760   0.887  0.0431 -0.7303  0.0113
 5141SOL    HW117036   4.015   7.713   0.843  1.3661  0.2987  0.9711
 5141SOL    HW217037   3.915   7.824   0.822 -0.2144 -1.3467 -0.4911
 5142SOL     OW17038   4.030   5.749   9.007  0.0721  0.6408 -0.6236
 5142SOL    HW117039   4.081   5.815   8.961  3.8476 -2.0976 -0.8731
 5142SOL    HW217040   4.085   5.723   9.081 -1.9807 -1.0743  0.4384
 5143SOL     OW17041   8.486   9.753   0.532 -0.3076  0.1199  0.2421
 5143SOL    HW117042   8.530   9.835   0.509 -1.0868  0.9697  1.6169
 5143SOL    HW217043   8.529   9.724   0.612 -0.6876 -0.2887  0.3019
 5144SOL     OW17044   4.331   0.844   6.145  0.0752 -0.6114 -0.1985
 5144SOL    HW117045   4.268   0.915   6.158 -2.3979 -2.7050  0.1261
 5144SOL    HW217046   4.370   0.830   6.231  0.5323  0.2890 -0.2524
 5145SOL     OW17047   2.147   1.035   4.426  0.5081 -0.3319 -0.0213
 5145SOL    HW117048   2.132   0.975   4.500 -2.8336  0.8238  0.3902
 5145SOL    HW217049   2.129   0.982   4.349 -2.9156  0.1025  0.3548
 5146SOL     OW17050   9.707   8.129   5.602 -0.3053  0.3566  0.3057
 5146SOL    HW117051   9.731   8.187   5.674  1.8558  0.9454 -0.7978
 5146SOL    HW217052   9.616   8.153   5.582 -0.2850  1.5938  1.4936
 5147SOL     OW17053   4.230   0.785   0.331 -0.0870  0.4488 -0.0824
 5147SOL    HW117054   4.141   0.807   0.303  0.2602  1.4920 -0.4045
 5147SOL    HW217055   4.277   0.868   0.331  0.3864  0.2535  2.0225
 5148SOL     OW17056   3.031   4.342   2.453  0.1624 -0.3987  0.0883
 5148SOL    HW117057   2.961   4.383   2.504  0.4887  1.2627 -0.7441
 5148SOL    HW217058   2.997   4.338   2.364  0.4665 -1.2248 -0.0012
 5149SOL     OW17059   3.376   6.049   5.338  0.1749 -0.3309  0.2826
 5149SOL    HW117060   3.417   6.022   5.420 -0.1753 -1.0906  0.2179
 5149SOL    HW217061   3.443   6.033   5.271  0.4671  0.3068  0.4104
 5150SOL     OW17062   9.296   4.776   9.755  0.7264  0.1755 -0.1022
 5150SOL    HW117063   9.350   4.848   9.788  1.1540 -0.2652  0.1628
 5150SOL    HW217064   9.257   4.737   9.834 -0.7779  1.0970 -0.3454
 5151SOL     OW17065   1.658   0.944   3.392  0.0729 -0.4215  0.4043
 5151SOL    HW117066   1.681   1.019   3.447 -0.9740  1.1239 -1.1667
 5151SOL    HW217067   1.565   0.955   3.374 -0.4105 -2.8192  1.1140
 5152SOL     OW17068   1.012   8.301   7.167  0.1498 -0.4757 -0.1634
 5152SOL    HW117069   0.978   8.325   7.254  0.2246  0.6077 -0.4155
 5152SOL    HW217070   0.978   8.213   7.152 -0.4642 -0.4001  0.6631
 5153SOL     OW17071   0.485   7.781   2.973  0.4751 -0.3406 -0.6467
 5153SOL    HW117072   0.496   7.864   3.020  1.9709 -0.2641 -1.0814
 5153SOL    HW217073   0.456   7.807   2.885  1.3309 -0.2280 -0.9085
 5154SOL     OW17074   5.048   7.680   1.262  0.3778 -0.8727 -0.1839
 5154SOL    HW117075   5.072   7.652   1.174 -0.4388  0.1168 -0.7537
 5154SOL    HW217076   5.129   7.677   1.312  1.5556  1.4105 -1.7542
 5155SOL     OW17077   7.489   5.823   4.992 -0.5657 -0.5037  0.6273
 5155SOL    HW117078   7.398   5.812   5.020 -0.6988  0.7324  0.7375
 5155SOL    HW217079   7.493   5.782   4.906 -1.1732 -0.7735  0.7250
 5156SOL     OW17080   9.620   4.871   6.076  0.3510  0.2912  0.1455
 5156SOL    HW117081   9.709   4.853   6.106 -0.8577 -2.4890  2.5721
 5156SOL    HW217082   9.569   4.881   6.156 -1.7512  0.4205 -1.1297
 5157SOL     OW17083   3.951   9.443   6.813 -0.1058 -0.2998 -0.2302
 5157SOL    HW117084   4.035   9.486   6.799 -0.3860  0.1702 -0.5023
 5157SOL    HW217085   3.887   9.515   6.816 -0.7754 -0.7597 -2.1700
 5158SOL     OW17086   5.463   7.094   6.616  0.0025 -0.0405 -0.1239
 5158SOL    HW117087   5.555   7.072   6.628 -0.1275 -0.4294  0.1664
 5158SOL    HW217088   5.459   7.138   6.531  0.3538 -0.5857 -0.4235
 5159SOL     OW17089   3.913   4.469   3.899 -0.2934 -0.1707 -0.5747
 5159SOL    HW117090   3.970   4.544   3.882 -1.0163  0.8905  1.3487
 5159SOL    HW217091   3.971   4.393   3.891  1.1880  0.8076  0.3410
 5160SOL     OW17092   0.456   9.758   8.357  0.5677 -0.1306  0.3695
 5160SOL    HW117093   0.394   9.783   8.289 -0.3477 -2.0242  0.4534
 5160SOL    HW217094   0.479   9.840   8.400 -1.1995  0.7160 -0.2234
 5161SOL     OW17095   4.862   5.717   4.504  0.1747 -0.0743  0.1295
 5161SOL    HW117096   4.925   5.652   4.474 -0.3149 -0.2165 -0.6442
 5161SOL    HW217097   4.792   5.714   4.438  0.0293  1.0553  0.2132
 5162SOL     OW17098   2.463   9.119   1.709  0.4742 -0.4064  0.2182
 5162SOL    HW117099   2.498   9.159   1.630  1.5870 -1.4015  0.1841
 5162SOL    HW217100   2.495   9.175   1.780  2.2438 -1.3176  0.1918
 5163SOL     OW17101   3.031   5.377   6.912 -0.3215 -0.1850 -0.3055
 5163SOL    HW117102   3.028   5.281   6.913  0.0902 -0.2905 -2.7124
 5163SOL    HW217103   3.124   5.397   6.902 -0.1994  0.5673  1.9486
 5164SOL     OW17104   4.224   8.892   0.645  0.0318  0.7171 -0.2422
 5164SOL    HW117105   4.259   8.954   0.581 -0.0146 -0.7581 -1.7824
 5164SOL    HW217106   4.129   8.900   0.637  0.0041 -0.4881 -1.4729
 5165SOL     OW17107   6.905   6.348   6.431 -0.5737 -0.3855  0.0380
 5165SOL    HW117108   6.931   6.257   6.446 -0.2987 -0.5207 -1.1516
 5165SOL    HW217109   6.855   6.371   6.509  1.4227 -0.7435  1.5046
 5166SOL     OW17110   6.161   4.577   8.103 -0.3181  0.2009  0.1093
 5166SOL    HW117111   6.211   4.537   8.032 -2.0045 -0.1284 -0.9545
 5166SOL    HW217112   6.132   4.503   8.157  1.1836  0.4669  1.3529
 5167SOL     OW17113   4.165   9.224   8.311  0.2226 -0.0089 -0.4650
 5167SOL    HW117114   4.103   9.291   8.341 -1.4295 -1.8438  0.4134
 5167SOL    HW217115   4.117   9.142   8.318  2.3901 -1.3940 -0.9087
 5168SOL     OW17116   3.743   5.555   4.534 -0.3905 -0.3069  0.0490
 5168SOL    HW117117   3.699   5.473   4.554 -0.1717 -0.8543 -1.5849
 5168SOL    HW217118   3.826   5.529   4.494 -0.8312  0.6625 -1.6148
 5169SOL     OW17119   4.464   0.686   2.426 -0.2166 -0.1263  0.6101
 5169SOL    HW117120   4.528   0.615   2.436  2.4652  1.4447 -3.0038
 5169SOL    HW217121   4.485   0.747   2.497  1.1097 -0.4792  0.5474
 5170SOL     OW17122   1.930   9.365   3.419 -0.3880  0.0170  0.1189
 5170SOL    HW117123   1.865   9.336   3.483 -1.8654  4.1311  0.7350
 5170SOL    HW217124   1.937   9.291   3.358 -1.4405 -2.7348  3.0606
 5171SOL     OW17125   3.550   5.257   1.140 -0.1392 -0.0660 -0.1156
 5171SOL    HW117126   3.520   5.295   1.223  0.8399 -2.2473  1.3054
 5171SOL    HW217127   3.478   5.200   1.112  0.5691 -1.3826  0.6604
 5172SOL     OW17128   8.686   9.011   0.226 -0.7628 -0.3388  0.1189
 5172SOL    HW117129   8.647   8.932   0.264 -0.5904 -0.0761  0.8530
 5172SOL    HW217130   8.711   9.064   0.301  5.0316 -2.2963  0.0581
 5173SOL     OW17131   7.396   5.890   1.300 -0.1730 -0.2136 -0.4718
 5173SOL    HW117132   7.340   5.937   1.238 -0.3587  1.1541  0.6635
 5173SOL    HW217133   7.406   5.951   1.373  0.4180 -1.5828  0.6350
 5174SOL     OW17134   1.882   8.306   1.084  0.0101 -0.1493 -0.2025
 5174SOL    HW117135   1.878   8.214   1.056  1.9595 -0.6998  1.1260
 5174SOL    HW217136   1.961   8.311   1.137  0.7527  2.6585 -1.4220
 5175SOL     OW17137   8.761   2.763   8.550 -0.3922  0.5317 -0.1953
 5175SOL    HW117138   8.719   2.847   8.529  0.3008  0.9363  0.0121
 5175SOL    HW217139   8.802   2.736   8.468 -0.9782  0.1747 -0.3774
 5176SOL     OW17140   3.228   3.885   0.141 -0.1593 -0.1046  0.0773
 5176SOL    HW117141   3.294   3.907   0.206 -0.9555  0.5241  0.6773
 5176SOL    HW217142   3.175   3.817   0.182  0.0921 -0.6081 -0.4054
 5177SOL     OW17143   6.303   0.783   6.559 -0.5184  0.1889 -0.4959
 5177SOL    HW117144   6.328   0.690   6.559  0.6222  0.4751 -1.2752
 5177SOL    HW217145   6.380   0.828   6.523 -1.4755  1.3200 -1.1690
 5178SOL     OW17146   7.402   1.689   0.717  0.0063  0.0509  0.2290
 5178SOL    HW117147   7.437   1.717   0.633  1.0660 -1.1658  0.2412
 5178SOL    HW217148   7.312   1.722   0.718 -0.9087 -1.9980 -2.4598
 5179SOL     OW17149   4.523   5.356   8.030 -0.6226 -0.0887 -0.5443
 5179SOL    HW117150   4.443   5.397   8.063 -0.7683 -0.5256 -0.3485
 5179SOL    HW217151   4.569   5.426   7.984 -1.3844  0.0320 -1.1422
 5180SOL     OW17152   5.122   3.910   1.206  0.0254  0.2423  0.3025
 5180SOL    HW117153   5.127   3.818   1.181  1.2908  0.2342  0.5192
 5180SOL    HW217154   5.090   3.909   1.296 -1.5426  0.1182 -0.2240
 5181SOL     OW17155   2.136   1.126   0.075 -0.2014  0.4598  0.1728
 5181SOL    HW117156   2.230   1.138   0.062 -0.0145 -0.0468  1.0023
 5181SOL    HW217157   2.113   1.054   0.017 -0.0158  0.3688  0.2122
 5182SOL     OW17158   8.192   1.482   6.739  0.1433 -0.2343  0.9176
 5182SOL    HW117159   8.261   1.533   6.696 -1.1274  0.5283 -0.2701
 5182SOL    HW217160   8.171   1.412   6.677 -0.1506 -0.4815  1.2881
 5183SOL     OW17161   9.539   8.226   8.953 -0.4424 -0.1170 -0.3048
 5183SOL    HW117162   9.513   8.144   8.912 -0.5351 -1.1072  1.6035
 5183SOL    HW217163   9.513   8.293   8.891  1.8012 -1.5816 -3.0504
 5184SOL     OW17164   2.662   8.652   9.479 -0.4577  0.0814 -0.6080
 5184SOL    HW117165   2.738   8.650   9.421 -0.2300 -0.1739 -0.3094
 5184SOL    HW217166   2.665   8.567   9.524 -1.1011 -0.0559 -0.8212
 5185SOL     OW17167   2.525   7.196   5.461  0.1443  0.2424 -0.3631
 5185SOL    HW117168   2.442   7.221   5.501 -0.9401 -2.0868 -0.9696
 5185SOL    HW217169   2.528   7.246   5.379 -0.2352  0.9581  0.0485
 5186SOL     OW17170   8.461   4.073   0.723 -0.4027 -0.2537  0.2144
 5186SOL    HW117171   8.376   4.092   0.684  0.1187  0.3944 -0.6489
 5186SOL    HW217172   8.455   3.982   0.751 -1.3130 -0.2699  0.0056
 5187SOL     OW17173   0.496   5.084   4.431 -0.1615 -0.2835  0.1658
 5187SOL    HW117174   0.456   5.085   4.518  1.5887 -3.0917  1.1614
 5187SOL    HW217175   0.443   5.023   4.381 -0.0991 -0.0663 -0.1661
 5188SOL     OW17176   1.433   7.723   0.588  0.2930  0.2656 -0.3285
 5188SOL    HW117177   1.411   7.632   0.609 -0.5133  0.7423  1.0702
 5188SOL    HW217178   1.528   7.727   0.592  0.2812 -0.1943  1.2017
 5189SOL     OW17179   3.284   5.427   2.621 -0.3662 -0.1638  0.4329
 5189SOL    HW117180   3.250   5.486   2.689 -0.3796 -0.8922  1.0767
 5189SOL    HW217181   3.363   5.470   2.590  0.6084 -0.6241  2.1373
 5190SOL     OW17182   5.693   2.433   2.946  0.4050  0.6045 -0.5717
 5190SOL    HW117183   5.747   2.429   2.867 -0.6461 -1.0708 -1.2576
 5190SOL    HW217184   5.672   2.341   2.965  0.8756  0.9249  1.8570
 5191SOL     OW17185   1.619   3.765   4.305  0.7439 -0.2568 -0.0184
 5191SOL    HW117186   1.713   3.744   4.308  0.2788 -2.5828  0.7421
 5191SOL    HW217187   1.579   3.702   4.365 -1.1334  1.9998  1.2823
 5192SOL     OW17188   6.250   8.859   6.220 -0.2968  0.3093  0.2557
 5192SOL    HW117189   6.246   8.858   6.315  0.7786 -0.9850  0.3219
 5192SOL    HW217190   6.344   8.865   6.200 -0.1750 -2.7267 -0.6293
 5193SOL     OW17191   8.909   1.622   0.071  0.6697  0.0064 -0.0171
 5193SOL    HW117192   8.902   1.549   0.009 -0.7264  0.1513 -0.0516
 5193SOL    HW217193   8.993   1.663   0.049 -0.0624  0.4597 -2.2986
 5194SOL     OW17194   2.411   9.004   8.375 -0.0690  0.0214  0.1251
 5194SOL    HW117195   2.330   9.025   8.330 -1.1377 -2.4261  0.7177
 5194SOL    HW217196   2.431   8.914   8.349  2.8011  0.7031 -0.4212
 5195SOL     OW17197   8.832   9.084   4.418  0.9637 -0.2001  0.4585
 5195SOL    HW117198   8.799   9.076   4.328 -0.6880 -2.4966  1.1598
 5195SOL    HW217199   8.896   9.014   4.427  1.2616  0.1360  1.0170
 5196SOL     OW17200   4.228   2.753   8.572 -0.0537 -0.0407  0.0865
 5196SOL    HW117201   4.300   2.813   8.554 -0.4642  0.0737 -1.2500
 5196SOL    HW217202   4.172   2.758   8.494 -0.7520 -1.2151  0.4872
 5197SOL     OW17203   4.982   7.244   4.779  0.6258 -0.0155 -0.1106
 5197SOL    HW117204   4.897   7.284   4.800  1.4643  2.0575 -0.4761
 5197SOL    HW217205   5.037   7.264   4.854  0.4657 -2.6841  0.8465
 5198SOL     OW17206   7.431   7.561   3.679  0.3549  0.4998 -0.0023
 5198SOL    HW117207   7.499   7.514   3.727 -0.0089  1.1888  1.2142
 5198SOL    HW217208   7.365   7.494   3.660  0.7918  0.0919 -0.1089
 5199SOL     OW17209   1.437   1.044   3.603  0.1046 -0.0220  0.0222
 5199SOL    HW117210   1.361   1.023   3.549  1.7011 -1.3541 -1.8589
 5199SOL    HW217211   1.454   1.137   3.585 -0.6657  0.1086 -0.0679
 5200SOL     OW17212   7.707   4.847   1.113  0.0972  0.0861  0.1192
 5200SOL    HW117213   7.665   4.779   1.060  1.5901 -0.5039 -0.3447
 5200SOL    HW217214   7.795   4.855   1.077  0.6834  0.6914  1.6006
 5201SOL     OW17215   8.298   8.914   3.093  0.1647 -0.0815  0.0940
 5201SOL    HW117216   8.205   8.888   3.093  0.3389 -0.7234 -0.2318
 5201SOL    HW217217   8.319   8.928   3.001  0.4438 -0.1337  0.1490
 5202SOL     OW17218   4.244   7.470   6.048  0.4296  0.1930 -0.4937
 5202SOL    HW117219   4.198   7.389   6.069  1.0410 -0.5422 -1.8997
 5202SOL    HW217220   4.199   7.504   5.970  0.7950  0.7037 -0.4875
 5203SOL     OW17221   3.226   8.031   9.247  0.1282 -0.2601  0.1236
 5203SOL    HW117222   3.283   8.062   9.176  0.0672  1.4035  0.7567
 5203SOL    HW217223   3.261   7.945   9.270  0.4985 -0.5812 -1.5213
 5204SOL     OW17224   8.664   8.078   0.487 -0.0498 -0.4321 -0.3367
 5204SOL    HW117225   8.733   8.121   0.436 -1.0597 -0.3092 -1.6332
 5204SOL    HW217226   8.582   8.108   0.448 -0.8709 -0.4588  1.2787
 5205SOL     OW17227   0.096   6.491   4.710  0.1445  0.2391  0.3184
 5205SOL    HW117228   0.068   6.434   4.782 -0.0457  0.9861  0.8414
 5205SOL    HW217229   0.190   6.499   4.721  0.0173  0.9712  0.9525
 5206SOL     OW17230   9.748   0.074   6.916  0.6877 -0.2376 -0.0116
 5206SOL    HW117231   9.818   0.136   6.935  0.2590  0.0135  0.7987
 5206SOL    HW217232   9.771   0.036   6.831  0.6827  1.4102 -0.7707
 5207SOL     OW17233   4.724   3.466   0.256  0.6766 -0.1840 -0.7920
 5207SOL    HW117234   4.734   3.561   0.243 -0.3961 -0.0243 -0.5404
 5207SOL    HW217235   4.714   3.455   0.350 -0.6947 -0.3780 -0.9405
 5208SOL     OW17236   4.211   1.395   0.080  0.1410  0.0346  0.1108
 5208SOL    HW117237   4.166   1.315   0.107  1.8154 -0.6655  0.9196
 5208SOL    HW217238   4.210   1.392  -0.016  0.2893 -1.0217  0.1314
 5209SOL     OW17239   4.789   0.884   5.963  0.0375 -0.3180 -0.4025
 5209SOL    HW117240   4.799   0.808   5.905 -0.3044  0.2866 -1.2766
 5209SOL    HW217241   4.697   0.907   5.956  0.4994  1.3141 -1.6279
 5210SOL     OW17242   8.504   3.446   5.766 -0.2774 -0.2178  0.2440
 5210SOL    HW117243   8.588   3.469   5.725 -0.4580  0.3653  0.1938
 5210SOL    HW217244   8.442   3.445   5.694 -0.4685  0.1616  0.3992
 5211SOL     OW17245   0.288   7.852   8.023 -0.1226  0.1039  0.3513
 5211SOL    HW117246   0.369   7.867   8.072  0.0611  1.2085 -0.2592
 5211SOL    HW217247   0.281   7.927   7.965 -0.5121 -0.9822 -1.0745
 5212SOL     OW17248   8.598   7.415   9.555 -0.1343  0.2708  0.2696
 5212SOL    HW117249   8.575   7.416   9.462 -0.1070  0.3623  0.2624
 5212SOL    HW217250   8.576   7.327   9.585 -1.1323  0.5518  0.4151
 5213SOL     OW17251   4.095   3.819   3.194  0.1852  0.0729  0.3246
 5213SOL    HW117252   4.119   3.861   3.111 -1.1241 -2.0135 -1.1899
 5213SOL    HW217253   4.003   3.840   3.205  0.4298  0.5931  1.4514
 5214SOL     OW17254   4.425   3.929   4.275  0.1859 -0.0388 -0.2726
 5214SOL    HW117255   4.402   4.005   4.221 -1.2788 -2.2445 -3.0646
 5214SOL    HW217256   4.503   3.893   4.233  1.0326  0.0567  1.1897
 5215SOL     OW17257   1.437   7.867   9.631 -0.1925  0.5215  0.0505
 5215SOL    HW117258   1.526   7.881   9.599  0.2079 -0.4903  0.6602
 5215SOL    HW217259   1.405   7.792   9.581 -1.3024  1.8023 -1.2683
 5216SOL     OW17260   6.296   7.035   1.147 -0.0724 -0.5418 -0.3326
 5216SOL    HW117261   6.264   6.992   1.068 -0.6084 -2.6828  0.9736
 5216SOL    HW217262   6.344   6.966   1.194 -2.8108 -0.4639  2.9098
 5217SOL     OW17263   5.735   3.591   2.320  0.2504  0.3912 -0.0798
 5217SOL    HW117264   5.643   3.566   2.330  0.1994  0.3905 -0.5172
 5217SOL    HW217265   5.783   3.518   2.359  0.0522  0.8578  1.0580
 5218SOL     OW17266   1.602   3.425   9.410  0.1845  0.0780  0.3514
 5218SOL    HW117267   1.643   3.391   9.331  0.2483 -0.2207  0.5128
 5218SOL    HW217268   1.671   3.474   9.454  0.7641 -1.4995  1.2784
 5219SOL     OW17269   4.969   0.209   7.229  0.7249  0.4472 -0.2115
 5219SOL    HW117270   4.926   0.252   7.155  2.6480  1.0435 -1.0425
 5219SOL    HW217271   5.027   0.144   7.188  2.4688  1.3823  0.6793
 5220SOL     OW17272   2.183   3.969   7.787 -0.5838  0.0259 -0.4151
 5220SOL    HW117273   2.225   3.941   7.867  1.2355 -0.4213 -1.4695
 5220SOL    HW217274   2.090   3.974   7.809 -0.3158 -1.5103  1.2890
 5221SOL     OW17275   8.718   5.866   4.955 -0.6966  0.0436 -0.0465
 5221SOL    HW117276   8.723   5.893   5.047 -0.0455  0.2270 -0.1328
 5221SOL    HW217277   8.651   5.798   4.954 -0.4016 -0.2663  0.6365
 5222SOL     OW17278   1.307   6.616   3.477 -0.0554  0.2314  0.8772
 5222SOL    HW117279   1.299   6.710   3.463  0.4560  0.0351 -1.0297
 5222SOL    HW217280   1.225   6.590   3.520 -0.4788  1.4311  0.8131
 5223SOL     OW17281   0.782   9.017   6.488 -0.0050  0.0002 -0.8706
 5223SOL    HW117282   0.727   8.950   6.449  0.2258 -0.6143 -0.1557
 5223SOL    HW217283   0.720   9.087   6.513 -0.1520  0.4097 -2.2973
 5224SOL     OW17284   8.042   4.535   4.595  0.0492  0.2180 -0.0516
 5224SOL    HW117285   7.971   4.598   4.582 -0.6502 -0.5926 -0.2157
 5224SOL    HW217286   8.009   4.474   4.660  0.7301  0.0279  0.1219
 5225SOL     OW17287   6.108   3.420   9.276 -0.2148 -0.4782 -0.3170
 5225SOL    HW117288   6.042   3.434   9.208 -1.1805 -0.4054  0.6051
 5225SOL    HW217289   6.058   3.387   9.351  0.7091  0.1640  0.6047
 5226SOL     OW17290   1.065   0.852   5.214  0.0964 -0.0519  0.4012
 5226SOL    HW117291   1.112   0.894   5.286 -0.1613  1.8730 -0.5089
 5226SOL    HW217292   1.121   0.779   5.189  1.8250  1.2103  0.4132
 5227SOL     OW17293   8.714   0.671   9.837 -0.4264  0.1971 -0.0656
 5227SOL    HW117294   8.619   0.673   9.839 -0.4919 -1.6366  0.8547
 5227SOL    HW217295   8.735   0.596   9.782  0.3853 -1.2428  2.0681
 5228SOL     OW17296   2.229   0.329   3.601 -0.3051  0.3101 -0.2355
 5228SOL    HW117297   2.311   0.305   3.558 -0.7199  0.7773 -1.3263
 5228SOL    HW217298   2.217   0.264   3.669  0.7543 -0.0176 -0.3501
 5229SOL     OW17299   0.287   3.708   7.048  0.4012  0.0016  0.2099
 5229SOL    HW117300   0.339   3.745   6.977 -0.0683  0.9082  0.3221
 5229SOL    HW217301   0.319   3.753   7.127  1.3948 -1.4899  0.6831
 5230SOL     OW17302   7.388   3.102   7.210 -0.0062  0.5217 -0.3185
 5230SOL    HW117303   7.332   3.172   7.178 -1.6208 -0.8852 -0.6775
 5230SOL    HW217304   7.396   3.119   7.304 -3.7565 -0.9402  0.4277
 5231SOL     OW17305   7.498   4.363   8.189  0.5605 -0.2049 -0.1352
 5231SOL    HW117306   7.513   4.273   8.159  1.5288 -0.3515  0.7482
 5231SOL    HW217307   7.582   4.406   8.177  0.4399  0.2433  0.5930
 5232SOL     OW17308   1.358   8.953   9.109 -0.4086 -0.0723 -0.3830
 5232SOL    HW117309   1.427   8.913   9.162 -0.1895  1.3398  0.4488
 5232SOL    HW217310   1.405   9.005   9.044 -0.6895  0.2063 -0.3637
 5233SOL     OW17311   3.374   0.514   9.340  0.6333 -0.5476 -0.2761
 5233SOL    HW117312   3.436   0.546   9.406  2.3287  0.0791 -2.0831
 5233SOL    HW217313   3.414   0.435   9.304 -0.7183 -1.4213  0.0194
 5234SOL     OW17314   0.963   0.451   7.041 -0.1401 -0.1318 -0.1983
 5234SOL    HW117315   0.910   0.502   6.980 -1.4482 -0.1496  0.8724
 5234SOL    HW217316   1.019   0.398   6.985  0.2664  1.4416 -1.3438
 5235SOL     OW17317   5.621   1.311   6.106  0.4553  0.0553  0.4400
 5235SOL    HW117318   5.677   1.363   6.165 -0.6415  1.1265  0.5787
 5235SOL    HW217319   5.590   1.238   6.160  0.3674  0.3992  0.8610
 5236SOL     OW17320   2.153   9.833   9.228 -0.0474 -0.7893  0.1409
 5236SOL    HW117321   2.204   9.799   9.154 -2.3655  0.2416 -2.0882
 5236SOL    HW217322   2.066   9.796   9.216 -1.4729  2.2548  0.1452
 5237SOL     OW17323   9.090   1.075   5.158 -0.0012 -0.0106 -0.3015
 5237SOL    HW117324   9.019   1.043   5.102 -0.7456 -1.2049  1.2304
 5237SOL    HW217325   9.151   1.117   5.098 -2.0426  1.1878 -1.6724
 5238SOL     OW17326   0.165   4.286   7.865  0.0903 -0.6007 -0.1061
 5238SOL    HW117327   0.147   4.209   7.919 -2.2293  1.5723  2.5140
 5238SOL    HW217328   0.242   4.327   7.906 -1.1523  0.5824  1.1642
 5239SOL     OW17329   4.643   2.842   7.365 -0.6730  0.3958  0.0240
 5239SOL    HW117330   4.701   2.782   7.412 -1.9124  0.1785  1.3595
 5239SOL    HW217331   4.688   2.927   7.371  0.4866 -0.1299 -0.8043
 5240SOL     OW17332   6.368   3.948   8.318  0.0195 -0.0408 -0.1889
 5240SOL    HW117333   6.417   3.897   8.254  1.8067  1.3505 -0.0109
 5240SOL    HW217334   6.277   3.944   8.287  0.2952 -2.1377 -0.9097
 5241SOL     OW17335   8.762   5.225   1.275  0.0836 -0.3337 -0.1148
 5241SOL    HW117336   8.846   5.194   1.309 -0.7617 -0.9592  1.5122
 5241SOL    HW217337   8.703   5.151   1.286 -0.9989  0.5233 -0.0428
 5242SOL     OW17338   2.860   7.354   5.097 -0.2649  0.4976 -0.2376
 5242SOL    HW117339   2.832   7.262   5.105  1.2102 -0.2660 -2.5641
 5242SOL    HW217340   2.941   7.359   5.147  0.9539 -0.2037 -2.0270
 5243SOL     OW17341   8.259   4.396   9.114 -0.7814 -0.6833 -0.1108
 5243SOL    HW117342   8.336   4.359   9.158 -0.1783 -2.9084 -2.7137
 5243SOL    HW217343   8.284   4.486   9.093  0.6631 -1.0139  0.1020
 5244SOL     OW17344   5.246   3.102   3.908  0.1472  0.0251 -0.5603
 5244SOL    HW117345   5.259   3.012   3.880 -2.9959 -0.4911 -0.7245
 5244SOL    HW217346   5.215   3.148   3.830 -1.2233  0.4658  0.2023
 5245SOL     OW17347   4.628   5.257   4.799 -0.1284  0.6308 -0.4866
 5245SOL    HW117348   4.575   5.192   4.753 -0.3970 -1.1276  2.1457
 5245SOL    HW217349   4.717   5.242   4.768 -0.5466  0.8622 -1.8847
 5246SOL     OW17350   6.877   5.935   4.738 -0.5247 -0.2648 -0.2617
 5246SOL    HW117351   6.956   5.898   4.699  0.1629 -0.3006  1.1159
 5246SOL    HW217352   6.826   5.860   4.768 -0.6687 -0.2123 -0.3745
 5247SOL     OW17353   2.413   9.391   6.867 -0.2450 -0.4664  0.2847
 5247SOL    HW117354   2.323   9.365   6.848  0.2577 -2.6995  0.6523
 5247SOL    HW217355   2.405   9.451   6.941 -1.4136 -0.6770  0.3571
 5248SOL     OW17356   9.325   4.429   4.912  0.3330 -0.0080  0.2337
 5248SOL    HW117357   9.279   4.512   4.900  4.0641  2.3636  0.7541
 5248SOL    HW217358   9.320   4.386   4.827 -0.0488  1.7215 -0.6680
 5249SOL     OW17359   7.361   9.464   8.284 -0.3955  0.0677  0.2740
 5249SOL    HW117360   7.372   9.502   8.371  0.0620 -0.5899  0.5161
 5249SOL    HW217361   7.449   9.464   8.246 -0.6533  0.6747 -0.3314
 5250SOL     OW17362   9.718   4.227   3.843 -0.5536 -0.2093 -0.2799
 5250SOL    HW117363   9.751   4.210   3.931  1.3064 -2.8776 -1.3426
 5250SOL    HW217364   9.658   4.155   3.825 -1.0477  0.3971 -1.1279
 5251SOL     OW17365   4.151   9.011   1.180  0.8741 -0.4960  0.3849
 5251SOL    HW117366   4.063   9.040   1.155  1.5385  0.7361 -0.6547
 5251SOL    HW217367   4.202   9.091   1.184  2.3742 -1.3416 -0.8039
 5252SOL     OW17368   4.985   2.983   8.935  0.1478  0.0919  0.1302
 5252SOL    HW117369   4.944   3.065   8.965  1.9705  0.4491  1.8531
 5252SOL    HW217370   4.925   2.950   8.868 -2.1764  1.2917  1.4805
 5253SOL     OW17371   6.651   2.226   5.449 -0.9687  0.2300  0.3827
 5253SOL    HW117372   6.646   2.167   5.373  0.2640  1.4371 -0.6951
 5253SOL    HW217373   6.647   2.314   5.411 -1.6445  0.8599  1.8599
 5254SOL     OW17374   3.701   0.212   0.177 -0.5171  0.0488 -0.2142
 5254SOL    HW117375   3.767   0.281   0.191  0.3688 -0.5419 -1.2929
 5254SOL    HW217376   3.642   0.249   0.111 -0.0963 -0.1851 -0.7241
 5255SOL     OW17377   6.719   8.591   9.274 -0.2294  0.5871  0.4593
 5255SOL    HW117378   6.780   8.653   9.314  0.0485  1.2363 -0.9263
 5255SOL    HW217379   6.732   8.602   9.180  0.0379 -1.7910  0.1669
 5256SOL     OW17380   4.232   8.684   5.767 -0.2883 -0.0800  0.5225
 5256SOL    HW117381   4.219   8.633   5.847  1.2001  0.8822  1.4135
 5256SOL    HW217382   4.196   8.629   5.698 -3.3648 -0.1953  2.0005
 5257SOL     OW17383   4.515   5.567   4.954  0.1103 -0.6628  0.3098
 5257SOL    HW117384   4.585   5.508   4.927  0.1657  0.0477 -1.2273
 5257SOL    HW217385   4.438   5.536   4.907 -0.4369 -0.9353  1.3520
 5258SOL     OW17386   4.442   6.162   5.394  0.4705 -0.1084 -0.7105
 5258SOL    HW117387   4.350   6.183   5.378  0.9281  0.4961 -2.7094
 5258SOL    HW217388   4.438   6.085   5.452 -1.2774  0.0071 -0.6106
 5259SOL     OW17389   8.918   1.927   3.674  0.0594 -0.3181 -0.1367
 5259SOL    HW117390   8.965   1.985   3.614  1.1368 -1.6261 -0.6123
 5259SOL    HW217391   8.889   1.984   3.745  2.0041  0.6294 -0.0471
 5260SOL     OW17392   0.806   1.147   0.546 -0.8357  0.0930  0.2529
 5260SOL    HW117393   0.812   1.214   0.477 -0.5210  0.1305  0.3139
 5260SOL    HW217394   0.894   1.111   0.551 -0.6325  0.6803  1.2239
 5261SOL     OW17395   2.171   9.110   8.320 -0.4618  0.1600  0.1287
 5261SOL    HW117396   2.086   9.116   8.363  0.1540  0.3519  1.3396
 5261SOL    HW217397   2.150   9.107   8.226 -1.7088  2.4583  0.2824
 5262SOL     OW17398   0.535   8.934   8.974  0.2168 -0.2354  0.3897
 5262SOL    HW117399   0.503   9.002   9.033 -0.7561  1.4207 -1.9019
 5262SOL    HW217400   0.627   8.955   8.960 -0.4455  1.6997 -1.5600
 5263SOL     OW17401   4.275   2.641   0.672  0.5636  0.4108  0.0666
 5263SOL    HW117402   4.358   2.687   0.664 -0.2005  1.5570 -2.5381
 5263SOL    HW217403   4.210   2.711   0.687 -0.4241  0.1470 -2.4309
 5264SOL     OW17404   0.640   1.903   7.998  0.4422  0.6384 -0.4802
 5264SOL    HW117405   0.686   1.961   7.938  1.1225  0.6264  0.0165
 5264SOL    HW217406   0.709   1.852   8.041 -0.1585 -0.9359 -1.2878
 5265SOL     OW17407   7.473   5.817   6.538 -0.4469  0.0611  0.7745
 5265SOL    HW117408   7.442   5.731   6.512  0.3303  0.3357 -1.2028
 5265SOL    HW217409   7.568   5.807   6.546 -0.2932  0.8461  0.0267
 5266SOL     OW17410   5.254   2.716   5.804 -0.1844 -0.0720  0.2066
 5266SOL    HW117411   5.282   2.761   5.724 -0.8215  1.6050  0.8804
 5266SOL    HW217412   5.315   2.644   5.813 -0.1351 -0.3569 -1.8245
 5267SOL     OW17413   1.442   8.760   0.866 -0.3943 -0.6746 -0.5393
 5267SOL    HW117414   1.348   8.742   0.865 -0.5807  0.2035  0.0844
 5267SOL    HW217415   1.459   8.791   0.955  0.2980  0.0935 -0.9290
 5268SOL     OW17416   4.816   4.017   5.791  0.0646 -0.2338 -0.3353
 5268SOL    HW117417   4.868   4.086   5.832 -1.3726 -0.8677  2.9068
 5268SOL    HW217418   4.735   4.061   5.765  0.0463 -0.2742 -0.3469
 5269SOL     OW17419   8.157   5.470   5.865  0.1323 -0.5395 -0.4244
 5269SOL    HW117420   8.078   5.445   5.913 -0.0508 -1.2885 -1.0964
 5269SOL    HW217421   8.190   5.388   5.830  3.2519 -0.8896  2.7819
 5270SOL     OW17422   2.014   2.708   6.728  0.2780 -0.0849  0.1467
 5270SOL    HW117423   1.940   2.706   6.788 -0.7567 -1.4698 -1.1166
 5270SOL    HW217424   1.986   2.764   6.656  0.2592 -0.9397 -0.5370
 5271SOL     OW17425   3.675   5.727   7.295  0.3845 -0.4988  0.2077
 5271SOL    HW117426   3.586   5.702   7.269  0.1317  0.1280  0.4414
 5271SOL    HW217427   3.695   5.671   7.370 -0.4488  0.4533  1.1731
 5272SOL     OW17428   6.102   8.104   2.791  0.0181  0.1000  0.2152
 5272SOL    HW117429   6.040   8.151   2.736  0.4933 -0.0832 -0.4855
 5272SOL    HW217430   6.105   8.154   2.873  0.6709  1.4108 -0.5831
 5273SOL     OW17431   8.322   7.120   5.236  0.3761 -0.3062  0.4012
 5273SOL    HW117432   8.391   7.057   5.217  2.1065  1.4833  0.4727
 5273SOL    HW217433   8.330   7.137   5.330 -0.3462 -0.2703  0.4639
 5274SOL     OW17434   2.903   2.139   8.621 -0.3811 -0.7750 -0.1749
 5274SOL    HW117435   2.862   2.096   8.695 -0.7866 -1.8879 -1.0195
 5274SOL    HW217436   2.993   2.155   8.649 -0.2549 -2.0862  0.1999
 5275SOL     OW17437   3.057   5.298   6.578  0.4026 -0.0717 -0.2381
 5275SOL    HW117438   3.032   5.234   6.513  0.3207  0.1388 -0.4155
 5275SOL    HW217439   2.995   5.370   6.567 -0.0432 -0.3249  0.5223
 5276SOL     OW17440   3.998   9.473   1.728  0.2522  0.1428 -0.4834
 5276SOL    HW117441   4.063   9.522   1.779 -2.2311  1.1797  1.9118
 5276SOL    HW217442   3.950   9.541   1.680 -0.7261 -0.3377 -0.1974
 5277SOL     OW17443   8.450   1.608   6.680 -0.0469 -0.7708 -0.5635
 5277SOL    HW117444   8.514   1.648   6.622  0.3788 -1.6035 -0.6938
 5277SOL    HW217445   8.413   1.681   6.731  1.4509 -0.3423 -0.0504
 5278SOL     OW17446   0.197   3.145   2.605  0.3504  0.1432 -0.7101
 5278SOL    HW117447   0.158   3.177   2.687 -0.6699  0.4951 -1.3099
 5278SOL    HW217448   0.231   3.224   2.562  1.4871 -0.1247 -0.3352
 5279SOL     OW17449   9.171   6.274   7.339 -0.1372  0.0814 -0.0836
 5279SOL    HW117450   9.095   6.245   7.289  0.1608 -0.0532 -0.4703
 5279SOL    HW217451   9.152   6.249   7.429  0.7095 -2.6986 -0.5637
 5280SOL     OW17452   7.878   0.991   9.280 -0.4354  0.0572  0.5437
 5280SOL    HW117453   7.857   0.973   9.372  0.9768 -1.8377  0.5510
 5280SOL    HW217454   7.973   1.007   9.280  0.1739 -3.0304 -0.9199
 5281SOL     OW17455   6.011   2.151   4.683 -0.0054 -0.3388  0.0126
 5281SOL    HW117456   5.976   2.155   4.595  1.5569  0.7007 -0.6094
 5281SOL    HW217457   5.972   2.225   4.729 -0.2168 -0.4217 -0.0336
 5282SOL     OW17458   7.937   9.216   7.809  0.4081 -0.2000  0.4405
 5282SOL    HW117459   7.971   9.282   7.748  1.6531  0.2608  1.5851
 5282SOL    HW217460   7.978   9.134   7.780  1.0064  0.0187  0.6511
 5283SOL     OW17461   0.332   5.284   9.222 -0.4187  0.1391  0.7350
 5283SOL    HW117462   0.363   5.365   9.182 -0.1554  0.2265  1.1086
 5283SOL    HW217463   0.251   5.308   9.266 -1.2196 -0.1586 -0.5121
 5284SOL     OW17464   4.923   0.011   7.462 -0.6393 -0.1253 -0.1467
 5284SOL    HW117465   4.907   0.061   7.383 -1.1393 -1.9249 -1.2417
 5284SOL    HW217466   4.993  -0.050   7.439 -1.6264 -1.5238  0.3551
 5285SOL     OW17467   1.083   3.091   4.306  0.4536 -0.6916  0.6128
 5285SOL    HW117468   1.150   3.095   4.373 -0.2755 -1.7909  1.4356
 5285SOL    HW217469   1.068   2.998   4.291 -0.5582 -0.4684  0.1192
 5286SOL     OW17470   5.531   8.534   4.197  0.5281 -0.2593  0.2016
 5286SOL    HW117471   5.470   8.469   4.163  4.0655 -3.2659 -1.0994
 5286SOL    HW217472   5.569   8.493   4.275 -1.4681  3.0713  3.2076
 5287SOL     OW17473   1.456   9.189   0.392  0.4161  0.0153 -0.9149
 5287SOL    HW117474   1.511   9.123   0.434 -2.3712 -1.0916  1.3316
 5287SOL    HW217475   1.501   9.272   0.409  1.8335 -0.8987  0.0014
 5288SOL     OW17476   0.220   4.480   6.694 -0.3648  0.3716 -0.3110
 5288SOL    HW117477   0.313   4.458   6.696 -0.5886 -0.6416 -0.4662
 5288SOL    HW217478   0.207   4.536   6.771  0.4709  0.9812 -0.5924
 5289SOL     OW17479   9.303   9.042   3.020 -0.1682 -0.1552 -0.3026
 5289SOL    HW117480   9.231   8.990   2.984 -1.6055  0.5262  1.4099
 5289SOL    HW217481   9.323   9.001   3.104 -0.4522  1.2417  0.4833
 5290SOL     OW17482   8.448   5.548   5.340 -0.2137  0.3135 -0.4780
 5290SOL    HW117483   8.486   5.480   5.284  0.4906  1.5047 -1.4981
 5290SOL    HW217484   8.407   5.500   5.412  0.7453 -1.1583 -0.8722
 5291SOL     OW17485   2.957   5.635   1.696  0.6445  0.6018  0.2167
 5291SOL    HW117486   2.879   5.690   1.683  1.0218  1.0543 -0.1702
 5291SOL    HW217487   2.948   5.602   1.785 -1.1264 -1.1706 -0.5506
 5292SOL     OW17488   7.514   7.087   5.571  0.2293  0.0930 -0.2633
 5292SOL    HW117489   7.560   7.013   5.531 -1.7463 -1.1770 -0.2919
 5292SOL    HW217490   7.487   7.141   5.497 -0.5679 -0.5446 -0.4592
 5293SOL     OW17491   7.680   6.471   3.592  0.0344 -0.2224  0.2204
 5293SOL    HW117492   7.615   6.468   3.662  0.3913  1.0085  0.6324
 5293SOL    HW217493   7.642   6.531   3.527  1.2513  1.5180  1.0318
 5294SOL     OW17494   8.839   5.662   3.471 -0.4226 -0.3872 -0.1385
 5294SOL    HW117495   8.796   5.727   3.526 -0.0122 -1.2949  1.3181
 5294SOL    HW217496   8.767   5.609   3.436 -0.6928  0.2582 -0.5812
 5295SOL     OW17497   6.224   2.665   6.470 -0.2202 -0.1824 -0.4445
 5295SOL    HW117498   6.279   2.724   6.523 -2.2859  0.6967  0.8307
 5295SOL    HW217499   6.197   2.719   6.396  0.1268 -0.4262 -0.7525
 5296SOL     OW17500   1.481   3.532   3.578  0.1928 -0.0342 -0.1269
 5296SOL    HW117501   1.394   3.493   3.568  0.1811 -0.6752  1.9619
 5296SOL    HW217502   1.518   3.488   3.654  1.3814  1.9779  0.5324
 5297SOL     OW17503   0.593   3.001   8.258 -0.0663 -0.2187  0.1088
 5297SOL    HW117504   0.507   2.995   8.297 -0.5151  0.6073 -0.6930
 5297SOL    HW217505   0.652   2.959   8.320 -0.8873  0.2022  1.1922
 5298SOL     OW17506   4.966   8.327   1.388 -0.1282 -0.0748  0.2070
 5298SOL    HW117507   4.900   8.395   1.376  0.5293  0.8323  1.5168
 5298SOL    HW217508   5.038   8.354   1.331 -0.7318 -0.9127 -1.0021
 5299SOL     OW17509   9.636   7.591   4.304 -0.3615 -1.0164  0.1531
 5299SOL    HW117510   9.541   7.603   4.299 -0.3331  1.0594  2.4131
 5299SOL    HW217511   9.650   7.552   4.390  0.8937  0.7704  0.8353
 5300SOL     OW17512   6.665   1.559   1.567  0.1640  0.4125  0.0318
 5300SOL    HW117513   6.728   1.535   1.635  0.5193 -1.4619 -0.8957
 5300SOL    HW217514   6.600   1.488   1.570 -0.2256  0.7120 -1.0853
 5301SOL     OW17515   8.361   2.593   0.833  0.1784  0.3344  0.4688
 5301SOL    HW117516   8.356   2.679   0.792  0.2889 -0.0451 -0.3710
 5301SOL    HW217517   8.452   2.586   0.863  1.6596 -1.2810 -3.6641
 5302SOL     OW17518   5.342   3.541   2.998  0.6857 -0.2579  0.0594
 5302SOL    HW117519   5.253   3.510   3.016  0.7635 -0.2615  0.4560
 5302SOL    HW217520   5.340   3.568   2.906  0.1234  0.2680  0.2202
 5303SOL     OW17521   5.279   4.182   0.603  0.4474  0.0243  0.2718
 5303SOL    HW117522   5.357   4.171   0.657 -0.0002  0.4972  1.0329
 5303SOL    HW217523   5.220   4.236   0.656 -0.0092  0.4935 -0.6820
 5304SOL     OW17524   2.756   4.791   3.510  0.3654  0.3660  0.3117
 5304SOL    HW117525   2.842   4.811   3.473  0.1742  2.2061  0.7633
 5304SOL    HW217526   2.774   4.763   3.599  0.4528  2.3073  0.9515
 5305SOL     OW17527   3.180   0.635   6.525  0.2659  0.2768  0.1116
 5305SOL    HW117528   3.111   0.575   6.496  0.2427 -1.1379  2.8051
 5305SOL    HW217529   3.132   0.711   6.559  0.2621  1.3615 -2.1315
 5306SOL     OW17530   5.803   2.538   1.051  0.2683  0.1857 -0.3730
 5306SOL    HW117531   5.774   2.627   1.070 -1.1958 -0.0977 -1.1305
 5306SOL    HW217532   5.864   2.547   0.978 -0.4474  0.5188 -0.9428
 5307SOL     OW17533   4.629   4.260   6.942 -0.2228  0.0957 -0.7216
 5307SOL    HW117534   4.657   4.209   7.019  0.5975 -0.7352 -1.5477
 5307SOL    HW217535   4.625   4.196   6.871 -0.9571  0.8597 -1.3885
 5308SOL     OW17536   9.149   6.213   1.582  0.2372 -1.4085  0.1187
 5308SOL    HW117537   9.057   6.188   1.576  0.0259 -0.4580 -1.0593
 5308SOL    HW217538   9.147   6.308   1.590  1.1380 -1.1554 -2.0408
 5309SOL     OW17539   9.253   7.637   0.173 -0.0809  0.0723 -0.2239
 5309SOL    HW117540   9.238   7.663   0.082  1.0915 -0.9052 -0.7364
 5309SOL    HW217541   9.339   7.595   0.172  0.7468  1.5583  1.6799
 5310SOL     OW17542   4.769   1.859   9.390 -0.5139 -0.0544  0.0710
 5310SOL    HW117543   4.732   1.885   9.306  0.2318 -1.4453 -0.7224
 5310SOL    HW217544   4.862   1.882   9.383 -0.5089  0.1237  0.6538
 5311SOL     OW17545   0.728   4.062   3.776 -0.0011  0.3067  0.2222
 5311SOL    HW117546   0.697   4.080   3.687 -1.0743  0.7605  0.6703
 5311SOL    HW217547   0.663   4.103   3.832  0.0268 -0.9925  1.2361
 5312SOL     OW17548   6.527   1.839   1.149 -0.4933  0.7298 -0.6671
 5312SOL    HW117549   6.453   1.799   1.103 -0.7451  1.7653 -1.1701
 5312SOL    HW217550   6.589   1.860   1.080  2.2616 -3.8860 -0.0236
 5313SOL     OW17551   0.134   5.930   5.760 -0.3412 -0.6097  0.3655
 5313SOL    HW117552   0.153   5.999   5.825 -0.4487  0.1523 -0.3938
 5313SOL    HW217553   0.111   5.978   5.681 -3.7708 -1.4444  0.6958
 5314SOL     OW17554   3.488   1.704   2.689  0.2020  0.4325  0.7063
 5314SOL    HW117555   3.555   1.717   2.756  0.1432  2.6556  0.4082
 5314SOL    HW217556   3.431   1.636   2.726  1.9723 -0.7674  1.4225
 5315SOL     OW17557   1.193   1.291   5.503 -0.5666 -0.2061 -0.3840
 5315SOL    HW117558   1.150   1.313   5.420 -0.7854  0.5993 -0.0752
 5315SOL    HW217559   1.138   1.333   5.569  0.2398  0.1505  0.0785
 5316SOL     OW17560   7.048   7.332   7.169  0.5457  0.2206 -0.1423
 5316SOL    HW117561   7.031   7.296   7.256  1.4940  0.6018  0.2207
 5316SOL    HW217562   7.044   7.427   7.182 -0.4976  0.2843 -0.7818
 5317SOL     OW17563   7.426   0.913   9.479 -0.1666  0.5475  0.5062
 5317SOL    HW117564   7.358   0.933   9.543 -0.3851  2.6239 -0.3129
 5317SOL    HW217565   7.384   0.853   9.417 -0.2633 -0.6392  1.6643
 5318SOL     OW17566   8.423   7.945   5.773  0.1230  0.3208 -0.2892
 5318SOL    HW117567   8.389   7.867   5.818 -1.1484  1.0898  0.1374
 5318SOL    HW217568   8.349   7.976   5.720  1.4028 -0.2249 -2.5248
 5319SOL     OW17569   1.688   4.252   7.056 -0.1179  0.4716  0.4084
 5319SOL    HW117570   1.680   4.345   7.035 -0.6959  0.0120 -1.5514
 5319SOL    HW217571   1.748   4.218   6.990 -0.7457 -0.7581  0.4619
 5320SOL     OW17572   4.993   2.169   8.116  0.3130  0.1012  0.1928
 5320SOL    HW117573   5.019   2.156   8.025 -0.3180  1.5688 -0.2227
 5320SOL    HW217574   5.016   2.087   8.159  4.1224  0.6551 -0.4369
 5321SOL     OW17575   6.036   8.044   9.046 -0.2327  0.3557 -0.1952
 5321SOL    HW117576   6.044   7.988   8.969  2.3943 -1.1791  1.0871
 5321SOL    HW217577   6.103   8.014   9.106 -1.4450  2.2189  2.3108
 5322SOL     OW17578   8.554   6.161   3.464  0.1116 -0.0985  0.1006
 5322SOL    HW117579   8.520   6.177   3.552  0.3409  0.1555  0.1428
 5322SOL    HW217580   8.552   6.246   3.421  1.6077  0.1227  0.4284
 5323SOL     OW17581   7.781   7.071   6.746 -0.2362 -0.4910  0.3184
 5323SOL    HW117582   7.688   7.095   6.743 -0.0416  0.2353 -1.4575
 5323SOL    HW217583   7.798   7.049   6.838 -1.5844  1.7390  1.1790
 5324SOL     OW17584   3.747   4.511   7.668  0.5402  0.6464 -0.0492
 5324SOL    HW117585   3.786   4.520   7.581  1.3198 -0.4149  0.1698
 5324SOL    HW217586   3.674   4.450   7.655  0.8533  0.2338  0.0786
 5325SOL     OW17587   6.000   8.449   8.274  0.0214 -0.3880  0.0852
 5325SOL    HW117588   6.037   8.419   8.191 -1.0143 -0.3298 -0.4092
 5325SOL    HW217589   5.913   8.408   8.278  0.2867 -0.8723  1.4300
 5326SOL     OW17590   3.055   7.126   8.328 -0.0685  0.2264  0.0022
 5326SOL    HW117591   3.084   7.214   8.349 -0.4668 -0.1033  2.1632
 5326SOL    HW217592   2.968   7.119   8.368  0.6591 -1.6513  1.4411
 5327SOL     OW17593   1.553   7.992   2.134 -0.4195 -0.3031  0.9932
 5327SOL    HW117594   1.538   8.086   2.138  0.3444  0.0794 -2.5466
 5327SOL    HW217595   1.464   7.954   2.134 -0.8533  0.6440 -0.4611
 5328SOL     OW17596   7.035   4.979   1.014 -0.3808 -0.2567 -0.7042
 5328SOL    HW117597   7.005   4.909   0.956 -2.1038 -0.7645  0.7186
 5328SOL    HW217598   6.995   4.959   1.099  1.2773  0.9947  0.4302
 5329SOL     OW17599   0.799   1.023   1.432  0.8307  0.0489  0.7154
 5329SOL    HW117600   0.806   1.007   1.338  2.0108  1.6805  0.4766
 5329SOL    HW217601   0.817   1.116   1.442 -0.1611  0.0980  2.4911
 5330SOL     OW17602   8.523   7.886   8.347  0.2495  0.2449 -0.0510
 5330SOL    HW117603   8.615   7.907   8.332 -0.0577  1.8221  0.0895
 5330SOL    HW217604   8.524   7.825   8.421  1.2627 -1.1649 -1.1629
 5331SOL     OW17605   4.962   3.054   0.143  0.2177  0.0335 -0.0094
 5331SOL    HW117606   4.871   3.044   0.172  0.8470  0.5624  2.3878
 5331SOL    HW217607   4.962   3.135   0.093 -0.4175  0.7450  1.1000
 5332SOL     OW17608   8.910   0.743   5.591  0.0706  0.2932  0.5505
 5332SOL    HW117609   9.004   0.746   5.571  0.4774 -0.2647  2.2248
 5332SOL    HW217610   8.893   0.823   5.639 -0.4971  0.7422 -0.3704
 5333SOL     OW17611   1.439   7.313   2.894 -0.6334  0.0284  0.0400
 5333SOL    HW117612   1.529   7.293   2.868 -0.0165  0.8821  1.4385
 5333SOL    HW217613   1.424   7.402   2.864 -1.3508 -0.4208 -0.9911
 5334SOL     OW17614   1.890   7.572   7.253  1.3944  0.3013 -0.6208
 5334SOL    HW117615   1.846   7.596   7.334  1.5344 -2.7742  0.4922
 5334SOL    HW217616   1.954   7.642   7.239  1.8011  0.6366  2.2900
 5335SOL     OW17617   5.592   3.834   2.256 -0.7531 -0.4445 -0.0077
 5335SOL    HW117618   5.644   3.914   2.254 -1.9431  0.3534 -1.9158
 5335SOL    HW217619   5.630   3.782   2.327 -0.9556  2.4973  2.4436
 5336SOL     OW17620   6.706   9.601   8.434  0.3610  0.0416 -0.2210
 5336SOL    HW117621   6.713   9.608   8.339 -1.0205  0.5410 -0.2999
 5336SOL    HW217622   6.753   9.520   8.455  0.6240 -0.1071 -1.3319
 5337SOL     OW17623   4.348   0.689   7.947 -0.1878 -0.7278 -0.4113
 5337SOL    HW117624   4.395   0.762   7.988 -0.1075 -0.1645 -1.4661
 5337SOL    HW217625   4.395   0.611   7.975  1.6490 -0.1692 -1.7132
 5338SOL     OW17626   1.794   6.297   6.662 -0.3313  0.1423  0.4665
 5338SOL    HW117627   1.754   6.330   6.743 -0.3108 -0.2928  0.6550
 5338SOL    HW217628   1.805   6.204   6.677 -1.3111 -0.1384 -0.4542
 5339SOL     OW17629   8.434   9.029   6.115 -0.7069  0.0022 -0.9121
 5339SOL    HW117630   8.465   9.099   6.058 -1.7969  2.0142  0.8166
 5339SOL    HW217631   8.354   8.997   6.073  0.6534 -1.4468 -2.5606
 5340SOL     OW17632   6.450   1.686   4.430  0.3925 -0.1437  0.6408
 5340SOL    HW117633   6.535   1.718   4.461  0.7759  1.1513 -1.5624
 5340SOL    HW217634   6.415   1.759   4.378 -2.1451 -0.5965  1.5780
 5341SOL     OW17635   6.356   8.767   1.717  0.1819  0.2973 -0.4476
 5341SOL    HW117636   6.373   8.860   1.734 -0.1796  0.2933 -0.0510
 5341SOL    HW217637   6.261   8.760   1.715  0.1750 -0.3159  0.9722
 5342SOL     OW17638   7.561   3.293   9.099 -0.0068  0.8313 -0.5281
 5342SOL    HW117639   7.565   3.263   9.008  0.5354  1.5709 -0.7550
 5342SOL    HW217640   7.621   3.235   9.145  1.2777  1.7269 -1.0229
 5343SOL     OW17641   1.094   7.237   6.357  0.2312 -0.4425  0.1923
 5343SOL    HW117642   1.017   7.265   6.407 -0.2783 -0.6752 -0.4484
 5343SOL    HW217643   1.069   7.249   6.266  0.9711 -0.4985 -0.0255
 5344SOL     OW17644   9.317   2.814   4.843  0.0776  0.2427 -0.1294
 5344SOL    HW117645   9.301   2.907   4.831 -2.7973 -0.0703  0.5084
 5344SOL    HW217646   9.359   2.785   4.762 -0.6246  1.7610 -1.0728
 5345SOL     OW17647   9.626   3.480   4.874  0.3204 -0.2938 -0.2778
 5345SOL    HW117648   9.662   3.495   4.961  0.9940  0.5313 -0.6775
 5345SOL    HW217649   9.652   3.391   4.852 -2.9366 -1.9484  1.7757
 5346SOL     OW17650   3.979   3.367   2.272 -0.6069 -0.5850 -0.4278
 5346SOL    HW117651   4.030   3.345   2.350  0.2933 -0.2278 -0.9030
 5346SOL    HW217652   3.923   3.290   2.258 -0.3399 -0.9073  0.2189
 5347SOL     OW17653   3.709   7.794   1.334  0.8783  0.2591 -0.4967
 5347SOL    HW117654   3.762   7.848   1.275 -1.2326 -0.5608 -3.3611
 5347SOL    HW217655   3.724   7.705   1.304 -1.0575 -0.0910 -0.5151
 5348SOL     OW17656   0.615   1.589   8.229  0.0740  0.3454 -0.5071
 5348SOL    HW117657   0.610   1.547   8.142 -0.8926 -0.2318 -0.1905
 5348SOL    HW217658   0.525   1.615   8.248  0.3371  0.7738  0.1841
 5349SOL     OW17659   4.527   6.564   4.239 -0.0644  0.1834 -0.4776
 5349SOL    HW117660   4.542   6.642   4.292 -0.8994  1.6351 -2.2374
 5349SOL    HW217661   4.595   6.502   4.267  0.2786  1.3112  1.3601
 5350SOL     OW17662   2.058   6.461   9.634 -0.2965 -0.1119  0.2085
 5350SOL    HW117663   1.988   6.523   9.615  0.6543  1.1999  0.8369
 5350SOL    HW217664   2.088   6.432   9.548 -0.4362  0.6864 -0.1198
 5351SOL     OW17665   7.296   0.697   0.276  0.0277 -0.3394 -0.0521
 5351SOL    HW117666   7.382   0.659   0.258 -0.3476 -0.8998 -0.7008
 5351SOL    HW217667   7.286   0.766   0.211  0.2287  0.1321  0.4052
 5352SOL     OW17668   4.765   2.061   9.800 -0.0773  0.0922  0.6792
 5352SOL    HW117669   4.705   2.100   9.737 -0.6675 -0.7411  0.7105
 5352SOL    HW217670   4.756   2.116   9.878 -0.8256 -0.0291  0.6913
 5353SOL     OW17671   1.851   2.896   2.731  0.2774  0.1631 -0.0184
 5353SOL    HW117672   1.813   2.844   2.802 -0.9493  0.2699 -0.5664
 5353SOL    HW217673   1.852   2.986   2.765  2.3058 -0.1488  0.8912
 5354SOL     OW17674   8.478   2.525   0.509  0.3248  0.6261  0.2090
 5354SOL    HW117675   8.558   2.501   0.462 -0.3998 -0.4137 -0.5540
 5354SOL    HW217676   8.502   2.519   0.602  1.1807  0.5339 -0.0086
 5355SOL     OW17677   9.388   6.972   9.494  0.4954 -0.1212  0.1003
 5355SOL    HW117678   9.440   6.906   9.540  0.1784 -0.2331  0.3062
 5355SOL    HW217679   9.392   7.049   9.550 -2.2945 -1.1181  1.8862
 5356SOL     OW17680   9.314   4.852   1.833  0.1928 -0.4310  0.0932
 5356SOL    HW117681   9.221   4.860   1.853  0.7498 -0.0510  2.9091
 5356SOL    HW217682   9.343   4.942   1.817  0.6113 -0.1412  2.2189
 5357SOL     OW17683   5.493   9.412   2.919 -0.7552  0.1977 -0.5280
 5357SOL    HW117684   5.515   9.373   2.835  0.9880 -0.9189  0.3891
 5357SOL    HW217685   5.543   9.493   2.922 -0.8853  0.2804 -0.5910
 5358SOL     OW17686   0.034   5.064   9.104 -0.1850  0.5932  0.1187
 5358SOL    HW117687  -0.027   5.003   9.146 -0.0389  0.0527 -0.4348
 5358SOL    HW217688   0.121   5.035   9.132 -0.1668  1.4571  1.0320
 5359SOL     OW17689   5.972   2.481   1.648 -0.1901  0.1869  0.7914
 5359SOL    HW117690   5.912   2.528   1.590  0.8285  0.8054  0.2051
 5359SOL    HW217691   5.915   2.435   1.710 -1.2189  2.0805  1.3105
 5360SOL     OW17692   3.331   9.781   2.808 -0.0758 -0.2008 -0.0832
 5360SOL    HW117693   3.325   9.691   2.776 -0.8527 -0.4849  0.8215
 5360SOL    HW217694   3.377   9.774   2.892 -0.0745  0.2510 -0.0446
 5361SOL     OW17695   9.842   8.209   4.465  0.4033  0.0525 -0.0089
 5361SOL    HW117696   9.895   8.236   4.540  0.8948 -1.5399  0.2489
 5361SOL    HW217697   9.776   8.278   4.457  1.6238  1.3505  0.5466
 5362SOL     OW17698   7.176   7.538   3.138  0.1705 -0.1376 -0.1791
 5362SOL    HW117699   7.166   7.523   3.044 -0.6044  0.7080 -0.2427
 5362SOL    HW217700   7.105   7.598   3.161 -0.6177 -1.5519  1.2551
 5363SOL     OW17701   4.548   3.822   6.190  0.0505 -0.7818 -0.5984
 5363SOL    HW117702   4.497   3.881   6.134 -0.8534 -1.4571 -0.5096
 5363SOL    HW217703   4.482   3.767   6.233  0.6252  0.2049  1.7352
 5364SOL     OW17704   0.609   5.933   3.570  0.4910  0.2867 -0.7003
 5364SOL    HW117705   0.616   5.854   3.516  0.5664  0.4143 -0.8776
 5364SOL    HW217706   0.610   5.900   3.660 -1.3458 -0.0882 -0.7722
 5365SOL     OW17707   9.501   7.747   8.987 -0.4208  0.3031  0.0083
 5365SOL    HW117708   9.425   7.780   9.034  1.2725  2.1975  1.5980
 5365SOL    HW217709   9.486   7.653   8.981 -2.1326  0.3972  1.6950
 5366SOL     OW17710   8.428   4.806   6.005 -0.0895  0.2210  0.3131
 5366SOL    HW117711   8.519   4.782   5.987 -0.2408  1.4824 -2.6041
 5366SOL    HW217712   8.376   4.743   5.956 -0.8601 -0.6537  2.1714
 5367SOL     OW17713   7.971   5.301   7.437  0.2489  0.1407 -0.2333
 5367SOL    HW117714   8.066   5.300   7.425  0.3081 -1.5476  0.1013
 5367SOL    HW217715   7.959   5.291   7.532 -0.2598 -0.5322 -0.3631
 5368SOL     OW17716   6.240   2.962   3.325 -0.6911  0.6229 -0.3876
 5368SOL    HW117717   6.257   3.023   3.254  2.2648  0.7439  0.2927
 5368SOL    HW217718   6.255   3.013   3.405 -0.3604 -0.4216  0.2423
 5369SOL     OW17719   6.857   1.066   9.681  0.5054 -0.2096 -0.0683
 5369SOL    HW117720   6.766   1.057   9.652  1.0274 -0.9595 -1.5474
 5369SOL    HW217721   6.867   1.001   9.750  0.7462 -2.3988 -2.0515
 5370SOL     OW17722   1.786   3.972   8.664 -0.2916 -0.1935 -0.0199
 5370SOL    HW117723   1.871   3.957   8.705 -0.1523  0.6130  0.0064
 5370SOL    HW217724   1.733   4.013   8.733 -0.3371  0.3523 -0.3795
 5371SOL     OW17725   3.131   2.015   2.833  0.0551 -0.1527 -0.2166
 5371SOL    HW117726   3.076   2.089   2.854  0.2265 -0.3468  0.9794
 5371SOL    HW217727   3.077   1.960   2.776 -1.6830 -1.1996  2.2982
 5372SOL     OW17728   9.087   7.795   4.447 -0.5353 -0.3708 -0.1485
 5372SOL    HW117729   9.051   7.840   4.371  2.2909  1.8648 -0.3373
 5372SOL    HW217730   9.018   7.802   4.514 -1.3609  1.6514 -1.1412
 5373SOL     OW17731   6.589   2.237   6.008  0.3182  0.5205 -0.7126
 5373SOL    HW117732   6.611   2.214   5.917  1.0488 -2.1349  0.0411
 5373SOL    HW217733   6.553   2.156   6.045 -0.9053  1.8201  1.1229
 5374SOL     OW17734   6.062   6.058   5.097  0.1599  0.6343 -0.2364
 5374SOL    HW117735   6.006   6.072   5.021  0.6542  1.0783 -0.5270
 5374SOL    HW217736   6.060   5.964   5.112 -1.1407  0.7049  0.1302
 5375SOL     OW17737   2.200   6.917   6.247  0.1591 -0.2279 -0.0004
 5375SOL    HW117738   2.147   6.934   6.324  1.2144 -1.0736  0.9401
 5375SOL    HW217739   2.148   6.857   6.194 -0.8810  0.9197 -0.3335
 5376SOL     OW17740   6.692   3.412   4.043  0.2133 -0.3902  0.0651
 5376SOL    HW117741   6.648   3.489   4.079  2.2437  0.9904 -0.1979
 5376SOL    HW217742   6.766   3.398   4.102  0.2618 -1.7383 -0.2916
 5377SOL     OW17743   4.584   9.298   7.349  0.4612  0.1054 -0.0424
 5377SOL    HW117744   4.565   9.383   7.309 -0.0478 -0.1229 -0.2999
 5377SOL    HW217745   4.541   9.302   7.434 -0.8523 -0.4432 -0.6609
 5378SOL     OW17746   0.134   6.215   9.827 -0.6835 -0.2349 -0.1739
 5378SOL    HW117747   0.092   6.258   9.753 -0.1670  1.5488  0.4973
 5378SOL    HW217748   0.119   6.275   9.901  0.3903 -1.0470  0.7440
 5379SOL     OW17749   1.827   9.578   1.936  0.1446 -0.2608  0.0211
 5379SOL    HW117750   1.908   9.559   1.982 -0.6705  0.6674  1.9742
 5379SOL    HW217751   1.830   9.524   1.857  2.9238  0.2506 -0.3068
 5380SOL     OW17752   8.138   7.806   1.222 -0.4159 -0.0520 -0.5529
 5380SOL    HW117753   8.150   7.889   1.268 -1.5218 -0.1350 -0.0804
 5380SOL    HW217754   8.214   7.798   1.165 -0.1344  1.1262 -0.3533
 5381SOL     OW17755   2.661   9.240   7.789  0.5182  0.1437  0.9262
 5381SOL    HW117756   2.713   9.270   7.715  1.3331  0.1983  1.5141
 5381SOL    HW217757   2.642   9.320   7.839 -0.9162  0.2594  0.2372
 5382SOL     OW17758   1.813   5.689   3.743 -0.4627  0.1289 -0.3085
 5382SOL    HW117759   1.869   5.635   3.798 -1.3815 -0.8931 -0.3514
 5382SOL    HW217760   1.830   5.659   3.654  0.2323  1.0463 -0.4956
 5383SOL     OW17761   5.119   0.308   7.834 -0.1556  0.0094  0.2910
 5383SOL    HW117762   5.163   0.290   7.917  0.2368  1.7941  0.5075
 5383SOL    HW217763   5.026   0.298   7.854  0.0098 -2.3644  0.1882
 5384SOL     OW17764   2.872   1.473   6.307  0.3288 -0.4206 -0.0332
 5384SOL    HW117765   2.902   1.557   6.270 -0.4750  0.4092  1.1478
 5384SOL    HW217766   2.825   1.497   6.387  0.7138 -2.0633  0.7273
 5385SOL     OW17767   4.947   1.918   8.232 -0.0026 -0.4959  0.4545
 5385SOL    HW117768   4.927   1.857   8.161  2.0579 -0.5641 -0.1058
 5385SOL    HW217769   4.874   1.906   8.294 -1.3343 -1.1292 -1.1573
 5386SOL     OW17770   5.226   5.805   3.527 -0.0894  0.0636 -0.0466
 5386SOL    HW117771   5.319   5.827   3.534 -0.1966  0.8400 -0.9420
 5386SOL    HW217772   5.204   5.767   3.613  1.3145 -1.2216 -0.2060
 5387SOL     OW17773   2.712   7.753   0.080  0.4948  0.2701 -0.7523
 5387SOL    HW117774   2.674   7.808   0.011 -0.2895  0.2589 -0.3474
 5387SOL    HW217775   2.794   7.796   0.103  0.0955  1.0504 -0.7336
 5388SOL     OW17776   4.502   7.992   2.757  0.3604 -0.2464  0.0575
 5388SOL    HW117777   4.558   8.064   2.787  0.0948 -0.7635  1.8912
 5388SOL    HW217778   4.560   7.916   2.752 -0.0189 -0.6383  1.3423
 5389SOL     OW17779   1.441   1.987   7.588 -0.2100  0.5862  0.3178
 5389SOL    HW117780   1.423   2.054   7.522  0.7072  1.1961  0.6715
 5389SOL    HW217781   1.357   1.974   7.633 -1.1058 -0.5197 -1.5461
 5390SOL     OW17782   3.811   2.139   6.144 -0.2166  0.6050  0.4362
 5390SOL    HW117783   3.894   2.109   6.181 -0.3084 -1.1384 -0.6130
 5390SOL    HW217784   3.757   2.060   6.140 -0.6889  0.9568 -2.0383
 5391SOL     OW17785   0.329   6.423   3.011 -0.0883  0.5907  0.1148
 5391SOL    HW117786   0.398   6.361   3.035 -1.1534 -0.4087  0.7082
 5391SOL    HW217787   0.344   6.440   2.918  0.4326 -0.2852  0.0214
 5392SOL     OW17788   9.240   8.724   9.586  0.3411  0.2818  0.3674
 5392SOL    HW117789   9.222   8.630   9.576 -1.2703  0.6246 -0.2162
 5392SOL    HW217790   9.248   8.737   9.681 -1.1671 -0.1625  0.5716
 5393SOL     OW17791   6.966   8.818   8.479 -0.8111  0.2247 -0.2012
 5393SOL    HW117792   6.971   8.822   8.575  0.2675  1.9619 -0.2891
 5393SOL    HW217793   7.017   8.740   8.456 -1.6306 -0.5918  0.6381
 5394SOL     OW17794   8.370   6.275   8.343 -0.3356 -0.2321  0.1120
 5394SOL    HW117795   8.415   6.302   8.263 -1.3025 -0.5012 -0.5335
 5394SOL    HW217796   8.283   6.248   8.314  0.2335 -3.1649  0.8136
 5395SOL     OW17797   9.026   1.407   7.796 -0.0404 -0.0900  0.4610
 5395SOL    HW117798   9.068   1.467   7.857 -0.5368 -0.2702  0.9828
 5395SOL    HW217799   9.007   1.461   7.719  2.2560 -0.2831 -0.3089
 5396SOL     OW17800   0.065   4.014   5.470  0.3769 -0.2518 -0.3394
 5396SOL    HW117801   0.024   4.048   5.390 -1.3253 -0.9804  0.1889
 5396SOL    HW217802   0.099   4.091   5.515 -0.7600  0.4209 -0.6199
 5397SOL     OW17803   5.495   4.203   6.698  0.5181  0.4801 -0.0357
 5397SOL    HW117804   5.551   4.134   6.666  0.3235 -0.6040  1.8057
 5397SOL    HW217805   5.408   4.163   6.702 -0.3128  1.9078 -2.1606
 5398SOL     OW17806   0.731   1.471   2.378 -1.0167  0.4208 -0.4492
 5398SOL    HW117807   0.639   1.447   2.392 -0.7637  0.0671  0.7760
 5398SOL    HW217808   0.773   1.452   2.462  0.2932  0.0158 -1.1695
 5399SOL     OW17809   2.517   4.235   3.404  0.0821  0.1707 -0.1277
 5399SOL    HW117810   2.466   4.172   3.456 -1.5389  1.8151  0.3905
 5399SOL    HW217811   2.606   4.227   3.438 -0.0795 -1.7683 -0.0381
 5400SOL     OW17812   6.157   0.094   9.695  0.2718 -0.7613 -0.7614
 5400SOL    HW117813   6.251   0.107   9.698  0.2165 -0.1683 -1.4473
 5400SOL    HW217814   6.125   0.156   9.629 -0.8683  0.6307  0.9935
 5401SOL     OW17815   7.667   1.432   0.701  0.5127 -0.1187  0.1482
 5401SOL    HW117816   7.715   1.361   0.659  1.6143  0.8502 -0.2759
 5401SOL    HW217817   7.682   1.508   0.645  0.8666  0.8751  1.5432
 5402SOL     OW17818   6.646   7.285   4.171  0.5444  0.3203 -0.0755
 5402SOL    HW117819   6.723   7.306   4.119  0.0148  1.7215 -0.3323
 5402SOL    HW217820   6.576   7.340   4.135 -0.7158 -1.2766 -0.1721
 5403SOL     OW17821   0.057   9.028   9.808  0.0687  0.6522  0.6128
 5403SOL    HW117822   0.016   9.055   9.890  1.2119 -0.9386  1.7803
 5403SOL    HW217823   0.041   9.100   9.748 -0.9571  1.7934  2.1802
 5404SOL     OW17824   7.745   5.324   6.948 -0.5913  0.5300 -0.2557
 5404SOL    HW117825   7.715   5.409   6.915 -3.9932 -0.4926 -0.1541
 5404SOL    HW217826   7.744   5.267   6.871 -0.8727 -0.0093  0.1416
 5405SOL     OW17827   5.711   0.968   6.180 -0.1613  0.4297 -0.3145
 5405SOL    HW117828   5.788   1.016   6.208 -0.2339  0.0440  0.6067
 5405SOL    HW217829   5.638   1.013   6.223 -0.6427  1.6264 -2.2322
 5406SOL     OW17830   6.507   8.774   1.199 -0.5319 -0.0194 -0.3239
 5406SOL    HW117831   6.461   8.741   1.122  0.1773 -0.3761 -0.6021
 5406SOL    HW217832   6.599   8.778   1.173 -0.2542 -0.3367  0.5634
 5407SOL     OW17833   3.756   9.153   4.162  0.0296 -0.1637  0.4610
 5407SOL    HW117834   3.802   9.181   4.241 -0.3152  1.5923  0.1016
 5407SOL    HW217835   3.698   9.227   4.141 -1.8496 -1.6644  0.0562
 5408SOL     OW17836   7.666   2.419   2.605  0.0702 -0.2517  0.7264
 5408SOL    HW117837   7.584   2.400   2.559  0.8426 -0.0293 -0.8107
 5408SOL    HW217838   7.685   2.340   2.655 -0.6550 -0.6129  0.4412
 5409SOL     OW17839   0.293   8.934   1.451  0.5820  0.1920 -0.1243
 5409SOL    HW117840   0.290   8.843   1.420  5.2085 -0.0499 -0.5364
 5409SOL    HW217841   0.302   8.986   1.371 -2.0431  1.1480  0.1142
 5410SOL     OW17842   0.746   3.472   3.473  0.1036  0.2288  0.2245
 5410SOL    HW117843   0.703   3.387   3.463  3.6560 -1.5669 -1.8487
 5410SOL    HW217844   0.747   3.509   3.385  3.8030 -0.5398 -0.2191
 5411SOL     OW17845   6.228   3.446   8.350 -0.5526  0.4732 -0.1972
 5411SOL    HW117846   6.274   3.458   8.267 -1.4448 -2.4657 -1.2056
 5411SOL    HW217847   6.139   3.477   8.333 -0.6450  0.1896 -0.2302
 5412SOL     OW17848   9.650   4.111   0.053 -0.4359 -0.3228 -0.2593
 5412SOL    HW117849   9.649   4.129   0.147  0.3345  1.9244 -0.6225
 5412SOL    HW217850   9.591   4.176   0.016  0.5500 -0.0841 -1.4842
 5413SOL     OW17851   5.981   4.501   1.875  0.3878 -0.0846 -0.3781
 5413SOL    HW117852   6.043   4.570   1.899 -0.1146 -0.0418  0.8496
 5413SOL    HW217853   6.033   4.437   1.827  1.2704  0.1958  0.1991
 5414SOL     OW17854   7.141   4.666   1.346 -0.1379  0.4345 -0.3082
 5414SOL    HW117855   7.169   4.741   1.398  0.2104 -1.1795  1.9657
 5414SOL    HW217856   7.204   4.661   1.274  0.9007  1.2707  0.5201
 5415SOL     OW17857   4.226   7.106   0.211 -0.6140 -0.4380 -0.1995
 5415SOL    HW117858   4.255   7.105   0.120  2.0684 -1.3488  0.5688
 5415SOL    HW217859   4.274   7.178   0.251 -0.7606 -0.8547  0.7661
 5416SOL     OW17860   3.922   7.379   7.979  0.1861  0.8264  0.4216
 5416SOL    HW117861   3.839   7.419   7.950 -0.0286 -0.0823 -0.2509
 5416SOL    HW217862   3.989   7.425   7.928 -0.1018  0.0235 -0.7316
 5417SOL     OW17863   9.626   8.965   7.480  0.2004  0.1822  1.3141
 5417SOL    HW117864   9.594   9.043   7.526  0.7922 -0.0528  2.1323
 5417SOL    HW217865   9.659   8.999   7.396 -2.1743  0.4235  0.4148
 5418SOL     OW17866   3.662   7.815   8.963  0.0475 -0.5195  0.0504
 5418SOL    HW117867   3.729   7.753   8.990 -0.6943 -1.6767 -0.7001
 5418SOL    HW217868   3.704   7.901   8.970  1.0007 -1.0648  1.3631
 5419SOL     OW17869   6.937   5.262   6.201 -0.2082  0.0744  0.4523
 5419SOL    HW117870   6.872   5.249   6.133 -1.3187  2.2789  1.0098
 5419SOL    HW217871   7.019   5.230   6.162 -1.2926 -1.3301 -0.8167
 5420SOL     OW17872   3.169   5.216   4.110 -0.3414 -0.1882  0.5003
 5420SOL    HW117873   3.264   5.203   4.105 -0.2751  0.3245  0.3513
 5420SOL    HW217874   3.158   5.300   4.154 -0.7091  0.0304  0.0042
 5421SOL     OW17875   0.259   3.840   5.449  0.2217  0.1926 -0.0741
 5421SOL    HW117876   0.183   3.896   5.433 -1.2289 -1.1812  1.5845
 5421SOL    HW217877   0.247   3.767   5.389  1.1185  0.7436 -0.9384
 5422SOL     OW17878   6.487   9.387   3.927 -0.4105  0.6502  0.1659
 5422SOL    HW117879   6.504   9.392   3.833 -2.1760  0.1763 -0.2133
 5422SOL    HW217880   6.555   9.443   3.966  2.8524 -2.1032 -1.0106
 5423SOL     OW17881   8.595   4.031   9.651 -0.2754  0.7482 -0.6239
 5423SOL    HW117882   8.536   4.096   9.689 -1.3222 -0.3350 -0.3579
 5423SOL    HW217883   8.568   4.026   9.559 -0.2644  0.6231 -0.6200
 5424SOL     OW17884   9.343   5.909   5.033 -0.7996  0.1743 -0.2714
 5424SOL    HW117885   9.421   5.863   5.003 -1.8977 -2.6644  0.8398
 5424SOL    HW217886   9.276   5.890   4.968 -1.1652  0.6342 -0.0416
 5425SOL     OW17887   5.258   0.719   5.004 -0.0613 -0.5647  0.2894
 5425SOL    HW117888   5.169   0.714   4.970  0.6540  0.3672 -1.9637
 5425SOL    HW217889   5.254   0.787   5.071 -0.9571 -0.1707 -0.1408
 5426SOL     OW17890   7.608   1.768   5.290  0.3137 -0.2008 -0.1035
 5426SOL    HW117891   7.627   1.781   5.197  0.9473  2.1415  0.2960
 5426SOL    HW217892   7.542   1.698   5.291 -0.5729  0.4930 -2.3990
 5427SOL     OW17893   0.993   9.197   4.545 -0.3691  0.1736 -0.5985
 5427SOL    HW117894   0.936   9.269   4.572 -0.0524  0.3467 -0.3859
 5427SOL    HW217895   0.998   9.140   4.622 -1.5919 -0.7236 -1.1397
 5428SOL     OW17896   5.403   4.096   8.422 -0.2032  0.0611 -0.3976
 5428SOL    HW117897   5.454   4.024   8.384  1.2160  0.1501  1.1959
 5428SOL    HW217898   5.394   4.072   8.515  1.1678  2.3458  0.4172
 5429SOL     OW17899   4.806   9.437   1.788  0.0885  0.1078  0.4821
 5429SOL    HW117900   4.799   9.516   1.733  1.6559 -0.1200 -0.0878
 5429SOL    HW217901   4.854   9.465   1.865 -0.3806 -0.0336  0.8310
 5430SOL     OW17902   4.664   7.186   3.224 -0.4245 -0.2900  0.3151
 5430SOL    HW117903   4.647   7.216   3.314  0.1431  0.9396  0.0264
 5430SOL    HW217904   4.759   7.192   3.215 -0.3254 -1.7567  0.0687
 5431SOL     OW17905   4.477   0.914   3.722  0.4473  0.9579  0.1125
 5431SOL    HW117906   4.537   0.877   3.787  2.5478  1.1961 -1.5555
 5431SOL    HW217907   4.534   0.939   3.649 -1.6448  1.8527 -1.3123
 5432SOL     OW17908   2.193   1.814   4.299 -0.2521  0.0544  0.4036
 5432SOL    HW117909   2.166   1.782   4.213  0.4935  1.7380 -0.5093
 5432SOL    HW217910   2.112   1.836   4.344 -0.6554 -1.0310  0.2299
 5433SOL     OW17911   1.495   6.029   4.528  0.3061 -0.1371 -0.3257
 5433SOL    HW117912   1.562   5.963   4.514 -0.8063 -1.1719 -0.8806
 5433SOL    HW217913   1.492   6.079   4.446 -0.8996 -1.3189 -1.0380
 5434SOL     OW17914   1.111   2.419   3.671 -0.0249  0.3739 -0.0270
 5434SOL    HW117915   1.206   2.419   3.655 -0.1137 -2.1588 -0.9726
 5434SOL    HW217916   1.098   2.349   3.735 -1.2097  1.3443  0.8568
 5435SOL     OW17917   0.594   8.190   4.895  0.6007 -0.3479 -0.5214
 5435SOL    HW117918   0.689   8.187   4.886  0.8699  0.9596  1.3579
 5435SOL    HW217919   0.578   8.260   4.958 -1.6850  0.1516 -1.5620
 5436SOL     OW17920   7.407   4.989   1.494 -0.0155  0.3827  0.1628
 5436SOL    HW117921   7.388   4.957   1.406 -0.9739  2.1023 -0.3004
 5436SOL    HW217922   7.342   4.946   1.550 -0.2102  0.2439 -0.1706
 5437SOL     OW17923   8.469   1.327   4.671  0.5529  0.0918 -0.0276
 5437SOL    HW117924   8.457   1.232   4.663  0.6866 -0.2166  2.6568
 5437SOL    HW217925   8.387   1.365   4.640  0.2834 -0.9124 -0.5855
 5438SOL     OW17926   2.165   5.947   8.383  0.4443 -0.0201  0.0127
 5438SOL    HW117927   2.143   5.880   8.448 -1.9230  0.2574 -0.3898
 5438SOL    HW217928   2.212   6.014   8.432 -1.1764  0.1284  1.4538
 5439SOL     OW17929   1.913   0.788   6.192  0.2228  0.4396  0.2201
 5439SOL    HW117930   1.958   0.774   6.275  2.0810 -3.5364 -1.1778
 5439SOL    HW217931   1.825   0.752   6.206 -0.0148  1.2257  0.8365
 5440SOL     OW17932   1.094   1.809   1.719 -0.0113  0.2942  0.1538
 5440SOL    HW117933   1.091   1.721   1.756 -1.0367 -1.5557 -3.7499
 5440SOL    HW217934   1.187   1.831   1.715  0.2953 -0.8900  0.5644
 5441SOL     OW17935   7.535   1.417   8.402 -0.1700  0.0853 -0.0402
 5441SOL    HW117936   7.480   1.349   8.363 -0.0049 -0.0628 -0.0171
 5441SOL    HW217937   7.586   1.452   8.329  1.7775 -1.7255  0.3741
 5442SOL     OW17938   7.132   6.874   4.746  0.0854  0.5078  0.1217
 5442SOL    HW117939   7.192   6.881   4.820  1.3931  1.1421 -0.9512
 5442SOL    HW217940   7.170   6.806   4.691 -1.2403 -0.4404  0.3222
 5443SOL     OW17941   0.621   1.256   6.515  0.1326  0.2772 -0.5686
 5443SOL    HW117942   0.567   1.333   6.501 -0.3313  0.2913  1.1312
 5443SOL    HW217943   0.592   1.220   6.599  2.7141  0.2754  0.4229
 5444SOL     OW17944   3.656   7.068   1.283  0.5624 -0.6887 -0.3433
 5444SOL    HW117945   3.698   7.005   1.340  1.7508 -1.0088 -1.5323
 5444SOL    HW217946   3.667   7.033   1.195  0.2285  0.5981 -0.9305
 5445SOL     OW17947   1.295   5.297   1.053 -0.5447  0.2387 -0.2994
 5445SOL    HW117948   1.341   5.370   1.011 -0.1713 -0.9001 -1.9285
 5445SOL    HW217949   1.365   5.238   1.082 -0.8569  0.3536  0.7227
 5446SOL     OW17950   1.555   0.795   8.853  0.4526 -0.4396 -0.0535
 5446SOL    HW117951   1.570   0.835   8.767  0.1123  0.2646  0.2024
 5446SOL    HW217952   1.639   0.757   8.877  1.1271  1.1309  0.1921
 5447SOL     OW17953   8.023   0.786   9.824 -0.2324 -0.3925 -0.0627
 5447SOL    HW117954   8.015   0.714   9.761  1.8198 -0.5218 -0.2590
 5447SOL    HW217955   8.010   0.744   9.909  0.3449 -0.9007 -0.2144
 5448SOL     OW17956   9.804   0.246   5.493  0.2047 -0.5077  0.2897
 5448SOL    HW117957   9.711   0.227   5.479  0.2362 -1.6424  1.5280
 5448SOL    HW217958   9.850   0.172   5.453  0.5762 -0.1905  0.1181
 5449SOL     OW17959   7.917   2.563   8.744  0.4520  0.3737  0.2459
 5449SOL    HW117960   7.908   2.482   8.692 -1.5523 -0.0820  1.1933
 5449SOL    HW217961   7.999   2.602   8.714  0.1580 -0.6612 -2.1402
 5450SOL     OW17962   7.917   6.382   6.806  0.0406  0.3278  0.0950
 5450SOL    HW117963   7.885   6.306   6.855  0.1601 -0.5029 -1.0723
 5450SOL    HW217964   7.845   6.444   6.807 -0.0611  0.2122  1.0669
 5451SOL     OW17965   8.652   5.292   7.002 -0.1495 -0.0332  0.0509
 5451SOL    HW117966   8.686   5.367   7.051  0.1318 -0.9897  1.3910
 5451SOL    HW217967   8.730   5.245   6.972 -0.3119 -0.4505  0.2773
 5452SOL     OW17968   7.736   4.263   8.600 -0.2257  0.6834 -0.3730
 5452SOL    HW117969   7.704   4.176   8.623 -0.1090  0.6514 -0.3368
 5452SOL    HW217970   7.659   4.320   8.610  0.0971  0.8872  1.2558
 5453SOL     OW17971   4.795   7.669   0.535 -0.7253 -0.1277 -0.2860
 5453SOL    HW117972   4.796   7.580   0.499  0.2162  0.1608 -1.0372
 5453SOL    HW217973   4.770   7.725   0.461  0.3719  0.3922 -0.2841
 5454SOL     OW17974   4.513   8.121   7.302  0.2506 -0.3103  0.0218
 5454SOL    HW117975   4.607   8.108   7.288  0.2800  0.7376 -0.9204
 5454SOL    HW217976   4.481   8.153   7.217 -0.9968 -0.8454  0.2688
 5455SOL     OW17977   4.621   7.358   7.012  0.0078  0.3971  0.0604
 5455SOL    HW117978   4.589   7.440   7.047 -0.1293  0.3524  0.0409
 5455SOL    HW217979   4.550   7.295   7.028 -0.2810  0.4947 -0.7623
 5456SOL     OW17980   6.107   0.731   6.343 -0.0878  0.3855 -0.1306
 5456SOL    HW117981   6.191   0.738   6.388 -0.4261  0.4810  0.5055
 5456SOL    HW217982   6.066   0.817   6.355 -0.8579 -0.0829  0.7798
 5457SOL     OW17983   0.630   1.945   5.802  0.3293  0.0998  0.5167
 5457SOL    HW117984   0.557   1.992   5.842  0.7429 -0.5785  2.1897
 5457SOL    HW217985   0.707   1.995   5.827  0.7347 -1.1660  1.9706
 5458SOL     OW17986   2.204   3.963   5.410 -0.0670 -0.4352 -0.5253
 5458SOL    HW117987   2.282   3.954   5.465  0.0871 -0.6025 -0.7686
 5458SOL    HW217988   2.209   3.889   5.350  0.0244  0.0171 -1.0788
 5459SOL     OW17989   8.428   1.393   2.891 -0.1060 -0.1323 -0.8483
 5459SOL    HW117990   8.347   1.430   2.857 -0.8534 -1.5594 -0.6931
 5459SOL    HW217991   8.403   1.308   2.926  0.6514  0.9767  2.9133
 5460SOL     OW17992   9.441   7.164   7.668 -0.4317  0.6399 -0.5950
 5460SOL    HW117993   9.437   7.095   7.601 -0.4858 -0.2079  0.2598
 5460SOL    HW217994   9.424   7.245   7.620  0.6345  0.1909 -1.8051
 5461SOL     OW17995   1.878   1.080   7.576 -1.1230  0.2979 -0.1437
 5461SOL    HW117996   1.813   1.150   7.566  0.8442  1.9234 -2.9571
 5461SOL    HW217997   1.886   1.042   7.489  2.1204  0.6757 -0.1330
 5462SOL     OW17998   9.512   8.042   6.191 -0.2597  0.3269  0.0180
 5462SOL    HW117999   9.433   8.060   6.242 -0.4443  1.5297 -0.6491
 5462SOL    HW218000   9.573   8.004   6.254 -1.3818 -0.6859  0.5263
 5463SOL     OW18001   8.013   5.140   4.484  0.0200 -0.4480  0.1752
 5463SOL    HW118002   8.097   5.151   4.529  0.9375 -3.9472 -0.4291
 5463SOL    HW218003   8.028   5.177   4.397  1.5352 -2.3960 -0.4574
 5464SOL     OW18004   8.785   6.495   6.589  0.0345  0.4074  0.0275
 5464SOL    HW118005   8.733   6.417   6.571 -0.0391  0.6489 -0.8671
 5464SOL    HW218006   8.835   6.473   6.668 -0.3061 -0.3794  0.0323
 5465SOL     OW18007   3.374   6.759   3.508  0.3560 -1.0161 -0.7582
 5465SOL    HW118008   3.401   6.677   3.467  1.6109 -1.1559  0.3128
 5465SOL    HW218009   3.369   6.821   3.435  0.8322 -1.6684 -1.3638
 5466SOL     OW18010   0.028   7.679   7.418  0.3324  0.3216  0.0052
 5466SOL    HW118011   0.095   7.632   7.369  0.2346 -0.4790  0.6201
 5466SOL    HW218012  -0.045   7.688   7.355  1.7273  3.0589 -1.3689
 5467SOL     OW18013   4.922   9.540   2.290 -0.1292 -0.4445  0.5352
 5467SOL    HW118014   4.877   9.474   2.341  1.1522 -1.0438  0.9279
 5467SOL    HW218015   5.013   9.510   2.285  0.1862  0.5701 -0.4692
 5468SOL     OW18016   9.028   5.338   5.768 -0.5879  0.3624  0.2354
 5468SOL    HW118017   9.086   5.270   5.802  0.1006 -0.3125 -2.1143
 5468SOL    HW218018   8.955   5.290   5.729 -1.2784  1.0938  0.5902
 5469SOL     OW18019   3.268   6.933   4.931  0.1718 -0.5278 -0.0435
 5469SOL    HW118020   3.289   7.026   4.934 -1.5180 -0.0765 -0.9479
 5469SOL    HW218021   3.353   6.889   4.930  1.0039  1.0285 -0.3924
 5470SOL     OW18022   6.957   4.057   1.970  0.5950  0.1429  0.1334
 5470SOL    HW118023   7.052   4.049   1.973  0.7558  1.8343  0.6806
 5470SOL    HW218024   6.941   4.147   1.940 -0.8148  0.1449  0.8024
 5471SOL     OW18025   7.727   3.210   8.793 -0.0562  0.0984  0.0664
 5471SOL    HW118026   7.634   3.197   8.811  0.4436 -0.8400  2.3600
 5471SOL    HW218027   7.740   3.304   8.799 -0.8649  0.2450 -0.4030
 5472SOL     OW18028   7.020   3.594   5.323  0.1836  0.0263 -0.4353
 5472SOL    HW118029   6.960   3.580   5.249 -1.6769  1.0285  0.8073
 5472SOL    HW218030   6.965   3.586   5.400  1.9841 -0.4909  0.8561
 5473SOL     OW18031   4.394   9.813   0.791 -0.8590 -0.4435  0.0929
 5473SOL    HW118032   4.404   9.731   0.840  0.2112 -0.8029 -0.6874
 5473SOL    HW218033   4.476   9.821   0.741 -1.0500  0.9739 -0.0381
 5474SOL     OW18034   8.758   6.140   5.891  0.6554 -0.2770  0.0308
 5474SOL    HW118035   8.767   6.047   5.912  1.1136 -0.6707 -1.6954
 5474SOL    HW218036   8.818   6.153   5.817  0.6949  1.4277  0.3310
 5475SOL     OW18037   4.617   3.451   9.205  0.1664  0.1501  0.5548
 5475SOL    HW118038   4.559   3.507   9.153  1.0611  2.0452  1.5036
 5475SOL    HW218039   4.704   3.468   9.169  0.4965 -0.3750  1.0898
 5476SOL     OW18040   3.100   9.015   4.125 -0.0884 -0.1236  0.5981
 5476SOL    HW118041   3.175   8.992   4.181  0.9349 -1.4651 -1.2147
 5476SOL    HW218042   3.025   8.974   4.168  0.4884 -0.1635  1.5931
 5477SOL     OW18043   7.420   7.253   1.166 -0.1322  0.6696 -0.4311
 5477SOL    HW118044   7.499   7.204   1.146  0.1391  0.7235  0.4721
 5477SOL    HW218045   7.361   7.234   1.093  0.2071 -0.4574 -0.4318
 5478SOL     OW18046   4.121   1.051   3.562  0.4856 -0.2717 -0.0076
 5478SOL    HW118047   4.027   1.064   3.558  0.4415  0.7233  2.2826
 5478SOL    HW218048   4.132   0.968   3.609  0.7737 -0.9726 -1.2801
 5479SOL     OW18049   8.881   6.084   1.532  0.6325  0.4901  0.0382
 5479SOL    HW118050   8.803   6.138   1.538  0.9984  1.1170 -0.7206
 5479SOL    HW218051   8.869   6.031   1.454 -0.2787 -1.4697  1.4202
 5480SOL     OW18052   2.131   7.549   8.654 -0.0484 -0.3949  0.8089
 5480SOL    HW118053   2.206   7.608   8.663  1.3120 -1.9590  0.3028
 5480SOL    HW218054   2.122   7.508   8.739  1.9785 -2.7403  0.0276
 5481SOL     OW18055   5.649   2.997   1.334  0.1119  0.1869 -0.2491
 5481SOL    HW118056   5.583   3.059   1.366 -0.4070 -0.5147  0.0674
 5481SOL    HW218057   5.663   2.937   1.408  0.1453 -0.4429 -0.7581
 5482SOL     OW18058   2.828   9.135   4.676 -0.3620  0.3306 -0.1241
 5482SOL    HW118059   2.789   9.140   4.588  1.2359  1.2768 -0.8084
 5482SOL    HW218060   2.756   9.159   4.735 -1.7434 -1.2427 -1.0522
 5483SOL     OW18061   0.883   7.660   5.869 -0.1807  0.2782 -0.2089
 5483SOL    HW118062   0.915   7.572   5.890 -2.8845 -0.7927 -0.2277
 5483SOL    HW218063   0.839   7.688   5.949 -2.5024  0.0323 -1.3246
 5484SOL     OW18064   2.100   4.777   7.449  0.3742 -0.3689  0.1583
 5484SOL    HW118065   2.011   4.754   7.421 -0.9689  1.6031  2.4198
 5484SOL    HW218066   2.114   4.727   7.529  1.8600 -1.5853 -0.8037
 5485SOL     OW18067   6.365   7.461   2.664 -0.1098  0.3872 -0.2288
 5485SOL    HW118068   6.453   7.434   2.637 -0.0349  1.7471 -1.4765
 5485SOL    HW218069   6.337   7.524   2.596 -2.2242 -0.3449 -0.1079
 5486SOL     OW18070   8.173   6.310   2.609  0.0233  0.2188  0.1979
 5486SOL    HW118071   8.160   6.233   2.554  1.8529  1.0083 -1.4358
 5486SOL    HW218072   8.191   6.274   2.696  0.7923 -1.2037 -0.5173
 5487SOL     OW18073   1.970   6.172   8.618  0.0604 -0.0068  0.2181
 5487SOL    HW118074   1.928   6.100   8.666 -0.8746 -0.9670 -1.8785
 5487SOL    HW218075   1.905   6.242   8.619  0.0598 -0.0112  0.4139
 5488SOL     OW18076   4.769   0.296   7.042 -0.5055 -0.5011 -0.5230
 5488SOL    HW118077   4.723   0.213   7.045  0.4222 -1.0006  1.0418
 5488SOL    HW218078   4.714   0.357   7.090 -1.1445 -0.1975 -1.5981
 5489SOL     OW18079   7.540   4.166   5.251  0.0707 -0.3340 -0.5395
 5489SOL    HW118080   7.486   4.175   5.329  0.6557 -1.7379  0.0571
 5489SOL    HW218081   7.483   4.192   5.179 -0.4337  1.1307  0.3403
 5490SOL     OW18082   7.757   6.233   3.037 -0.5598 -0.1970 -0.1077
 5490SOL    HW118083   7.807   6.255   3.115  1.2246 -0.0175 -1.2388
 5490SOL    HW218084   7.813   6.170   2.990  0.4056  2.6553 -3.1632
 5491SOL     OW18085   7.101   5.484   3.570  0.5153 -0.1167  0.0182
 5491SOL    HW118086   7.079   5.564   3.618  1.6317 -0.6612  1.5044
 5491SOL    HW218087   7.081   5.505   3.479  0.8143  1.8794  0.3603
 5492SOL     OW18088   6.534   5.971   2.813  0.2234  0.5607 -0.5149
 5492SOL    HW118089   6.619   6.012   2.795  0.7097  0.3653  1.1658
 5492SOL    HW218090   6.471   6.043   2.810  0.8470  1.2026  0.8376
 5493SOL     OW18091   4.481   1.041   2.915  0.3846  0.2486  0.1820
 5493SOL    HW118092   4.523   1.121   2.884  0.9795 -0.2084 -0.2149
 5493SOL    HW218093   4.527   1.018   2.995  0.3917  0.1635  0.1540
 5494SOL     OW18094   4.696   4.849   7.175 -0.2866  0.2282  0.1677
 5494SOL    HW118095   4.787   4.875   7.163  0.3479 -1.6639  0.4691
 5494SOL    HW218096   4.677   4.796   7.097 -1.1347  0.5924  0.1175
 5495SOL     OW18097   4.335   3.620   6.232  0.2999  0.0910 -0.6713
 5495SOL    HW118098   4.287   3.642   6.312 -1.4842 -0.7621 -1.4401
 5495SOL    HW218099   4.270   3.633   6.162  2.1787  2.1341 -2.1662
 5496SOL     OW18100   4.496   0.385   6.030  0.1414  0.6473 -0.0183
 5496SOL    HW118101   4.590   0.400   6.034  0.4403 -0.7492 -0.9124
 5496SOL    HW218102   4.458   0.454   6.084  1.4804  3.0460 -1.9143
 5497SOL     OW18103   6.000   3.495   8.139 -0.0881  0.4625  0.1665
 5497SOL    HW118104   6.079   3.547   8.151 -0.5144  0.8774  1.3053
 5497SOL    HW218105   5.928   3.558   8.146 -0.5203  0.5310 -3.2776
 5498SOL     OW18106   8.604   1.809   6.416 -0.2431  0.4552  0.8509
 5498SOL    HW118107   8.652   1.745   6.469  2.3997 -0.1237 -1.9303
 5498SOL    HW218108   8.558   1.756   6.351 -0.3403  1.2556  0.2571
 5499SOL     OW18109   8.145   9.044   9.255  0.5441 -0.6199  0.7275
 5499SOL    HW118110   8.099   9.124   9.232  0.0077 -1.1244 -0.0061
 5499SOL    HW218111   8.113   9.022   9.343 -0.4072 -0.8054  0.3458
 5500SOL     OW18112   9.467   2.644   0.204 -0.2427  0.4391  0.0589
 5500SOL    HW118113   9.485   2.667   0.113  1.6929  1.5487  0.6536
 5500SOL    HW218114   9.461   2.728   0.250  0.7326 -0.1019  1.2479
 5501SOL     OW18115   8.459   5.645   0.116  0.2993 -0.2282 -0.3958
 5501SOL    HW118116   8.411   5.715   0.159  0.3129  0.1574 -0.9950
 5501SOL    HW218117   8.527   5.621   0.178  0.7789  0.8263 -0.4835
 5502SOL     OW18118   6.411   1.732   5.143  0.3406 -0.2440 -0.9167
 5502SOL    HW118119   6.430   1.640   5.124  1.3511 -0.2813  0.1907
 5502SOL    HW218120   6.317   1.739   5.131  0.3209 -1.2804 -1.5726
 5503SOL     OW18121   3.069   6.857   8.459 -0.0276 -0.1220 -0.0615
 5503SOL    HW118122   3.039   6.925   8.398  2.0425  2.8331  1.9581
 5503SOL    HW218123   3.160   6.842   8.435 -0.2280 -1.6344  0.0565
 5504SOL     OW18124   3.591   8.381   0.259  0.0826  0.1362 -0.1611
 5504SOL    HW118125   3.562   8.428   0.181 -0.0123 -1.2488 -0.9956
 5504SOL    HW218126   3.570   8.440   0.332 -0.4096  1.1857 -1.1236
 5505SOL     OW18127   0.102   8.262   9.606  0.3212  0.5424 -0.1235
 5505SOL    HW118128   0.042   8.336   9.624 -0.4454 -0.3686  1.2716
 5505SOL    HW218129   0.189   8.302   9.607 -0.1581  1.6850 -0.9262
 5506SOL     OW18130   7.659   8.059   7.026 -0.8397 -0.4918 -0.2636
 5506SOL    HW118131   7.726   8.023   7.084  0.8856  0.8937 -1.3360
 5506SOL    HW218132   7.648   8.149   7.056 -1.6274 -0.4522 -0.6534
 5507SOL     OW18133   1.596   8.691   8.534  0.1303 -0.0935 -0.5872
 5507SOL    HW118134   1.667   8.629   8.546  0.7687  0.4887 -1.2578
 5507SOL    HW218135   1.637   8.777   8.544 -0.7187  0.2377  0.2502
 5508SOL     OW18136   5.948   1.535   8.379  0.0181 -1.1219  0.4699
 5508SOL    HW118137   6.020   1.520   8.317 -0.1348 -0.1513  0.0386
 5508SOL    HW218138   5.963   1.624   8.411 -1.5711 -0.5165 -0.4055
 5509SOL     OW18139   0.103   8.826   9.015 -0.3554 -0.3454  0.0182
 5509SOL    HW118140   0.161   8.754   8.991  1.4013  1.5185 -1.7929
 5509SOL    HW218141   0.137   8.858   9.099  1.2834  0.6669 -0.9801
 5510SOL     OW18142   1.773   8.199   8.081  0.5834 -0.1405  0.0458
 5510SOL    HW118143   1.782   8.279   8.030  0.2446  0.3612  0.7608
 5510SOL    HW218144   1.679   8.191   8.097  0.5484 -1.0063 -0.5237
 5511SOL     OW18145   2.595   9.293   6.328  0.3977  0.3695 -0.1955
 5511SOL    HW118146   2.533   9.245   6.383 -1.0919  1.0107 -1.2584
 5511SOL    HW218147   2.644   9.224   6.283 -1.0383 -0.2190 -0.9507
 5512SOL     OW18148   9.705   3.691   1.992  0.2188 -0.0920  0.2986
 5512SOL    HW118149   9.729   3.760   1.929  2.0335 -0.6584  0.3100
 5512SOL    HW218150   9.747   3.717   2.073  1.3234 -1.4163  0.1882
 5513SOL     OW18151   8.629   2.023   6.643 -0.3173  0.2146 -0.0238
 5513SOL    HW118152   8.543   2.064   6.645 -0.1638  0.5130  1.1214
 5513SOL    HW218153   8.625   1.962   6.569 -1.1320  1.0173 -0.6628
 5514SOL     OW18154   4.000   9.211   6.676  0.4640  0.1525 -0.1429
 5514SOL    HW118155   3.978   9.282   6.737 -1.3909 -1.1144  0.7647
 5514SOL    HW218156   3.945   9.137   6.704  1.5902 -1.3491 -1.6625
 5515SOL     OW18157   9.656   7.583   5.825  0.2135 -0.0806 -0.2597
 5515SOL    HW118158   9.646   7.669   5.785  2.6891  1.1133  1.4046
 5515SOL    HW218159   9.751   7.572   5.836 -0.1074 -2.3474  1.0100
 5516SOL     OW18160   0.648   3.482   6.314  0.5911 -0.3929 -0.3817
 5516SOL    HW118161   0.715   3.501   6.380 -1.0584  1.6832  0.8288
 5516SOL    HW218162   0.591   3.417   6.356  0.5820 -0.4724 -0.5170
 5517SOL     OW18163   6.619   8.112   5.226  0.0516 -0.2971  0.2291
 5517SOL    HW118164   6.552   8.096   5.292 -0.3109  0.2057 -0.0138
 5517SOL    HW218165   6.579   8.087   5.143 -0.4220  1.4854 -0.1223
 5518SOL     OW18166   9.731   0.389   8.038  0.1411 -0.4191 -1.0407
 5518SOL    HW118167   9.799   0.329   8.010  0.2489 -0.0435 -1.5901
 5518SOL    HW218168   9.667   0.334   8.084  0.9513 -0.7272 -0.2551
 5519SOL     OW18169   1.367   7.994   2.914 -0.4305 -0.0721  0.1452
 5519SOL    HW118170   1.323   8.055   2.855  0.2867  0.7483  0.4348
 5519SOL    HW218171   1.426   7.944   2.857 -0.0776  0.4009  0.0884
 5520SOL     OW18172   1.345   6.785   4.530  0.2940 -0.0542 -0.5851
 5520SOL    HW118173   1.257   6.820   4.540 -0.1911 -1.5495  0.6941
 5520SOL    HW218174   1.403   6.859   4.548 -0.6795  0.9266 -1.3817
 5521SOL     OW18175   3.923   4.520   1.254 -0.3106  0.4009  0.0634
 5521SOL    HW118176   3.945   4.590   1.315 -3.1054  0.3193  1.3130
 5521SOL    HW218177   3.832   4.535   1.231 -1.1488 -2.9621  0.6200
 5522SOL     OW18178   4.565   7.741   9.257  0.0005  0.2914  0.0992
 5522SOL    HW118179   4.583   7.823   9.211  0.4268  0.8530  1.2224
 5522SOL    HW218180   4.598   7.673   9.199  0.0445  0.9412 -0.6528
 5523SOL     OW18181   4.089   0.911   2.629 -0.4157 -0.2822  0.3571
 5523SOL    HW118182   4.126   0.827   2.602 -2.0014 -0.6251 -0.9091
 5523SOL    HW218183   4.130   0.929   2.713  0.6333 -1.8833  0.2364
 5524SOL     OW18184   6.078   7.524   9.555 -0.2105  0.7239 -0.0499
 5524SOL    HW118185   6.072   7.535   9.650 -2.3610  3.5498 -0.3739
 5524SOL    HW218186   6.005   7.576   9.521 -0.1129 -1.0172 -3.2333
 5525SOL     OW18187   3.558   1.246   5.735  0.0943  0.2202  0.4500
 5525SOL    HW118188   3.503   1.254   5.657  0.3465  0.8044  0.3304
 5525SOL    HW218189   3.647   1.252   5.702  0.2815 -1.7462  0.5185
 5526SOL     OW18190   7.755   7.363   5.436 -0.2997 -0.1511  0.1671
 5526SOL    HW118191   7.716   7.385   5.351 -0.0872 -0.8960 -0.1325
 5526SOL    HW218192   7.755   7.267   5.438  0.2229 -0.1431  0.7631
 5527SOL     OW18193   5.804   2.713   4.981  0.1982 -0.5275  0.3019
 5527SOL    HW118194   5.874   2.666   5.027  0.6687  0.0775  0.2215
 5527SOL    HW218195   5.817   2.804   5.006 -0.3359 -0.3632 -0.0196
 5528SOL     OW18196   1.974   3.112   7.938 -1.1502 -0.2809  0.2079
 5528SOL    HW118197   1.997   3.039   7.881  0.1121 -0.1350  0.5129
 5528SOL    HW218198   1.970   3.188   7.880  0.4699 -0.0699  0.3466
 5529SOL     OW18199   8.515   1.689   0.433 -0.0608 -0.5282  0.5952
 5529SOL    HW118200   8.425   1.689   0.401  0.0756 -0.5823  0.2126
 5529SOL    HW218201   8.566   1.647   0.363  0.5618  1.1619 -0.0118
 5530SOL     OW18202   6.929   0.494   3.012 -0.0888  0.1484  0.0832
 5530SOL    HW118203   6.857   0.514   3.072 -1.3588  0.3664 -1.4389
 5530SOL    HW218204   6.957   0.580   2.978  0.0911 -0.0211 -0.2055
 5531SOL     OW18205   2.556   1.187   3.347  0.4374  0.4288  0.1601
 5531SOL    HW118206   2.536   1.156   3.435 -0.3432  1.3768  0.3358
 5531SOL    HW218207   2.584   1.278   3.358  0.0209  0.6642 -0.5898
 5532SOL     OW18208   2.444   5.349   8.131 -0.1457 -0.0761 -0.1889
 5532SOL    HW118209   2.508   5.400   8.082 -0.2833 -0.4889 -0.8076
 5532SOL    HW218210   2.449   5.384   8.220  0.4455  0.3590 -0.3845
 5533SOL     OW18211   8.542   3.282   1.394 -0.0652  0.0805  0.0932
 5533SOL    HW118212   8.594   3.351   1.437  1.8013 -1.2561  0.1224
 5533SOL    HW218213   8.452   3.299   1.423  0.4388  2.0072  0.7338
 5534SOL     OW18214   8.120   2.750   8.204 -0.6466  0.6643 -0.4392
 5534SOL    HW118215   8.068   2.684   8.160  2.3770 -2.6385  0.4745
 5534SOL    HW218216   8.162   2.799   8.132 -0.8216 -0.2302 -1.1671
 5535SOL     OW18217   6.334   1.420   2.673 -0.5533  0.5037 -0.4291
 5535SOL    HW118218   6.345   1.328   2.694  1.0366  0.8611  0.4707
 5535SOL    HW218219   6.241   1.429   2.651 -0.3556 -1.6428 -2.4348
 5536SOL     OW18220   2.291   7.697   4.598  0.2126 -0.0047  0.4892
 5536SOL    HW118221   2.378   7.729   4.574  0.7980 -0.4115  1.9794
 5536SOL    HW218222   2.301   7.665   4.688 -1.4110 -0.3240  0.5823
 5537SOL     OW18223   8.868   4.479   0.851 -0.6693  0.1105 -0.1871
 5537SOL    HW118224   8.920   4.405   0.881  0.6001  1.0011 -0.1403
 5537SOL    HW218225   8.927   4.554   0.855 -1.8887  1.1154 -0.3518
 5538SOL     OW18226   7.063   0.555   7.947  0.5690  0.1691 -0.0853
 5538SOL    HW118227   6.991   0.598   7.993  0.0287 -0.6017 -0.1953
 5538SOL    HW218228   7.052   0.581   7.855  0.4624  0.0976 -0.0932
 5539SOL     OW18229   9.701   5.091   2.504  0.4596 -0.2119  0.2828
 5539SOL    HW118230   9.711   5.018   2.443  2.9163  0.9626 -0.8841
 5539SOL    HW218231   9.785   5.096   2.549  0.7259  2.3719 -0.3263
 5540SOL     OW18232   5.149   0.574   2.897 -0.2251  0.5238 -0.4170
 5540SOL    HW118233   5.182   0.663   2.886  1.9596 -0.1534  0.0920
 5540SOL    HW218234   5.206   0.535   2.963 -1.1036 -1.2574 -0.6409
 5541SOL     OW18235   3.350   5.183   3.245  0.2111 -0.1680  0.2264
 5541SOL    HW118236   3.379   5.163   3.335  2.4731  0.0858 -0.3964
 5541SOL    HW218237   3.424   5.229   3.205 -0.7094 -0.3551 -1.8174
 5542SOL     OW18238   7.014   4.782   9.338  0.3012 -0.1476  0.0117
 5542SOL    HW118239   7.048   4.868   9.313 -1.4763  0.8888  0.9797
 5542SOL    HW218240   6.978   4.747   9.256 -2.0623  1.5885  0.1781
 5543SOL     OW18241   8.727   2.898   0.658 -0.1454 -0.2865 -0.0476
 5543SOL    HW118242   8.708   2.854   0.575  0.6519  0.4027 -0.6123
 5543SOL    HW218243   8.782   2.972   0.634  0.5785 -0.3994  1.1740
 5544SOL     OW18244   7.526   3.609   6.973 -0.0588  0.3548 -0.3922
 5544SOL    HW118245   7.616   3.626   7.003  0.0703  0.4839 -0.8365
 5544SOL    HW218246   7.511   3.517   6.992 -0.2300  0.5966  0.6976
 5545SOL     OW18247   6.473   3.126   1.387  0.3369 -0.4865 -0.7661
 5545SOL    HW118248   6.479   3.096   1.296  1.9136 -2.2768 -0.1398
 5545SOL    HW218249   6.382   3.112   1.410  0.4482 -2.4770 -1.3294
 5546SOL     OW18250   4.455   7.737   4.523 -0.5793  0.2675 -0.1531
 5546SOL    HW118251   4.532   7.705   4.476  0.8259  4.6223 -1.2561
 5546SOL    HW218252   4.391   7.758   4.455  0.2375  3.5718 -0.0760
 5547SOL     OW18253   9.599   3.156   3.479 -0.3073 -0.4105  0.0008
 5547SOL    HW118254   9.555   3.238   3.455  1.5776  1.2585  1.8195
 5547SOL    HW218255   9.533   3.108   3.529 -1.7780 -0.5248 -1.9477
 5548SOL     OW18256   3.024   0.994   3.373 -0.0048  0.2476 -0.4822
 5548SOL    HW118257   2.957   1.058   3.398 -0.8058 -1.2694  1.5929
 5548SOL    HW218258   3.082   1.041   3.313  0.2933  3.3670  2.0028
 5549SOL     OW18259   8.667   4.332   1.195  0.4633  0.1717  0.3712
 5549SOL    HW118260   8.624   4.378   1.123  0.5119  1.1074  0.9205
 5549SOL    HW218261   8.597   4.286   1.240  0.5994 -1.4127 -0.9675
 5550SOL     OW18262   3.502   1.363   5.966 -0.3347 -0.2632  0.1084
 5550SOL    HW118263   3.532   1.348   5.876 -1.3352 -1.6430 -0.0290
 5550SOL    HW218264   3.428   1.303   5.977  0.0559 -0.4630  2.0147
 5551SOL     OW18265   2.964   1.240   1.644  0.4715 -0.0941  0.1647
 5551SOL    HW118266   2.898   1.288   1.694 -0.5646 -0.3625 -0.9020
 5551SOL    HW218267   3.046   1.259   1.689 -0.1422  1.2894  0.7786
 5552SOL     OW18268   8.221   0.462   3.763 -0.2449  0.1594 -0.1202
 5552SOL    HW118269   8.130   0.435   3.756 -0.6043  0.2727  2.8666
 5552SOL    HW218270   8.266   0.385   3.798  0.6066  0.4310 -0.5988
 5553SOL     OW18271   6.308   3.815   0.460 -0.2862 -0.0723 -0.1575
 5553SOL    HW118272   6.381   3.826   0.399 -0.1399  0.8364  0.1696
 5553SOL    HW218273   6.309   3.894   0.514 -0.0256 -1.1172  1.4439
 5554SOL     OW18274   4.958   4.226   2.613  0.4192  0.7824  0.0002
 5554SOL    HW118275   5.015   4.166   2.564 -0.0769 -0.4079  0.8239
 5554SOL    HW218276   5.002   4.237   2.698  0.9709  2.3528 -0.4523
 5555SOL     OW18277   1.241   2.767   2.305 -0.4172 -0.5481 -0.3397
 5555SOL    HW118278   1.171   2.827   2.278 -1.3525 -0.5900  1.8219
 5555SOL    HW218279   1.196   2.692   2.342  0.7471 -0.5958  1.0711
 5556SOL     OW18280   7.664   4.409   9.347 -0.5014 -0.1513  0.0565
 5556SOL    HW118281   7.734   4.466   9.315 -0.9997  1.4727  1.6682
 5556SOL    HW218282   7.667   4.332   9.289  1.8779  0.3385 -0.6000
 5557SOL     OW18283   5.341   8.577   7.802 -0.8312  0.4739  0.0177
 5557SOL    HW118284   5.379   8.495   7.834 -0.8411  0.4233 -0.1016
 5557SOL    HW218285   5.404   8.610   7.738 -0.9827  0.3923 -0.1761
 5558SOL     OW18286   1.526   0.841   0.546  0.3015  0.3203  0.0629
 5558SOL    HW118287   1.484   0.786   0.481  0.4899  0.3684 -0.1031
 5558SOL    HW218288   1.517   0.793   0.629 -0.4160  0.5127  0.1030
 5559SOL     OW18289   2.014   5.129   8.174  0.2363  0.0977  0.2246
 5559SOL    HW118290   1.926   5.123   8.213 -0.2447 -1.0959 -0.9735
 5559SOL    HW218291   2.052   5.208   8.212 -1.5690  0.9510  0.3359
 5560SOL     OW18292   0.369   0.571   8.675  0.0662 -0.3201 -0.3624
 5560SOL    HW118293   0.448   0.623   8.688  0.9755 -1.7157 -0.1260
 5560SOL    HW218294   0.400   0.486   8.645 -1.2342 -1.3344  0.9680
 5561SOL     OW18295   6.845   0.215   3.428 -0.8628  0.5255  0.1305
 5561SOL    HW118296   6.896   0.279   3.477 -0.5299  0.1251  0.3120
 5561SOL    HW218297   6.858   0.238   3.336 -0.8947  0.8315  0.2031
 5562SOL     OW18298   0.545   7.769   0.540 -0.5207 -0.4288 -0.1144
 5562SOL    HW118299   0.608   7.738   0.476 -0.4450  0.0076 -0.2530
 5562SOL    HW218300   0.593   7.772   0.623 -0.9197 -2.0814  0.2087
 5563SOL     OW18301   7.333   9.262   3.384 -0.4104 -0.3275  0.5365
 5563SOL    HW118302   7.346   9.319   3.308  0.6480  0.6004  1.3887
 5563SOL    HW218303   7.336   9.321   3.459  0.3272 -1.4608  1.4236
 5564SOL     OW18304   7.865   8.034   2.001  0.7976 -0.3742  0.2461
 5564SOL    HW118305   7.940   8.068   1.953  1.4560 -0.7520  0.9934
 5564SOL    HW218306   7.902   7.967   2.059 -0.3005 -1.5918 -0.4050
 5565SOL     OW18307   7.086   7.460   3.791 -0.4392  0.0487  0.2035
 5565SOL    HW118308   7.121   7.440   3.878  0.5078  2.2116  0.3735
 5565SOL    HW218309   7.137   7.404   3.731 -0.2993 -0.5985  0.9103
 5566SOL     OW18310   9.600   9.329   0.148  0.4817  0.7050 -0.3238
 5566SOL    HW118311   9.607   9.384   0.226  1.5213 -0.4051  0.3940
 5566SOL    HW218312   9.663   9.258   0.162 -0.1771 -0.1901 -1.6270
 5567SOL     OW18313   9.094   4.100   4.695  0.6565  0.2342  0.1811
 5567SOL    HW118314   9.026   4.077   4.758  0.9035 -1.4226 -0.1111
 5567SOL    HW218315   9.059   4.176   4.648 -1.2866 -0.9881 -0.4287
 5568SOL     OW18316   8.861   7.645   6.376  0.6456  0.5916 -0.1203
 5568SOL    HW118317   8.921   7.683   6.440  0.7294  0.5016 -0.1448
 5568SOL    HW218318   8.856   7.552   6.401  1.2284  0.4025 -0.6666
 5569SOL     OW18319   7.932   8.450   8.201 -0.2114  0.3766 -0.2700
 5569SOL    HW118320   7.870   8.493   8.143 -1.4487 -0.1300  0.6438
 5569SOL    HW218321   7.882   8.430   8.280  1.0497 -0.2588  0.4036
 5570SOL     OW18322   8.447   7.388   1.883  0.2182 -0.1637  0.3648
 5570SOL    HW118323   8.503   7.379   1.805  0.8344 -1.0076  0.8847
 5570SOL    HW218324   8.404   7.303   1.890 -0.7127  0.2896  0.3047
 5571SOL     OW18325   4.732   3.792   0.630  0.0424 -0.3420  0.0344
 5571SOL    HW118326   4.683   3.808   0.548 -1.1208 -1.1649  0.5338
 5571SOL    HW218327   4.817   3.832   0.615  0.3443 -1.6308 -2.1105
 5572SOL     OW18328   4.496   0.717   5.746 -0.2534 -0.2422  0.5237
 5572SOL    HW118329   4.548   0.667   5.809 -0.3505 -1.4724 -0.3262
 5572SOL    HW218330   4.467   0.651   5.682  0.3388  1.0378 -1.1371
 5573SOL     OW18331   6.410   4.328   1.711 -0.6996  0.1318  0.0775
 5573SOL    HW118332   6.479   4.275   1.750 -0.8159  0.4742  0.7540
 5573SOL    HW218333   6.450   4.364   1.631 -0.7833 -1.3698 -0.6788
 5574SOL     OW18334   5.316   0.944   0.903 -0.1209 -0.1215  0.1559
 5574SOL    HW118335   5.322   0.991   0.986  0.1836 -1.0410  0.6659
 5574SOL    HW218336   5.356   1.003   0.839 -0.7644  0.7868  0.5703
 5575SOL     OW18337   2.470   7.668   2.611 -0.0676  0.1861 -0.0285
 5575SOL    HW118338   2.417   7.746   2.623 -0.4536 -0.3569  2.2067
 5575SOL    HW218339   2.516   7.657   2.694  1.7740 -0.6847 -1.0988
 5576SOL     OW18340   0.143   4.466   5.198  0.2569  0.0117  0.1016
 5576SOL    HW118341   0.220   4.519   5.223  0.5638  0.1774 -1.1631
 5576SOL    HW218342   0.177   4.400   5.138 -0.1161 -1.7173  1.6791
 5577SOL     OW18343   0.165   5.475   4.981 -0.6919 -0.5871  0.0423
 5577SOL    HW118344   0.161   5.426   4.900  1.8757 -0.0751 -0.4643
 5577SOL    HW218345   0.083   5.525   4.983  0.3009  1.5137 -3.6742
 5578SOL     OW18346   2.505   1.688   6.483  0.7534 -0.1765  0.5511
 5578SOL    HW118347   2.586   1.729   6.453  1.1664 -1.7479 -0.6471
 5578SOL    HW218348   2.443   1.702   6.412  0.1827  0.3804  1.1461
 5579SOL     OW18349   5.235   7.311   5.269  0.0154 -0.5110  0.1177
 5579SOL    HW118350   5.182   7.319   5.348 -1.3320  0.1167 -0.8009
 5579SOL    HW218351   5.324   7.326   5.298 -0.3399 -1.2615  1.6699
 5580SOL     OW18352   5.839   1.470   3.512  0.2790  0.2556 -0.3550
 5580SOL    HW118353   5.903   1.535   3.485 -0.1871  0.7020 -0.4129
 5580SOL    HW218354   5.804   1.503   3.594  0.9130 -0.5465  0.2538
 5581SOL     OW18355   1.616   9.092   0.033 -0.3104 -0.1490 -0.4213
 5581SOL    HW118356   1.559   9.145  -0.022  1.4213  0.1206 -2.0282
 5581SOL    HW218357   1.673   9.045  -0.028 -0.6050 -2.5549  0.9978
 5582SOL     OW18358   9.421   7.173   3.997 -0.5965 -0.3737  0.4596
 5582SOL    HW118359   9.366   7.152   4.072 -0.8505 -1.7864 -0.1094
 5582SOL    HW218360   9.360   7.195   3.927 -0.3950 -0.3216  0.2978
 5583SOL     OW18361   6.011   7.967   8.443 -0.1385  0.0972  0.3236
 5583SOL    HW118362   5.978   7.885   8.480 -0.5546  0.2900  0.3899
 5583SOL    HW218363   5.933   8.011   8.410  0.3122 -0.4424 -1.5602
 5584SOL     OW18364   1.887   1.353   6.132 -0.2443  0.1912 -0.4893
 5584SOL    HW118365   1.904   1.293   6.059 -0.3495  2.2618 -2.3025
 5584SOL    HW218366   1.829   1.303   6.190  0.3839 -1.7596 -1.4405
 5585SOL     OW18367   8.809   9.051   9.689 -0.0599 -0.1204  0.0742
 5585SOL    HW118368   8.788   9.121   9.627  1.8866  0.6774  0.2237
 5585SOL    HW218369   8.847   8.982   9.634 -0.3379 -0.3206  0.1327
 5586SOL     OW18370   4.162   3.728   2.033  0.2619 -0.6732 -0.4501
 5586SOL    HW118371   4.231   3.749   2.097 -0.1708 -0.5037 -0.0360
 5586SOL    HW218372   4.127   3.813   2.007  0.0732 -0.7706 -0.5131
 5587SOL     OW18373   8.288   7.838   2.855 -0.5112  0.0168 -0.3343
 5587SOL    HW118374   8.292   7.878   2.943 -0.6331  1.0278 -0.7727
 5587SOL    HW218375   8.344   7.894   2.802  0.8070 -1.4736 -0.5887
 5588SOL     OW18376   9.390   6.847   8.042 -0.0942  0.0005 -0.5071
 5588SOL    HW118377   9.485   6.837   8.049 -0.0728  0.6386  0.2820
 5588SOL    HW218378   9.363   6.777   7.982  0.6167 -1.5223  0.8636
 5589SOL     OW18379   2.772   9.142   0.547  0.6371 -0.2919  0.0414
 5589SOL    HW118380   2.738   9.227   0.577 -1.3504 -0.8142 -0.6080
 5589SOL    HW218381   2.813   9.105   0.626 -1.4595 -0.1604  1.2742
 5590SOL     OW18382   1.952   8.747   3.891  0.3075 -0.6337 -0.1936
 5590SOL    HW118383   1.993   8.762   3.806 -0.0153  0.5123 -0.1644
 5590SOL    HW218384   2.024   8.743   3.953  0.4665  0.1310 -0.3143
 5591SOL     OW18385   3.028   1.429   4.789  0.0073 -0.2262  0.6271
 5591SOL    HW118386   3.001   1.337   4.787  4.6645 -1.8358 -0.7406
 5591SOL    HW218387   3.004   1.464   4.703 -1.1748 -0.2812  0.9125
 5592SOL     OW18388   4.509   4.002   3.724 -0.3168 -0.6771 -0.1829
 5592SOL    HW118389   4.548   4.061   3.789 -0.2759 -0.1165 -0.7036
 5592SOL    HW218390   4.529   4.043   3.640 -1.7222 -0.5641 -0.4815
 5593SOL     OW18391   4.788   6.730   4.074  0.0803  0.1433  0.1905
 5593SOL    HW118392   4.721   6.790   4.039  1.4543  1.0713 -0.9479
 5593SOL    HW218393   4.850   6.788   4.119  0.2919 -0.6842  0.9918
 5594SOL     OW18394   5.488   6.706   9.486  0.1965 -0.1508  0.2039
 5594SOL    HW118395   5.410   6.687   9.433  0.7408 -0.2648 -0.5708
 5594SOL    HW218396   5.547   6.752   9.427 -0.3559  2.4259  1.5495
 5595SOL     OW18397   2.590   9.742   1.553 -0.0138  0.1304  0.3127
 5595SOL    HW118398   2.587   9.733   1.458  0.0455  0.8055  0.2434
 5595SOL    HW218399   2.679   9.769   1.572 -0.9171  3.7649  0.1818
 5596SOL     OW18400   2.690   4.761   5.092  0.0740  0.2653  0.3150
 5596SOL    HW118401   2.725   4.818   5.161  0.4153  0.4036  0.0295
 5596SOL    HW218402   2.716   4.672   5.118 -0.9018  0.1803  1.0289
 5597SOL     OW18403   2.888   3.979   6.864  0.6008  0.1804 -0.1831
 5597SOL    HW118404   2.793   3.972   6.873  0.7588 -1.2691  0.8901
 5597SOL    HW218405   2.901   4.030   6.785 -1.0751  0.1168 -0.5448
 5598SOL     OW18406   0.743   0.236   6.788  0.3066  0.3726  0.0408
 5598SOL    HW118407   0.657   0.197   6.773  0.1212  0.0814  1.6463
 5598SOL    HW218408   0.752   0.237   6.884  1.8581  0.9077 -0.0863
 5599SOL     OW18409   9.757   4.224   4.861  0.4112  0.7045  0.5327
 5599SOL    HW118410   9.700   4.283   4.911  0.2476  1.0491 -0.0461
 5599SOL    HW218411   9.701   4.148   4.842  0.7072  0.2121  1.5262
 5600SOL     OW18412   4.965   9.762   2.591  0.2539 -0.3864 -0.0372
 5600SOL    HW118413   4.876   9.799   2.597  0.1525 -0.7634  1.0975
 5600SOL    HW218414   5.015   9.828   2.543 -0.1082  0.9030  1.2732
 5601SOL     OW18415   9.541   0.107   5.530  0.0202  0.4472 -0.1929
 5601SOL    HW118416   9.590   0.058   5.596  0.2625 -0.0407 -0.7197
 5601SOL    HW218417   9.496   0.175   5.579  0.4604  0.3015  0.4309
 5602SOL     OW18418   2.460   0.714   4.545  0.4212  0.3525  0.1861
 5602SOL    HW118419   2.461   0.743   4.454  0.9765  0.2718  0.1635
 5602SOL    HW218420   2.481   0.793   4.596  1.6704  0.0705  0.1402
 5603SOL     OW18421   9.503   5.909   0.533 -0.2209 -0.1452  0.1964
 5603SOL    HW118422   9.586   5.949   0.559 -1.3552  3.3668 -0.9986
 5603SOL    HW218423   9.521   5.870   0.447  0.6942 -1.5274  0.9796
 5604SOL     OW18424   1.972   6.328   5.402 -0.3594 -0.0545 -0.2818
 5604SOL    HW118425   1.972   6.422   5.421  1.4965 -0.1533  0.4298
 5604SOL    HW218426   1.900   6.293   5.454 -1.3909  1.0198 -0.9393
 5605SOL     OW18427   0.185   5.400   5.248 -0.0352 -0.4650 -0.0020
 5605SOL    HW118428   0.199   5.428   5.157  0.8222 -2.2844 -0.4737
 5605SOL    HW218429   0.272   5.384   5.282 -0.3962 -0.5493  0.9024
 5606SOL     OW18430   7.532   0.285   8.944  0.2298  0.2121  0.1548
 5606SOL    HW118431   7.501   0.325   8.862 -1.1156 -0.1186  0.4933
 5606SOL    HW218432   7.521   0.191   8.930  0.1456  0.1484  0.6616
 5607SOL     OW18433   6.881   9.611   3.429  0.2434  0.7654  0.7143
 5607SOL    HW118434   6.976   9.607   3.428  0.2233 -1.2505  1.8650
 5607SOL    HW218435   6.860   9.680   3.492  0.9431  0.6625  1.0641
 5608SOL     OW18436   6.660   8.149   7.830  0.5154 -0.1323 -0.4564
 5608SOL    HW118437   6.678   8.207   7.903 -0.7234 -0.8011  0.4156
 5608SOL    HW218438   6.730   8.083   7.834  0.4963 -0.1247  0.0888
 5609SOL     OW18439   9.352   8.742   6.964  0.0168 -0.7301 -0.3735
 5609SOL    HW118440   9.392   8.719   6.880  0.7907 -1.2736  0.1305
 5609SOL    HW218441   9.374   8.670   7.022 -0.9300 -0.5963  0.1765
 5610SOL     OW18442   8.744   0.543   8.517 -0.5031 -0.0573  0.3298
 5610SOL    HW118443   8.662   0.590   8.508 -0.3699  0.5012  1.7208
 5610SOL    HW218444   8.810   0.612   8.528  0.0742 -0.5139 -0.1719
 5611SOL     OW18445   4.082   8.737   2.997  0.2377 -0.0810 -0.2771
 5611SOL    HW118446   4.107   8.738   3.089 -0.5264  1.9426 -0.0251
 5611SOL    HW218447   4.102   8.826   2.966 -1.6809  0.0194 -1.4119
 5612SOL     OW18448   9.674   3.614   7.484  0.0145  0.3660  0.0071
 5612SOL    HW118449   9.698   3.549   7.550  1.7639  0.3814 -0.5643
 5612SOL    HW218450   9.591   3.582   7.448 -0.1067 -0.5308  1.0357
 5613SOL     OW18451   3.078   0.878   5.252 -0.2131 -0.5374  0.6436
 5613SOL    HW118452   3.001   0.934   5.264  0.2567  0.3002 -0.1257
 5613SOL    HW218453   3.064   0.804   5.311 -1.1175  0.1176  1.2651
 5614SOL     OW18454   1.419   6.008   0.297  0.2229  0.5270 -0.8692
 5614SOL    HW118455   1.359   5.951   0.249  0.1587  0.1724 -0.3696
 5614SOL    HW218456   1.387   6.007   0.387  1.5375 -0.4611 -0.3782
 5615SOL     OW18457   8.489   8.781   2.144  0.1327 -0.3133  0.0123
 5615SOL    HW118458   8.394   8.775   2.160 -0.5524  1.8558 -2.5442
 5615SOL    HW218459   8.518   8.853   2.200 -0.4869  1.3217 -1.6794
 5616SOL     OW18460   2.565   4.685   7.099 -0.0439 -0.4769 -0.5847
 5616SOL    HW118461   2.549   4.780   7.098 -0.2293 -0.4971 -1.6888
 5616SOL    HW218462   2.656   4.676   7.124 -0.0124  0.0038 -0.5151
 5617SOL     OW18463   0.527   1.128   8.499 -0.0395  0.4823 -0.0311
 5617SOL    HW118464   0.555   1.146   8.410  0.8680 -0.4152  0.0562
 5617SOL    HW218465   0.528   1.033   8.507 -0.7052  0.5256  0.7505
 5618SOL     OW18466   5.368   1.420   4.245 -0.6129  0.9587 -0.3675
 5618SOL    HW118467   5.428   1.382   4.180  0.9202  1.3617  0.7449
 5618SOL    HW218468   5.352   1.509   4.214  1.6590  1.8165  0.7149
 5619SOL     OW18469   8.629   4.489   7.084 -0.2078 -0.0607 -0.0213
 5619SOL    HW118470   8.613   4.507   7.177 -0.0778 -1.9793  0.4118
 5619SOL    HW218471   8.604   4.397   7.073  0.5594 -0.0976 -1.7103
 5620SOL     OW18472   4.544   1.695   6.268  0.2645 -0.9030  0.9058
 5620SOL    HW118473   4.483   1.689   6.194 -1.2817  3.2519  1.5806
 5620SOL    HW218474   4.631   1.699   6.227 -0.5482  1.3412 -0.8213
 5621SOL     OW18475   0.804   0.544   3.160 -0.0449 -0.2599  0.1701
 5621SOL    HW118476   0.805   0.517   3.252 -0.2982 -0.1290  0.2126
 5621SOL    HW218477   0.722   0.508   3.126  0.0447 -0.3000 -0.0013
 5622SOL     OW18478   8.616   0.063   6.245 -0.3140 -0.5635 -0.0395
 5622SOL    HW118479   8.574  -0.022   6.263 -1.3278 -0.3276 -1.1751
 5622SOL    HW218480   8.698   0.060   6.294 -1.2725 -1.3819  1.5975
 5623SOL     OW18481   0.104   2.886   1.466 -0.0839 -0.4180  0.0773
 5623SOL    HW118482   0.197   2.894   1.486 -0.2572  0.2965  0.6621
 5623SOL    HW218483   0.094   2.799   1.428  0.6517 -0.9136  0.9955
 5624SOL     OW18484   0.573   6.236   7.018 -0.3860 -0.3737 -0.5978
 5624SOL    HW118485   0.508   6.174   7.051 -1.0017 -0.3010 -1.6133
 5624SOL    HW218486   0.578   6.304   7.085  0.7415 -1.7806  0.8255
 5625SOL     OW18487   8.633   0.177   7.631  0.0824 -0.1090 -0.3861
 5625SOL    HW118488   8.552   0.211   7.670  1.4811  1.9892  0.9096
 5625SOL    HW218489   8.699   0.243   7.652  2.5675 -2.6349  0.2582
 5626SOL     OW18490   7.180   6.514   1.351  0.4417  0.3521  0.2925
 5626SOL    HW118491   7.119   6.518   1.425  0.5258  0.6957  0.3450
 5626SOL    HW218492   7.192   6.605   1.325  1.3491  0.3427  0.6252
 5627SOL     OW18493   3.592   0.888   7.626  0.4617  0.6960 -0.0652
 5627SOL    HW118494   3.631   0.926   7.705  2.4739  0.8634 -1.0739
 5627SOL    HW218495   3.659   0.827   7.593 -0.7651 -0.1580 -1.0782
 5628SOL     OW18496   3.474   0.857   9.374  0.6731  0.3031 -0.0187
 5628SOL    HW118497   3.444   0.868   9.464  0.3545 -0.6408  0.0028
 5628SOL    HW218498   3.436   0.931   9.326  0.3479  0.4744  0.5017
 5629SOL     OW18499   9.435   1.817   6.984 -0.0140 -0.4138  0.0122
 5629SOL    HW118500   9.440   1.847   7.075 -0.6444 -0.9092  0.2188
 5629SOL    HW218501   9.492   1.740   6.981 -0.5830 -0.8491  0.1841
 5630SOL     OW18502   4.523   9.332   1.592  0.2995  0.7235 -0.3188
 5630SOL    HW118503   4.503   9.412   1.544 -2.3679  0.2438 -0.1512
 5630SOL    HW218504   4.600   9.296   1.547  0.2771  2.2772 -1.7104
 5631SOL     OW18505   0.767   3.085   3.900 -0.2406 -0.4055  0.2489
 5631SOL    HW118506   0.727   3.105   3.816 -1.8880 -0.1164  1.0555
 5631SOL    HW218507   0.699   3.107   3.965  1.4342  0.7066  1.7456
 5632SOL     OW18508   7.412   6.776   6.942  0.3160  0.2058 -0.5411
 5632SOL    HW118509   7.326   6.801   6.974  0.1326  0.9357 -1.5501
 5632SOL    HW218510   7.473   6.831   6.992  0.4207 -1.7696  1.6951
 5633SOL     OW18511   8.144   8.692   6.091  0.0925 -0.2113 -0.4583
 5633SOL    HW118512   8.184   8.706   6.177 -1.5315  1.7353  0.0494
 5633SOL    HW218513   8.175   8.766   6.038 -0.8242 -0.0819 -0.8245
 5634SOL     OW18514   2.603   5.969   5.147  0.2105 -0.4167 -0.0505
 5634SOL    HW118515   2.693   5.992   5.171  0.9169 -1.4636 -1.5799
 5634SOL    HW218516   2.590   5.882   5.184 -0.5244  0.1263  0.9888
 5635SOL     OW18517   7.972   3.712   5.786 -0.1654 -0.5015 -0.6439
 5635SOL    HW118518   8.053   3.759   5.769 -1.1274  1.3582 -0.4065
 5635SOL    HW218519   7.942   3.681   5.700  1.3410 -2.2551 -0.5925
 5636SOL     OW18520   4.019   8.414   9.515 -0.0225  0.0065  0.5404
 5636SOL    HW118521   4.075   8.338   9.502 -0.0383  0.1114 -0.2015
 5636SOL    HW218522   4.071   8.488   9.483 -0.5891  0.0965 -0.2071
 5637SOL     OW18523   5.249   4.133   5.438  0.0238 -0.1365 -0.2902
 5637SOL    HW118524   5.310   4.112   5.509  1.1323  0.0839 -1.1536
 5637SOL    HW218525   5.302   4.129   5.358 -0.8268  1.2047 -0.9592
 5638SOL     OW18526   3.421   2.819   0.421 -0.0002 -0.1779  0.2647
 5638SOL    HW118527   3.415   2.797   0.328 -3.6513  2.4994 -0.3495
 5638SOL    HW218528   3.513   2.840   0.436  0.6362 -0.4545 -2.8100
 5639SOL     OW18529   4.854   3.997   6.852 -0.7278  0.1789 -0.6296
 5639SOL    HW118530   4.866   3.905   6.873 -2.2987  0.1759  0.4144
 5639SOL    HW218531   4.910   4.012   6.775  1.5209 -1.0015  0.6853
 5640SOL     OW18532   0.299   7.039   5.691 -0.0741 -0.0653 -0.3781
 5640SOL    HW118533   0.308   7.074   5.603  1.3631  0.7655  0.0650
 5640SOL    HW218534   0.294   7.117   5.747  0.3839 -0.5766  0.3890
 5641SOL     OW18535   2.120   8.855   2.451  0.3756 -0.1312  0.3205
 5641SOL    HW118536   2.040   8.885   2.407  0.8033 -1.0314 -1.1652
 5641SOL    HW218537   2.190   8.904   2.408  0.7030 -0.0432  0.9538
 5642SOL     OW18538   4.727   8.651   3.807 -0.0580  0.1131 -0.2163
 5642SOL    HW118539   4.760   8.726   3.855  1.0760  0.5826 -1.6758
 5642SOL    HW218540   4.800   8.588   3.807 -1.4989 -1.7927  2.4129
 5643SOL     OW18541   3.537   2.558   1.492  0.4310 -0.6446  0.0782
 5643SOL    HW118542   3.594   2.633   1.511 -0.7980  0.7474 -1.4614
 5643SOL    HW218543   3.489   2.543   1.573  0.6770  0.2606  0.4022
 5644SOL     OW18544   8.292   7.723   8.566  0.0867 -0.1261  0.3369
 5644SOL    HW118545   8.353   7.793   8.543  0.7989 -0.8319  0.0628
 5644SOL    HW218546   8.340   7.669   8.629  0.3074 -1.5102 -0.9618
 5645SOL     OW18547   8.464   0.948   0.356 -0.5400  0.5358  0.3905
 5645SOL    HW118548   8.552   0.915   0.373 -0.9764 -1.5541 -1.0499
 5645SOL    HW218549   8.464   1.035   0.396  1.9092  0.3096  1.1032
 5646SOL     OW18550   0.634   1.896   2.974  0.1650 -0.1720  0.1014
 5646SOL    HW118551   0.698   1.954   2.933 -0.6148 -0.6599 -1.8893
 5646SOL    HW218552   0.682   1.857   3.048  1.2965  1.4759  0.3090
 5647SOL     OW18553   2.104   0.942   7.081 -0.0266 -0.1601 -0.1275
 5647SOL    HW118554   2.017   0.935   7.120 -0.4183 -2.3787 -1.2619
 5647SOL    HW218555   2.104   1.027   7.036 -1.7891 -0.3212 -0.4883
 5648SOL     OW18556   5.737   8.111   4.234 -0.2003  0.0745 -0.7410
 5648SOL    HW118557   5.704   8.118   4.323 -1.0702  2.2681 -1.1962
 5648SOL    HW218558   5.832   8.101   4.245 -0.3779 -0.5364  0.4252
 5649SOL     OW18559   5.899   6.044   4.829 -0.2249  0.1154 -0.4244
 5649SOL    HW118560   5.930   6.106   4.762  1.7529  1.5432  1.6702
 5649SOL    HW218561   5.838   6.096   4.882  0.8058  0.0840  0.8459
 5650SOL     OW18562   5.389   6.950   6.996 -0.6461  0.1903  0.1424
 5650SOL    HW118563   5.367   6.885   6.929  0.0977 -0.4362  0.4957
 5650SOL    HW218564   5.309   6.957   7.048 -1.9885  2.2294 -1.9849
 5651SOL     OW18565   9.548   0.418   0.546 -0.0207 -0.2792 -0.0499
 5651SOL    HW118566   9.624   0.446   0.596  0.1750 -0.4814 -0.2302
 5651SOL    HW218567   9.489   0.493   0.547  0.7707  0.3721 -1.0857
 5652SOL     OW18568   0.799   9.175   2.890  0.0930  0.3461  0.6294
 5652SOL    HW118569   0.706   9.171   2.914  0.2977 -0.6313  1.3475
 5652SOL    HW218570   0.841   9.212   2.967  0.5625 -1.3302  1.2266
 5653SOL     OW18571   7.608   4.074   1.576 -0.1845 -0.4348  0.3538
 5653SOL    HW118572   7.594   4.152   1.522  2.0749 -0.1676  0.0620
 5653SOL    HW218573   7.542   4.081   1.645 -1.0735  0.8698 -0.5654
 5654SOL     OW18574   2.526   2.467   6.484 -0.1612  0.6277  0.1899
 5654SOL    HW118575   2.502   2.465   6.392  0.7149 -1.3074 -0.0474
 5654SOL    HW218576   2.447   2.497   6.529 -0.7854  1.0334 -1.1164
 5655SOL     OW18577   3.128   9.273   6.610 -0.0742  0.3950 -0.0223
 5655SOL    HW118578   3.219   9.292   6.588 -0.2809 -1.0397 -2.5355
 5655SOL    HW218579   3.078   9.312   6.537 -1.4857  1.0258  1.2365
 5656SOL     OW18580   1.658   4.440   3.681 -0.4435  0.4471  0.0066
 5656SOL    HW118581   1.703   4.432   3.597  1.8701 -0.1026  1.2152
 5656SOL    HW218582   1.728   4.458   3.744 -2.2689  2.2970  1.6436
 5657SOL     OW18583   7.638   0.844   0.078 -0.0763 -0.6611 -0.3794
 5657SOL    HW118584   7.624   0.750   0.093 -1.4100 -0.5250 -0.6418
 5657SOL    HW218585   7.631   0.884   0.164  0.3066 -0.7804 -0.2920
 5658SOL     OW18586   5.644   4.328   3.735 -0.8812  0.0019  0.5261
 5658SOL    HW118587   5.556   4.300   3.710 -1.5095  1.0351  1.4870
 5658SOL    HW218588   5.668   4.392   3.669 -1.3108  0.5135  0.8509
 5659SOL     OW18589   6.361   6.510   6.096 -0.3833  0.0906 -0.0070
 5659SOL    HW118590   6.343   6.567   6.171  0.6647  0.4384  0.0028
 5659SOL    HW218591   6.281   6.511   6.044 -0.8505  0.4677  0.7092
 5660SOL     OW18592   9.031   2.192   8.410  0.3120 -0.5411 -0.0222
 5660SOL    HW118593   9.098   2.149   8.463 -0.5568  0.5766  2.1301
 5660SOL    HW218594   8.949   2.151   8.437 -0.2917  0.9240  0.4851
 5661SOL     OW18595   3.558   2.729   3.100 -0.8347 -0.0887  0.7732
 5661SOL    HW118596   3.476   2.758   3.140 -0.6062 -0.7263  1.7547
 5661SOL    HW218597   3.604   2.809   3.077 -3.0663  0.3792 -2.7859
 5662SOL     OW18598   7.066   3.533   2.116 -0.1561 -0.2313  0.2690
 5662SOL    HW118599   7.057   3.444   2.083 -0.4362 -0.2589  0.4194
 5662SOL    HW218600   6.996   3.582   2.073 -1.1233 -0.4701  1.5168
 5663SOL     OW18601   7.914   9.000   8.738 -0.3018  0.2575  0.3134
 5663SOL    HW118602   7.937   9.084   8.779  2.7967 -0.3374  0.0508
 5663SOL    HW218603   7.843   9.021   8.678 -0.2116  2.5081  0.9107
 5664SOL     OW18604   3.026   5.062   3.945 -0.4871 -0.5102 -0.1576
 5664SOL    HW118605   3.083   5.102   4.011 -3.6084 -1.0717  3.1794
 5664SOL    HW218606   3.082   4.997   3.901  2.3246  1.4197  0.3003
 5665SOL     OW18607   0.425   0.314   2.910 -0.1519  0.1582 -0.3575
 5665SOL    HW118608   0.435   0.335   2.817  0.6519  0.3734 -0.2246
 5665SOL    HW218609   0.335   0.281   2.917 -0.8359  1.7854 -0.8970
 5666SOL     OW18610   0.987   1.119   5.625 -0.8605 -0.3728  0.1809
 5666SOL    HW118611   1.050   1.109   5.697  0.0166  1.7646 -0.2310
 5666SOL    HW218612   0.976   1.213   5.615 -0.1903 -0.5428 -3.1302
 5667SOL     OW18613   9.115   1.440   5.040  0.4008 -0.6074 -0.3682
 5667SOL    HW118614   9.098   1.407   4.952  1.3963 -0.7064 -0.5325
 5667SOL    HW218615   9.175   1.514   5.027  0.3346 -0.4506  0.2033
 5668SOL     OW18616   5.396   8.906   8.801 -0.5792  0.5446 -0.7733
 5668SOL    HW118617   5.379   8.822   8.760 -3.5462  0.4900  0.3317
 5668SOL    HW218618   5.313   8.953   8.795 -0.0857  1.9519  1.8950
 5669SOL     OW18619   8.470   5.631   2.096 -0.1408  0.6865 -0.1851
 5669SOL    HW118620   8.527   5.702   2.069 -0.1154  1.6105  2.0661
 5669SOL    HW218621   8.381   5.663   2.076 -0.0644  0.7590 -0.4160
 5670SOL     OW18622   0.224   3.028   8.049  0.4302  0.9359 -0.1816
 5670SOL    HW118623   0.299   3.086   8.033  1.8583 -0.2286  1.7551
 5670SOL    HW218624   0.248   2.980   8.128 -0.5996 -2.3899 -1.7040
 5671SOL     OW18625   6.985   0.765   8.659  0.2228 -0.4975 -0.3265
 5671SOL    HW118626   7.010   0.674   8.673  0.3064 -0.4258 -0.0071
 5671SOL    HW218627   6.971   0.772   8.565 -0.7799 -1.0885 -0.2293
 5672SOL     OW18628   1.171   7.017   0.941 -0.4249 -0.0128  0.5265
 5672SOL    HW118629   1.078   7.037   0.934 -0.0297  1.5474 -1.0167
 5672SOL    HW218630   1.207   7.087   0.996  0.2289  1.0100 -1.1140
 5673SOL     OW18631   6.626   6.758   7.408 -0.1972  0.0483  0.2040
 5673SOL    HW118632   6.602   6.693   7.474 -1.7160  1.5466  1.2076
 5673SOL    HW218633   6.550   6.761   7.349  0.4755 -0.1159 -0.6907
 5674SOL     OW18634   2.816   2.694   4.009 -0.0147  0.4315  0.5296
 5674SOL    HW118635   2.779   2.606   4.004 -0.2481  0.5890 -2.1720
 5674SOL    HW218636   2.742   2.750   4.034 -0.9528  0.3377 -1.7969
 5675SOL     OW18637   7.617   4.369   7.147  0.1078  0.5983 -0.4192
 5675SOL    HW118638   7.576   4.312   7.212  2.2979 -0.2074  0.3419
 5675SOL    HW218639   7.655   4.309   7.083  4.3061  0.8658  1.4986
 5676SOL     OW18640   8.544   8.647   3.202  0.2994 -0.3404  0.7086
 5676SOL    HW118641   8.554   8.724   3.258  1.1925 -0.5453  0.8496
 5676SOL    HW218642   8.633   8.613   3.192  0.4474  0.5767 -2.0984
 5677SOL     OW18643   4.432   0.705   7.185 -0.6406  0.7001 -0.2837
 5677SOL    HW118644   4.429   0.664   7.271 -0.8559  0.4297 -0.4186
 5677SOL    HW218645   4.341   0.710   7.157 -0.4660 -0.9060 -1.2805
 5678SOL     OW18646   6.129   4.167   3.576  0.2384  0.1237 -0.1050
 5678SOL    HW118647   6.061   4.208   3.629 -0.5835  0.1477 -1.1402
 5678SOL    HW218648   6.107   4.074   3.576  0.7669 -0.0074  0.3394
 5679SOL     OW18649   5.001   6.429   2.482  0.1365  0.1699  0.1371
 5679SOL    HW118650   4.935   6.383   2.430  1.1701 -1.8564  0.5111
 5679SOL    HW218651   5.064   6.461   2.417 -0.1210  0.2582 -0.0699
 5680SOL     OW18652   3.412   7.969   9.022 -0.9496 -0.1479  0.1813
 5680SOL    HW118653   3.485   7.983   8.962 -1.2557  1.7326  0.2094
 5680SOL    HW218654   3.446   7.908   9.087 -0.4326 -1.7941 -1.5412
 5681SOL     OW18655   8.958   1.074   1.660 -0.3659  0.7574  0.2185
 5681SOL    HW118656   9.023   1.047   1.726 -1.4363  0.9714  1.3944
 5681SOL    HW218657   8.964   1.170   1.659  1.2237  0.6931 -1.6747
 5682SOL     OW18658   8.744   6.096   6.726 -0.2363 -0.5733  0.4955
 5682SOL    HW118659   8.715   6.030   6.790 -3.3405 -1.6534 -1.7683
 5682SOL    HW218660   8.667   6.152   6.714  1.1128  1.1615 -0.4291
 5683SOL     OW18661   1.764   2.272   3.999  0.3572 -0.7583  0.1077
 5683SOL    HW118662   1.793   2.344   3.942 -2.9739  1.7257  1.2055
 5683SOL    HW218663   1.713   2.216   3.941  1.6313 -1.3895 -0.4324
 5684SOL     OW18664   8.508   6.010   4.792 -0.6163  0.0122 -0.0164
 5684SOL    HW118665   8.425   5.971   4.817  0.3672 -2.3820 -0.1537
 5684SOL    HW218666   8.573   5.966   4.848  0.8339 -0.2902 -1.8130
 5685SOL     OW18667   7.013   8.509   8.839  0.2267  0.2843 -0.8106
 5685SOL    HW118668   6.960   8.435   8.807 -2.0374  0.4741  2.0778
 5685SOL    HW218669   7.080   8.468   8.893 -0.3159  0.2634 -0.1425
 5686SOL     OW18670   7.613   3.584   4.978 -0.2879 -0.3587  0.1277
 5686SOL    HW118671   7.641   3.666   4.937  0.7185 -0.5509  0.4150
 5686SOL    HW218672   7.676   3.519   4.948 -0.0607 -0.6845  1.2695
 5687SOL     OW18673   2.853   5.220   5.485  0.0748  0.1174  0.1251
 5687SOL    HW118674   2.770   5.175   5.466 -0.6409  1.1407  0.7460
 5687SOL    HW218675   2.897   5.225   5.400  0.7285 -2.7579  0.2168
 5688SOL     OW18676   7.084   8.729   0.041 -0.0789  0.1825 -0.0808
 5688SOL    HW118677   7.069   8.654   0.099  0.5651  1.2693  1.5358
 5688SOL    HW218678   7.169   8.711   0.001 -0.3810 -0.4175 -0.4728
 5689SOL     OW18679   9.104   0.277   4.532 -0.2926 -0.0669 -0.2685
 5689SOL    HW118680   9.099   0.184   4.556  2.2252 -0.6050 -1.5159
 5689SOL    HW218681   9.054   0.283   4.450 -1.0918 -0.1414  0.2034
 5690SOL     OW18682   0.999   1.344   0.688 -0.0754  0.4302 -0.3357
 5690SOL    HW118683   0.983   1.370   0.597  0.4207  1.9288 -0.0216
 5690SOL    HW218684   1.082   1.386   0.711  0.0381 -0.3039  0.6750
 5691SOL     OW18685   6.691   3.977   1.919  0.1183  0.1441 -0.3375
 5691SOL    HW118686   6.770   4.015   1.956  0.6790 -0.1018 -1.2622
 5691SOL    HW218687   6.705   3.980   1.824 -0.7076 -0.4788 -0.4869
 5692SOL     OW18688   6.640   2.278   5.720  0.1193  0.8075 -0.4571
 5692SOL    HW118689   6.666   2.370   5.729 -0.0211  0.7598  0.5739
 5692SOL    HW218690   6.652   2.258   5.627  0.0598  1.8933 -0.7043
 5693SOL     OW18691   2.977   8.956   3.684 -0.0634 -0.3326  0.2073
 5693SOL    HW118692   2.997   9.024   3.749 -2.4501  0.5324  0.1534
 5693SOL    HW218693   2.997   8.997   3.599 -0.9638  0.1458  0.2082
 5694SOL     OW18694   4.765   8.454   4.267 -0.3258 -0.5888  0.6447
 5694SOL    HW118695   4.816   8.474   4.346 -2.6868  0.9863  1.8910
 5694SOL    HW218696   4.773   8.533   4.213 -1.5148 -0.2702  0.9169
 5695SOL     OW18697   5.784   9.572   1.648 -0.1950 -0.5505  0.1443
 5695SOL    HW118698   5.862   9.599   1.698  1.2703 -0.4809 -2.0296
 5695SOL    HW218699   5.780   9.477   1.660  1.4320 -0.8410 -1.2541
 5696SOL     OW18700   5.848   9.816   7.482 -0.4623 -0.1488  0.2197
 5696SOL    HW118701   5.772   9.863   7.515  0.0904  0.8248  0.1482
 5696SOL    HW218702   5.865   9.749   7.548 -2.2843 -1.3953 -0.5086
 5697SOL     OW18703   0.896   5.545   8.919 -0.5968 -0.0535  0.2658
 5697SOL    HW118704   0.866   5.634   8.901  1.5753  0.4787 -1.1036
 5697SOL    HW218705   0.906   5.506   8.832  2.3010 -0.2224  0.5726
 5698SOL     OW18706   5.895   5.780   6.449 -0.6646  0.4731 -0.4554
 5698SOL    HW118707   5.826   5.847   6.450  0.1913  1.3945 -1.3026
 5698SOL    HW218708   5.858   5.708   6.397 -0.8233  1.1490 -1.2980
 5699SOL     OW18709   3.037   1.124   6.444  0.2257  0.1648 -0.2098
 5699SOL    HW118710   2.979   1.187   6.488 -0.6710 -0.3542 -0.6252
 5699SOL    HW218711   3.020   1.041   6.489  0.4684 -0.0422 -0.4997
 5700SOL     OW18712   3.448   6.622   8.186  0.1986  0.6110 -0.1724
 5700SOL    HW118713   3.470   6.656   8.099 -0.4860 -0.8081 -0.9266
 5700SOL    HW218714   3.356   6.596   8.179 -0.4615  2.2107  1.5603
 5701SOL     OW18715   7.984   9.183   5.493  0.2707 -0.5330  0.4481
 5701SOL    HW118716   8.033   9.189   5.411  0.8463  1.4242  0.8813
 5701SOL    HW218717   7.969   9.274   5.519 -1.6392 -1.1038  1.5061
 5702SOL     OW18718   0.384   8.213   3.770 -0.0488 -0.1676  0.2406
 5702SOL    HW118719   0.398   8.189   3.861 -1.3354  0.9020  0.7560
 5702SOL    HW218720   0.343   8.299   3.774 -0.1048 -0.0890 -1.3517
 5703SOL     OW18721   9.435   0.573   7.216 -0.2543  0.1384  0.1430
 5703SOL    HW118722   9.395   0.603   7.297 -1.2109 -1.1473  0.1714
 5703SOL    HW218723   9.472   0.487   7.238 -0.9315 -0.4323 -0.8892
 5704SOL     OW18724   0.136   6.386   0.755 -0.1880 -0.1156  0.4943
 5704SOL    HW118725   0.079   6.420   0.686  1.4251 -0.7540 -1.2416
 5704SOL    HW218726   0.126   6.291   0.749  0.6417 -0.2120  0.5102
 5705SOL     OW18727   8.699   5.971   5.204 -0.4072 -0.3043 -0.4975
 5705SOL    HW118728   8.787   6.005   5.218  0.1717 -0.7383 -2.6748
 5705SOL    HW218729   8.646   6.013   5.271  1.5513 -0.5035  1.2622
 5706SOL     OW18730   3.960   0.459   9.419 -0.7553 -0.4599 -0.1512
 5706SOL    HW118731   3.887   0.481   9.361 -0.3672  1.3366 -0.0119
 5706SOL    HW218732   3.955   0.524   9.489  1.0473 -0.2124 -0.2208
 5707SOL     OW18733   9.175   8.029   4.045 -0.1353  0.0642 -0.4451
 5707SOL    HW118734   9.095   8.025   4.097 -0.2665  0.0436 -0.6503
 5707SOL    HW218735   9.206   7.939   4.040  0.1243  0.1253 -0.0163
 5708SOL     OW18736   1.990   1.942   5.226  0.1979 -0.5765  0.5880
 5708SOL    HW118737   2.009   2.027   5.267  2.1713 -0.9341  0.4977
 5708SOL    HW218738   2.024   1.878   5.288 -0.2231 -1.2615  0.1146
 5709SOL     OW18739   3.016   3.747   6.464  0.4148 -0.1442  0.1231
 5709SOL    HW118740   3.044   3.838   6.464 -0.7097  0.2362  1.2010
 5709SOL    HW218741   3.029   3.718   6.555  2.5406 -1.6712 -0.5880
 5710SOL     OW18742   0.105   8.914   3.323 -0.0217  0.0578 -0.6510
 5710SOL    HW118743   0.091   8.878   3.236 -0.6948 -1.6945  0.1231
 5710SOL    HW218744   0.186   8.872   3.354 -1.1110 -1.3693  0.4756
 5711SOL     OW18745   3.174   1.596   4.966  0.2445 -0.6822  0.0027
 5711SOL    HW118746   3.120   1.545   4.905 -0.7071  0.0102  0.2479
 5711SOL    HW218747   3.203   1.532   5.031  0.9265 -1.3449 -0.9228
 5712SOL     OW18748   2.909   4.550   8.391 -0.2992  0.4202  0.2590
 5712SOL    HW118749   2.963   4.609   8.337 -0.7174 -0.6373 -1.3762
 5712SOL    HW218750   2.969   4.520   8.460  0.2252  1.8826  0.4862
 5713SOL     OW18751   2.829   8.431   4.227 -0.0852 -0.4769  0.2381
 5713SOL    HW118752   2.738   8.450   4.201 -0.7934 -1.1071  2.0929
 5713SOL    HW218753   2.860   8.513   4.265  1.0823  0.5686 -2.6539
 5714SOL     OW18754   4.406   4.887   0.457 -0.4442 -0.1058  0.0532
 5714SOL    HW118755   4.358   4.962   0.421 -0.1955  0.9222  1.7475
 5714SOL    HW218756   4.490   4.923   0.484  0.8982 -1.6543 -1.8183
 5715SOL     OW18757   2.722   4.128   1.350 -0.3194 -0.0384 -0.1239
 5715SOL    HW118758   2.667   4.183   1.294  0.3155 -0.1855 -0.9150
 5715SOL    HW218759   2.663   4.100   1.421 -0.7175  1.4497  0.1774
 5716SOL     OW18760   0.651   6.473   9.374  0.1725  0.0539 -0.1303
 5716SOL    HW118761   0.689   6.421   9.445  1.1157  0.6522 -0.1766
 5716SOL    HW218762   0.609   6.546   9.418 -0.9404 -0.5891 -0.0815
 5717SOL     OW18763   1.689   5.287   3.352 -0.1758  0.4957 -0.2422
 5717SOL    HW118764   1.736   5.250   3.426 -0.2831  0.1819 -0.3322
 5717SOL    HW218765   1.758   5.326   3.297 -0.1633  1.3842  0.3842
 5718SOL     OW18766   1.293   5.739   0.882 -0.1543 -0.0515 -0.5030
 5718SOL    HW118767   1.336   5.791   0.949  0.2799  0.8305 -1.4450
 5718SOL    HW218768   1.265   5.659   0.927  1.1996 -0.0089  0.4452
 5719SOL     OW18769   4.304   8.165   0.515 -0.5862 -0.6700  0.1582
 5719SOL    HW118770   4.381   8.109   0.522  1.7776  2.1344 -1.0666
 5719SOL    HW218771   4.285   8.168   0.422 -1.4830 -0.4425  0.3441
 5720SOL     OW18772   4.563   0.115   1.161  0.3900  0.3983 -0.1435
 5720SOL    HW118773   4.651   0.081   1.150 -0.0586 -0.9715  0.2699
 5720SOL    HW218774   4.567   0.168   1.240  0.2348 -2.0279  1.5895
 5721SOL     OW18775   7.175   3.759   1.534 -0.2994 -0.4437 -0.0329
 5721SOL    HW118776   7.183   3.823   1.463 -1.3759 -0.2423  0.0067
 5721SOL    HW218777   7.212   3.678   1.498 -3.2171 -1.1068 -1.8560
 5722SOL     OW18778   6.423   5.928   0.836  0.1528 -0.0036 -0.1070
 5722SOL    HW118779   6.413   5.835   0.816 -0.3001  0.2327 -1.0508
 5722SOL    HW218780   6.399   5.973   0.754  0.2743  0.9423  0.3598
 5723SOL     OW18781   8.758   1.423   1.788  0.8641  0.3553 -0.0047
 5723SOL    HW118782   8.752   1.505   1.837  1.2587  0.2033  0.3062
 5723SOL    HW218783   8.840   1.431   1.739 -0.3467  1.2437 -2.0288
 5724SOL     OW18784   1.184   3.872   9.420 -0.1317  0.2900  0.0784
 5724SOL    HW118785   1.100   3.875   9.465  0.1567  1.6005  0.5768
 5724SOL    HW218786   1.248   3.896   9.488  1.0546 -3.6135  0.5583
 5725SOL     OW18787   4.924   5.882   0.467 -0.3714  0.2837  0.5348
 5725SOL    HW118788   4.904   5.962   0.515  0.0675  0.4924  0.3804
 5725SOL    HW218789   4.839   5.846   0.442 -0.5560  1.3757 -0.4873
 5726SOL     OW18790   8.356   1.835   1.575 -0.3629 -0.3627 -0.0563
 5726SOL    HW118791   8.270   1.821   1.536 -0.2668 -0.4204 -0.2482
 5726SOL    HW218792   8.348   1.920   1.619 -0.3932 -0.1642 -0.4330
 5727SOL     OW18793   5.619   9.733   6.757  0.7092 -0.0706  0.4074
 5727SOL    HW118794   5.620   9.686   6.840  2.0872 -0.1841  0.3545
 5727SOL    HW218795   5.589   9.668   6.693 -3.2068  0.7796  1.1620
 5728SOL     OW18796   3.535   1.042   2.296  0.1189  0.2737  0.8159
 5728SOL    HW118797   3.490   1.053   2.213 -0.1326 -0.5739  0.8323
 5728SOL    HW218798   3.470   1.066   2.362  0.4374  1.3255  0.7757
 5729SOL     OW18799   8.681   6.813   7.524  0.6788 -0.3281  0.1204
 5729SOL    HW118800   8.739   6.889   7.519  0.7871 -0.4568 -0.8390
 5729SOL    HW218801   8.733   6.744   7.565  0.5064  0.1653  1.2099
 5730SOL     OW18802   0.412   1.436   8.465  0.6214 -0.5580 -0.0523
 5730SOL    HW118803   0.473   1.372   8.501  1.1104  0.3475  0.7948
 5730SOL    HW218804   0.329   1.389   8.457  0.4131 -0.7601  2.5295
 5731SOL     OW18805   2.685   7.120   6.186  0.3393 -0.1439  0.4209
 5731SOL    HW118806   2.740   7.141   6.110 -2.3717 -0.7715 -1.9057
 5731SOL    HW218807   2.652   7.204   6.216 -1.5462 -0.0494 -1.6394
 5732SOL     OW18808   0.623   0.540   6.691  0.1462 -0.3000  0.0158
 5732SOL    HW118809   0.573   0.464   6.660 -0.7427  0.7895 -1.3730
 5732SOL    HW218810   0.652   0.584   6.610  1.2380  0.4587  0.7923
 5733SOL     OW18811   8.508   7.085   4.510  0.0822  0.1602 -0.3114
 5733SOL    HW118812   8.496   7.012   4.450  0.8699 -0.8067  0.6606
 5733SOL    HW218813   8.588   7.064   4.558 -0.2881  1.1019  0.7840
 5734SOL     OW18814   9.691   5.536   8.862 -0.1305 -0.0198  0.1140
 5734SOL    HW118815   9.597   5.521   8.876 -0.1735 -0.3333 -0.5012
 5734SOL    HW218816   9.698   5.556   8.769  0.3612  0.4422  0.2478
 5735SOL     OW18817   3.407   1.844   1.969  0.3279 -0.0363 -0.2620
 5735SOL    HW118818   3.387   1.938   1.965  0.1895 -0.0416  0.2621
 5735SOL    HW218819   3.422   1.819   1.878 -0.6448  0.2755 -0.5214
 5736SOL     OW18820   5.013   8.382   9.729 -0.3424 -0.5493 -0.0030
 5736SOL    HW118821   4.925   8.405   9.696 -0.9949  1.6721  2.9379
 5736SOL    HW218822   5.072   8.439   9.680 -1.0257  0.9205  0.8162
 5737SOL     OW18823   6.785   3.120   5.000  0.0855  0.4819  0.6603
 5737SOL    HW118824   6.877   3.099   5.018 -0.1578 -0.3366  0.9766
 5737SOL    HW218825   6.784   3.215   4.989  1.3197  0.3101 -1.4801
 5738SOL     OW18826   3.782   4.463   5.706  0.4977  0.5678 -0.3211
 5738SOL    HW118827   3.825   4.395   5.756 -0.0398  0.4136 -0.0583
 5738SOL    HW218828   3.852   4.521   5.677  1.0064 -0.3102 -0.8819
 5739SOL     OW18829   2.611   5.210   7.594 -0.1131 -0.1342  0.2225
 5739SOL    HW118830   2.668   5.222   7.670  1.1376  1.2420 -0.8689
 5739SOL    HW218831   2.536   5.161   7.628  0.9751 -0.6399  2.0584
 5740SOL     OW18832   9.245   1.134   2.173  0.3118 -0.1046  0.0624
 5740SOL    HW118833   9.320   1.075   2.177  0.8411  0.4173 -1.4118
 5740SOL    HW218834   9.242   1.176   2.259 -0.5827 -2.8050  1.4796
 5741SOL     OW18835   1.833   5.709   5.026 -0.2212 -0.4706  0.2248
 5741SOL    HW118836   1.748   5.684   5.061 -0.6506 -1.5315 -1.4504
 5741SOL    HW218837   1.824   5.802   5.003 -1.4014 -0.8672 -1.1128
 5742SOL     OW18838   9.271   8.668   3.735 -0.8004 -0.4206  0.4222
 5742SOL    HW118839   9.176   8.657   3.726 -0.6018 -1.9812 -0.1890
 5742SOL    HW218840   9.303   8.669   3.645 -0.2445  0.1394  0.6254
 5743SOL     OW18841   7.515   8.274   0.835 -0.1132 -0.0586 -0.3839
 5743SOL    HW118842   7.503   8.341   0.903  1.8187  2.4500 -2.3056
 5743SOL    HW218843   7.426   8.252   0.807 -0.8869  3.6312 -1.3391
 5744SOL     OW18844   5.645   7.710   5.452  0.1225  0.1218  0.0400
 5744SOL    HW118845   5.656   7.617   5.472  1.5804  0.3508  0.5072
 5744SOL    HW218846   5.573   7.738   5.508 -1.4389 -1.0319 -1.2860
 5745SOL     OW18847   2.064   0.139   4.742 -0.3032 -0.0804 -0.5277
 5745SOL    HW118848   2.098   0.228   4.736 -1.3355  0.5411  1.8117
 5745SOL    HW218849   2.083   0.111   4.831 -0.7166 -1.9187 -0.9555
 5746SOL     OW18850   0.386   6.983   1.867  0.9106 -0.3975  0.4234
 5746SOL    HW118851   0.366   6.989   1.773  0.7940 -0.3419  0.4520
 5746SOL    HW218852   0.362   6.894   1.891 -1.1721  0.2481  0.8939
 5747SOL     OW18853   6.917   2.798   6.782  0.0051  0.1471 -0.0734
 5747SOL    HW118854   6.950   2.876   6.736  0.2660  0.7513  1.1013
 5747SOL    HW218855   6.826   2.819   6.801  0.4526  0.7957  1.5001
 5748SOL     OW18856   1.566   2.101   5.431  0.0046  0.1951  0.2209
 5748SOL    HW118857   1.632   2.042   5.466 -1.0038 -0.6164  0.8118
 5748SOL    HW218858   1.604   2.135   5.351  0.3672 -1.7604 -0.4847
 5749SOL     OW18859   6.693   2.281   9.538  0.4431 -0.8463 -0.5234
 5749SOL    HW118860   6.601   2.269   9.515 -0.1202 -0.3662  1.3154
 5749SOL    HW218861   6.716   2.203   9.588 -0.2282  0.7302  2.5298
 5750SOL     OW18862   3.766   3.999   3.130  0.3363 -1.1420 -0.5062
 5750SOL    HW118863   3.811   3.993   3.045  1.2653 -0.5553 -0.0685
 5750SOL    HW218864   3.681   3.958   3.114  1.0430 -2.3678 -1.3342
 5751SOL     OW18865   2.040   5.229   5.451 -0.0102 -0.6673  0.3951
 5751SOL    HW118866   2.116   5.217   5.393  0.1476 -1.9221  0.8433
 5751SOL    HW218867   1.970   5.180   5.408 -0.2997 -0.3635  0.5169
 5752SOL     OW18868   6.398   7.888   4.737 -0.0717 -0.5437 -0.2718
 5752SOL    HW118869   6.362   7.931   4.659 -0.0586 -1.3919 -0.7536
 5752SOL    HW218870   6.446   7.812   4.702  0.9821 -0.2357  0.4633
 5753SOL     OW18871   9.315   9.681   9.538 -0.4327  0.2052 -0.0533
 5753SOL    HW118872   9.314   9.775   9.519  0.3175  0.3658  0.6419
 5753SOL    HW218873   9.223   9.657   9.545 -0.6206  1.2208  1.3140
 5754SOL     OW18874   9.631   0.686   2.439  0.5048  0.3347  0.6372
 5754SOL    HW118875   9.640   0.596   2.472  1.8433  1.0482  2.3906
 5754SOL    HW218876   9.721   0.718   2.434  0.1475  1.1365 -1.3780
 5755SOL     OW18877   6.757   4.444   2.884 -0.2731 -0.5500 -0.1512
 5755SOL    HW118878   6.830   4.417   2.830 -0.7648 -1.2337 -0.4895
 5755SOL    HW218879   6.774   4.405   2.970 -0.4371 -1.0414 -0.3394
 5756SOL     OW18880   5.491   0.115   1.251 -0.0400  0.8536  0.1628
 5756SOL    HW118881   5.502   0.029   1.293 -0.5632  1.6293  1.9801
 5756SOL    HW218882   5.565   0.121   1.191  0.7235 -0.3516  0.9228
 5757SOL     OW18883   9.461   7.743   1.511  0.2346 -0.0444  0.6053
 5757SOL    HW118884   9.406   7.684   1.563 -0.2327  0.9783  1.3150
 5757SOL    HW218885   9.431   7.731   1.421 -2.0865  1.3887  1.1053
 5758SOL     OW18886   0.326   1.932   8.375 -0.3378  0.3613  0.1233
 5758SOL    HW118887   0.299   2.021   8.398 -1.2014 -0.1700  1.2110
 5758SOL    HW218888   0.404   1.945   8.321  0.4330  1.7294  1.4868
 5759SOL     OW18889   8.888   9.533   1.710  0.2809  0.0838 -0.2634
 5759SOL    HW118890   8.809   9.585   1.725 -0.8233 -1.1327 -1.5672
 5759SOL    HW218891   8.856   9.444   1.696  1.7227 -0.1812 -2.3979
 5760SOL     OW18892   4.421   3.704   2.429  0.3279  0.2230  0.5379
 5760SOL    HW118893   4.473   3.689   2.350  0.5486  0.8837  0.5552
 5760SOL    HW218894   4.429   3.798   2.445 -1.3979  0.4690  0.1610
 5761SOL     OW18895   5.904   4.760   9.764 -0.2383 -0.5113 -0.3056
 5761SOL    HW118896   5.929   4.715   9.683 -1.6131 -0.5897 -0.7080
 5761SOL    HW218897   5.971   4.733   9.828  1.3907  0.2593 -1.6109
 5762SOL     OW18898   1.576   5.120   7.197 -0.1491  0.1569  0.1662
 5762SOL    HW118899   1.549   5.094   7.110 -1.2544 -2.2319  1.1456
 5762SOL    HW218900   1.663   5.160   7.185 -1.0927  1.7313 -2.2017
 5763SOL     OW18901   7.207   7.813   8.093 -0.3652  0.0030 -0.7313
 5763SOL    HW118902   7.175   7.753   8.161 -1.7622  1.3407 -0.1502
 5763SOL    HW218903   7.228   7.893   8.140 -1.8055  1.1212 -1.9188
 5764SOL     OW18904   4.571   1.347   9.036  0.3340  0.3145 -0.1267
 5764SOL    HW118905   4.586   1.402   9.113  2.6362  0.9055 -0.9042
 5764SOL    HW218906   4.536   1.407   8.970 -1.0305 -0.0555  0.2437
 5765SOL     OW18907   5.922   5.027   7.912  0.0369 -0.0246  0.7781
 5765SOL    HW118908   5.968   4.961   7.963  0.0138 -0.8716 -0.2650
 5765SOL    HW218909   5.871   4.977   7.847 -0.6184  0.9783  0.4897
 5766SOL     OW18910   7.956   1.335   5.131  0.8283  0.4592  0.2029
 5766SOL    HW118911   7.991   1.246   5.134 -2.0577 -0.8984 -1.6888
 5766SOL    HW218912   7.903   1.343   5.210 -0.0677 -0.1006 -0.3216
 5767SOL     OW18913   7.210   6.169   6.719  0.0336 -0.4551 -0.3228
 5767SOL    HW118914   7.125   6.134   6.746 -0.5369  0.5965 -0.6752
 5767SOL    HW218915   7.274   6.103   6.747 -0.7165 -0.4209  1.6120
 5768SOL     OW18916   5.804   7.971   2.849  0.6009  0.1998  0.2807
 5768SOL    HW118917   5.773   7.911   2.781 -1.5853 -1.7414  2.7968
 5768SOL    HW218918   5.892   7.940   2.870  0.3533 -0.7224  0.0088
 5769SOL     OW18919   9.449   4.653   9.180  0.5228  0.5575  0.3476
 5769SOL    HW118920   9.406   4.602   9.112  0.5746  0.3088  0.4994
 5769SOL    HW218921   9.541   4.656   9.153  0.0238  3.4534 -1.4651
 5770SOL     OW18922   3.842   3.721   5.506 -0.4526 -0.0556 -0.0860
 5770SOL    HW118923   3.772   3.731   5.571 -0.5817 -1.4151  0.0162
 5770SOL    HW218924   3.881   3.636   5.526  0.3816  0.1054 -0.9635
 5771SOL     OW18925   1.413   0.935   2.720  0.5681 -0.2463 -0.0484
 5771SOL    HW118926   1.509   0.938   2.723  0.5725  2.6284 -0.4720
 5771SOL    HW218927   1.387   1.025   2.702 -2.2244 -1.0741 -0.5627
 5772SOL     OW18928   7.299   7.025   5.762  0.7289  0.2239 -0.3585
 5772SOL    HW118929   7.322   7.064   5.847 -0.3183 -0.3602  0.2085
 5772SOL    HW218930   7.382   7.019   5.716  1.2358  1.1095  0.3862
 5773SOL     OW18931   6.740   6.487   1.314  0.1862 -0.2224 -0.7268
 5773SOL    HW118932   6.711   6.408   1.361  0.6892 -0.4995 -0.8770
 5773SOL    HW218933   6.782   6.540   1.382  0.6299 -0.4797 -0.7981
 5774SOL     OW18934   6.991   2.725   7.025  0.0914 -0.4788 -0.0752
 5774SOL    HW118935   6.905   2.713   7.066  0.3293 -1.2898  0.2184
 5774SOL    HW218936   6.971   2.745   6.934 -0.4118 -0.7417 -0.0302
 5775SOL     OW18937   9.538   8.097   0.911  0.8747 -0.2978  0.0312
 5775SOL    HW118938   9.523   8.003   0.900  1.5473 -0.4862  0.6487
 5775SOL    HW218939   9.571   8.106   1.000  0.0369  0.6323  0.2608
 5776SOL     OW18940   3.312   8.335   1.712 -0.2586  0.1620 -0.2168
 5776SOL    HW118941   3.227   8.368   1.740 -0.1505  1.8490 -1.7529
 5776SOL    HW218942   3.295   8.293   1.628  0.3953  0.4196 -0.4852
 5777SOL     OW18943   8.893   7.142   6.112  0.6532 -0.0955  0.1664
 5777SOL    HW118944   8.934   7.225   6.137 -0.1202 -0.6490  3.7772
 5777SOL    HW218945   8.965   7.080   6.103  0.9706  0.0780  1.4398
 5778SOL     OW18946   2.160   2.612   8.244 -0.4678 -0.3934 -0.1917
 5778SOL    HW118947   2.183   2.696   8.283 -1.1944 -0.0864 -0.4120
 5778SOL    HW218948   2.089   2.579   8.299  0.1932 -1.1436  0.2393
 5779SOL     OW18949   9.004   0.826   1.005 -0.1870 -0.4164 -0.1089
 5779SOL    HW118950   8.964   0.912   1.017 -0.2046 -0.6823  2.2335
 5779SOL    HW218951   9.093   0.844   0.976 -0.4201  0.3444 -0.3774
 5780SOL     OW18952   5.948   8.751   0.696  0.1814  0.6204 -0.6536
 5780SOL    HW118953   5.920   8.840   0.675 -2.4292 -0.1764 -0.8717
 5780SOL    HW218954   5.895   8.695   0.640  0.1383 -1.1759  1.0646
 5781SOL     OW18955   7.989   5.930   4.232 -0.8960  0.0607  0.1715
 5781SOL    HW118956   7.918   5.993   4.233 -1.1374 -0.2170  0.9881
 5781SOL    HW218957   8.030   5.938   4.319  0.5720  0.7811 -0.5487
 5782SOL     OW18958   3.251   3.659   9.196 -0.1337  0.4857 -0.2852
 5782SOL    HW118959   3.333   3.615   9.176 -0.1520  0.9215 -1.3813
 5782SOL    HW218960   3.190   3.588   9.220  0.8518  0.2491  1.7226
 5783SOL     OW18961   6.320   3.186   7.935  0.0383 -0.1960 -0.0744
 5783SOL    HW118962   6.402   3.209   7.893 -0.1212  1.4360  0.4343
 5783SOL    HW218963   6.252   3.229   7.882 -0.4249 -0.8408 -0.0205
 5784SOL     OW18964   8.438   1.330   3.648  0.6364  0.3889 -0.2075
 5784SOL    HW118965   8.433   1.368   3.735  1.6177  2.3451 -0.9370
 5784SOL    HW218966   8.349   1.303   3.628 -0.1494  2.4570  0.3343
 5785SOL     OW18967   5.180   4.932   0.916  0.0268 -0.3254 -0.1126
 5785SOL    HW118968   5.225   5.012   0.889 -0.9276  0.1439 -0.3500
 5785SOL    HW218969   5.090   4.943   0.885 -0.5619 -0.7272  1.3569
 5786SOL     OW18970   4.485   7.146   3.465 -0.4658  0.0755 -0.2906
 5786SOL    HW118971   4.468   7.109   3.378 -2.6661 -0.3118  0.2320
 5786SOL    HW218972   4.454   7.079   3.526 -0.1800  0.8763  0.7670
 5787SOL     OW18973   7.049   2.210   3.214 -0.2868 -0.3577  0.0699
 5787SOL    HW118974   7.013   2.132   3.257 -0.9266  0.2920  0.7175
 5787SOL    HW218975   7.075   2.179   3.127  0.1100 -1.4546  0.5601
 5788SOL     OW18976   1.238   8.070   6.744 -0.0012 -0.3034  0.2493
 5788SOL    HW118977   1.202   7.996   6.792 -1.0841  0.0995  0.0969
 5788SOL    HW218978   1.164   8.104   6.693  1.0006 -0.4571 -1.3884
 5789SOL     OW18979   5.694   0.266   6.422  0.1897 -0.1521  0.3994
 5789SOL    HW118980   5.714   0.304   6.507  1.3047 -0.8080  0.4515
 5789SOL    HW218981   5.776   0.224   6.395  0.2991  1.2647 -1.6687
 5790SOL     OW18982   7.126   6.819   2.852 -0.0151 -0.4502  0.7182
 5790SOL    HW118983   7.130   6.914   2.844  0.1281 -0.5094 -0.0618
 5790SOL    HW218984   7.033   6.798   2.842  0.1389 -0.5100 -1.0087
 5791SOL     OW18985   0.042   0.143   8.769 -0.2114 -0.7248  0.3808
 5791SOL    HW118986   0.092   0.222   8.788  0.5833 -0.5029 -2.2636
 5791SOL    HW218987   0.075   0.113   8.684 -2.8230 -2.0021 -0.2918
 5792SOL     OW18988   2.441   7.870   2.979  0.5583 -0.7117  0.2960
 5792SOL    HW118989   2.498   7.947   2.987  1.6061 -1.5919  2.2009
 5792SOL    HW218990   2.353   7.904   2.988  1.0482  0.2313  1.9633
 5793SOL     OW18991   5.899   2.046   6.140 -0.3121  0.0703  0.2312
 5793SOL    HW118992   5.941   2.124   6.105  1.5362 -0.9908 -0.0646
 5793SOL    HW218993   5.938   1.974   6.091 -1.0168 -1.1417  1.3725
 5794SOL     OW18994   3.667   3.558   2.608 -0.0148 -0.0648 -0.5970
 5794SOL    HW118995   3.666   3.624   2.538  1.3204 -0.8515 -1.3967
 5794SOL    HW218996   3.617   3.485   2.571 -0.3244 -0.0363 -0.2443
 5795SOL     OW18997   1.906   8.511   8.829  0.5856 -0.0652  0.2113
 5795SOL    HW118998   1.885   8.471   8.913 -0.9079  0.6149  0.1915
 5795SOL    HW218999   2.001   8.527   8.833  0.1533  2.8479  3.0990
 5796SOL     OW19000   0.653   6.413   1.468 -0.3557  0.3674  0.1623
 5796SOL    HW119001   0.684   6.497   1.437 -0.6987  0.2696 -0.4662
 5796SOL    HW219002   0.561   6.409   1.441 -0.0156 -0.7247 -0.9385
 5797SOL     OW19003   1.874   3.110   8.746  0.1550 -0.3311  0.0925
 5797SOL    HW119004   1.950   3.143   8.794  0.9083 -1.6333 -0.1835
 5797SOL    HW219005   1.864   3.019   8.775 -1.2195 -0.2335  0.0129
 5798SOL     OW19006   3.640   6.691   9.262 -0.0723 -0.3448  0.1543
 5798SOL    HW119007   3.711   6.685   9.198  0.1816 -0.1741  0.4173
 5798SOL    HW219008   3.560   6.694   9.209  0.2491  3.7529 -0.4353
 5799SOL     OW19009   1.094   0.729   7.057  0.1067 -0.7878 -0.2401
 5799SOL    HW119010   1.144   0.713   6.977 -1.6163 -0.8869 -1.3364
 5799SOL    HW219011   1.047   0.647   7.073  0.7006 -0.8981  1.1071
 5800SOL     OW19012   5.739   6.422   3.141 -0.2554 -0.5498 -0.4112
 5800SOL    HW119013   5.711   6.441   3.052 -0.1435 -1.7709 -0.7228
 5800SOL    HW219014   5.671   6.461   3.196 -0.6146 -0.2725 -1.0471
 5801SOL     OW19015   9.321   7.730   5.498 -0.0151  0.1314 -0.2431
 5801SOL    HW119016   9.246   7.689   5.454 -1.7478 -0.1373  2.6245
 5801SOL    HW219017   9.340   7.808   5.447 -1.2439 -0.6160 -1.9284
 5802SOL     OW19018   5.405   7.215   3.761  0.5915 -0.4403  0.4660
 5802SOL    HW119019   5.388   7.137   3.708  0.8002 -0.6324  0.6793
 5802SOL    HW219020   5.318   7.250   3.779  0.2173 -2.3663  2.9671
 5803SOL     OW19021   8.943   4.112   6.652 -0.0849  0.4474  0.5871
 5803SOL    HW119022   9.004   4.108   6.578 -0.3085  0.8458  0.3747
 5803SOL    HW219023   8.861   4.144   6.613 -0.8136 -1.2860  0.6273
 5804SOL     OW19024   2.509   5.094   1.384  0.4685 -0.4698  0.5006
 5804SOL    HW119025   2.423   5.119   1.417  0.4613  1.0810 -0.5636
 5804SOL    HW219026   2.510   4.999   1.389 -0.9424 -0.4680  1.3986
 5805SOL     OW19027   4.514   9.678   5.750  0.0103 -0.1735  0.0491
 5805SOL    HW119028   4.502   9.657   5.842  0.7652  0.8794  0.4071
 5805SOL    HW219029   4.517   9.593   5.706 -0.6167 -0.6725  0.9545
 5806SOL     OW19030   3.967   4.115   1.437 -0.0660  0.2355 -0.1075
 5806SOL    HW119031   3.917   4.073   1.367  0.7947  0.1578 -0.6786
 5806SOL    HW219032   3.965   4.052   1.509  0.7632 -0.5564 -0.7725
 5807SOL     OW19033   0.514   6.253   7.425 -0.2362  0.0789  0.1082
 5807SOL    HW119034   0.447   6.213   7.481 -0.8972  0.6401 -0.2687
 5807SOL    HW219035   0.564   6.309   7.484 -0.0984 -0.3490  0.3958
 5808SOL     OW19036   9.427   1.275   3.629 -0.2456 -1.2362 -0.1791
 5808SOL    HW119037   9.378   1.354   3.653  0.5792 -1.2289  1.6234
 5808SOL    HW219038   9.423   1.219   3.706  0.9082 -2.0919 -0.7016
 5809SOL     OW19039   1.889   7.661   7.976 -0.1288  0.5086  0.1376
 5809SOL    HW119040   1.865   7.579   8.017 -1.5843  1.0895  0.4984
 5809SOL    HW219041   1.985   7.664   7.983  0.1403 -1.8751 -1.3275
 5810SOL     OW19042   0.604   9.310   4.213  0.3735  0.0025  0.2649
 5810SOL    HW119043   0.634   9.268   4.293  0.6101 -0.8666 -0.2611
 5810SOL    HW219044   0.684   9.322   4.161  0.1219 -0.2181 -0.1839
 5811SOL     OW19045   7.086   6.793   6.237  0.6306  0.2369 -0.4694
 5811SOL    HW119046   7.014   6.733   6.217  0.9363 -0.1248 -0.5026
 5811SOL    HW219047   7.045   6.862   6.289 -0.2197  1.2833 -2.4177
 5812SOL     OW19048   9.396   3.211   3.687  0.2216  0.3223  0.0766
 5812SOL    HW119049   9.449   3.214   3.767 -1.2888  1.2151  1.1067
 5812SOL    HW219050   9.390   3.302   3.659 -0.4371  0.1869 -0.2349
 5813SOL     OW19051   6.522   6.784   3.615 -0.1595  0.8440  0.3418
 5813SOL    HW119052   6.524   6.851   3.547 -2.0018 -1.4996 -2.2709
 5813SOL    HW219053   6.431   6.783   3.645  0.6256  1.8912  3.0928
 5814SOL     OW19054   3.362   0.761   2.754 -0.1108  0.6147 -0.4463
 5814SOL    HW119055   3.397   0.841   2.794  1.4255 -0.2276 -0.0467
 5814SOL    HW219056   3.438   0.705   2.742 -1.4120 -1.6581  1.2271
 5815SOL     OW19057   6.956   0.113   7.700  0.2606 -0.3613  0.0011
 5815SOL    HW119058   7.045   0.136   7.673  0.6064 -1.3338  0.2808
 5815SOL    HW219059   6.900   0.156   7.635  1.0722 -2.8621 -2.5355
 5816SOL     OW19060   5.601   5.556   0.330 -0.3424 -0.0751  0.4845
 5816SOL    HW119061   5.564   5.477   0.289 -2.8872 -0.2273  2.7580
 5816SOL    HW219062   5.669   5.523   0.388 -0.2553 -0.4233  0.1922
 5817SOL     OW19063   8.576   4.080   6.797 -0.4555 -0.2235 -0.3792
 5817SOL    HW119064   8.489   4.101   6.765 -0.2713  1.5544  0.1477
 5817SOL    HW219065   8.634   4.137   6.747  0.2326 -0.2830  0.3359
 5818SOL     OW19066   3.585   6.694   6.703  0.1646 -0.3258  0.2656
 5818SOL    HW119067   3.673   6.713   6.670  0.3157 -0.4672  0.5896
 5818SOL    HW219068   3.596   6.677   6.796 -0.3625  0.7651  0.5439
 5819SOL     OW19069   7.905   4.323   7.446 -0.4355 -0.7141 -0.7210
 5819SOL    HW119070   7.981   4.270   7.468  0.5453  1.7555  2.8353
 5819SOL    HW219071   7.832   4.280   7.488  0.3782  0.5677  2.2819
 5820SOL     OW19072   5.580   6.842   1.080  0.0828  0.3552  0.2416
 5820SOL    HW119073   5.487   6.819   1.084  0.0626  0.5253  0.7810
 5820SOL    HW219074   5.626   6.760   1.103  0.0325  0.5745  1.1747
 5821SOL     OW19075   2.871   3.693   8.685  0.1367  0.5344  0.0110
 5821SOL    HW119076   2.839   3.742   8.761  0.3598  2.7744 -1.2536
 5821SOL    HW219077   2.933   3.630   8.722  0.2514  1.5727  1.6976
 5822SOL     OW19078   4.730   2.660   5.346 -0.3612  0.0065 -0.3946
 5822SOL    HW119079   4.811   2.613   5.366 -0.8384 -0.0011  1.8514
 5822SOL    HW219080   4.759   2.750   5.327  0.2879 -0.3951 -1.3685
 5823SOL     OW19081   6.873   4.796   6.457  0.1134  0.5776  0.9725
 5823SOL    HW119082   6.840   4.876   6.498  0.8046  0.6528  1.3892
 5823SOL    HW219083   6.911   4.826   6.374  1.8338  0.9396  1.8500
 5824SOL     OW19084   2.650   3.028   0.558  0.1490 -0.1645 -0.3469
 5824SOL    HW119085   2.557   3.050   0.563  0.8455  3.4491 -0.9631
 5824SOL    HW219086   2.696   3.107   0.587  3.0806 -2.0356  0.5906
 5825SOL     OW19087   7.998   4.735   7.829  0.4901  0.3376  0.5864
 5825SOL    HW119088   8.070   4.727   7.892  0.4767 -0.8680  0.4666
 5825SOL    HW219089   8.013   4.665   7.766 -0.5633  0.3265  0.3258
 5826SOL     OW19090   6.288   6.123   0.361  0.1152  0.2987 -0.6347
 5826SOL    HW119091   6.316   6.210   0.332  1.9377 -0.4373 -1.2054
 5826SOL    HW219092   6.274   6.074   0.279  0.6630 -0.4130 -0.3088
 5827SOL     OW19093   6.418   7.287   9.164 -0.1325  0.2513  0.3584
 5827SOL    HW119094   6.466   7.294   9.247  0.8409 -1.3139 -0.0294
 5827SOL    HW219095   6.479   7.324   9.100 -0.3604  0.2798  0.1613
 5828SOL     OW19096   3.722   8.136   6.999  0.6762  0.7065 -0.2197
 5828SOL    HW119097   3.783   8.100   7.064  0.3517 -0.5884 -0.5936
 5828SOL    HW219098   3.708   8.064   6.937 -3.4481 -0.1721  1.3774
 5829SOL     OW19099   5.017   7.192   8.184  0.0527  0.0726 -0.0701
 5829SOL    HW119100   5.065   7.255   8.238  1.2370 -0.2112 -0.7431
 5829SOL    HW219101   5.019   7.229   8.096  0.2793 -0.6196 -0.3670
 5830SOL     OW19102   8.433   1.473   3.895  0.0158  0.1808  0.5733
 5830SOL    HW119103   8.361   1.479   3.958 -0.8078  3.8004 -0.4828
 5830SOL    HW219104   8.512   1.489   3.947 -0.3891  0.5859  1.0626
 5831SOL     OW19105   0.677   2.190   8.383 -0.0403  0.4436 -0.7024
 5831SOL    HW119106   0.768   2.182   8.353  0.0466  2.0472 -0.9393
 5831SOL    HW219107   0.625   2.152   8.312  0.4040  0.1862 -0.8941
 5832SOL     OW19108   1.290   0.247   7.576  0.0683  0.0309  0.1586
 5832SOL    HW119109   1.237   0.209   7.646  0.1718  1.0821  0.8350
 5832SOL    HW219110   1.229   0.299   7.524  0.1352 -0.0959 -0.0470
 5833SOL     OW19111   3.435   4.397   2.534  0.6182 -0.0431 -0.5144
 5833SOL    HW119112   3.465   4.401   2.443  0.8868 -0.3280 -0.4414
 5833SOL    HW219113   3.489   4.328   2.573  1.6839  1.2207  0.3066
 5834SOL     OW19114   1.735   7.703   4.285  0.8244  0.4581  0.4907
 5834SOL    HW119115   1.791   7.646   4.233  0.9211 -0.5004  1.6157
 5834SOL    HW219116   1.716   7.653   4.364 -0.0692  1.5213  0.9766
 5835SOL     OW19117   3.843   3.102   8.974 -0.4103  0.2157 -0.2275
 5835SOL    HW119118   3.858   3.078   8.883  1.6951 -0.0767  0.1516
 5835SOL    HW219119   3.914   3.162   8.996 -1.4312  1.0442  0.9631
 5836SOL     OW19120   8.180   0.438   7.988  0.0450 -0.1441  0.4292
 5836SOL    HW119121   8.124   0.440   8.066 -0.5558  2.0167  0.0009
 5836SOL    HW219122   8.229   0.356   7.997 -0.9963 -0.6376  2.3620
 5837SOL     OW19123   3.794   3.171   2.688 -0.3357  0.2116  0.0249
 5837SOL    HW119124   3.827   3.255   2.720 -0.6062  0.9138 -1.4162
 5837SOL    HW219125   3.779   3.186   2.594 -0.2098 -1.5125 -0.3016
 5838SOL     OW19126   7.646   7.358   0.553  0.5310  0.0608 -0.5338
 5838SOL    HW119127   7.577   7.369   0.487 -0.2132  0.7511  0.3321
 5838SOL    HW219128   7.660   7.264   0.557  0.1178 -0.0393 -1.2007
 5839SOL     OW19129   8.719   0.993   4.624  0.0811 -0.5032  0.2907
 5839SOL    HW119130   8.745   1.067   4.679  0.6857 -0.5790  0.1170
 5839SOL    HW219131   8.744   1.020   4.535  2.6250 -1.8859  0.4942
 5840SOL     OW19132   1.142   4.055   9.189 -0.4952  0.3509 -0.1962
 5840SOL    HW119133   1.123   3.969   9.226  0.4170  0.8258  1.4809
 5840SOL    HW219134   1.220   4.085   9.235 -1.1827  2.3709 -0.2165
 5841SOL     OW19135   0.889   1.439   0.087  0.0803  0.2029 -0.1116
 5841SOL    HW119136   0.810   1.403   0.046 -0.3801  1.9641 -0.8678
 5841SOL    HW219137   0.927   1.365   0.134 -1.9609 -0.7396  0.1874
 5842SOL     OW19138   7.465   5.900   8.174 -0.1387  0.5049 -0.4809
 5842SOL    HW119139   7.416   5.905   8.092 -0.6514 -0.4206 -0.2472
 5842SOL    HW219140   7.470   5.991   8.205 -0.7891  0.7380 -1.0376
 5843SOL     OW19141   6.651   2.999   5.987  0.1116 -0.5559  0.5252
 5843SOL    HW119142   6.650   3.088   6.024 -0.2605 -0.0332 -0.6809
 5843SOL    HW219143   6.679   2.943   6.059  0.6299  0.5801  1.2338
 5844SOL     OW19144   4.699   1.330   2.402 -0.3169 -0.3027 -0.0817
 5844SOL    HW119145   4.727   1.397   2.339  0.7959 -1.4138 -0.8280
 5844SOL    HW219146   4.614   1.361   2.434  0.6240  1.9994  0.4121
 5845SOL     OW19147   9.527   6.282   5.627  0.4411 -0.1012  0.0527
 5845SOL    HW119148   9.557   6.194   5.602  0.6015 -1.1475  3.4360
 5845SOL    HW219149   9.432   6.274   5.633  0.3127  0.4157 -1.0069
 5846SOL     OW19150   7.135   6.733   8.874 -0.0837 -0.0285 -0.4865
 5846SOL    HW119151   7.080   6.800   8.834 -0.6520  0.2221  0.6589
 5846SOL    HW219152   7.210   6.781   8.908 -0.2295 -0.0388 -0.1386
 5847SOL     OW19153   6.210   2.580   5.753  0.3196 -0.1576 -0.0847
 5847SOL    HW119154   6.133   2.589   5.696  0.2931  1.0585  0.1128
 5847SOL    HW219155   6.174   2.576   5.841  0.4339 -0.6701 -0.0595
 5848SOL     OW19156   6.013   7.243   0.217 -0.3438  0.0076 -0.0894
 5848SOL    HW119157   5.959   7.322   0.223  1.7361  1.4252  1.1869
 5848SOL    HW219158   6.019   7.226   0.123 -1.4110  0.9115 -0.3511
 5849SOL     OW19159   6.079   8.773   7.438  0.0192 -0.4938 -0.1618
 5849SOL    HW119160   6.151   8.832   7.416  1.2731 -1.5980  0.8545
 5849SOL    HW219161   6.052   8.799   7.526 -2.1115  1.0925 -1.1724
 5850SOL     OW19162   9.471   7.476   8.921  0.0210 -0.2271 -0.6086
 5850SOL    HW119163   9.531   7.441   8.986  0.8438  2.9628  0.5644
 5850SOL    HW219164   9.389   7.428   8.935  0.7529 -0.9733  1.4726
 5851SOL     OW19165   3.455   3.500   0.854 -0.1360 -0.1409  0.7127
 5851SOL    HW119166   3.482   3.579   0.806  0.6651 -0.4219  0.6877
 5851SOL    HW219167   3.412   3.534   0.933 -0.0570  0.3227  0.5633
 5852SOL     OW19168   1.369   7.216   7.355 -0.2811 -0.1932  0.1202
 5852SOL    HW119169   1.278   7.190   7.340 -0.4403  0.3295  0.1657
 5852SOL    HW219170   1.409   7.212   7.268 -0.5726  0.4188 -0.0486
 5853SOL     OW19171   5.527   8.804   5.406  0.0740  0.1001 -0.1670
 5853SOL    HW119172   5.565   8.721   5.378  0.4081 -0.8810  2.8640
 5853SOL    HW219173   5.432   8.789   5.404  0.1016 -0.0505 -0.3772
 5854SOL     OW19174   0.259   8.418   1.411 -0.1960 -0.2940  0.0036
 5854SOL    HW119175   0.244   8.363   1.488  2.2123 -1.6325 -0.3575
 5854SOL    HW219176   0.319   8.367   1.357 -1.2292  0.9229 -2.4514
 5855SOL     OW19177   3.350   2.670   6.247  0.1272 -0.3670  0.3316
 5855SOL    HW119178   3.409   2.737   6.281 -0.7901  0.4489  0.3528
 5855SOL    HW219179   3.288   2.718   6.192 -0.9252 -1.0998  0.8431
 5856SOL     OW19180   1.857   7.181   3.776 -0.0745 -0.2851 -0.0927
 5856SOL    HW119181   1.904   7.204   3.696 -1.1703  0.3468 -0.5777
 5856SOL    HW219182   1.914   7.119   3.821  1.0622  0.2092 -0.8175
 5857SOL     OW19183   6.678   6.433   8.485  0.2449  0.2184  0.3869
 5857SOL    HW119184   6.748   6.368   8.481 -0.8885 -1.0523  0.5334
 5857SOL    HW219185   6.616   6.398   8.549 -1.6908  0.0632 -1.4628
 5858SOL     OW19186   3.324   2.869   8.126 -0.1694 -0.0872  0.3683
 5858SOL    HW119187   3.288   2.879   8.038  0.4330  1.0316  0.2244
 5858SOL    HW219188   3.386   2.796   8.118 -0.3536 -0.1987 -0.0637
 5859SOL     OW19189   2.242   6.694   5.887 -0.3971 -0.1100  0.3867
 5859SOL    HW119190   2.210   6.709   5.975  0.1206  1.8176  0.2874
 5859SOL    HW219191   2.306   6.623   5.896 -0.5201 -0.0824  1.5057
 5860SOL     OW19192   5.310   8.427   5.785  0.1181 -0.7856 -0.1951
 5860SOL    HW119193   5.237   8.486   5.768  0.7527  0.7574  1.9822
 5860SOL    HW219194   5.293   8.351   5.731 -2.9683 -0.3861  0.0656
 5861SOL     OW19195   0.859   4.448   5.776 -0.3715  0.8882 -0.0805
 5861SOL    HW119196   0.847   4.371   5.721 -1.9714 -0.3590  1.8759
 5861SOL    HW219197   0.919   4.504   5.726  1.7358 -2.0469 -1.0939
 5862SOL     OW19198   2.324   4.613   5.913 -0.0537 -0.1997 -0.1589
 5862SOL    HW119199   2.418   4.628   5.905  0.2769 -1.8275  0.3208
 5862SOL    HW219200   2.295   4.596   5.824 -0.2058  1.7825 -0.5282
 5863SOL     OW19201   9.557   5.173   6.446 -0.1082 -0.4571  0.6441
 5863SOL    HW119202   9.585   5.084   6.468  0.2711 -0.5950 -0.3311
 5863SOL    HW219203   9.464   5.174   6.464 -0.3055 -1.3643 -0.2390
 5864SOL     OW19204   8.625   5.172   7.864 -0.0552  0.1674  0.1000
 5864SOL    HW119205   8.632   5.236   7.935 -1.8653  0.0391  0.4403
 5864SOL    HW219206   8.705   5.184   7.814  1.0051  0.6674  1.8218
 5865SOL     OW19207   3.851   0.504   8.381  0.0153  0.2688 -0.3719
 5865SOL    HW119208   3.940   0.534   8.395  0.1948 -0.0797 -0.7522
 5865SOL    HW219209   3.802   0.582   8.355 -0.0818  0.7183  1.0915
 5866SOL     OW19210   8.351   4.213   3.211 -0.2291  0.0666 -0.3897
 5866SOL    HW119211   8.397   4.295   3.228 -0.2424  0.0862 -0.4467
 5866SOL    HW219212   8.301   4.196   3.291 -1.6811  1.0662 -1.0477
 5867SOL     OW19213   0.704   9.680   7.869 -0.3563 -0.1496  0.2003
 5867SOL    HW119214   0.694   9.687   7.964 -0.6069  0.2098  0.1482
 5867SOL    HW219215   0.739   9.764   7.842  1.5023 -0.8828  0.1936
 5868SOL     OW19216   1.175   7.006   3.173 -0.3663 -0.3082 -0.5167
 5868SOL    HW119217   1.245   7.057   3.132  0.8332  0.0075  1.7074
 5868SOL    HW219218   1.195   6.915   3.150  0.7784 -0.2125 -0.0054
 5869SOL     OW19219   7.444   5.855   4.022 -0.1338 -0.7998 -0.3308
 5869SOL    HW119220   7.359   5.822   4.050 -0.1964  0.4468  1.1071
 5869SOL    HW219221   7.507   5.814   4.082 -0.1436  0.9739  0.9881
 5870SOL     OW19222   5.611   0.110   6.993  0.2794  0.1576 -0.1601
 5870SOL    HW119223   5.641   0.079   7.078  2.7136 -0.3893 -1.1175
 5870SOL    HW219224   5.615   0.205   7.000 -1.3692  0.1845  0.8862
 5871SOL     OW19225   7.014   8.471   7.904 -0.4966  0.0910 -0.1747
 5871SOL    HW119226   6.988   8.557   7.938 -1.9544 -0.4482  0.1780
 5871SOL    HW219227   7.044   8.488   7.815 -0.7183  0.9703 -0.0887
 5872SOL     OW19228   8.441   6.392   7.471 -0.3174  0.5629  0.0065
 5872SOL    HW119229   8.389   6.436   7.538 -1.1772 -0.2995 -0.0770
 5872SOL    HW219230   8.529   6.387   7.508 -0.6933  0.4601  0.9028
 5873SOL     OW19231   2.219   3.853   6.394  0.2236 -0.7397 -0.7319
 5873SOL    HW119232   2.151   3.799   6.435  0.7755 -0.3627  0.7580
 5873SOL    HW219233   2.253   3.800   6.322  0.3960 -2.1750  0.3729
 5874SOL     OW19234   3.804   8.420   7.693 -0.5268 -0.1421 -0.1643
 5874SOL    HW119235   3.744   8.464   7.633 -0.0131  0.1548 -0.4609
 5874SOL    HW219236   3.827   8.339   7.648 -0.0245  0.1500 -0.4381
 5875SOL     OW19237   0.650   7.202   3.878 -0.0065 -0.5746  0.0486
 5875SOL    HW119238   0.559   7.192   3.851  0.5187 -2.6909 -1.1022
 5875SOL    HW219239   0.677   7.114   3.905  1.0054  0.4752  2.7786
 5876SOL     OW19240   6.113   2.846   1.170  0.0628 -0.4159  0.5260
 5876SOL    HW119241   6.173   2.846   1.096 -0.9996 -0.3231 -0.3569
 5876SOL    HW219242   6.026   2.856   1.131 -0.6864 -2.1235  1.6303
 5877SOL     OW19243   8.457   8.706   1.074 -0.4949  0.5797  0.1903
 5877SOL    HW119244   8.420   8.734   0.990 -1.6056  0.4739  0.6285
 5877SOL    HW219245   8.551   8.698   1.057 -0.5842  1.4240 -0.7992
 5878SOL     OW19246   8.250   0.693   4.319  0.3763  0.7595 -0.1877
 5878SOL    HW119247   8.298   0.630   4.372  1.5308  1.9613  0.2614
 5878SOL    HW219248   8.166   0.652   4.301  2.3163 -2.5138 -2.9922
 5879SOL     OW19249   8.342   1.476   8.589  0.1259 -0.4545  0.4407
 5879SOL    HW119250   8.334   1.565   8.624  0.5107 -0.0165 -0.5360
 5879SOL    HW219251   8.270   1.428   8.630 -0.0561  0.2949  1.0270
 5880SOL     OW19252   5.061   1.507   3.250 -0.1997 -0.1285  0.7914
 5880SOL    HW119253   5.105   1.527   3.333  1.7341 -2.2674  0.3596
 5880SOL    HW219254   5.095   1.573   3.189  0.7443 -0.4091  0.9969
 5881SOL     OW19255   2.024   1.608   8.755  0.0551 -0.0151  0.3397
 5881SOL    HW119256   2.007   1.526   8.802 -1.8206  1.2878  2.0739
 5881SOL    HW219257   2.056   1.580   8.670 -0.5629 -2.5498  0.8612
 5882SOL     OW19258   1.123   3.837   3.179  0.3309  0.0674  0.2559
 5882SOL    HW119259   1.150   3.778   3.249 -1.6620 -1.3798 -0.0945
 5882SOL    HW219260   1.088   3.913   3.224  1.2037  0.1701  0.7707
 5883SOL     OW19261   5.556   5.967   5.544 -0.2825 -0.6952  0.3067
 5883SOL    HW119262   5.519   5.997   5.627 -0.1054  1.0924 -0.2209
 5883SOL    HW219263   5.586   5.878   5.562 -1.9495 -1.0322  1.6191
 5884SOL     OW19264   7.075   4.795   6.183 -0.0592 -0.3972  0.2121
 5884SOL    HW119265   7.164   4.790   6.218 -0.4291  0.0145  1.2675
 5884SOL    HW219266   7.070   4.883   6.144  0.2990 -0.7920 -0.7478
 5885SOL     OW19267   5.665   3.789   7.366  0.0907 -0.2091  0.0139
 5885SOL    HW119268   5.577   3.794   7.405  0.4240 -1.1333  0.9365
 5885SOL    HW219269   5.698   3.704   7.393  0.3530 -0.9349 -2.3704
 5886SOL     OW19270   8.119   4.787   3.003  0.3256 -0.4198 -0.0931
 5886SOL    HW119271   8.071   4.804   2.922  0.8529  0.6594 -0.1972
 5886SOL    HW219272   8.099   4.862   3.058 -0.2442 -1.2744  0.9007
 5887SOL     OW19273   4.533   2.409   5.061 -0.3519  0.4907  0.0245
 5887SOL    HW119274   4.555   2.399   4.969 -0.8646  0.0071 -0.0563
 5887SOL    HW219275   4.516   2.320   5.092 -1.4392  0.7563  0.2511
 5888SOL     OW19276   4.456   5.565   2.789 -0.0610 -0.1938 -0.0896
 5888SOL    HW119277   4.426   5.595   2.875  1.9149 -1.3252  1.0894
 5888SOL    HW219278   4.461   5.470   2.798  0.0739 -0.3413 -1.5185
 5889SOL     OW19279   2.161   6.800   4.275  0.2598 -0.6527  0.1978
 5889SOL    HW119280   2.122   6.779   4.190 -0.5690  0.6413  0.2340
 5889SOL    HW219281   2.132   6.729   4.333 -2.3877  0.4138  0.3041
 5890SOL     OW19282   3.315   7.768   9.349  0.4209  0.3159 -0.3527
 5890SOL    HW119283   3.278   7.703   9.409 -0.0172  0.1272 -0.8266
 5890SOL    HW219284   3.365   7.717   9.286 -0.3499  0.3800 -1.0377
 5891SOL     OW19285   2.441   8.318   3.034 -0.0086 -0.2933  0.1754
 5891SOL    HW119286   2.486   8.386   3.084  0.1526  0.0246 -0.3939
 5891SOL    HW219287   2.384   8.366   2.974 -0.8212 -0.6880  0.6248
 5892SOL     OW19288   7.740   5.756   4.170 -0.7426 -0.7357  0.5394
 5892SOL    HW119289   7.793   5.822   4.214  1.9191 -1.3961 -1.3649
 5892SOL    HW219290   7.724   5.690   4.236  1.6143 -0.8794  1.0789
 5893SOL     OW19291   1.927   2.724   5.479 -0.1465  0.2002  0.1892
 5893SOL    HW119292   1.929   2.751   5.387  1.7379 -0.0281  0.1186
 5893SOL    HW219293   1.844   2.758   5.512 -0.9649  0.1113 -1.6369
 5894SOL     OW19294   5.000   7.784   2.690 -0.2994  0.0777  0.0893
 5894SOL    HW119295   5.075   7.731   2.717 -1.5768 -2.2658 -0.6619
 5894SOL    HW219296   4.977   7.835   2.767  1.3821  0.0165  0.6655
 5895SOL     OW19297   2.236   5.756   0.093  0.1925  0.3615  0.0443
 5895SOL    HW119298   2.330   5.760   0.113  0.2266  1.9489 -0.2730
 5895SOL    HW219299   2.230   5.779   0.000 -0.5071  0.1326  0.0273
 5896SOL     OW19300   9.586   9.822   3.170 -0.1629 -0.7741  0.2402
 5896SOL    HW119301   9.623   9.894   3.220 -0.1338  1.9844 -3.3479
 5896SOL    HW219302   9.662   9.770   3.143 -0.1325 -1.9135  2.2883
 5897SOL     OW19303   2.664   1.561   5.876 -0.2603 -0.0057 -0.1882
 5897SOL    HW119304   2.635   1.634   5.931 -1.8236 -0.1131 -0.7939
 5897SOL    HW219305   2.699   1.497   5.937  0.4811  0.9569  0.4196
 5898SOL     OW19306   2.917   5.904   4.825 -0.6084 -0.3847  0.4792
 5898SOL    HW119307   2.974   5.854   4.884  1.6197 -1.7938 -2.5709
 5898SOL    HW219308   2.945   5.995   4.835  0.3096 -0.7141  1.0049
 5899SOL     OW19309   7.416   3.552   1.509 -0.7867 -0.5244  0.0496
 5899SOL    HW119310   7.506   3.568   1.480 -0.4340 -0.3374  1.1914
 5899SOL    HW219311   7.411   3.594   1.595 -1.3794 -2.1889  0.8678
 5900SOL     OW19312   3.980   5.931   1.032  0.5280  0.2351  0.4619
 5900SOL    HW119313   3.935   5.874   1.095 -1.3332  1.9742  0.8189
 5900SOL    HW219314   4.012   6.004   1.085  1.7334  0.1727 -0.1614
 5901SOL     OW19315   0.821   9.009   0.620  0.6759  0.1993  0.0576
 5901SOL    HW119316   0.846   8.919   0.638 -1.0216 -0.1331  0.9564
 5901SOL    HW219317   0.758   9.003   0.547  0.0253  0.5627  0.5720
 5902SOL     OW19318   2.869   2.528   9.141 -0.4347 -0.3101  0.2360
 5902SOL    HW119319   2.861   2.549   9.048 -0.5889 -0.7561  0.1459
 5902SOL    HW219320   2.783   2.495   9.166 -0.2145 -0.7820  0.3854
 5903SOL     OW19321   0.532   1.921   0.418  0.0660  0.0256  0.1359
 5903SOL    HW119322   0.444   1.887   0.437  0.8547 -2.0457  0.3565
 5903SOL    HW219323   0.589   1.845   0.427  2.0992  1.5987  1.4065
 5904SOL     OW19324   5.892   5.142   0.272 -0.2158 -0.0975 -0.5274
 5904SOL    HW119325   5.834   5.127   0.348 -0.8739 -2.5760 -1.4264
 5904SOL    HW219326   5.833   5.171   0.203  0.0900  0.1972 -0.6675
 5905SOL     OW19327   1.262   6.999   8.508  0.5099 -0.3157  0.1091
 5905SOL    HW119328   1.252   6.926   8.570 -1.1229  1.0172  1.5316
 5905SOL    HW219329   1.276   6.957   8.423  1.9698 -2.2334  1.2185
 5906SOL     OW19330   1.111   6.168   5.769  0.6244 -0.1746  0.1683
 5906SOL    HW119331   1.119   6.227   5.844 -0.3628 -0.5344  0.5782
 5906SOL    HW219332   1.195   6.122   5.765  1.7849  1.8609 -0.7203
 5907SOL     OW19333   3.579   0.185   9.490 -0.2014 -0.0531  0.3582
 5907SOL    HW119334   3.500   0.157   9.536  0.7227 -3.0398  0.3364
 5907SOL    HW219335   3.547   0.226   9.410 -1.7311  0.3374  1.1323
 5908SOL     OW19336   8.458   2.514   4.537  0.1908 -0.1783 -0.1656
 5908SOL    HW119337   8.510   2.507   4.457  1.2813  1.6785  0.3231
 5908SOL    HW219338   8.374   2.551   4.509  0.9270  1.4124 -0.3754
 5909SOL     OW19339   5.815   8.801   9.758 -0.3075 -0.3334 -0.5116
 5909SOL    HW119340   5.854   8.886   9.738 -0.3438 -0.2171 -0.0996
 5909SOL    HW219341   5.761   8.817   9.835  0.7613 -1.0284  0.3971
 5910SOL     OW19342   8.709   8.583   8.567 -0.7867  0.3049 -0.4353
 5910SOL    HW119343   8.773   8.574   8.638 -0.7008 -0.1544 -0.5675
 5910SOL    HW219344   8.662   8.499   8.567 -2.7277  1.2799  0.9496
 5911SOL     OW19345   2.480   1.835   4.911 -0.1715  0.1110 -0.0965
 5911SOL    HW119346   2.560   1.879   4.882 -0.0375  1.5017  2.1269
 5911SOL    HW219347   2.478   1.754   4.861  1.7018  0.8265 -1.4705
 5912SOL     OW19348   1.800   2.152   4.569  0.2466 -1.2722  0.6716
 5912SOL    HW119349   1.763   2.144   4.657 -0.4715 -2.6146  0.2808
 5912SOL    HW219350   1.766   2.236   4.536 -1.1588 -1.7014  0.9432
 5913SOL     OW19351   0.083   7.007   0.890 -0.0501  0.6865 -0.3502
 5913SOL    HW119352   0.124   7.076   0.839  0.1106  0.4389 -0.5619
 5913SOL    HW219353   0.055   6.943   0.824  3.3187 -1.4003  0.0186
 5914SOL     OW19354   5.184   9.744   5.205 -0.0094 -0.0804  0.2343
 5914SOL    HW119355   5.205   9.685   5.278 -0.8066 -0.0520  0.4951
 5914SOL    HW219356   5.168   9.686   5.131  1.4448 -0.0877 -0.1157
 5915SOL     OW19357   7.893   5.801   1.678 -0.2601  0.0898  0.5990
 5915SOL    HW119358   7.985   5.777   1.664 -0.1826  0.3697  0.6321
 5915SOL    HW219359   7.844   5.747   1.616 -0.0708 -0.0283  0.5520
 5916SOL     OW19360   4.017   8.067   8.883 -0.0822  0.0543  0.4244
 5916SOL    HW119361   4.090   8.125   8.901  0.5479 -0.2612 -0.9741
 5916SOL    HW219362   3.969   8.110   8.813 -0.7484 -0.1637  0.7361
 5917SOL     OW19363   4.415   8.087   7.772  0.0038 -0.1132 -0.5878
 5917SOL    HW119364   4.444   8.118   7.687  1.1619  0.5983  0.0509
 5917SOL    HW219365   4.342   8.029   7.752 -0.2609  0.6660 -2.0025
 5918SOL     OW19366   9.813   3.769   9.107 -0.4320 -0.4520  0.4702
 5918SOL    HW119367   9.823   3.820   9.187 -1.0671  0.1027  0.2078
 5918SOL    HW219368   9.719   3.755   9.098 -0.5326  0.8082 -0.9565
 5919SOL     OW19369   6.157   6.490   6.798 -0.3494 -0.1080 -0.0809
 5919SOL    HW119370   6.098   6.557   6.761 -0.1114  0.7956  1.1006
 5919SOL    HW219371   6.199   6.451   6.722 -0.4003  1.1914 -0.8147
 5920SOL     OW19372   8.396   6.120   0.340  0.4018  0.4103 -0.0276
 5920SOL    HW119373   8.447   6.155   0.414  2.8203  0.6981 -1.7299
 5920SOL    HW219374   8.375   6.197   0.287  2.3718 -0.1477 -1.7626
 5921SOL     OW19375   7.487   7.984   7.886  0.0537 -0.0202 -0.3167
 5921SOL    HW119376   7.547   7.909   7.895  0.0737 -0.0602 -0.7947
 5921SOL    HW219377   7.419   7.954   7.826 -2.4965 -1.2860  2.8750
 5922SOL     OW19378   1.495   5.487   0.552  0.8541 -0.0889 -0.5049
 5922SOL    HW119379   1.438   5.432   0.605  0.7832  0.7694  0.3324
 5922SOL    HW219380   1.509   5.437   0.472  2.7057 -2.3770  1.1432
 5923SOL     OW19381   9.015   2.278   0.736  0.1856 -0.1414 -0.4124
 5923SOL    HW119382   9.107   2.268   0.761  0.1687 -0.5100 -0.4884
 5923SOL    HW219383   8.985   2.355   0.785 -0.0813 -1.3197  1.3725
 5924SOL     OW19384   2.962   6.328   0.046  0.1050  0.0695  0.3297
 5924SOL    HW119385   2.914   6.411   0.046  1.7986  1.1700  3.0271
 5924SOL    HW219386   3.022   6.335  -0.028 -0.3807  0.8411 -0.0078
 5925SOL     OW19387   8.567   7.714   5.615 -0.0115 -0.1097 -0.0391
 5925SOL    HW119388   8.538   7.625   5.591 -3.6110  1.0191 -0.4816
 5925SOL    HW219389   8.543   7.723   5.707 -0.0594  0.5311 -0.1126
 5926SOL     OW19390   5.078   5.414   3.750  0.2473 -0.1287 -0.4062
 5926SOL    HW119391   5.081   5.331   3.701 -0.1070  0.3232 -1.2199
 5926SOL    HW219392   5.002   5.405   3.807 -0.6540  0.1658 -1.5150
 5927SOL     OW19393   5.152   2.386   7.039 -0.2276  0.0313  0.4220
 5927SOL    HW119394   5.106   2.469   7.052  1.7733  1.0121  1.8449
 5927SOL    HW219395   5.194   2.395   6.954 -0.3296  0.3377  0.4018
 5928SOL     OW19396   3.522   8.509   3.167 -0.2928 -0.7719  0.4990
 5928SOL    HW119397   3.429   8.490   3.171 -0.5202 -0.7540 -2.4843
 5928SOL    HW219398   3.527   8.601   3.141  0.5077 -1.0077 -0.2386
 5929SOL     OW19399   6.345   7.751   1.011  0.4853  0.1466  0.1203
 5929SOL    HW119400   6.357   7.806   0.934 -3.0380  0.1941 -0.5462
 5929SOL    HW219401   6.308   7.809   1.077  0.2311 -0.6142  0.6612
 5930SOL     OW19402   7.266   3.292   7.934  0.3570 -0.5449 -0.1573
 5930SOL    HW119403   7.304   3.358   7.993  0.5019 -1.0638  0.3473
 5930SOL    HW219404   7.313   3.303   7.852 -0.0195  0.3612 -0.2674
 5931SOL     OW19405   0.260   0.724   0.095 -0.0114  0.2230 -0.9034
 5931SOL    HW119406   0.225   0.811   0.077  0.1684  0.2968 -0.8978
 5931SOL    HW219407   0.331   0.739   0.157  0.1314  0.0892 -1.0347
 5932SOL     OW19408   8.235   3.738   7.690 -0.2094 -0.3172 -0.0868
 5932SOL    HW119409   8.210   3.684   7.615 -1.1631  0.2065 -0.1628
 5932SOL    HW219410   8.318   3.701   7.720 -0.3270 -1.1647 -0.7735
 5933SOL     OW19411   2.971   4.150   4.338 -0.2264  0.2261  0.6550
 5933SOL    HW119412   2.913   4.082   4.303 -0.8892  0.4423  1.2925
 5933SOL    HW219413   2.952   4.227   4.284 -1.8933  0.8108  1.9698
 5934SOL     OW19414   8.098   9.565   5.361  0.2973 -0.7680 -0.1720
 5934SOL    HW119415   8.011   9.534   5.339  0.2140 -0.1175 -0.7723
 5934SOL    HW219416   8.138   9.589   5.277 -0.0435  1.7822  0.3238
 5935SOL     OW19417   3.905   3.648   7.903  0.2843 -0.1285  0.0491
 5935SOL    HW119418   3.971   3.582   7.886 -0.0888 -0.3401 -0.6215
 5935SOL    HW219419   3.838   3.602   7.955  0.2663 -0.1404  0.0158
 5936SOL     OW19420   2.884   1.323   6.609 -0.1298  0.0476 -0.8980
 5936SOL    HW119421   2.936   1.347   6.685 -0.0589  0.3146 -1.0335
 5936SOL    HW219422   2.856   1.406   6.571  0.8490 -0.0522 -1.8741
 5937SOL     OW19423   7.398   6.209   4.013  0.7857 -0.7046 -0.0429
 5937SOL    HW119424   7.417   6.118   4.034 -0.1529 -1.2896 -1.5799
 5937SOL    HW219425   7.310   6.207   3.975  0.4085  0.9643  0.6597
 5938SOL     OW19426   5.337   3.634   0.549  0.2819  0.4321 -0.0131
 5938SOL    HW119427   5.361   3.704   0.610 -1.8203  1.7906 -0.6184
 5938SOL    HW219428   5.255   3.600   0.583  0.8016 -1.1295 -0.2596
 5939SOL     OW19429   4.357   6.140   4.502  0.5143  0.1773  0.2803
 5939SOL    HW119430   4.327   6.146   4.412  0.3267 -3.1550  0.0192
 5939SOL    HW219431   4.359   6.231   4.532  0.1899  1.3741 -2.8997
 5940SOL     OW19432   6.664   7.048   7.366  0.2090  0.0948  0.1906
 5940SOL    HW119433   6.696   7.077   7.281 -0.0846  0.0878  0.0758
 5940SOL    HW219434   6.676   6.953   7.365  0.2468  0.1001  0.1737
 5941SOL     OW19435   6.249   8.993   8.166  0.5968 -0.6102  0.2084
 5941SOL    HW119436   6.189   9.055   8.207  2.3054  0.8113  0.7161
 5941SOL    HW219437   6.283   8.940   8.238  0.7364 -0.6910  0.0847
 5942SOL     OW19438   1.986   5.993   9.705  0.1789 -0.1616 -0.2999
 5942SOL    HW119439   1.907   5.998   9.758 -0.2156 -0.2567 -0.8672
 5942SOL    HW219440   1.964   6.039   9.624  0.9602  0.4825 -0.1669
 5943SOL     OW19441   6.453   2.647   5.521 -0.2994  0.7260  0.4302
 5943SOL    HW119442   6.517   2.687   5.579 -0.8136 -0.2462  1.7326
 5943SOL    HW219443   6.385   2.713   5.510  0.8201  1.7170 -0.8598
 5944SOL     OW19444   0.167   1.951   9.107  0.1162  0.0406  0.1946
 5944SOL    HW119445   0.180   1.857   9.121  1.0874  0.4159  2.1028
 5944SOL    HW219446   0.205   1.967   9.020  2.3289 -0.9302  0.8920
 5945SOL     OW19447   8.359   2.330   8.941  0.6661 -0.6877 -0.3565
 5945SOL    HW119448   8.312   2.413   8.950  1.1072 -0.2510 -1.7783
 5945SOL    HW219449   8.451   2.353   8.953  0.8430 -0.8482 -1.2789
 5946SOL     OW19450   7.774   0.330   4.216  0.5976 -0.1335 -0.2776
 5946SOL    HW119451   7.788   0.254   4.160  1.0927  0.3455 -0.8251
 5946SOL    HW219452   7.772   0.295   4.305  2.3320 -0.6188 -0.3929
 5947SOL     OW19453   5.857   4.317   1.442 -0.5134  0.5998  0.5040
 5947SOL    HW119454   5.787   4.255   1.462 -1.4056  1.4524  0.1195
 5947SOL    HW219455   5.883   4.295   1.352  1.0095 -0.8993  1.2646
 5948SOL     OW19456   8.146   9.667   1.994  0.9659  0.1971 -0.3075
 5948SOL    HW119457   8.150   9.620   1.910  1.7827  0.1365 -0.2440
 5948SOL    HW219458   8.097   9.747   1.975  0.8140  0.0017 -0.7529
 5949SOL     OW19459   5.963   3.857   2.892  0.0601  0.8321 -0.0428
 5949SOL    HW119460   6.018   3.782   2.912  2.0176  1.1698 -3.3870
 5949SOL    HW219461   5.910   3.828   2.817 -1.6715  1.7186  0.7934
 5950SOL     OW19462   0.697   1.123   3.110 -0.1678 -0.8270  0.4310
 5950SOL    HW119463   0.670   1.192   3.171  1.1999 -1.5269  1.8987
 5950SOL    HW219464   0.733   1.054   3.166 -1.0655 -2.5691 -1.0077
 5951SOL     OW19465   6.265   5.706   6.067 -0.2634  0.4501 -0.3493
 5951SOL    HW119466   6.247   5.771   6.135 -1.1560 -0.1878  0.0494
 5951SOL    HW219467   6.202   5.636   6.083  0.0384 -0.0817 -1.3584
 5952SOL     OW19468   6.997   8.872   2.324  0.1693 -0.1304 -0.5757
 5952SOL    HW119469   7.062   8.917   2.270  0.8308 -1.6332 -1.0850
 5952SOL    HW219470   6.927   8.848   2.263 -0.5813  0.9012 -0.1506
 5953SOL     OW19471   8.981   2.166   7.482 -0.2051  0.6535 -0.1673
 5953SOL    HW119472   9.020   2.171   7.569  0.6110 -1.1551 -0.3797
 5953SOL    HW219473   9.051   2.132   7.426 -1.6566 -1.4601 -0.8287
 5954SOL     OW19474   8.898   5.152   7.150  0.2215  0.0517 -0.0610
 5954SOL    HW119475   8.969   5.127   7.090  0.5343  0.4636  0.1324
 5954SOL    HW219476   8.938   5.145   7.237  0.0848  0.4834  0.0361
 5955SOL     OW19477   4.850   4.617   2.237  0.3558  0.2089 -0.2838
 5955SOL    HW119478   4.902   4.552   2.284 -0.3462 -1.1182 -1.2587
 5955SOL    HW219479   4.818   4.676   2.305  1.4568 -0.1461  0.5665
 5956SOL     OW19480   5.922   6.370   2.774  0.4520 -0.7223 -0.3557
 5956SOL    HW119481   5.967   6.450   2.748 -0.2978 -0.5893 -1.3143
 5956SOL    HW219482   5.971   6.338   2.850  0.6947  0.7087  0.1359
 5957SOL     OW19483   7.111   0.781   1.541 -0.1976 -0.2287 -0.3393
 5957SOL    HW119484   7.019   0.785   1.516  0.2699  0.4591 -2.1029
 5957SOL    HW219485   7.148   0.863   1.508  1.3219 -1.0828 -0.8711
 5958SOL     OW19486   6.789   2.121   0.767  0.3076  0.1780  0.0444
 5958SOL    HW119487   6.767   2.156   0.853  0.6409 -1.0875  0.6721
 5958SOL    HW219488   6.856   2.181   0.733  0.5589  0.3915  0.8928
 5959SOL     OW19489   3.454   6.195   7.101 -0.0637 -0.0397  0.2698
 5959SOL    HW119490   3.470   6.102   7.085 -0.4941 -0.1315  0.3740
 5959SOL    HW219491   3.542   6.233   7.109  0.1108 -0.4530  0.3340
 5960SOL     OW19492   3.745   3.947   8.468 -0.1662 -0.1259 -0.0869
 5960SOL    HW119493   3.739   4.011   8.540  0.8880  1.0190 -0.9669
 5960SOL    HW219494   3.834   3.912   8.475 -0.5074 -0.9798 -0.0407
 5961SOL     OW19495   7.175   2.252   2.007 -0.3513 -0.1355 -0.0893
 5961SOL    HW119496   7.112   2.281   2.073 -0.2276 -2.2931  1.0586
 5961SOL    HW219497   7.165   2.315   1.936 -1.7994  1.2064  1.2105
 5962SOL     OW19498   7.256   1.398   5.173  0.8693 -0.3340 -0.1573
 5962SOL    HW119499   7.284   1.489   5.177  1.8854 -0.5792 -0.9092
 5962SOL    HW219500   7.169   1.401   5.134  0.1967  0.4049  1.3367
 5963SOL     OW19501   1.759   0.601   1.092  0.2321 -0.1202 -0.2977
 5963SOL    HW119502   1.828   0.660   1.061 -0.0896  1.0971  1.1620
 5963SOL    HW219503   1.702   0.657   1.144 -1.2236 -1.3436 -0.5150
 5964SOL     OW19504   3.687   3.327   6.777 -0.0495  0.4884 -0.1665
 5964SOL    HW119505   3.774   3.365   6.786  0.4418 -0.5034 -0.6025
 5964SOL    HW219506   3.645   3.380   6.709  0.4623  0.5568 -0.4346
 5965SOL     OW19507   6.614   1.849   1.615 -0.0308  0.0787 -0.1246
 5965SOL    HW119508   6.697   1.870   1.574  0.2158  2.0269  1.2369
 5965SOL    HW219509   6.548   1.879   1.552  0.1795 -2.7221 -1.8304
 5966SOL     OW19510   6.784   5.201   3.436  0.0580  0.2636 -0.1708
 5966SOL    HW119511   6.754   5.111   3.447 -1.5439  0.7465 -0.2855
 5966SOL    HW219512   6.753   5.226   3.349 -0.9422  1.4169  0.4808
 5967SOL     OW19513   0.038   4.188   8.871  0.4358 -0.0475  0.3723
 5967SOL    HW119514   0.029   4.264   8.812 -2.2849  1.0088  1.9769
 5967SOL    HW219515  -0.034   4.130   8.846 -0.3483  0.1029  2.1511
 5968SOL     OW19516   9.486   7.403   8.026 -0.1532  0.7971  0.1197
 5968SOL    HW119517   9.482   7.493   7.995 -0.8317  0.3880 -1.0378
 5968SOL    HW219518   9.465   7.350   7.949 -0.2806 -0.3330  0.9059
 5969SOL     OW19519   1.056   7.077   6.647  0.1206  1.0276  0.0464
 5969SOL    HW119520   1.104   6.998   6.673  0.7253  1.0712 -0.8875
 5969SOL    HW219521   1.078   7.088   6.554 -1.7523  1.0242 -0.4224
 5970SOL     OW19522   7.790   0.865   7.060 -0.5870  0.4952  0.5910
 5970SOL    HW119523   7.867   0.880   7.006 -0.0745 -1.1891  0.7927
 5970SOL    HW219524   7.821   0.809   7.132 -2.1499 -0.9951  0.1892
 5971SOL     OW19525   5.024   7.567   5.412 -0.0324 -0.4069 -0.6982
 5971SOL    HW119526   5.050   7.643   5.360  1.6332  0.6675  1.5165
 5971SOL    HW219527   4.937   7.544   5.380  0.3160  1.0613 -2.9052
 5972SOL     OW19528   9.781   9.512   6.772  0.2817  0.1334 -0.5171
 5972SOL    HW119529   9.708   9.454   6.750  0.6566 -0.0914 -1.1809
 5972SOL    HW219530   9.766   9.590   6.719  0.1090  0.4053 -0.0750
 5973SOL     OW19531   8.209   8.411   6.018  0.2640 -0.0965  0.2634
 5973SOL    HW119532   8.292   8.427   5.973  0.5362  0.7613  1.0240
 5973SOL    HW219533   8.192   8.493   6.066 -2.8340  1.2170 -2.6701
 5974SOL     OW19534   0.414   7.835   8.512 -0.2705 -0.0157  0.2046
 5974SOL    HW119535   0.406   7.878   8.597 -2.0975  1.2825 -0.5595
 5974SOL    HW219536   0.458   7.899   8.457  1.7136 -1.1879  0.3238
 5975SOL     OW19537   8.931   5.274   2.015 -0.0076  0.7291 -0.6832
 5975SOL    HW119538   8.990   5.271   2.091  0.1747 -2.1735 -0.8312
 5975SOL    HW219539   8.978   5.329   1.952  0.4826  2.0493  0.7414
 5976SOL     OW19540   3.338   5.583   5.069  0.3266 -0.2322  0.0414
 5976SOL    HW119541   3.422   5.619   5.038  0.0640 -1.2449 -2.0505
 5976SOL    HW219542   3.356   5.491   5.084 -0.0097 -0.1040  1.3291
 5977SOL     OW19543   1.695   2.845   9.319 -0.2543  0.2018  0.2647
 5977SOL    HW119544   1.629   2.806   9.261  0.7347  1.2601 -1.6720
 5977SOL    HW219545   1.645   2.904   9.375 -1.1911 -0.5093  0.2094
 5978SOL     OW19546   3.093   0.595   5.831 -0.4531  0.1043 -0.3247
 5978SOL    HW119547   3.181   0.612   5.800 -0.8006  1.3112 -0.7244
 5978SOL    HW219548   3.064   0.517   5.784  0.0949  0.2030 -0.8276
 5979SOL     OW19549   5.490   6.186   4.957  0.1925 -0.4378 -0.0631
 5979SOL    HW119550   5.584   6.201   4.965 -0.1348  1.0144  1.6526
 5979SOL    HW219551   5.476   6.100   4.995  0.7704 -0.4135  0.2168
 5980SOL     OW19552   6.503   0.085   8.277 -0.7347  0.3916 -0.2666
 5980SOL    HW119553   6.473   0.054   8.192 -1.2867  0.7317 -0.2000
 5980SOL    HW219554   6.485   0.179   8.276  1.6577  0.9081 -0.7989
 5981SOL     OW19555   1.318   7.364   3.994 -0.4326 -0.5487 -0.6642
 5981SOL    HW119556   1.280   7.417   3.924  0.7540  0.5195 -0.5116
 5981SOL    HW219557   1.344   7.426   4.061 -1.2717 -1.5346  0.6304
 5982SOL     OW19558   4.962   0.769   4.624  0.5070  0.3735 -0.5447
 5982SOL    HW119559   4.987   0.811   4.542  0.7808  0.0694 -0.6172
 5982SOL    HW219560   4.913   0.836   4.672 -0.3274  0.3097 -1.2827
 5983SOL     OW19561   8.823   5.758   7.390 -0.0307 -0.7986  0.5399
 5983SOL    HW119562   8.872   5.724   7.315  0.6987  3.7207 -1.3615
 5983SOL    HW219563   8.886   5.758   7.461  0.6829 -1.0858 -0.0748
 5984SOL     OW19564   5.735   9.792   7.799  0.1348 -0.0741  0.1791
 5984SOL    HW119565   5.778   9.707   7.800 -0.4031 -0.3460  0.3921
 5984SOL    HW219566   5.642   9.772   7.801  0.0076  0.5251  0.3871
 5985SOL     OW19567   7.495   2.513   3.872 -0.1790  0.1023 -0.1901
 5985SOL    HW119568   7.450   2.431   3.854  1.2280 -1.0108  1.1051
 5985SOL    HW219569   7.498   2.558   3.788  0.1107 -1.7368 -1.2113
 5986SOL     OW19570   0.962   3.657   8.498  0.6400 -0.1909 -0.7359
 5986SOL    HW119571   1.027   3.700   8.442  2.0215 -0.4973  0.5777
 5986SOL    HW219572   0.944   3.720   8.567 -0.7291  0.0103 -1.2504
 5987SOL     OW19573   4.559   5.405   9.147 -0.4089 -0.0305  0.6324
 5987SOL    HW119574   4.527   5.349   9.077  0.5980  2.1352 -1.6968
 5987SOL    HW219575   4.483   5.419   9.203 -1.4016 -1.3683 -0.3191
 5988SOL     OW19576   3.184   1.079   3.154 -0.3275 -0.8939 -0.1911
 5988SOL    HW119577   3.276   1.074   3.178 -0.6681  0.6780  1.6813
 5988SOL    HW219578   3.172   1.168   3.121 -1.4289 -0.5981  0.9296
 5989SOL     OW19579   5.369   7.152   1.185 -0.5211 -0.0549  0.4644
 5989SOL    HW119580   5.387   7.173   1.093  1.0425  0.2908  0.8101
 5989SOL    HW219581   5.349   7.237   1.225  1.4013  0.2273  0.9451
 5990SOL     OW19582   4.063   5.463   0.053 -0.1174 -0.9171 -0.0835
 5990SOL    HW119583   4.067   5.548   0.098 -1.0551 -0.0731 -1.5357
 5990SOL    HW219584   4.104   5.478  -0.032 -1.6492 -1.4958 -0.9655
 5991SOL     OW19585   1.984   6.777   9.386 -0.0016  0.5887 -0.3615
 5991SOL    HW119586   1.942   6.738   9.463 -0.2460 -2.0652 -1.7501
 5991SOL    HW219587   2.071   6.802   9.418 -0.3248  0.1534  0.9435
 5992SOL     OW19588   1.058   2.810   5.158  0.0864 -0.1006 -0.6727
 5992SOL    HW119589   1.115   2.822   5.082  1.4798  1.5123  0.5524
 5992SOL    HW219590   1.061   2.716   5.176  2.5960 -0.0582 -0.5434
 5993SOL     OW19591   6.599   5.438   1.875  0.1545  0.1522  0.1462
 5993SOL    HW119592   6.607   5.369   1.810 -0.0208  0.5757 -0.3284
 5993SOL    HW219593   6.590   5.519   1.824 -1.2656  0.3585  0.6764
 5994SOL     OW19594   3.836   4.124   8.114  0.0651 -0.2103 -0.3721
 5994SOL    HW119595   3.835   4.217   8.135 -0.3101 -0.5627  1.2936
 5994SOL    HW219596   3.747   4.094   8.134  0.1924 -0.9484 -0.8573
 5995SOL     OW19597   8.764   9.620   6.908 -0.5115 -0.1038  0.2283
 5995SOL    HW119598   8.697   9.676   6.868 -1.8982 -0.9691  1.2409
 5995SOL    HW219599   8.756   9.636   7.002  1.0139  0.0728  0.3543
 5996SOL     OW19600   6.720   7.859   1.940 -0.5379  0.1126  0.4309
 5996SOL    HW119601   6.723   7.764   1.952  1.6735  0.1222  0.3611
 5996SOL    HW219602   6.736   7.872   1.847 -0.2775  0.5796  0.5380
 5997SOL     OW19603   9.256   6.352   0.545 -0.1639 -0.1184  0.4309
 5997SOL    HW119604   9.192   6.362   0.616 -0.1561  0.1695  0.3985
 5997SOL    HW219605   9.212   6.388   0.468 -0.3853 -0.9326  0.1598
 5998SOL     OW19606   9.341   8.718   8.843 -0.1547 -0.5801  0.1508
 5998SOL    HW119607   9.328   8.725   8.937  1.0551 -2.1841  0.4920
 5998SOL    HW219608   9.433   8.742   8.830 -0.3033 -0.4103 -0.6152
 5999SOL     OW19609   8.745   9.544   6.280 -0.2422 -0.1024  0.4189
 5999SOL    HW119610   8.777   9.604   6.213  0.3383 -0.4281  0.3960
 5999SOL    HW219611   8.676   9.493   6.237 -1.5351  1.3110  0.7644
 6000SOL     OW19612   2.053   9.179   2.284  0.5798 -0.2055  0.5224
 6000SOL    HW119613   2.147   9.163   2.272  0.5621 -0.6616  0.9712
 6000SOL    HW219614   2.016   9.164   2.197  0.9426  0.1318  0.3056
 6001SOL     OW19615   8.817   8.599   3.073 -0.2109 -0.2736  0.3692
 6001SOL    HW119616   8.784   8.688   3.088  0.5981  0.5104 -2.1169
 6001SOL    HW219617   8.757   8.562   3.009  0.6645 -0.7520 -0.1911
 6002SOL     OW19618   8.132   3.198   5.587  0.4465 -0.5422 -0.3870
 6002SOL    HW119619   8.193   3.178   5.515 -1.0510 -2.8573 -1.1325
 6002SOL    HW219620   8.047   3.205   5.545  0.0754  2.6904  0.6433
 6003SOL     OW19621   8.419   9.347   7.407 -0.7658  0.8916  0.0283
 6003SOL    HW119622   8.473   9.275   7.373 -0.9708  1.5064 -1.7048
 6003SOL    HW219623   8.397   9.398   7.329 -2.6155  1.4904  0.9091
 6004SOL     OW19624   4.171   9.596   1.125 -0.1113 -0.0290  0.0342
 6004SOL    HW119625   4.128   9.664   1.074 -0.6101  0.6673  1.3299
 6004SOL    HW219626   4.257   9.632   1.146  0.0316 -0.2460 -0.1750
 6005SOL     OW19627   1.652   7.803   1.049 -0.3609 -0.3990  0.4984
 6005SOL    HW119628   1.597   7.827   0.975  0.6217 -0.0062 -0.1232
 6005SOL    HW219629   1.674   7.886   1.091 -0.0674 -0.5349  0.6185
 6006SOL     OW19630   5.335   6.034   8.866 -0.2725  0.2951 -0.4835
 6006SOL    HW119631   5.278   6.106   8.894 -2.4409 -1.5107  0.0159
 6006SOL    HW219632   5.351   6.051   8.773 -0.3401  1.6702 -0.2588
 6007SOL     OW19633   4.159   9.294   5.684 -0.2692 -0.7780  0.2550
 6007SOL    HW119634   4.221   9.305   5.757 -1.3149  1.6197  0.8757
 6007SOL    HW219635   4.215   9.285   5.607  0.8763 -0.0806  0.9704
 6008SOL     OW19636   6.270   3.479   0.763 -0.1064 -0.0897  0.7494
 6008SOL    HW119637   6.328   3.500   0.691 -0.9822 -0.4666 -0.0854
 6008SOL    HW219638   6.282   3.550   0.826 -0.4878  1.0918 -0.4678
 6009SOL     OW19639   9.714   3.432   6.794  0.2155 -0.6245 -0.6187
 6009SOL    HW119640   9.657   3.378   6.849  0.6115  0.9140  1.4460
 6009SOL    HW219641   9.802   3.411   6.824  0.3996  0.7115 -0.1473
 6010SOL     OW19642   6.349   4.534   0.792  0.0580 -0.1416 -0.0077
 6010SOL    HW119643   6.336   4.624   0.820 -2.0464 -0.5053  0.4164
 6010SOL    HW219644   6.444   4.521   0.793  0.3532  1.7855  0.7649
 6011SOL     OW19645   3.209   9.818   4.982 -0.1851  0.1105 -0.3365
 6011SOL    HW119646   3.150   9.749   5.010 -0.8655 -0.1010 -2.1437
 6011SOL    HW219647   3.265   9.776   4.916  0.4775  0.8874 -0.2863
 6012SOL     OW19648   8.339   1.998   0.370 -0.1088 -0.2820 -0.1147
 6012SOL    HW119649   8.381   2.044   0.443 -0.3880 -0.0478 -0.0985
 6012SOL    HW219650   8.247   1.991   0.396  0.1011 -1.7485  0.3304
 6013SOL     OW19651   5.542   6.579   1.236 -0.1870  0.4902 -0.1917
 6013SOL    HW119652   5.582   6.583   1.149  2.6353  0.2670  1.0007
 6013SOL    HW219653   5.596   6.516   1.285 -1.4032  0.9528  1.8747
 6014SOL     OW19654   4.787   7.761   7.545 -0.2521  0.4229  0.0398
 6014SOL    HW119655   4.702   7.758   7.501 -0.0046 -0.5250 -0.3929
 6014SOL    HW219656   4.851   7.756   7.474  0.1774  1.1313  0.3635
 6015SOL     OW19657   0.248   6.108   0.358  0.0070 -0.1764 -0.4160
 6015SOL    HW119658   0.177   6.173   0.358 -0.6127 -0.7302  2.3299
 6015SOL    HW219659   0.203   6.024   0.349  0.1893 -0.5734  1.9330
 6016SOL     OW19660   6.177   9.801   4.179  0.3702 -0.4556  0.5706
 6016SOL    HW119661   6.213   9.878   4.224  1.3929  0.1963 -1.2627
 6016SOL    HW219662   6.252   9.762   4.135 -0.6938 -0.5986 -1.2051
 6017SOL     OW19663   9.213   7.658   9.747  0.3691 -0.7644  0.0873
 6017SOL    HW119664   9.212   7.626   9.657  0.9682 -2.2939  0.5844
 6017SOL    HW219665   9.149   7.729   9.748 -0.1040 -1.1331 -1.3912
 6018SOL     OW19666   7.714   8.529   6.279  0.0354  0.1548  0.3172
 6018SOL    HW119667   7.650   8.476   6.232 -0.2487 -0.6025  1.5072
 6018SOL    HW219668   7.732   8.603   6.221 -1.2047 -0.1142 -0.4360
 6019SOL     OW19669   2.571   1.684   3.868  0.0515 -0.6867  0.3724
 6019SOL    HW119670   2.573   1.631   3.948  1.8789 -0.1561  0.7220
 6019SOL    HW219671   2.524   1.630   3.805  0.6940 -2.1455  1.1020
 6020SOL     OW19672   7.591   5.761   5.248 -0.2256 -0.2681 -0.5430
 6020SOL    HW119673   7.557   5.779   5.161  1.8549  0.6672 -1.2248
 6020SOL    HW219674   7.686   5.757   5.237  0.0280 -1.4698  1.4569
 6021SOL     OW19675   6.138   6.445   4.440  0.1088 -0.4989 -0.2757
 6021SOL    HW119676   6.098   6.434   4.527 -0.7475  0.8071 -0.4762
 6021SOL    HW219677   6.093   6.381   4.385  0.1252 -0.8207  0.0800
 6022SOL     OW19678   1.595   1.859   8.163 -0.3980  0.2388  0.1059
 6022SOL    HW119679   1.530   1.900   8.220  1.3095  1.4954  1.2272
 6022SOL    HW219680   1.668   1.838   8.220 -0.1674 -2.1133 -0.9265
 6023SOL     OW19681   3.031   7.049   3.481  0.1092  0.0262  0.4376
 6023SOL    HW119682   3.049   7.013   3.394  0.5339 -1.8731  1.2591
 6023SOL    HW219683   3.109   7.099   3.503 -0.6281  1.8473 -0.8705
 6024SOL     OW19684   4.163   4.860   7.215 -0.0374 -0.0709 -0.4330
 6024SOL    HW119685   4.248   4.893   7.185 -0.8935  0.9539 -1.8810
 6024SOL    HW219686   4.102   4.883   7.144 -1.7624  0.3638  1.1049
 6025SOL     OW19687   1.392   1.526   1.917  0.5841  0.0557 -0.5420
 6025SOL    HW119688   1.407   1.530   1.822 -0.9146 -0.7439 -0.8329
 6025SOL    HW219689   1.300   1.550   1.928  0.9263  0.8849  0.8030
 6026SOL     OW19690   5.037   4.168   0.401 -0.7173  0.4268  0.1389
 6026SOL    HW119691   5.122   4.156   0.359 -0.7806 -0.1498  0.1640
 6026SOL    HW219692   4.977   4.116   0.348 -0.7674 -0.4424  1.0290
 6027SOL     OW19693   0.139   4.597   7.289  0.0067  0.0404 -0.1186
 6027SOL    HW119694   0.226   4.637   7.282  0.3578 -0.8980 -1.4765
 6027SOL    HW219695   0.106   4.596   7.199 -1.0780 -0.3498  0.2727
 6028SOL     OW19696   4.196   3.314   8.178  0.5527 -0.3745 -0.3917
 6028SOL    HW119697   4.267   3.359   8.223  0.2913 -1.8101  1.5877
 6028SOL    HW219698   4.116   3.352   8.214  0.3173 -0.4569 -0.8167
 6029SOL     OW19699   8.573   5.033   1.295 -0.3949 -0.0012 -0.9803
 6029SOL    HW119700   8.605   4.961   1.240  0.1736 -0.3200 -0.2464
 6029SOL    HW219701   8.547   4.991   1.377  1.7851  0.8300  0.2151
 6030SOL     OW19702   8.735   0.710   9.044  0.5387  0.0904 -0.5549
 6030SOL    HW119703   8.680   0.766   9.099 -1.2647 -0.7120 -1.4494
 6030SOL    HW219704   8.812   0.764   9.024  1.4601  0.3126  2.9404
 6031SOL     OW19705   2.908   2.280   7.053  0.0889 -0.0377 -0.2309
 6031SOL    HW119706   2.826   2.318   7.084 -0.6741 -1.8932  0.1717
 6031SOL    HW219707   2.899   2.186   7.070  2.5932 -0.2204  0.4754
 6032SOL     OW19708   9.343   1.122   0.357 -0.3102  0.3580 -0.0927
 6032SOL    HW119709   9.425   1.095   0.317 -0.4117  0.1181 -0.1407
 6032SOL    HW219710   9.285   1.140   0.282 -1.0501 -1.7410 -0.0821
 6033SOL     OW19711   7.714   0.694   2.229 -0.5525  0.7913  0.1995
 6033SOL    HW119712   7.703   0.742   2.147 -0.4729  0.5882  0.0694
 6033SOL    HW219713   7.624   0.683   2.262 -0.5781  0.9485  0.1851
 6034SOL     OW19714   6.215   4.676   2.541 -0.3234 -0.1610 -0.4309
 6034SOL    HW119715   6.228   4.593   2.587  0.0479  0.0759 -0.1009
 6034SOL    HW219716   6.123   4.674   2.513 -0.1720 -0.9273 -0.9210
 6035SOL     OW19717   5.855   8.962   5.771 -0.1098 -0.5851  0.5691
 6035SOL    HW119718   5.773   8.990   5.732 -0.3828 -0.3384  1.3084
 6035SOL    HW219719   5.830   8.920   5.853  0.3014 -2.6300 -0.2637
 6036SOL     OW19720   4.939   4.567   2.674  0.1400  0.1821  0.2402
 6036SOL    HW119721   4.965   4.502   2.609  1.6331 -0.1715  1.1707
 6036SOL    HW219722   4.859   4.606   2.637  0.8390 -0.1281 -1.7158
 6037SOL     OW19723   8.233   6.802   7.653  0.0008 -0.0965  0.1916
 6037SOL    HW119724   8.307   6.863   7.655  0.2286 -0.3872  0.6066
 6037SOL    HW219725   8.192   6.818   7.567 -0.1812  0.9258  0.4537
 6038SOL     OW19726   8.223   8.447   2.454  0.1884 -0.3249  0.3465
 6038SOL    HW119727   8.154   8.464   2.518 -0.6493  1.7704 -0.9839
 6038SOL    HW219728   8.236   8.353   2.456 -1.8641 -0.6369  1.5101
 6039SOL     OW19729   3.580   0.235   2.990 -0.0467 -0.0805  0.2638
 6039SOL    HW119730   3.608   0.321   3.021  0.8698  0.0499 -0.8624
 6039SOL    HW219731   3.655   0.178   3.004  0.5593  0.0674 -1.9306
 6040SOL     OW19732   0.516   0.361   4.191  0.1941 -0.0279 -0.3427
 6040SOL    HW119733   0.439   0.312   4.218  0.6394  0.1902  1.4346
 6040SOL    HW219734   0.481   0.436   4.142 -0.9801  1.4624  2.5228
 6041SOL     OW19735   3.553   6.229   9.646  0.0801  0.5171 -0.1700
 6041SOL    HW119736   3.535   6.136   9.633  0.6584 -0.0015  2.3692
 6041SOL    HW219737   3.474   6.263   9.687  0.8655  0.4954  1.4365
 6042SOL     OW19738   0.073   8.116   2.610  0.0712  0.0245 -0.1519
 6042SOL    HW119739   0.107   8.138   2.523 -1.7594  0.7873 -0.7096
 6042SOL    HW219740  -0.021   8.132   2.605 -0.5174 -2.4321  1.2034
 6043SOL     OW19741   8.604   4.088   3.851 -0.2724 -0.1714  0.0713
 6043SOL    HW119742   8.645   4.049   3.929  0.5309  0.9097  0.2061
 6043SOL    HW219743   8.546   4.156   3.885  0.4241  0.6145 -0.2726
 6044SOL     OW19744   1.735   0.448   9.594 -0.2601 -0.6612 -0.2315
 6044SOL    HW119745   1.828   0.425   9.589 -0.1723 -1.3769  2.8984
 6044SOL    HW219746   1.690   0.367   9.617 -1.5166 -0.0535 -0.4227
 6045SOL     OW19747   0.413   9.688   7.850 -0.1874 -0.2604 -0.2794
 6045SOL    HW119748   0.506   9.679   7.868  0.1482  1.6324 -0.8696
 6045SOL    HW219749   0.409   9.724   7.762 -1.2636  3.3689  1.0822
 6046SOL     OW19750   7.192   8.371   9.034  0.2221 -0.5850 -0.0841
 6046SOL    HW119751   7.175   8.455   9.077 -0.4504  0.0353 -1.4895
 6046SOL    HW219752   7.239   8.320   9.099 -1.0351  0.1825  1.5113
 6047SOL     OW19753   9.148   6.662   5.948 -0.0150 -0.1604  0.4051
 6047SOL    HW119754   9.160   6.572   5.918 -0.7503  0.4749 -2.0608
 6047SOL    HW219755   9.095   6.655   6.027 -0.4052 -1.8863  0.0184
 6048SOL     OW19756   4.451   0.332   5.769 -0.4402 -0.2633 -0.3363
 6048SOL    HW119757   4.516   0.262   5.765  1.7191  1.5465  0.9480
 6048SOL    HW219758   4.455   0.362   5.860 -2.9721  0.0793 -0.2715
 6049SOL     OW19759   9.042   9.582   9.573 -0.3228 -0.0373 -0.1044
 6049SOL    HW119760   9.019   9.605   9.483 -2.4360 -0.8891  0.1775
 6049SOL    HW219761   8.961   9.594   9.623  0.7028  0.0493  1.6333
 6050SOL     OW19762   0.846   6.417   6.735  0.0463 -0.5755  0.4547
 6050SOL    HW119763   0.858   6.512   6.746  2.2833 -0.6633 -0.8053
 6050SOL    HW219764   0.927   6.378   6.768 -0.1932 -1.9325 -0.4819
 6051SOL     OW19765   0.205   5.017   4.967 -0.0880 -0.2541 -0.2233
 6051SOL    HW119766   0.127   5.020   5.023  0.1338 -0.7299  0.1146
 6051SOL    HW219767   0.190   4.943   4.908 -0.2479  0.1456 -0.6963
 6052SOL     OW19768   9.181   5.751   5.533  0.5062 -0.3843 -0.5494
 6052SOL    HW119769   9.115   5.786   5.473  0.0489 -0.4303 -0.0763
 6052SOL    HW219770   9.261   5.750   5.481 -0.0006 -0.9600 -1.3452
 6053SOL     OW19771   9.616   6.548   0.213  0.5940 -0.0494 -0.0628
 6053SOL    HW119772   9.672   6.622   0.189 -2.1475  1.8145 -1.2841
 6053SOL    HW219773   9.570   6.577   0.292 -2.0201  0.5898 -1.6799
 6054SOL     OW19774   4.282   8.420   1.874 -0.2164 -0.2644  0.2939
 6054SOL    HW119775   4.253   8.330   1.883 -1.3402 -0.0635 -1.0686
 6054SOL    HW219776   4.300   8.448   1.964 -0.6358 -1.5764  0.8106
 6055SOL     OW19777   4.316   7.671   6.954 -0.3413  0.7323  0.0394
 6055SOL    HW119778   4.299   7.623   6.873  0.1824 -0.4020  0.5779
 6055SOL    HW219779   4.263   7.627   7.020  1.4620 -0.2644  0.9023
 6056SOL     OW19780   6.824   8.880   3.047 -0.0802  0.5003 -0.5221
 6056SOL    HW119781   6.766   8.836   3.109 -1.0924 -0.8850 -2.3506
 6056SOL    HW219782   6.901   8.902   3.098 -1.5048  0.8982  1.6133
 6057SOL     OW19783   7.036   3.007   7.544  0.2804  0.1518  0.2678
 6057SOL    HW119784   7.047   2.968   7.457 -2.5612  1.7908 -0.9561
 6057SOL    HW219785   7.043   3.101   7.529 -1.7095  0.5569  1.4764
 6058SOL     OW19786   5.979   3.788   0.793 -0.0931 -0.3503  0.9974
 6058SOL    HW119787   5.970   3.693   0.802 -0.2733 -0.5185 -0.7057
 6058SOL    HW219788   5.989   3.803   0.699  1.4667  1.1964  1.3416
 6059SOL     OW19789   4.113   0.826   1.591  0.0305  0.1440 -0.3098
 6059SOL    HW119790   4.173   0.834   1.665  0.9417  0.3562 -1.0575
 6059SOL    HW219791   4.026   0.837   1.630  0.3951 -0.9574  0.9238
 6060SOL     OW19792   7.501   8.315   8.361 -0.9436  0.3991 -0.0102
 6060SOL    HW119793   7.455   8.261   8.425 -0.6367 -0.3809 -0.4356
 6060SOL    HW219794   7.545   8.252   8.304 -2.2572  1.0333 -1.7887
 6061SOL     OW19795   4.364   2.868   6.988  0.4700  0.2339 -0.0069
 6061SOL    HW119796   4.445   2.885   7.037 -0.9434  0.1974  2.5206
 6061SOL    HW219797   4.340   2.778   7.012 -0.7619  0.5447 -0.0032
 6062SOL     OW19798   3.546   9.452   9.083 -0.5682 -0.0317 -0.5685
 6062SOL    HW119799   3.554   9.399   9.003 -0.5467  0.4363 -0.8793
 6062SOL    HW219800   3.628   9.500   9.088 -1.2103  1.1645 -1.1551
 6063SOL     OW19801   6.817   7.407   9.324  0.0418  0.0044  0.3458
 6063SOL    HW119802   6.854   7.354   9.394  0.5249 -1.1526 -0.7599
 6063SOL    HW219803   6.892   7.455   9.287 -0.2662  0.8916  0.8281
 6064SOL     OW19804   2.662   3.681   8.496 -0.3306  0.3012 -0.2807
 6064SOL    HW119805   2.661   3.631   8.414 -0.8047 -0.1513 -0.0026
 6064SOL    HW219806   2.726   3.637   8.551 -1.5160 -0.6613  0.3622
 6065SOL     OW19807   0.639   2.457   2.188  0.7258  0.3758  0.0837
 6065SOL    HW119808   0.630   2.366   2.159  0.0416 -0.4484  2.6597
 6065SOL    HW219809   0.580   2.506   2.130 -0.2448 -1.0917 -0.2218
 6066SOL     OW19810   4.168   0.180   3.391 -0.0598  0.8185 -0.2008
 6066SOL    HW119811   4.213   0.262   3.414 -0.6620  1.2223 -0.4246
 6066SOL    HW219812   4.154   0.136   3.474  1.7012  0.1633 -0.2089
 6067SOL     OW19813   1.223   2.440   8.816  0.2376  0.0382 -0.0506
 6067SOL    HW119814   1.175   2.413   8.895  0.3699 -0.3615 -0.1037
 6067SOL    HW219815   1.155   2.477   8.759  0.3293  1.5162  0.7470
 6068SOL     OW19816   3.209   0.018   8.944 -0.1573  0.6331  0.4382
 6068SOL    HW119817   3.148  -0.002   8.873  1.4108 -2.7505 -0.1837
 6068SOL    HW219818   3.237   0.108   8.928  0.1528  0.0096 -3.3451
 6069SOL     OW19819   5.999   5.986   4.285  0.3019 -0.1763 -0.5321
 6069SOL    HW119820   5.938   5.931   4.333  0.0432 -0.6071 -1.3417
 6069SOL    HW219821   6.084   5.970   4.327  0.0150 -0.2345  0.0331
 6070SOL     OW19822   5.696   7.339   3.537 -0.5487  0.6569 -0.4502
 6070SOL    HW119823   5.695   7.244   3.521  0.4924  0.3657  1.0553
 6070SOL    HW219824   5.754   7.373   3.469 -0.8731  0.2263 -0.9604
 6071SOL     OW19825   9.099   1.744   0.578 -0.3228  0.1904  0.4075
 6071SOL    HW119826   9.101   1.840   0.579  0.5859  0.1938  1.4375
 6071SOL    HW219827   9.017   1.721   0.535 -0.6259  1.4376  0.2937
 6072SOL     OW19828   0.646   2.302   9.083 -0.2367  0.6416  0.2172
 6072SOL    HW119829   0.603   2.296   8.998  0.4205 -0.0918 -0.0771
 6072SOL    HW219830   0.714   2.369   9.071  0.6454 -0.3038 -0.2065
 6073SOL     OW19831   2.822   6.642   2.119 -0.1074 -0.4373  0.1981
 6073SOL    HW119832   2.802   6.733   2.094  1.8444 -0.2083 -0.7022
 6073SOL    HW219833   2.912   6.646   2.151  0.3768 -2.2423 -0.8544
 6074SOL     OW19834   9.544   7.223   8.648  0.0198  0.4333 -0.2301
 6074SOL    HW119835   9.525   7.289   8.581  0.3208  0.6840 -0.0693
 6074SOL    HW219836   9.473   7.232   8.711 -0.9595 -0.6394 -1.1267
 6075SOL     OW19837   4.210   2.489   4.169  0.0403  0.0998  0.5433
 6075SOL    HW119838   4.178   2.520   4.085  0.1424 -1.0654  0.0500
 6075SOL    HW219839   4.303   2.471   4.154  0.0808 -0.0245  0.9318
 6076SOL     OW19840   2.467   6.665   2.677  0.1698  0.3179  0.4292
 6076SOL    HW119841   2.531   6.665   2.748  0.2960  1.3233  0.3351
 6076SOL    HW219842   2.400   6.727   2.704 -1.5399 -1.7221  1.1580
 6077SOL     OW19843   3.495   4.870   1.619 -0.1537 -0.5421  1.4971
 6077SOL    HW119844   3.427   4.808   1.643 -2.1931  1.0049  0.0754
 6077SOL    HW219845   3.556   4.820   1.565 -2.1437 -1.2247 -0.2482
 6078SOL     OW19846   8.509   0.259   6.853 -0.1633  0.0110  0.2242
 6078SOL    HW119847   8.480   0.314   6.926  1.5510  3.2799 -1.3447
 6078SOL    HW219848   8.430   0.240   6.804 -1.0346 -0.3775  1.7150
 6079SOL     OW19849   0.741   1.802   6.841 -0.1139 -0.3839  0.4855
 6079SOL    HW119850   0.785   1.785   6.924  0.8414  1.1174  0.3293
 6079SOL    HW219851   0.697   1.886   6.853 -0.9380 -0.7108 -0.1524
 6080SOL     OW19852   2.569   6.416   1.534 -0.2551 -0.3152 -0.2083
 6080SOL    HW119853   2.499   6.352   1.547  1.3146 -2.0336  0.1837
 6080SOL    HW219854   2.560   6.444   1.443 -1.3521 -0.5840 -0.1941
 6081SOL     OW19855   1.870   2.824   3.177 -0.7997  0.3582  0.4057
 6081SOL    HW119856   1.915   2.908   3.176  0.2143 -0.1595  0.9387
 6081SOL    HW219857   1.861   2.802   3.270  0.3417 -0.8236  0.2750
 6082SOL     OW19858   0.827   5.702   8.213 -0.0907 -0.5287 -0.0093
 6082SOL    HW119859   0.770   5.773   8.241  0.3715 -0.3316  0.4559
 6082SOL    HW219860   0.767   5.629   8.194 -0.3832 -1.4614  3.7106
 6083SOL     OW19861   7.220   6.135   8.104 -0.3122  0.2102  0.2777
 6083SOL    HW119862   7.132   6.117   8.070 -0.2696 -1.3064  0.8956
 6083SOL    HW219863   7.277   6.134   8.027 -0.8622  1.5757 -0.1750
 6084SOL     OW19864   9.396   7.075   2.358  0.2176 -0.1279 -0.0861
 6084SOL    HW119865   9.470   7.127   2.388 -1.0378  0.2606  2.6225
 6084SOL    HW219866   9.350   7.132   2.296  1.4173  0.1079 -0.8005
 6085SOL     OW19867   7.148   1.727   3.666 -0.0572  0.1255 -0.3483
 6085SOL    HW119868   7.114   1.744   3.578  3.5477  1.4751 -1.7063
 6085SOL    HW219869   7.196   1.644   3.657 -0.7601 -0.4263  0.7592
 6086SOL     OW19870   1.226   8.740   7.382  0.0728  0.0400 -0.0527
 6086SOL    HW119871   1.152   8.787   7.343 -0.5469  0.6901  1.7943
 6086SOL    HW219872   1.236   8.779   7.469  0.8353 -1.8935  0.7869
 6087SOL     OW19873   5.152   8.537   5.475  0.0659 -0.5690  0.0291
 6087SOL    HW119874   5.199   8.605   5.427 -1.3766  1.5115  1.3817
 6087SOL    HW219875   5.095   8.496   5.410  0.4426  0.0112 -0.6736
 6088SOL     OW19876   5.197   2.816   8.521 -0.0149 -0.2093 -0.9063
 6088SOL    HW119877   5.142   2.738   8.524 -1.1835  0.6260  0.6540
 6088SOL    HW219878   5.174   2.859   8.439 -1.0902 -0.3170 -0.6719
 6089SOL     OW19879   3.746   0.956   5.957 -0.4030  0.2071  0.5895
 6089SOL    HW119880   3.800   0.959   5.878 -1.0107 -1.0936  0.0968
 6089SOL    HW219881   3.731   1.048   5.979  1.0029  0.5941  0.0623
 6090SOL     OW19882   1.061   9.315   6.033  0.6662 -0.2405  0.3620
 6090SOL    HW119883   1.015   9.279   6.109  0.6935 -0.6880  0.1690
 6090SOL    HW219884   1.131   9.252   6.016  1.5662  0.6045  0.8600
 6091SOL     OW19885   2.824   1.897   5.832 -0.4363 -0.5850  0.4715
 6091SOL    HW119886   2.846   1.988   5.855  1.1229 -0.4562 -1.3270
 6091SOL    HW219887   2.729   1.895   5.833 -0.5741  1.5691 -1.1360
 6092SOL     OW19888   2.403   6.045   4.313 -0.4040 -0.4078  0.3194
 6092SOL    HW119889   2.469   5.988   4.274 -1.0322 -1.0019  0.1086
 6092SOL    HW219890   2.347   6.070   4.239 -0.9143 -0.5992  0.6392
 6093SOL     OW19891   2.155   2.824   1.599 -0.3477  0.2100 -0.5892
 6093SOL    HW119892   2.089   2.857   1.660 -1.1869 -0.1172 -1.3045
 6093SOL    HW219893   2.106   2.777   1.533  0.7858 -2.3708  0.2764
 6094SOL     OW19894   4.312   2.563   7.041  0.3490 -0.1201  0.2527
 6094SOL    HW119895   4.224   2.589   7.069 -1.1160 -1.1791 -2.8736
 6094SOL    HW219896   4.337   2.493   7.102 -1.6265 -0.7946  0.3581
 6095SOL     OW19897   6.655   3.280   0.722 -0.2227  0.6855  0.3666
 6095SOL    HW119898   6.668   3.255   0.631 -2.6064 -1.2645  0.4673
 6095SOL    HW219899   6.696   3.209   0.772 -0.5874  0.7668  0.7834
 6096SOL     OW19900   7.080   0.637   9.298  0.3257 -0.2797  0.0375
 6096SOL    HW119901   7.038   0.703   9.243  0.3283  0.4371  0.8630
 6096SOL    HW219902   7.064   0.667   9.388  3.7465  0.8078  0.4355
 6097SOL     OW19903   4.071   0.908   9.749 -0.4531  0.1505  0.8259
 6097SOL    HW119904   3.976   0.903   9.733 -0.4962 -0.4562  1.2306
 6097SOL    HW219905   4.100   0.817   9.747  0.2984  0.3983 -0.2543
 6098SOL     OW19906   9.295   3.202   2.888  0.0556  0.2761 -0.3294
 6098SOL    HW119907   9.351   3.278   2.905  0.6601 -0.6822  2.6147
 6098SOL    HW219908   9.357   3.133   2.862  0.3705 -0.6572  2.4914
 6099SOL     OW19909   4.267   0.390   2.744  0.0633  0.2385  0.0542
 6099SOL    HW119910   4.249   0.332   2.818  0.2272 -0.7990 -0.7003
 6099SOL    HW219911   4.185   0.437   2.731  0.2288  0.9255  1.2975
 6100SOL     OW19912   0.195   2.591   7.638 -0.2710 -0.0698 -0.0322
 6100SOL    HW119913   0.164   2.664   7.693 -1.1721  0.6660 -1.4659
 6100SOL    HW219914   0.166   2.513   7.685  1.2086  0.4133  1.8398
 6101SOL     OW19915   0.893   7.273   7.985 -0.2370 -0.4413  0.1317
 6101SOL    HW119916   0.940   7.310   8.060  1.8310 -0.1801 -1.2102
 6101SOL    HW219917   0.903   7.339   7.915 -0.7374 -1.3685 -0.8447
 6102SOL     OW19918   6.049   1.422   2.638  0.0214  0.2553  0.6294
 6102SOL    HW119919   6.024   1.413   2.546 -2.4480 -1.4384  1.3620
 6102SOL    HW219920   5.993   1.492   2.671  0.6307  0.6027  0.9331
 6103SOL     OW19921   7.888   6.402   7.974 -0.2719  0.1664 -0.0506
 6103SOL    HW119922   7.807   6.400   8.025  0.9614  1.4355  2.0947
 6103SOL    HW219923   7.938   6.327   8.005  0.5377  1.0144  0.7561
 6104SOL     OW19924   5.461   6.322   4.045  0.1768  0.2745  0.0886
 6104SOL    HW119925   5.370   6.319   4.016  0.2021  3.0135 -0.5879
 6104SOL    HW219926   5.509   6.351   3.967  1.0777  2.2240  1.3105
 6105SOL     OW19927   9.512   7.826   0.967  0.1616  0.2616  0.4132
 6105SOL    HW119928   9.503   7.839   1.062 -0.1965 -1.1909  0.5994
 6105SOL    HW219929   9.526   7.732   0.957  0.3783  0.4246 -0.9768
 6106SOL     OW19930   7.286   9.586   4.205 -0.0979  0.3167 -0.3235
 6106SOL    HW119931   7.275   9.652   4.273  1.5592 -0.2236  0.5373
 6106SOL    HW219932   7.198   9.553   4.188 -0.5878  0.7155  1.3062
 6107SOL     OW19933   9.480   5.695   6.981  0.3826  0.0279  0.5584
 6107SOL    HW119934   9.481   5.747   6.901  0.5796 -1.1249 -0.2099
 6107SOL    HW219935   9.570   5.700   7.014  1.4404 -2.7462 -1.5118
 6108SOL     OW19936   0.303   5.925   1.343 -0.4521  0.1544  0.3360
 6108SOL    HW119937   0.224   5.874   1.360 -0.1614 -0.3619  0.1903
 6108SOL    HW219938   0.305   5.990   1.413 -1.4777  0.7592 -0.1844
 6109SOL     OW19939   4.975   3.717   0.475  0.1458 -0.1020 -0.4124
 6109SOL    HW119940   4.997   3.800   0.433 -2.3582  0.0057 -1.7132
 6109SOL    HW219941   5.003   3.650   0.413 -0.1838 -0.0929 -0.5768
 6110SOL     OW19942   1.160   9.375   9.465 -0.4837  0.2530  0.3444
 6110SOL    HW119943   1.238   9.354   9.413 -1.0536  0.0426 -0.4335
 6110SOL    HW219944   1.126   9.455   9.426 -1.0282 -0.0146  0.2600
 6111SOL     OW19945   7.452   0.044   0.450  0.0358  0.7023 -0.1850
 6111SOL    HW119946   7.512  -0.026   0.476 -0.7615 -0.2129 -0.7423
 6111SOL    HW219947   7.399   0.061   0.528  1.3193  1.8811  0.4776
 6112SOL     OW19948   6.657   9.278   9.451  0.4280 -0.1828  0.1459
 6112SOL    HW119949   6.653   9.318   9.538  0.8890  1.3173 -0.4782
 6112SOL    HW219950   6.738   9.313   9.413 -0.4030  0.2234 -1.3411
 6113SOL     OW19951   2.181   0.628   4.193  0.1654 -0.3736  0.2490
 6113SOL    HW119952   2.251   0.568   4.169  2.0398  1.0005  1.9920
 6113SOL    HW219953   2.136   0.647   4.110  0.6448 -2.7061 -0.6056
 6114SOL     OW19954   2.088   3.560   5.932  0.4134 -0.0501  0.1206
 6114SOL    HW119955   2.002   3.589   5.961  0.7302  2.7145 -1.3869
 6114SOL    HW219956   2.103   3.608   5.851  3.4659 -0.3179  0.4320
 6115SOL     OW19957   6.045   6.590   8.853 -0.0313 -0.3624  0.0574
 6115SOL    HW119958   6.039   6.681   8.880  2.4567  0.2585 -1.2285
 6115SOL    HW219959   6.115   6.553   8.907 -0.3114 -1.2363 -0.1610
 6116SOL     OW19960   8.906   2.689   1.458  0.4662  0.0393 -0.5170
 6116SOL    HW119961   8.813   2.696   1.477  0.8096  2.4581  0.6167
 6116SOL    HW219962   8.944   2.647   1.536  0.7763  2.5593  0.7746
 6117SOL     OW19963   3.204   4.329   5.064 -0.4142  0.1121  0.4942
 6117SOL    HW119964   3.240   4.245   5.092  0.5886  1.1655  2.6151
 6117SOL    HW219965   3.156   4.362   5.140 -1.6387  1.0376 -0.6202
 6118SOL     OW19966   6.474   1.630   3.653  0.9274  0.1670  0.2395
 6118SOL    HW119967   6.439   1.550   3.614  0.3107 -0.2001  1.4898
 6118SOL    HW219968   6.444   1.628   3.744  1.6705  1.3701  0.5414
 6119SOL     OW19969   6.740   5.765   9.808  0.2653  0.5769  0.1956
 6119SOL    HW119970   6.675   5.744   9.741  1.4157 -0.6542 -0.5967
 6119SOL    HW219971   6.690   5.768   9.890 -0.7747 -0.4830 -0.3668
 6120SOL     OW19972   3.882   0.981   5.726  0.3533 -0.5664  0.1803
 6120SOL    HW119973   3.939   0.904   5.726 -1.2948 -1.8421 -0.5601
 6120SOL    HW219974   3.900   1.024   5.642  0.7914 -0.5015  0.3020
 6121SOL     OW19975   6.540   9.011   4.312 -0.4985  0.1339 -0.4186
 6121SOL    HW119976   6.472   8.968   4.365  0.1542  0.8036  1.0070
 6121SOL    HW219977   6.527   8.976   4.224 -1.8322 -0.7710  0.1060
 6122SOL     OW19978   0.875   0.768   1.502  0.2071  0.4934  0.2647
 6122SOL    HW119979   0.791   0.723   1.500  0.5568 -0.1925  0.4186
 6122SOL    HW219980   0.856   0.858   1.478 -0.6672  0.5088  1.0007
 6123SOL     OW19981   1.589   7.975   8.199 -0.1253  0.0833 -0.1050
 6123SOL    HW119982   1.597   8.033   8.124 -0.7441  0.6294  0.2446
 6123SOL    HW219983   1.673   7.981   8.244  0.2639 -0.2810 -0.7659
 6124SOL     OW19984   4.670   1.039   1.747  0.1718  0.0362  0.1381
 6124SOL    HW119985   4.710   1.056   1.661 -0.3503 -1.3832 -0.4250
 6124SOL    HW219986   4.665   0.944   1.752 -1.7084  0.1438  0.8667
 6125SOL     OW19987   0.701   5.943   6.560  0.1548  0.0703 -0.1611
 6125SOL    HW119988   0.611   5.971   6.541 -0.0995 -0.1819  0.6240
 6125SOL    HW219989   0.745   5.946   6.475 -0.9986 -1.2698 -0.8483
 6126SOL     OW19990   3.513   3.124   4.795 -0.4574  0.1291  0.2866
 6126SOL    HW119991   3.535   3.198   4.738  0.9328  0.3323  1.0488
 6126SOL    HW219992   3.528   3.157   4.884 -0.3036 -0.9177  0.6576
 6127SOL     OW19993   1.480   3.286   8.863  0.5183  0.2521 -0.5955
 6127SOL    HW119994   1.560   3.334   8.846 -0.1778  0.9820 -1.9420
 6127SOL    HW219995   1.509   3.204   8.903  1.8895  0.7135 -0.6125
 6128SOL     OW19996   3.904   3.485   6.427  0.2957 -0.5941  0.3977
 6128SOL    HW119997   3.978   3.536   6.461  2.2194 -1.8580 -1.5810
 6128SOL    HW219998   3.884   3.524   6.342 -0.8656 -0.7156  0.5994
 6129SOL     OW19999   5.218   4.579   2.073  0.0872  0.7735 -0.0857
 6129SOL    HW120000   5.176   4.497   2.045  1.1885  0.5155 -1.0827
 6129SOL    HW220001   5.176   4.600   2.156 -0.1321 -0.8789  0.2588
 6130SOL     OW20002   4.753   6.049   9.201  0.7418 -0.1432 -0.0591
 6130SOL    HW120003   4.707   6.081   9.123  0.8419  0.1221 -0.0108
 6130SOL    HW220004   4.752   6.124   9.261  1.4574 -0.0536 -0.1523
 6131SOL     OW20005   7.562   3.647   4.534 -0.4174 -0.4404  0.1295
 6131SOL    HW120006   7.634   3.585   4.526 -0.9912 -0.9219 -2.4036
 6131SOL    HW220007   7.492   3.609   4.481 -1.4102  1.5130 -0.0538
 6132SOL     OW20008   7.226   5.317   0.796  0.5303 -0.6196 -0.5072
 6132SOL    HW120009   7.302   5.264   0.770  2.1691 -0.0961  2.6385
 6132SOL    HW220010   7.184   5.265   0.865 -1.6953 -0.6027 -1.7786
 6133SOL     OW20011   6.467   6.251   1.165  0.2179  0.1690  0.1041
 6133SOL    HW120012   6.529   6.307   1.118  0.7974 -1.7563 -1.6051
 6133SOL    HW220013   6.508   6.164   1.164 -1.3432 -0.6234  1.2225
 6134SOL     OW20014   4.848   0.351   8.335 -0.2810  0.2255 -0.0189
 6134SOL    HW120015   4.843   0.442   8.306 -0.0646  0.0193 -0.7256
 6134SOL    HW220016   4.879   0.356   8.426 -1.8291  0.9307  0.4934
 6135SOL     OW20017   6.664   0.370   6.307  0.9938 -0.1352 -0.2609
 6135SOL    HW120018   6.723   0.404   6.239 -0.7575  3.6263 -0.1234
 6135SOL    HW220019   6.592   0.330   6.259  0.7668  0.6527 -0.5843
 6136SOL     OW20020   3.722   2.999   9.268  0.7180  0.2040 -0.4238
 6136SOL    HW120021   3.795   2.987   9.208  1.0346 -0.0969  0.0192
 6136SOL    HW220022   3.758   2.979   9.354  0.2072  0.4047 -0.1597
 6137SOL     OW20023   3.792   3.383   0.213  0.4021 -0.0409 -0.0700
 6137SOL    HW120024   3.791   3.453   0.278  1.7021  0.1066 -0.1855
 6137SOL    HW220025   3.870   3.332   0.234  1.4996  0.6726 -2.1912
 6138SOL     OW20026   8.097   3.828   8.937 -0.2690 -0.2068 -0.3444
 6138SOL    HW120027   8.059   3.792   8.857  0.8779 -1.1255 -0.4970
 6138SOL    HW220028   8.022   3.841   8.996 -0.9677 -0.6943 -1.1108
 6139SOL     OW20029   1.823   9.449   8.869 -0.2262 -0.1664 -0.3473
 6139SOL    HW120030   1.743   9.480   8.911  0.2824  0.6857  0.0152
 6139SOL    HW220031   1.850   9.373   8.920  0.1359  0.5852  0.6136
 6140SOL     OW20032   7.173   0.135   5.825  0.5298 -0.0128  0.6845
 6140SOL    HW120033   7.142   0.100   5.742  1.5037  0.3364  0.1494
 6140SOL    HW220034   7.163   0.064   5.888  0.0719 -0.3788  0.1942
 6141SOL     OW20035   0.525   8.859   8.413 -0.0223  0.3180 -0.2489
 6141SOL    HW120036   0.503   8.940   8.458  0.8154  0.6217 -0.3616
 6141SOL    HW220037   0.552   8.886   8.325  0.6902 -0.0342 -0.1470
 6142SOL     OW20038   0.752   9.495   9.284 -0.5813 -0.1109  0.0909
 6142SOL    HW120039   0.834   9.523   9.243 -0.5165  0.5625  0.6600
 6142SOL    HW220040   0.761   9.522   9.376 -0.8731 -1.2569  0.4750
 6143SOL     OW20041   2.037   0.673   8.263  0.1419  0.2908 -0.2408
 6143SOL    HW120042   2.045   0.592   8.314 -1.1785  0.2863  0.0136
 6143SOL    HW220043   2.123   0.686   8.224  0.7952 -0.4448  0.9002
 6144SOL     OW20044   9.446   1.303   1.756 -0.2862 -0.1089  0.4231
 6144SOL    HW120045   9.498   1.318   1.835 -0.9620  0.0246  0.8584
 6144SOL    HW220046   9.487   1.227   1.714 -2.1817 -2.8132  2.9823
 6145SOL     OW20047   5.193   1.978   7.455  0.2822  0.4078 -0.5543
 6145SOL    HW120048   5.145   2.009   7.379 -0.3471 -2.3347 -1.4068
 6145SOL    HW220049   5.255   1.914   7.420  0.9537  0.1083  1.0847
 6146SOL     OW20050   8.178   8.676   5.362 -0.3113  0.0087  0.2178
 6146SOL    HW120051   8.208   8.767   5.361 -0.0329 -0.0696 -1.6555
 6146SOL    HW220052   8.103   8.676   5.421  0.2442  1.2543  0.9669
 6147SOL     OW20053   4.625   9.574   8.500  0.2774  0.1154 -0.4597
 6147SOL    HW120054   4.700   9.514   8.493 -1.1417 -1.8232  0.0567
 6147SOL    HW220055   4.584   9.570   8.414  0.2973  0.5385 -0.4901
 6148SOL     OW20056   4.163   6.876   1.312 -0.2940  0.5777 -0.0723
 6148SOL    HW120057   4.169   6.966   1.279  2.4739 -0.0424 -1.5078
 6148SOL    HW220058   4.195   6.821   1.240  0.4499 -1.3426  1.6274
 6149SOL     OW20059   7.753   7.932   9.233 -0.5366 -0.1873 -0.6587
 6149SOL    HW120060   7.748   7.856   9.175  1.7828 -2.2723  1.5988
 6149SOL    HW220061   7.847   7.949   9.242 -0.9664  2.5054 -0.4588
 6150SOL     OW20062   5.229   3.458   3.888  0.5939  0.3588 -0.0161
 6150SOL    HW120063   5.176   3.464   3.967  0.3971  2.2602 -0.2441
 6150SOL    HW220064   5.170   3.423   3.821  0.7687 -1.2809  0.6550
 6151SOL     OW20065   1.522   2.160   8.218 -0.0600 -0.5050 -0.1062
 6151SOL    HW120066   1.457   2.107   8.173 -1.9640  0.6403  1.1770
 6151SOL    HW220067   1.477   2.195   8.294  1.6203  1.5349  0.0599
 6152SOL     OW20068   5.237   4.888   1.167 -0.0371 -0.3577 -0.5877
 6152SOL    HW120069   5.317   4.844   1.139  0.0727  0.2245 -1.2299
 6152SOL    HW220070   5.196   4.917   1.085  0.4812  1.7265 -0.1767
 6153SOL     OW20071   1.027   0.753   3.570 -0.7714  0.3773  0.6169
 6153SOL    HW120072   1.062   0.753   3.659 -1.4528  2.7532  0.9663
 6153SOL    HW220073   0.958   0.819   3.572 -0.8810  0.4020 -1.6524
 6154SOL     OW20074   4.614   8.738   6.352  0.6273  0.1597 -0.2358
 6154SOL    HW120075   4.540   8.779   6.397 -0.8624 -2.6035  0.0398
 6154SOL    HW220076   4.677   8.720   6.421  1.3617  1.9769 -0.3788
 6155SOL     OW20077   9.482   6.209   3.116  0.0392 -0.4480 -0.5537
 6155SOL    HW120078   9.426   6.213   3.194  1.2675 -0.6933  0.3829
 6155SOL    HW220079   9.463   6.290   3.069 -0.2960 -0.0026  0.3160
 6156SOL     OW20080   5.125   6.944   7.111 -0.0564 -0.4515 -0.3576
 6156SOL    HW120081   5.072   6.999   7.168  0.3565 -1.1841  0.7672
 6156SOL    HW220082   5.063   6.905   7.050 -0.1850  2.4867 -2.3019
 6157SOL     OW20083   1.151   9.004   2.711 -0.0982  0.3719 -0.3080
 6157SOL    HW120084   1.190   8.925   2.674  1.2756  0.5269  0.7277
 6157SOL    HW220085   1.075   8.973   2.760  0.8738 -0.4511  0.7415
 6158SOL     OW20086   1.130   4.550   1.522  0.2069  0.6502  0.1276
 6158SOL    HW120087   1.103   4.599   1.444 -0.8461  0.0366  0.0876
 6158SOL    HW220088   1.138   4.616   1.591  3.1265  1.5337 -0.9013
 6159SOL     OW20089   6.430   4.207   8.668 -0.2414 -0.1282 -0.4847
 6159SOL    HW120090   6.386   4.287   8.694 -0.8105 -0.7238  0.4531
 6159SOL    HW220091   6.510   4.236   8.624 -0.5751  0.9431 -0.4017
 6160SOL     OW20092   9.835   1.200   5.645  0.8050 -0.2942 -0.5017
 6160SOL    HW120093   9.835   1.278   5.701 -0.7427 -0.6583  0.0400
 6160SOL    HW220094   9.798   1.131   5.700  0.3035 -0.9253 -1.6049
 6161SOL     OW20095   6.463   0.159   2.771  0.3228  0.0793  0.0683
 6161SOL    HW120096   6.520   0.082   2.763  2.2947  1.6387 -4.6260
 6161SOL    HW220097   6.381   0.132   2.728 -0.1389 -0.2592  1.1406
 6162SOL     OW20098   5.261   6.931   6.692 -0.1399 -0.0430 -0.1483
 6162SOL    HW120099   5.350   6.957   6.671  0.2109 -0.9268  0.2057
 6162SOL    HW220100   5.221   7.010   6.729  0.5834  0.2771 -0.0387
 6163SOL     OW20101   3.343   4.420   3.960  0.4768  0.3192  0.0973
 6163SOL    HW120102   3.256   4.413   3.919  0.8452  0.1899 -0.6760
 6163SOL    HW220103   3.324   4.445   4.051 -0.4808 -1.7432  0.5393
 6164SOL     OW20104   1.811   3.221   8.306  0.3029  0.3086 -0.3748
 6164SOL    HW120105   1.721   3.241   8.281  0.6398  0.2267 -1.7577
 6164SOL    HW220106   1.832   3.287   8.372 -0.5079  0.8497 -0.6323
 6165SOL     OW20107   6.701   0.125   0.036 -0.1748  0.0006 -0.0988
 6165SOL    HW120108   6.630   0.188   0.045 -0.1547 -0.0514  0.4478
 6165SOL    HW220109   6.731   0.109   0.126 -1.0901 -1.8310 -0.0681
 6166SOL     OW20110   2.868   4.299   7.034 -0.3736  0.2190  0.2507
 6166SOL    HW120111   2.896   4.385   7.004 -0.8263  0.3674  0.2473
 6166SOL    HW220112   2.823   4.261   6.959 -1.4404  0.5583  0.6948
 6167SOL     OW20113   9.523   6.584   8.095 -0.2353 -0.1664 -0.8152
 6167SOL    HW120114   9.551   6.505   8.049  0.8243 -1.6508  2.0844
 6167SOL    HW220115   9.463   6.553   8.163  0.0404  1.5261  0.2748
 6168SOL     OW20116   9.188   0.668   2.451 -0.3158 -0.2150  0.0417
 6168SOL    HW120117   9.205   0.725   2.376 -2.4791  0.3695 -0.0804
 6168SOL    HW220118   9.259   0.687   2.512  1.1801 -0.2991 -1.5924
 6169SOL     OW20119   0.683   3.782   7.397  0.3646  0.2531 -0.4608
 6169SOL    HW120120   0.605   3.777   7.342 -0.2916 -0.6267  0.5132
 6169SOL    HW220121   0.716   3.693   7.399 -0.0094  0.1231  1.0902
 6170SOL     OW20122   2.856   1.892   2.534 -0.2148 -0.1082  0.6860
 6170SOL    HW120123   2.926   1.851   2.584 -0.5268  0.2009  1.3777
 6170SOL    HW220124   2.895   1.909   2.448 -0.0909 -1.8891  0.3560
 6171SOL     OW20125   8.397   8.059   5.229 -0.4448  0.3662  0.6334
 6171SOL    HW120126   8.415   7.993   5.296 -0.6662 -0.7447 -0.3646
 6171SOL    HW220127   8.302   8.056   5.217 -0.3378  0.0522 -0.2107
 6172SOL     OW20128   8.946   5.816   6.394 -0.3525 -0.0805 -0.2316
 6172SOL    HW120129   8.992   5.898   6.414  1.6853 -1.3860  0.6697
 6172SOL    HW220130   8.883   5.841   6.327  0.5177  2.1518 -0.3148
 6173SOL     OW20131   0.016   0.694   6.007 -0.0285  0.3317 -0.0100
 6173SOL    HW120132   0.104   0.663   6.025 -0.5783 -0.6183  1.2003
 6173SOL    HW220133   0.028   0.780   5.967  1.4270  0.8744  1.4664
 6174SOL     OW20134   3.564   3.092   8.749 -0.4982 -0.5905  0.0720
 6174SOL    HW120135   3.651   3.063   8.723  0.2121  0.9308  0.6489
 6174SOL    HW220136   3.511   3.012   8.747  0.1588 -1.0822 -3.1345
 6175SOL     OW20137   2.117   6.766   0.906  0.3190 -0.4556  0.5589
 6175SOL    HW120138   2.099   6.749   0.998  1.4206 -0.7199  0.7401
 6175SOL    HW220139   2.194   6.823   0.907 -0.8183  1.1972 -0.1571
 6176SOL     OW20140   8.492   2.725   8.651 -0.1532 -0.6689 -0.5570
 6176SOL    HW120141   8.585   2.705   8.648  0.3985  1.6699 -2.6255
 6176SOL    HW220142   8.449   2.653   8.605  0.5828 -1.7445  0.3875
 6177SOL     OW20143   0.745   0.254   7.419  0.7908 -0.4445  0.0266
 6177SOL    HW120144   0.722   0.345   7.434 -0.1125 -0.6782  0.1000
 6177SOL    HW220145   0.663   0.206   7.428  0.8857 -1.0580 -1.8160
 6178SOL     OW20146   3.547   8.301   5.529 -0.5828  0.1890  0.0999
 6178SOL    HW120147   3.555   8.366   5.459 -2.3675  1.6659  1.2096
 6178SOL    HW220148   3.637   8.271   5.544 -0.0954 -0.0076 -2.6038
 6179SOL     OW20149   4.392   4.870   6.973  0.3854  0.1039  0.1564
 6179SOL    HW120150   4.343   4.908   6.900  0.4588 -1.8728 -0.9949
 6179SOL    HW220151   4.482   4.866   6.941  0.5839  0.0210  0.7160
 6180SOL     OW20152   0.073   8.035   3.987  0.7601  0.2492  0.4025
 6180SOL    HW120153   0.056   8.032   4.082  1.2639 -1.2063  0.4664
 6180SOL    HW220154   0.063   8.128   3.964  2.0842  0.8743  2.1417
 6181SOL     OW20155   4.904   8.086   4.436 -0.1603 -0.0165 -0.7077
 6181SOL    HW120156   4.970   8.155   4.434 -1.1830  1.0969  0.9671
 6181SOL    HW220157   4.941   8.018   4.492  0.1475 -0.0368 -0.9393
 6182SOL     OW20158   3.594   9.108   5.080 -0.2244  0.0454 -0.2758
 6182SOL    HW120159   3.629   9.116   5.168  1.4657 -0.3718 -0.8782
 6182SOL    HW220160   3.530   9.179   5.073 -1.9360 -1.1645  1.9401
 6183SOL     OW20161   1.286   0.973   9.347  0.6528  0.0187  0.1958
 6183SOL    HW120162   1.201   0.956   9.307  0.7655 -1.4284  0.5075
 6183SOL    HW220163   1.267   0.992   9.439  0.4841  2.2915 -0.2498
 6184SOL     OW20164   6.687   3.573   1.686  0.4557 -0.7569 -0.6402
 6184SOL    HW120165   6.599   3.609   1.688  1.0561  0.7759 -0.3893
 6184SOL    HW220166   6.681   3.492   1.735 -0.3309  0.5125  1.4833
 6185SOL     OW20167   3.564   7.306   7.169 -0.3110  0.2039  0.2037
 6185SOL    HW120168   3.619   7.227   7.166 -1.0442 -0.2843 -1.2821
 6185SOL    HW220169   3.544   7.325   7.078  1.3085  3.1956  0.3390
 6186SOL     OW20170   1.809   0.278   6.370  0.4780 -0.3971 -0.2903
 6186SOL    HW120171   1.730   0.321   6.402  0.1440 -1.5180  0.4464
 6186SOL    HW220172   1.778   0.201   6.323  0.9678  1.0684 -3.2471
 6187SOL     OW20173   0.299   1.011   3.389  0.1685 -0.5116 -0.4425
 6187SOL    HW120174   0.297   1.092   3.439  2.2677 -0.8055  0.2112
 6187SOL    HW220175   0.302   1.038   3.298  0.6296  0.1378 -0.2358
 6188SOL     OW20176   3.687   1.250   4.791  0.0256  0.7658 -0.2680
 6188SOL    HW120177   3.684   1.177   4.853  0.2902  0.4497 -0.6186
 6188SOL    HW220178   3.704   1.327   4.845  1.3707  0.3425 -0.0641
 6189SOL     OW20179   1.253   7.329   0.196  0.9539  0.0759  0.4775
 6189SOL    HW120180   1.261   7.259   0.132 -1.2694  0.7434 -0.6560
 6189SOL    HW220181   1.211   7.288   0.272  2.0120 -0.3482  0.8404
 6190SOL     OW20182   8.273   3.662   2.501 -0.4268 -0.1465 -0.2983
 6190SOL    HW120183   8.327   3.671   2.422  0.3276 -3.3590 -0.2719
 6190SOL    HW220184   8.300   3.736   2.556  1.9089 -0.0324 -1.4521
 6191SOL     OW20185   2.723   1.423   9.007  0.0087  0.0331  0.5494
 6191SOL    HW120186   2.634   1.423   8.970  1.2917  0.4852 -2.9281
 6191SOL    HW220187   2.728   1.342   9.057 -1.5495 -1.4826 -1.5651
 6192SOL     OW20188   0.837   4.066   7.753  0.5419  0.3582 -0.6662
 6192SOL    HW120189   0.786   3.994   7.790  1.7680  0.4081  1.3072
 6192SOL    HW220190   0.864   4.036   7.667  1.8084 -1.9843  0.4494
 6193SOL     OW20191   5.906   8.744   9.145  0.0288 -0.3044 -0.2263
 6193SOL    HW120192   5.966   8.675   9.116  0.4621  0.1867 -0.5300
 6193SOL    HW220193   5.945   8.825   9.110  0.5983  0.3369  1.7782
 6194SOL     OW20194   6.704   7.423   3.090 -0.4656  0.2077  0.4525
 6194SOL    HW120195   6.769   7.412   3.159 -1.4835  0.2568  1.4389
 6194SOL    HW220196   6.751   7.401   3.009  0.1617 -2.0384  1.3513
 6195SOL     OW20197   2.489   8.774   7.785 -0.1854 -0.3360 -0.2327
 6195SOL    HW120198   2.525   8.827   7.714  1.6863 -0.6449  0.4256
 6195SOL    HW220199   2.548   8.699   7.791 -0.8879 -0.8157  1.0217
 6196SOL     OW20200   1.171   5.782   9.229 -0.3094  0.2936  0.0621
 6196SOL    HW120201   1.149   5.721   9.300 -0.5824  0.9846  0.5823
 6196SOL    HW220202   1.163   5.730   9.149 -1.8051 -0.0360  0.3978
 6197SOL     OW20203   4.178   4.550   7.770 -0.3836  0.1381  0.5900
 6197SOL    HW120204   4.186   4.496   7.691 -0.7647 -0.1984  0.7719
 6197SOL    HW220205   4.260   4.597   7.776 -0.1582 -0.2067  0.2588
 6198SOL     OW20206   5.128   2.321   3.134 -0.3654  0.1141 -0.2638
 6198SOL    HW120207   5.037   2.298   3.152 -0.4654  0.8268  0.2342
 6198SOL    HW220208   5.173   2.305   3.217 -0.1001  0.0360 -0.4240
 6199SOL     OW20209   7.280   5.618   8.036  0.4504  0.4284 -0.3534
 6199SOL    HW120210   7.259   5.578   7.952 -1.1062  2.4305 -0.9952
 6199SOL    HW220211   7.327   5.698   8.014 -0.1123  1.0631  0.6618
 6200SOL     OW20212   9.428   2.769   5.239 -0.4381 -0.0470 -0.2160
 6200SOL    HW120213   9.493   2.750   5.170  1.3892  1.2106  1.0500
 6200SOL    HW220214   9.446   2.704   5.306 -0.6086  0.1966  0.0635
 6201SOL     OW20215   9.395   1.758   8.199 -0.0816 -0.5783 -0.2009
 6201SOL    HW120216   9.444   1.689   8.245 -0.4963 -1.2021 -0.6892
 6201SOL    HW220217   9.322   1.778   8.258  0.3534 -0.1493  0.2014
 6202SOL     OW20218   7.948   6.530   8.756  0.8786 -0.0435  0.8389
 6202SOL    HW120219   8.041   6.534   8.731  0.6668  1.2750  0.2174
 6202SOL    HW220220   7.950   6.506   8.849  1.8359 -0.3201  0.7577
 6203SOL     OW20221   1.646   6.767   7.385  0.0683 -0.0940 -0.0605
 6203SOL    HW120222   1.576   6.732   7.439  0.4805  0.8559  1.1445
 6203SOL    HW220223   1.603   6.825   7.323 -0.4429 -1.4335 -0.9952
 6204SOL     OW20224   5.317   9.289   1.840  0.0342 -0.1984 -0.0578
 6204SOL    HW120225   5.234   9.252   1.869 -0.4011  2.2258  2.2260
 6204SOL    HW220226   5.360   9.317   1.921  3.0647 -1.2213 -1.1768
 6205SOL     OW20227   0.828   7.412   3.412 -0.0418  0.2179  0.0202
 6205SOL    HW120228   0.885   7.482   3.380 -0.8057 -0.1680 -2.4325
 6205SOL    HW220229   0.751   7.417   3.356 -2.4750  0.6726  3.1383
 6206SOL     OW20230   4.446   3.299   1.506 -0.6007  1.1387 -1.2212
 6206SOL    HW120231   4.534   3.321   1.475  0.3577 -0.1796  0.4011
 6206SOL    HW220232   4.434   3.207   1.483 -0.6757  0.7139  0.4279
 6207SOL     OW20233   0.820   1.943   9.491  0.3771  0.5363 -0.5089
 6207SOL    HW120234   0.754   1.874   9.487  0.6317  0.2781 -0.3054
 6207SOL    HW220235   0.864   1.929   9.575  1.6575 -0.1965 -1.2641
 6208SOL     OW20236   7.177   1.158   1.493 -0.1244 -0.0293  0.5353
 6208SOL    HW120237   7.124   1.177   1.415 -1.3172 -0.9283  1.1024
 6208SOL    HW220238   7.168   1.235   1.548  2.1404  1.3992 -0.8933
 6209SOL     OW20239   9.021   5.638   4.306 -0.3105  0.0736  0.0662
 6209SOL    HW120240   8.933   5.638   4.343  0.0249 -3.2179  1.2136
 6209SOL    HW220241   9.007   5.636   4.212 -1.4785  0.0040  0.2253
 6210SOL     OW20242   0.219   1.619   1.240  0.1526  0.2029 -0.0929
 6210SOL    HW120243   0.283   1.612   1.310 -0.9672  1.5937  1.1292
 6210SOL    HW220244   0.269   1.646   1.164  1.3100 -0.8218  0.2699
 6211SOL     OW20245   7.556   8.353   9.212  0.3761 -0.2758  0.0722
 6211SOL    HW120246   7.643   8.319   9.235  1.1089  1.0102 -0.6298
 6211SOL    HW220247   7.571   8.402   9.131 -1.1988 -0.7792 -0.5641
 6212SOL     OW20248   3.621   0.273   2.689 -0.2770  0.3548 -0.0737
 6212SOL    HW120249   3.549   0.299   2.632 -0.0476 -0.1074 -0.5826
 6212SOL    HW220250   3.580   0.255   2.774 -1.0259 -1.5114 -0.7825
 6213SOL     OW20251   9.384   5.187   5.272 -0.5520 -0.4439  0.0165
 6213SOL    HW120252   9.291   5.199   5.291  0.0738  4.3041  1.4330
 6213SOL    HW220253   9.406   5.102   5.309 -4.0150 -1.1942  0.7075
 6214SOL     OW20254   5.649   9.388   8.617  0.0469  0.6016 -0.1685
 6214SOL    HW120255   5.720   9.431   8.665 -0.1688  0.1177  0.6036
 6214SOL    HW220256   5.572   9.441   8.637 -0.1065  0.2081  0.3033
 6215SOL     OW20257   5.251   6.719   9.343 -0.0762 -0.1257  0.8504
 6215SOL    HW120258   5.205   6.640   9.371  1.1730 -1.8008 -1.5571
 6215SOL    HW220259   5.281   6.700   9.254 -0.2651  3.3214 -0.0891
 6216SOL     OW20260   9.019   0.472   7.386 -0.0468 -0.1013  0.0380
 6216SOL    HW120261   8.938   0.522   7.378 -0.7303 -0.8782  1.6340
 6216SOL    HW220262   9.030   0.430   7.301 -1.3881 -0.0684 -0.1753
 6217SOL     OW20263   1.948   1.245   5.265  0.3124 -0.2991 -0.3214
 6217SOL    HW120264   1.911   1.315   5.212  0.2478  1.3230  1.7704
 6217SOL    HW220265   2.042   1.250   5.250  0.5278  1.5648  1.2286
 6218SOL     OW20266   4.786   1.198   7.562  0.8022  0.0290  0.5310
 6218SOL    HW120267   4.842   1.187   7.485  0.3009 -0.8301  0.2756
 6218SOL    HW220268   4.847   1.215   7.633  1.1858  3.6327 -0.4356
 6219SOL     OW20269   2.050   9.731   3.962 -0.0181 -0.1406  0.7141
 6219SOL    HW120270   2.093   9.774   4.035  0.1328  0.4543  0.2824
 6219SOL    HW220271   1.967   9.699   3.998 -0.4431  1.1033  0.8807
 6220SOL     OW20272   8.062   1.495   7.435  0.4087 -0.6676 -0.1167
 6220SOL    HW120273   7.970   1.486   7.411  0.1554 -2.4179  1.2774
 6220SOL    HW220274   8.069   1.581   7.476  0.0336  0.6696 -2.6654
 6221SOL     OW20275   9.262   5.650   3.575  0.0747 -0.1596  0.6572
 6221SOL    HW120276   9.268   5.692   3.489 -2.3755 -1.9910 -0.5604
 6221SOL    HW220277   9.322   5.576   3.569  1.6684  1.0136  1.4625
 6222SOL     OW20278   3.044   3.910   2.430 -0.1285  0.0356  0.1374
 6222SOL    HW120279   3.105   3.838   2.412  0.1174  0.0664  0.8218
 6222SOL    HW220280   3.099   3.980   2.467 -0.8937 -0.8706  3.3106
 6223SOL     OW20281   4.670   6.599   5.809 -0.2163 -0.2574  0.3349
 6223SOL    HW120282   4.739   6.641   5.758 -0.4102  0.8275  0.9410
 6223SOL    HW220283   4.652   6.518   5.762  2.2811 -1.1742  0.8299
 6224SOL     OW20284   1.882   4.682   3.946  0.2082  0.0941 -0.7202
 6224SOL    HW120285   1.908   4.590   3.941  0.8400  0.1545  0.8788
 6224SOL    HW220286   1.877   4.701   4.040  0.6520  1.8449 -1.0026
 6225SOL     OW20287   2.655   4.056   5.232  0.2499 -0.2271  0.7734
 6225SOL    HW120288   2.604   3.976   5.230 -0.9588  0.5106  1.2430
 6225SOL    HW220289   2.658   4.085   5.140 -2.0033  0.8192  0.9713
 6226SOL     OW20290   8.438   4.302   9.695 -0.7909  0.3751 -0.2445
 6226SOL    HW120291   8.467   4.392   9.713  0.7174 -0.5921  2.9059
 6226SOL    HW220292   8.342   4.308   9.692 -0.7104  2.0955 -0.3729
 6227SOL     OW20293   4.184   1.257   8.237  0.1250 -0.0530 -0.4852
 6227SOL    HW120294   4.237   1.224   8.165 -0.4792  1.9087 -1.9107
 6227SOL    HW220295   4.248   1.295   8.298  0.6215 -1.5424 -0.0273
 6228SOL     OW20296   8.047   1.039   1.215  0.0838 -0.2717  0.3582
 6228SOL    HW120297   7.953   1.049   1.200  0.4686  1.3672 -1.3725
 6228SOL    HW220298   8.056   0.953   1.256 -2.2981  0.2218  2.1462
 6229SOL     OW20299   0.094   6.230   7.504  0.1100  0.3281  0.4159
 6229SOL    HW120300   0.014   6.195   7.544  0.1418  1.3646  1.4507
 6229SOL    HW220301   0.120   6.302   7.561  2.5584 -0.8139  0.8760
 6230SOL     OW20302   9.164   0.893   6.689  0.2690 -1.2639  0.2774
 6230SOL    HW120303   9.219   0.815   6.696  0.2054 -1.1627  2.9740
 6230SOL    HW220304   9.087   0.872   6.742 -0.4961  0.0513 -0.2708
 6231SOL     OW20305   7.023   4.374   5.860 -0.3126 -0.3635 -0.3578
 6231SOL    HW120306   7.025   4.444   5.925 -0.4142 -0.0529 -0.6900
 6231SOL    HW220307   7.049   4.295   5.909  2.2739  0.3084 -0.4917
 6232SOL     OW20308   5.279   4.740   9.219  0.3800 -0.2174 -0.0266
 6232SOL    HW120309   5.270   4.666   9.160 -0.1236  0.9031 -1.4192
 6232SOL    HW220310   5.318   4.809   9.165 -0.4623  0.9670  0.8127
 6233SOL     OW20311   1.264   1.187   5.776 -0.0989  0.5429  0.6414
 6233SOL    HW120312   1.277   1.187   5.681 -2.4382  1.4973  0.2541
 6233SOL    HW220313   1.294   1.273   5.805  1.2259  0.0137  0.9003
 6234SOL     OW20314   9.183   4.232   1.457 -0.0146  0.6840 -0.1593
 6234SOL    HW120315   9.106   4.285   1.481  0.3058  1.1768 -0.1983
 6234SOL    HW220316   9.177   4.155   1.513 -1.1021  0.2107 -0.8844
 6235SOL     OW20317   1.604   2.998   6.629  0.3907  0.3220 -0.3954
 6235SOL    HW120318   1.658   2.997   6.709  0.8070  1.8930 -0.6332
 6235SOL    HW220319   1.666   2.979   6.558  0.0229 -1.0586 -0.3864
 6236SOL     OW20320   5.135   6.597   3.476  0.2512  0.1593 -0.1318
 6236SOL    HW120321   5.188   6.591   3.396  0.0685 -1.4400 -0.1536
 6236SOL    HW220322   5.049   6.564   3.451 -0.5990  2.0503  0.1000
 6237SOL     OW20323   7.424   4.177   0.949  0.1136 -0.2678  0.3775
 6237SOL    HW120324   7.436   4.261   0.994  0.6463 -0.0865 -0.0972
 6237SOL    HW220325   7.497   4.122   0.980  1.1915  0.2387 -1.1230
 6238SOL     OW20326   2.452   0.583   9.182  0.3564 -0.1699 -0.0721
 6238SOL    HW120327   2.507   0.550   9.111 -0.4810 -1.8625  0.0171
 6238SOL    HW220328   2.366   0.593   9.142  0.2832  0.6195  0.2713
 6239SOL     OW20329   7.126   9.700   7.612 -0.3203  0.2259 -0.2169
 6239SOL    HW120330   7.062   9.674   7.679  0.1387 -0.5554 -0.0733
 6239SOL    HW220331   7.201   9.642   7.627  0.4525  1.1666 -0.3500
 6240SOL     OW20332   4.186   8.966   6.650 -0.3723 -0.2966  0.3969
 6240SOL    HW120333   4.159   8.907   6.721  1.0666 -2.6187 -0.8819
 6240SOL    HW220334   4.255   9.020   6.689 -0.7199 -0.4030  1.1902
 6241SOL     OW20335   0.373   6.823   2.586 -0.0987 -0.0371 -0.3982
 6241SOL    HW120336   0.301   6.886   2.587 -0.7442 -0.7687  0.5724
 6241SOL    HW220337   0.415   6.834   2.671  2.8146  2.4157 -1.9223
 6242SOL     OW20338   7.602   8.815   1.772  0.4146  0.1755 -0.3559
 6242SOL    HW120339   7.526   8.757   1.762  1.5266 -1.1780 -1.3424
 6242SOL    HW220340   7.585   8.863   1.853  0.1173 -2.6144  1.3575
 6243SOL     OW20341   2.451   7.786   6.478  0.3439  0.1310  0.6261
 6243SOL    HW120342   2.459   7.738   6.395 -1.2883 -1.2120  1.1931
 6243SOL    HW220343   2.436   7.718   6.543 -0.0382  1.2955  1.7790
 6244SOL     OW20344   4.241   2.489   8.280 -0.5587  0.4782 -0.2543
 6244SOL    HW120345   4.299   2.564   8.294  1.0453 -0.6814 -0.3545
 6244SOL    HW220346   4.186   2.515   8.206  1.0617  1.0113 -1.3512
 6245SOL     OW20347   9.187   7.973   3.081  0.0294  0.6461 -0.8666
 6245SOL    HW120348   9.264   8.010   3.126 -0.2181  2.2775 -1.6843
 6245SOL    HW220349   9.159   7.901   3.137  0.7978  1.4573  0.6582
 6246SOL     OW20350   2.533   2.953   5.954 -0.5020 -0.2056  0.5033
 6246SOL    HW120351   2.473   2.989   5.889  2.9929  0.3221 -2.7542
 6246SOL    HW220352   2.601   3.019   5.965  1.6912 -2.3496  0.7824
 6247SOL     OW20353   7.841   2.671   6.491  0.6259 -0.3600 -0.5471
 6247SOL    HW120354   7.752   2.642   6.473  0.6080 -0.8173  0.2400
 6247SOL    HW220355   7.872   2.706   6.407 -0.5834  0.6223 -0.6005
 6248SOL     OW20356   3.866   0.478   3.178  0.1442 -0.4108 -0.2931
 6248SOL    HW120357   3.916   0.399   3.200 -1.6761 -1.3705  0.6498
 6248SOL    HW220358   3.888   0.540   3.247  1.0158 -0.3360 -0.6240
 6249SOL     OW20359   6.724   6.587   6.510  0.8375  0.0215 -0.3732
 6249SOL    HW120360   6.630   6.584   6.530  1.1546  0.8493  1.4315
 6249SOL    HW220361   6.761   6.644   6.577  3.0419 -2.2941  0.5352
 6250SOL     OW20362   3.129   9.626   4.700 -0.3851  0.0238 -0.0113
 6250SOL    HW120363   3.189   9.552   4.712  0.9397  0.9610 -0.6323
 6250SOL    HW220364   3.082   9.632   4.783  1.9556  0.6017  1.3732
 6251SOL     OW20365   0.557   3.185   5.226 -0.0678  0.1439  0.4045
 6251SOL    HW120366   0.649   3.186   5.198  0.7341  0.1435  2.8065
 6251SOL    HW220367   0.513   3.245   5.165  1.5436  0.2617 -0.7037
 6252SOL     OW20368   9.536   7.939   5.249 -0.1748 -0.4676  0.0640
 6252SOL    HW120369   9.522   8.033   5.265 -0.2833 -0.5535  0.4817
 6252SOL    HW220370   9.458   7.912   5.200 -0.6824 -0.5737  0.9068
 6253SOL     OW20371   6.026   6.264   4.266 -0.7618  0.1324  0.2629
 6253SOL    HW120372   6.026   6.298   4.177 -3.4475  1.1600  0.5673
 6253SOL    HW220373   6.013   6.170   4.256 -0.9917  0.2331 -0.4263
 6254SOL     OW20374   5.006   9.396   5.499  0.0767 -0.3222 -0.4979
 6254SOL    HW120375   4.982   9.415   5.409 -2.0000 -0.0861  0.0392
 6254SOL    HW220376   4.943   9.328   5.526 -0.6587  1.0040  1.3305
 6255SOL     OW20377   8.064   4.129   5.090 -0.3873 -0.0036 -0.2164
 6255SOL    HW120378   8.040   4.061   5.153 -0.4384 -0.3086 -0.5607
 6255SOL    HW220379   8.146   4.097   5.051  0.4204  0.8566  0.6961
 6256SOL     OW20380   7.388   9.632   6.541  0.0270 -0.2687 -0.1178
 6256SOL    HW120381   7.413   9.615   6.632 -0.6045 -0.4648  0.0275
 6256SOL    HW220382   7.470   9.655   6.498  0.2617  0.2882  0.6043
 6257SOL     OW20383   5.535   0.549   7.249 -0.4254  0.8610 -0.0266
 6257SOL    HW120384   5.572   0.533   7.336  3.9482  2.0105 -1.3924
 6257SOL    HW220385   5.494   0.635   7.257  2.2190  2.1989  0.4668
 6258SOL     OW20386   3.866   8.428   2.388 -0.1582 -0.0997  0.6676
 6258SOL    HW120387   3.872   8.414   2.294 -2.7635 -0.7399  0.5263
 6258SOL    HW220388   3.898   8.518   2.401 -0.7719  0.3914 -0.9758
 6259SOL     OW20389   8.331   4.650   9.106 -0.3249 -0.2171  0.0679
 6259SOL    HW120390   8.375   4.709   9.044 -1.1958  1.1299  0.6829
 6259SOL    HW220391   8.351   4.686   9.192 -0.3799 -1.1900  0.4944
 6260SOL     OW20392   2.130   0.161   4.999  0.1538 -0.0446  0.1412
 6260SOL    HW120393   2.148   0.254   5.013  1.1192 -0.0651 -0.7969
 6260SOL    HW220394   2.213   0.126   4.966 -0.9824 -0.6337 -2.3342
 6261SOL     OW20395   9.711   4.609   1.696  0.5649  0.2634  0.0744
 6261SOL    HW120396   9.791   4.588   1.649  0.0513  0.1315 -0.7689
 6261SOL    HW220397   9.694   4.701   1.675 -0.2418 -0.0950 -0.8844
 6262SOL     OW20398   6.162   0.786   3.396 -0.0001 -0.6226 -0.3595
 6262SOL    HW120399   6.084   0.751   3.354  0.3488  0.7608 -2.3136
 6262SOL    HW220400   6.235   0.745   3.348  0.4305 -0.0925 -0.1635
 6263SOL     OW20401   5.601   3.295   8.318 -1.0261 -0.4941 -0.3973
 6263SOL    HW120402   5.659   3.352   8.369 -1.6715  1.0743 -1.3550
 6263SOL    HW220403   5.643   3.288   8.232 -1.2673 -0.9694 -0.4789
 6264SOL     OW20404   5.830   1.046   9.310  0.5675  0.5762 -0.1018
 6264SOL    HW120405   5.866   1.083   9.391  0.2535 -0.8977  0.7403
 6264SOL    HW220406   5.786   1.120   9.268  0.6609  1.3629  1.1153
 6265SOL     OW20407   7.886   6.064   1.756  0.1538 -0.1643 -0.3134
 6265SOL    HW120408   7.851   6.075   1.844  1.2015  0.0177  0.0915
 6265SOL    HW220409   7.844   5.984   1.723 -0.4843 -0.0600  0.2157
 6266SOL     OW20410   8.564   7.550   2.077 -0.1086  0.0626  0.1192
 6266SOL    HW120411   8.512   7.490   2.023  0.1541 -0.2120  0.1683
 6266SOL    HW220412   8.569   7.508   2.163  1.7999 -0.8940 -0.3843
 6267SOL     OW20413   7.304   7.342   7.993 -0.1709 -0.5151  0.1749
 6267SOL    HW120414   7.344   7.429   7.983 -1.0946 -0.1472 -0.5056
 6267SOL    HW220415   7.367   7.293   8.046 -0.1176  0.8931  1.5044
 6268SOL     OW20416   9.112   5.481   8.038  0.1692 -0.4662 -0.6383
 6268SOL    HW120417   9.137   5.402   7.990 -2.5334 -1.7847 -0.0734
 6268SOL    HW220418   9.182   5.492   8.104  0.3048 -2.7793 -0.3088
 6269SOL     OW20419   6.693   1.787   4.497  0.4274 -0.0730  0.4320
 6269SOL    HW120420   6.769   1.761   4.549  0.4320 -0.3470  0.2896
 6269SOL    HW220421   6.727   1.852   4.436  0.2412  0.9491  1.3772
 6270SOL     OW20422   7.383   4.714   2.687 -0.6923 -0.0698 -0.3189
 6270SOL    HW120423   7.402   4.786   2.748  0.3695 -0.7916  0.2315
 6270SOL    HW220424   7.315   4.749   2.630  0.2401  1.6213 -0.4695
 6271SOL     OW20425   9.425   8.483   4.981 -0.4113 -0.6058 -0.2784
 6271SOL    HW120426   9.341   8.522   5.004  0.3475 -0.1038  1.7900
 6271SOL    HW220427   9.485   8.512   5.049  1.3334 -1.4041 -1.4045
 6272SOL     OW20428   9.281   0.025   6.861  0.2570 -0.1491 -0.1897
 6272SOL    HW120429   9.212  -0.016   6.913 -0.0966  0.9444  0.2247
 6272SOL    HW220430   9.235   0.078   6.797  0.6830 -1.7398 -1.8970
 6273SOL     OW20431   9.715   5.439   9.491  0.1477  0.5436 -0.0137
 6273SOL    HW120432   9.743   5.364   9.545 -0.3814  0.2231 -0.1825
 6273SOL    HW220433   9.696   5.508   9.554  1.5405  0.8550  0.1004
 6274SOL     OW20434   0.051   0.225   4.656  0.0597  0.0663  0.2893
 6274SOL    HW120435   0.117   0.278   4.701 -0.2967  1.2443 -0.5172
 6274SOL    HW220436  -0.032   0.272   4.672 -0.4427 -0.8717  0.5017
 6275SOL     OW20437   6.100   9.464   2.317 -0.0389 -0.6000  0.7005
 6275SOL    HW120438   6.095   9.559   2.311  0.0539 -0.5437  1.3706
 6275SOL    HW220439   6.015   9.433   2.283 -0.1588 -0.2664  0.6984
 6276SOL     OW20440   0.138   8.783   6.710  0.0753 -0.0304 -0.1090
 6276SOL    HW120441   0.221   8.814   6.746  0.3362  0.1080 -0.8176
 6276SOL    HW220442   0.115   8.848   6.644  0.1530 -0.8416 -0.9529
 6277SOL     OW20443   2.641   2.158   5.198 -0.4084  0.6165  0.1709
 6277SOL    HW120444   2.610   2.247   5.211 -0.6580  0.5816 -0.1631
 6277SOL    HW220445   2.593   2.127   5.121 -0.5661  0.0811  0.4818
 6278SOL     OW20446   9.810   4.671   4.251  0.3397  0.3281  0.5218
 6278SOL    HW120447   9.813   4.608   4.180  0.9384  0.6554  0.2485
 6278SOL    HW220448   9.724   4.660   4.290  0.9486 -1.6830  1.4198
 6279SOL     OW20449   1.576   8.953   2.859  0.0338 -0.2515  0.0438
 6279SOL    HW120450   1.600   9.021   2.923 -0.7811 -0.9905  1.1836
 6279SOL    HW220451   1.483   8.935   2.877  0.7053 -3.1311  1.2520
 6280SOL     OW20452   7.168   3.676   6.054 -0.4476 -0.3367  0.1048
 6280SOL    HW120453   7.255   3.640   6.073 -0.2821 -1.0715 -1.8704
 6280SOL    HW220454   7.121   3.605   6.012 -1.6479  0.4059  0.1409
 6281SOL     OW20455   5.360   0.205   7.467  0.2598  0.7980  0.4428
 6281SOL    HW120456   5.351   0.292   7.428  0.7380  0.4498 -0.4704
 6281SOL    HW220457   5.350   0.145   7.394 -0.4735  0.0600  1.1302
 6282SOL     OW20458   6.894   8.309   1.775  0.1913 -0.7096 -0.1673
 6282SOL    HW120459   6.985   8.322   1.802  0.3993  1.6305 -1.7120
 6282SOL    HW220460   6.900   8.288   1.681 -0.8761 -0.1911 -0.3588
 6283SOL     OW20461   1.245   7.163   3.410 -0.2976 -0.0133 -0.0900
 6283SOL    HW120462   1.246   7.175   3.316 -1.7211  0.1088 -0.1020
 6283SOL    HW220463   1.153   7.166   3.435  0.1305  2.0054  1.5674
 6284SOL     OW20464   0.306   8.128   6.486  0.1643 -0.1871  0.6702
 6284SOL    HW120465   0.392   8.088   6.475  0.1348 -0.2099  0.5181
 6284SOL    HW220466   0.257   8.102   6.407 -0.5417 -1.6132  1.5384
 6285SOL     OW20467   8.188   1.298   8.702 -0.5659 -0.2071 -0.8829
 6285SOL    HW120468   8.199   1.257   8.788 -0.6464  0.4000 -0.5812
 6285SOL    HW220469   8.221   1.232   8.640  0.9086 -0.0605 -0.2941
 6286SOL     OW20470   1.753   6.141   8.103 -0.2778 -0.6296 -0.2692
 6286SOL    HW120471   1.800   6.075   8.051 -1.3469 -0.9352 -0.8911
 6286SOL    HW220472   1.808   6.155   8.180  0.9329 -0.7979 -1.0751
 6287SOL     OW20473   8.978   3.219   5.481 -0.5388 -0.1738  0.1478
 6287SOL    HW120474   9.066   3.196   5.450  0.0632  0.4317  1.3779
 6287SOL    HW220475   8.980   3.203   5.575 -1.5203  0.5918  0.3130
 6288SOL     OW20476   0.618   0.271   5.182  0.1494  0.0049  0.3517
 6288SOL    HW120477   0.540   0.251   5.235  0.2197  0.3981  0.6077
 6288SOL    HW220478   0.633   0.192   5.131  0.3000 -0.5209  1.1977
 6289SOL     OW20479   6.226   3.190   8.568  0.2349 -0.4859  0.0241
 6289SOL    HW120480   6.162   3.245   8.614  0.2462 -1.2785  1.0096
 6289SOL    HW220481   6.228   3.225   8.479 -0.2421  0.6925  0.4590
 6290SOL     OW20482   2.277   2.856   2.951 -0.3150  0.7100  0.7512
 6290SOL    HW120483   2.206   2.793   2.968 -0.5000  1.1128  1.5414
 6290SOL    HW220484   2.239   2.917   2.888 -0.1808  0.1201  0.0838
 6291SOL     OW20485   6.638   1.857   5.096 -0.3746  0.4092  0.1067
 6291SOL    HW120486   6.543   1.851   5.103 -0.5493  2.5556  0.1353
 6291SOL    HW220487   6.670   1.831   5.182 -0.9649  0.3292  0.3055
 6292SOL     OW20488   2.531   8.644   0.143 -0.0376  0.1092 -0.4408
 6292SOL    HW120489   2.556   8.706   0.211 -3.3922  1.5581 -0.3661
 6292SOL    HW220490   2.551   8.558   0.181  1.2987  0.9645  0.9291
 6293SOL     OW20491   9.709   4.660   9.178 -0.6552  0.3782  0.9630
 6293SOL    HW120492   9.753   4.622   9.254 -0.3967 -1.1194  0.1116
 6293SOL    HW220493   9.722   4.754   9.186 -0.4023  0.2215  2.6178
 6294SOL     OW20494   1.268   8.650   1.554  0.4149 -0.8234  0.6937
 6294SOL    HW120495   1.198   8.589   1.578  0.8159 -2.0217 -1.0045
 6294SOL    HW220496   1.348   8.599   1.563  0.8115 -0.3585 -0.1414
 6295SOL     OW20497   2.148   3.699   1.809 -0.4840  0.3199  0.2442
 6295SOL    HW120498   2.234   3.683   1.769 -0.2889  0.3533  0.6411
 6295SOL    HW220499   2.156   3.663   1.897 -1.5517 -1.5912 -0.3820
 6296SOL     OW20500   9.770   8.362   8.692 -0.3751  0.5501 -0.0158
 6296SOL    HW120501   9.787   8.404   8.608 -0.3835  1.4192  0.4014
 6296SOL    HW220502   9.752   8.435   8.752 -0.3332 -0.0498  0.7470
 6297SOL     OW20503   9.695   5.221   7.697 -0.0381  0.7398  0.4024
 6297SOL    HW120504   9.730   5.134   7.677 -1.6407 -0.0717  0.9258
 6297SOL    HW220505   9.701   5.228   7.793  1.1202  1.6973  0.2825
 6298SOL     OW20506   0.346   6.805   3.943  0.5080 -0.8273 -0.3304
 6298SOL    HW120507   0.317   6.848   4.024  1.3253  0.2621 -0.5900
 6298SOL    HW220508   0.266   6.771   3.904 -0.3332  1.1812 -0.5050
 6299SOL     OW20509   1.025   7.352   5.370 -0.5868 -0.5092  0.0203
 6299SOL    HW120510   0.977   7.432   5.351 -1.5971 -0.7376  1.4275
 6299SOL    HW220511   1.084   7.341   5.295 -1.1989  0.9387 -0.7224
 6300SOL     OW20512   0.061   8.280   3.876  0.3648  0.0657  0.2431
 6300SOL    HW120513  -0.031   8.306   3.874  0.9318  2.3002  0.8815
 6300SOL    HW220514   0.106   8.346   3.824  1.8171 -0.0482  1.2999
 6301SOL     OW20515   4.782   0.801   8.845 -0.3351  0.5607  0.1383
 6301SOL    HW120516   4.740   0.838   8.767  0.0619  1.1711  0.2141
 6301SOL    HW220517   4.858   0.754   8.811 -0.3587  0.5313  0.1249
 6302SOL     OW20518   5.912   3.328   3.410  0.0921 -0.5694  0.7335
 6302SOL    HW120519   5.905   3.236   3.436  3.1368 -0.5175  2.1942
 6302SOL    HW220520   5.831   3.367   3.441 -1.2590 -2.7019  0.1311
 6303SOL     OW20521   6.902   0.381   0.266  0.2301  0.3948 -0.3575
 6303SOL    HW120522   6.908   0.285   0.267  1.0311  0.4362 -0.4814
 6303SOL    HW220523   6.991   0.410   0.286 -0.4767  1.1257  1.9663
 6304SOL     OW20524   9.122   0.730   8.892  0.1625 -0.4835 -0.2856
 6304SOL    HW120525   9.163   0.731   8.806  0.2235 -0.0019 -0.2513
 6304SOL    HW220526   9.182   0.680   8.947  0.0408 -0.9389 -0.5634
 6305SOL     OW20527   6.735   5.286   0.225 -0.7131  0.2161  0.5198
 6305SOL    HW120528   6.718   5.196   0.255 -0.4391  0.0011  0.0328
 6305SOL    HW220529   6.674   5.339   0.276 -2.1620 -0.4334 -0.4892
 6306SOL     OW20530   8.753   4.649   3.809 -0.1401  0.2943  0.3608
 6306SOL    HW120531   8.728   4.593   3.735 -1.2727  2.8643 -1.3219
 6306SOL    HW220532   8.812   4.714   3.771 -1.1838  2.0128  1.5563
 6307SOL     OW20533   0.214   6.303   5.666 -0.2513  0.2316  0.0539
 6307SOL    HW120534   0.237   6.359   5.592  0.4595 -1.2121 -0.8683
 6307SOL    HW220535   0.222   6.214   5.632  1.0691 -0.5155  2.1161
 6308SOL     OW20536   7.808   8.931   1.601  0.2972  0.2656 -0.1867
 6308SOL    HW120537   7.862   8.857   1.575  0.9092  0.3317  0.8297
 6308SOL    HW220538   7.743   8.893   1.660  0.1090  0.4106 -0.2999
 6309SOL     OW20539   8.015   3.960   1.331  0.4385 -0.1628  0.1212
 6309SOL    HW120540   8.010   4.050   1.298  1.4110 -0.1318  0.0505
 6309SOL    HW220541   7.997   3.905   1.255  1.6615 -0.0662 -0.2495
 6310SOL     OW20542   7.788   7.202   2.071 -0.1399  0.2423 -0.3564
 6310SOL    HW120543   7.717   7.217   2.134 -0.4830 -0.0455 -0.6661
 6310SOL    HW220544   7.766   7.260   1.997 -0.1523  0.0195 -0.5286
 6311SOL     OW20545   0.205   1.686   7.748 -0.2754  0.0215  0.4676
 6311SOL    HW120546   0.251   1.741   7.811 -0.2118 -0.7998  1.1548
 6311SOL    HW220547   0.274   1.630   7.712 -0.5509 -0.4820  0.7185
 6312SOL     OW20548   8.091   3.817   7.247  0.1566 -0.2211  0.0856
 6312SOL    HW120549   8.152   3.815   7.320  0.7777  0.5474 -0.3949
 6312SOL    HW220550   8.081   3.910   7.226 -1.0062 -0.3481  0.0106
 6313SOL     OW20551   8.028   6.473   0.868  0.2469  0.1286  1.1218
 6313SOL    HW120552   7.941   6.472   0.907  0.6557  1.1064  2.1177
 6313SOL    HW220553   8.019   6.425   0.786 -1.5202  1.3502  0.5718
 6314SOL     OW20554   1.221   4.785   4.223  0.7358  0.0561 -0.2048
 6314SOL    HW120555   1.190   4.854   4.281 -1.8768  0.0562 -1.4581
 6314SOL    HW220556   1.182   4.805   4.138  2.3733 -1.3256 -1.3653
 6315SOL     OW20557   5.211   7.796   5.564  0.1253  0.1591  0.0844
 6315SOL    HW120558   5.269   7.872   5.576 -0.5183  0.4095  2.0986
 6315SOL    HW220559   5.159   7.817   5.487 -1.0348  2.5151  1.3837
 6316SOL     OW20560   5.964   7.509   3.683 -0.2663  0.2152 -0.4276
 6316SOL    HW120561   5.915   7.429   3.702  0.4598 -0.3843 -1.0429
 6316SOL    HW220562   5.896   7.576   3.672 -0.8180  0.1273  1.9881
 6317SOL     OW20563   4.311   6.461   0.912 -0.0772 -0.2152  0.1428
 6317SOL    HW120564   4.360   6.407   0.850 -0.5303 -0.9421  0.4091
 6317SOL    HW220565   4.224   6.422   0.916  0.1494 -0.6586  1.8029
 6318SOL     OW20566   0.238   7.581   6.501  0.0206 -0.2078 -0.2540
 6318SOL    HW120567   0.209   7.520   6.433 -0.0456 -0.8234  0.3135
 6318SOL    HW220568   0.163   7.639   6.515 -0.3099 -0.6764 -0.0437
 6319SOL     OW20569   6.209   5.754   7.034 -0.1390  0.0629  0.4904
 6319SOL    HW120570   6.263   5.812   6.980  0.8734  1.0188  2.4195
 6319SOL    HW220571   6.162   5.813   7.094 -0.7190 -0.9731  1.0928
 6320SOL     OW20572   5.884   2.659   5.284 -0.2665  0.0757 -0.3498
 6320SOL    HW120573   5.801   2.619   5.308 -0.7594  0.7646 -0.8574
 6320SOL    HW220574   5.921   2.602   5.217 -1.3902  0.8989 -1.7281
 6321SOL     OW20575   1.528   8.376   3.533  0.2924  0.3252 -0.6316
 6321SOL    HW120576   1.467   8.320   3.582  0.4609  0.9544  0.3275
 6321SOL    HW220577   1.575   8.316   3.476  0.4265 -0.5079  0.3335
 6322SOL     OW20578   9.482   9.795   9.740  0.2688  0.5453  0.2884
 6322SOL    HW120579   9.420   9.785   9.812 -0.0842  2.1633  0.2451
 6322SOL    HW220580   9.471   9.716   9.687 -0.0283 -0.2964  1.5697
 6323SOL     OW20581   9.738   3.779   4.014 -0.1580 -0.8545 -0.2976
 6323SOL    HW120582   9.718   3.693   4.050  0.1218 -1.4310 -1.4814
 6323SOL    HW220583   9.773   3.828   4.088  1.4831 -2.3657  0.0041
 6324SOL     OW20584   5.614   5.542   5.000  0.2836  0.0750  0.5065
 6324SOL    HW120585   5.617   5.583   4.914 -0.7439  1.6494  1.1567
 6324SOL    HW220586   5.705   5.537   5.028  0.8132 -2.1738 -1.3749
 6325SOL     OW20587   0.707   0.123   6.303  0.0828  0.6243  0.2306
 6325SOL    HW120588   0.717   0.028   6.314 -0.3608  0.2831 -1.8909
 6325SOL    HW220589   0.791   0.159   6.329 -0.1174 -0.1997  2.2139
 6326SOL     OW20590   2.305   0.747   2.516 -0.7093  0.2139  0.3012
 6326SOL    HW120591   2.304   0.781   2.605 -2.0296  0.3675  0.2514
 6326SOL    HW220592   2.394   0.763   2.485 -0.1643 -0.0538  1.6549
 6327SOL     OW20593   4.281   1.058   0.476 -0.0702  0.1051  0.5193
 6327SOL    HW120594   4.366   1.030   0.441 -1.1653 -1.2340 -1.2149
 6327SOL    HW220595   4.262   1.140   0.431  0.5845  0.7716  1.4226
 6328SOL     OW20596   3.434   9.543   8.304  0.0018 -0.1746 -0.0848
 6328SOL    HW120597   3.449   9.634   8.281 -0.1459 -0.1697 -0.1604
 6328SOL    HW220598   3.339   9.537   8.319  0.0937 -0.1639  0.5677
 6329SOL     OW20599   2.201   3.402   9.033  0.4421  0.0259 -0.0990
 6329SOL    HW120600   2.241   3.438   9.112 -0.8674 -0.0977  0.6337
 6329SOL    HW220601   2.235   3.313   9.027  0.7775  0.1344  0.1502
 6330SOL     OW20602   3.138   0.412   8.434  0.1133  0.1751 -0.7360
 6330SOL    HW120603   3.094   0.378   8.512  0.9092  1.2285  0.2054
 6330SOL    HW220604   3.216   0.457   8.468  0.0773  1.3103 -2.0709
 6331SOL     OW20605   9.657   0.886   9.514  0.3382  0.0958  0.1419
 6331SOL    HW120606   9.657   0.928   9.428 -1.2937 -0.2662 -0.0609
 6331SOL    HW220607   9.734   0.922   9.558 -0.4281  2.5700 -0.3758
 6332SOL     OW20608   3.168   7.926   3.511  0.1133  0.4740  0.6217
 6332SOL    HW120609   3.149   8.017   3.486 -2.4257  0.1373  0.9866
 6332SOL    HW220610   3.181   7.929   3.606 -0.5767  0.4240  0.7296
 6333SOL     OW20611   2.332   0.616   8.808  0.2785  0.3244 -0.1660
 6333SOL    HW120612   2.328   0.711   8.798 -3.5675  0.2900 -0.4554
 6333SOL    HW220613   2.265   0.596   8.874  1.1353 -2.1883  0.0661
 6334SOL     OW20614   2.952   7.231   0.637  0.2398 -0.1953 -0.3637
 6334SOL    HW120615   2.857   7.244   0.633 -0.0256 -1.9539 -0.6984
 6334SOL    HW220616   2.985   7.276   0.560 -0.3853 -0.0232 -0.5417
 6335SOL     OW20617   8.032   6.228   8.691 -0.5132  0.1589 -0.5863
 6335SOL    HW120618   8.053   6.176   8.769  1.3245  0.6582 -0.7023
 6335SOL    HW220619   8.052   6.318   8.716 -1.8954  0.5981 -0.9919
 6336SOL     OW20620   4.652   2.157   7.676 -0.3842 -0.2295  0.2731
 6336SOL    HW120621   4.690   2.215   7.741 -1.9021 -0.7752  1.7173
 6336SOL    HW220622   4.559   2.180   7.675 -0.8089 -1.8012  0.0202
 6337SOL     OW20623   8.885   3.137   9.581  0.2924 -0.4891  0.3353
 6337SOL    HW120624   8.828   3.066   9.552 -1.2694  0.0859  1.8405
 6337SOL    HW220625   8.825   3.205   9.611  1.6115  2.2246 -2.5016
 6338SOL     OW20626   9.272   6.168   1.855 -0.0764 -0.2658 -0.1687
 6338SOL    HW120627   9.244   6.230   1.923  1.4649  0.4142 -0.0938
 6338SOL    HW220628   9.207   6.176   1.786 -0.8594  0.1434  0.6044
 6339SOL     OW20629   1.591   9.416   1.962  0.0681 -0.0916 -0.4084
 6339SOL    HW120630   1.678   9.454   1.948 -0.3753  0.3238 -2.2620
 6339SOL    HW220631   1.589   9.397   2.056  1.9148  0.4773 -0.2017
 6340SOL     OW20632   2.467   4.909   5.234  0.5399 -0.3280 -0.2700
 6340SOL    HW120633   2.442   4.876   5.320  2.5057  0.1866  0.5466
 6340SOL    HW220634   2.512   4.835   5.192  1.3446  0.0241 -0.0469
 6341SOL     OW20635   9.324   7.098   5.393  0.2822 -0.3154 -0.1191
 6341SOL    HW120636   9.323   7.071   5.485 -0.8840  0.3992  0.0876
 6341SOL    HW220637   9.337   7.193   5.395 -0.8502 -0.1289 -0.6323
 6342SOL     OW20638   6.475   3.208   8.923  0.2489 -0.2572 -0.0635
 6342SOL    HW120639   6.379   3.216   8.926  0.4129  2.2397  0.7899
 6342SOL    HW220640   6.504   3.241   9.007  1.8844 -1.8796  0.0693
 6343SOL     OW20641   2.979   7.196   1.530  0.7453 -0.4567 -0.4244
 6343SOL    HW120642   2.933   7.262   1.477 -1.9957 -3.3712 -2.0387
 6343SOL    HW220643   3.041   7.156   1.469  1.7489 -0.0258  0.2921
 6344SOL     OW20644   0.025   3.783   6.921 -0.3285 -0.1024 -0.2310
 6344SOL    HW120645   0.110   3.752   6.955 -0.7767 -0.8464  0.2450
 6344SOL    HW220646  -0.033   3.781   6.997 -0.8231  0.2148 -0.5979
 6345SOL     OW20647   9.052   0.775   4.878  0.4814 -0.7337  0.2991
 6345SOL    HW120648   9.016   0.729   4.802  1.1783 -1.2957  0.3070
 6345SOL    HW220649   9.079   0.706   4.938 -1.0950 -0.3101  1.5728
 6346SOL     OW20650   5.982   3.509   0.761 -0.2876  0.7241 -0.1838
 6346SOL    HW120651   6.061   3.467   0.729 -0.1458 -0.3146  1.4454
 6346SOL    HW220652   5.910   3.455   0.727 -0.3084  1.3994 -1.2681
 6347SOL     OW20653   9.116   2.140   6.397 -0.2814 -0.7662 -0.1133
 6347SOL    HW120654   9.028   2.151   6.361 -0.3044 -0.4199  0.0399
 6347SOL    HW220655   9.136   2.048   6.384 -0.4425 -0.7315 -0.6616
 6348SOL     OW20656   3.285   0.557   7.626  0.4763 -0.7174  0.3486
 6348SOL    HW120657   3.238   0.535   7.546 -2.1968  0.7459  1.4000
 6348SOL    HW220658   3.293   0.653   7.623  3.3179 -0.8676  0.3342
 6349SOL     OW20659   5.544   2.420   6.783  0.5107  0.0287  0.2550
 6349SOL    HW120660   5.474   2.479   6.811 -1.1676 -1.4644 -0.5830
 6349SOL    HW220661   5.577   2.459   6.703  0.5895  0.7093  0.6114
 6350SOL     OW20662   0.526   3.648   6.117  0.3402 -0.2915 -0.0019
 6350SOL    HW120663   0.479   3.713   6.169  0.4178 -0.6521  0.5257
 6350SOL    HW220664   0.559   3.585   6.181 -0.2451 -1.1743 -0.5467
 6351SOL     OW20665   9.159   0.793   9.675  0.3810 -0.0274  0.3592
 6351SOL    HW120666   9.246   0.831   9.665  0.5613 -0.8789 -1.7602
 6351SOL    HW220667   9.118   0.845   9.743  2.3623  0.7161  1.0588
 6352SOL     OW20668   0.048   7.888   6.193 -0.0122  0.6122 -0.0398
 6352SOL    HW120669  -0.013   7.850   6.130  0.0853  1.3374 -0.5743
 6352SOL    HW220670   0.130   7.839   6.181 -0.3292 -0.0198  0.3302
 6353SOL     OW20671   4.229   1.398   2.875 -0.3553 -0.3764 -0.3565
 6353SOL    HW120672   4.203   1.387   2.966 -0.2369 -2.0241 -0.4804
 6353SOL    HW220673   4.323   1.377   2.874 -0.5434 -1.2711 -0.9668
 6354SOL     OW20674   7.209   8.107   1.835  0.4649 -0.2059  0.4066
 6354SOL    HW120675   7.293   8.069   1.861  0.8200 -0.4108 -0.9682
 6354SOL    HW220676   7.185   8.059   1.756 -1.2960 -0.6284  1.1292
 6355SOL     OW20677   9.720   8.516   1.550 -0.3213 -0.1863  0.5257
 6355SOL    HW120678   9.631   8.552   1.549  0.2722  1.3493  0.6569
 6355SOL    HW220679   9.775   8.587   1.520  1.1854 -0.2341  2.9235
 6356SOL     OW20680   5.691   7.615   5.886  0.0275  0.2388  0.1195
 6356SOL    HW120681   5.684   7.632   5.980  0.9991 -1.4556  0.5413
 6356SOL    HW220682   5.724   7.697   5.849 -1.0935  1.1816  1.1189
 6357SOL     OW20683   6.337   8.739   0.291 -0.2932  0.1511 -0.4503
 6357SOL    HW120684   6.252   8.696   0.296 -0.3206  0.3406  1.2860
 6357SOL    HW220685   6.397   8.678   0.334  0.0450  0.9384  0.2099
 6358SOL     OW20686   2.857   1.490   6.926 -0.1511 -0.5974  0.2136
 6358SOL    HW120687   2.926   1.507   6.862 -0.0374 -1.9860 -0.0747
 6358SOL    HW220688   2.898   1.434   6.991  0.2771  2.2519  2.6156
 6359SOL     OW20689   4.306   6.809   6.102  0.1123 -0.1768  0.8328
 6359SOL    HW120690   4.255   6.741   6.148  0.3340 -0.1731  1.0878
 6359SOL    HW220691   4.394   6.773   6.098  0.5282  0.6387  2.1112
 6360SOL     OW20692   4.397   0.078   4.409 -0.6989 -0.2668 -0.1038
 6360SOL    HW120693   4.314   0.057   4.451  0.3073 -1.3514  1.5009
 6360SOL    HW220694   4.424  -0.003   4.365 -1.3954  0.6562 -2.3656
 6361SOL     OW20695   5.294   4.320   8.694 -0.0714  0.1062 -0.4043
 6361SOL    HW120696   5.243   4.355   8.621  2.7784 -0.8413 -3.0794
 6361SOL    HW220697   5.281   4.225   8.688 -0.6268  0.0722  1.0418
 6362SOL     OW20698   0.496   6.851   7.924  0.4130  0.4615  0.0370
 6362SOL    HW120699   0.481   6.852   8.019 -0.3980  1.1054 -0.0853
 6362SOL    HW220700   0.440   6.921   7.890  0.7516  0.2873 -0.9124
 6363SOL     OW20701   0.888   9.489   0.068 -0.1697  0.6077  0.2939
 6363SOL    HW120702   0.970   9.506   0.020 -0.1854 -0.4269 -0.1235
 6363SOL    HW220703   0.873   9.395   0.057 -1.4369  0.7938  0.3355
 6364SOL     OW20704   2.450   6.687   7.191 -0.4885  0.1161  0.1147
 6364SOL    HW120705   2.401   6.611   7.222  0.1333  0.1746  1.2650
 6364SOL    HW220706   2.456   6.674   7.096 -0.0993 -1.4365  0.3286
 6365SOL     OW20707   0.058   4.254   2.253 -0.0035  0.2346  0.3040
 6365SOL    HW120708   0.071   4.325   2.191 -1.1845  0.6554  0.5073
 6365SOL    HW220709   0.072   4.294   2.339 -0.4361  0.1673  0.4074
 6366SOL     OW20710   1.944   8.777   5.840 -0.7813 -0.6036  0.2416
 6366SOL    HW120711   1.899   8.851   5.881  1.4470  0.0370  1.6737
 6366SOL    HW220712   2.006   8.818   5.779  0.2754 -1.2828  0.8369
 6367SOL     OW20713   4.762   8.473   8.980 -0.1869  0.1675  0.0851
 6367SOL    HW120714   4.682   8.449   9.026 -0.4638 -1.2080 -1.0548
 6367SOL    HW220715   4.734   8.493   8.890  0.5777  1.0100  0.0087
 6368SOL     OW20716   8.346   7.504   0.582  0.4511 -0.3837 -0.0625
 6368SOL    HW120717   8.346   7.419   0.627 -1.3345  0.9333  2.7153
 6368SOL    HW220718   8.287   7.492   0.508 -1.3815 -1.1142  1.4210
 6369SOL     OW20719   7.163   9.486   5.701  0.3822 -0.1871  1.1023
 6369SOL    HW120720   7.232   9.552   5.712 -0.1591  0.4850  0.5420
 6369SOL    HW220721   7.114   9.489   5.783  0.5752 -0.1532  1.2180
 6370SOL     OW20722   8.356   2.891   8.404 -0.1321  0.0110  0.1799
 6370SOL    HW120723   8.343   2.797   8.392  0.8363  0.1512 -2.9549
 6370SOL    HW220724   8.447   2.898   8.433  0.0836  0.0017 -0.4818
 6371SOL     OW20725   5.148   1.171   2.129 -0.0670  0.1264  0.2140
 6371SOL    HW120726   5.058   1.149   2.152 -0.3701  1.6257  0.6156
 6371SOL    HW220727   5.161   1.135   2.042 -1.1744  0.1827  0.0210
 6372SOL     OW20728   0.472   4.879   4.843 -0.5139 -0.0373 -0.2109
 6372SOL    HW120729   0.417   4.944   4.798 -0.0788 -0.0693 -0.8029
 6372SOL    HW220730   0.539   4.931   4.887 -0.2827 -0.0714 -0.5211
 6373SOL     OW20731   9.570   6.714   9.151 -0.3633  0.1869 -0.0133
 6373SOL    HW120732   9.516   6.635   9.157  0.2351 -0.3374 -1.1865
 6373SOL    HW220733   9.639   6.701   9.217 -0.8214  0.1912  0.4742
 6374SOL     OW20734   7.846   8.055   7.703  0.3674  0.1890  0.7638
 6374SOL    HW120735   7.820   8.054   7.611  1.6773 -0.2284  0.3769
 6374SOL    HW220736   7.783   7.997   7.746 -0.7329  0.9954  0.2874
 6375SOL     OW20737   6.598   9.529   0.905 -0.0570 -0.1026 -0.0182
 6375SOL    HW120738   6.542   9.539   0.828 -1.5037 -2.2182  0.6491
 6375SOL    HW220739   6.670   9.473   0.876 -0.1565 -0.2167 -0.0438
 6376SOL     OW20740   2.879   9.680   4.869  0.1237  0.1133  0.1075
 6376SOL    HW120741   2.854   9.720   4.953 -3.3967 -0.9160 -0.2820
 6376SOL    HW220742   2.875   9.586   4.886 -0.6191 -0.1026 -1.1983
 6377SOL     OW20743   7.658   2.911   9.661 -0.1760  0.4984  0.7028
 6377SOL    HW120744   7.599   2.911   9.586 -0.8611  0.2096  1.2244
 6377SOL    HW220745   7.743   2.938   9.626 -0.2963 -0.4000 -0.3150
 6378SOL     OW20746   9.503   3.283   4.190  0.2770  0.0035 -0.3457
 6378SOL    HW120747   9.515   3.341   4.265  1.2794  1.9536 -1.9372
 6378SOL    HW220748   9.442   3.216   4.221 -1.4018  2.2102  1.4255
 6379SOL     OW20749   7.466   1.114   1.974  0.5597  0.1570  0.1867
 6379SOL    HW120750   7.468   1.157   1.889  0.6775  1.6872  0.9254
 6379SOL    HW220751   7.555   1.123   2.008  1.1340 -2.3765 -0.3902
 6380SOL     OW20752   5.140   6.091   5.442 -0.1509 -0.2458  0.1875
 6380SOL    HW120753   5.082   6.090   5.367  0.2796  0.7802 -0.1708
 6380SOL    HW220754   5.083   6.071   5.517 -1.3901  2.5717  0.1159
 6381SOL     OW20755   6.331   0.632   2.179 -0.3943 -0.2045 -0.2001
 6381SOL    HW120756   6.264   0.578   2.139 -0.6997  1.0575 -1.4960
 6381SOL    HW220757   6.286   0.714   2.201  0.7228  0.7579 -1.3230
 6382SOL     OW20758   5.531   1.909   0.351 -0.6681 -0.0395  0.4247
 6382SOL    HW120759   5.513   1.977   0.286  2.6534 -0.3645 -1.0429
 6382SOL    HW220760   5.573   1.955   0.424  1.7776 -0.3802 -0.6591
 6383SOL     OW20761   2.367   6.244   1.528  0.4886 -0.1098 -0.0928
 6383SOL    HW120762   2.366   6.194   1.446 -1.4324 -1.0042  0.4324
 6383SOL    HW220763   2.406   6.185   1.592  1.1990  0.2756 -0.1608
 6384SOL     OW20764   8.723   9.560   2.043 -0.4871 -0.0048  0.9074
 6384SOL    HW120765   8.811   9.552   2.007 -0.1968 -0.7890  1.7582
 6384SOL    HW220766   8.669   9.587   1.969  0.5987  1.3249  0.5413
 6385SOL     OW20767   1.249   0.615   0.011 -0.4358 -0.0949  0.6053
 6385SOL    HW120768   1.292   0.697   0.036 -0.6675  1.1350 -2.5083
 6385SOL    HW220769   1.288   0.594  -0.074 -1.6835 -2.2612  0.5161
 6386SOL     OW20770   4.098   7.506   8.199 -0.1817  0.0414  0.4474
 6386SOL    HW120771   4.081   7.600   8.212  0.3401  0.2261 -0.1648
 6386SOL    HW220772   4.119   7.498   8.106 -3.8678 -1.2411 -0.4727
 6387SOL     OW20773   7.967   1.527   3.695  0.4771  0.4773  0.5337
 6387SOL    HW120774   7.995   1.583   3.623 -0.6630 -0.0628 -0.3501
 6387SOL    HW220775   8.033   1.541   3.763  1.8093  0.6770 -0.7614
 6388SOL     OW20776   5.709   2.488   2.392  0.5091 -0.0797 -0.6609
 6388SOL    HW120777   5.750   2.447   2.315  1.6821  0.6299 -0.4499
 6388SOL    HW220778   5.780   2.540   2.431 -0.7454  1.6923 -0.6070
 6389SOL     OW20779   2.467   6.095   7.573 -0.1729 -0.0109 -0.0631
 6389SOL    HW120780   2.441   6.128   7.487  1.3814  1.5431  0.0067
 6389SOL    HW220781   2.388   6.106   7.627 -1.3379 -1.4897 -1.3512
 6390SOL     OW20782   9.252   6.232   5.626  0.0451 -0.2690 -0.0215
 6390SOL    HW120783   9.211   6.147   5.645 -1.1596  0.3498  0.2833
 6390SOL    HW220784   9.253   6.236   5.530 -2.3962  0.4597 -0.0915
 6391SOL     OW20785   8.103   2.588   0.120  0.5253  0.0867 -0.3381
 6391SOL    HW120786   8.075   2.568   0.209  0.0261  0.4756 -0.3976
 6391SOL    HW220787   8.040   2.654   0.090  0.8696  0.1798 -0.8707
 6392SOL     OW20788   9.611   5.763   2.442 -0.5826  0.2511  0.1514
 6392SOL    HW120789   9.567   5.780   2.525 -2.4435  1.4651 -1.0003
 6392SOL    HW220790   9.585   5.673   2.419  0.2162 -0.2146  1.0075
 6393SOL     OW20791   9.779   3.155   1.560  0.8671  0.2220 -0.0256
 6393SOL    HW120792   9.733   3.213   1.621 -0.1044 -0.4691 -0.0802
 6393SOL    HW220793   9.724   3.155   1.482  0.8419 -0.7928 -0.0155
 6394SOL     OW20794   0.654   1.207   9.509 -0.0704 -0.2298 -0.2020
 6394SOL    HW120795   0.602   1.190   9.431  0.3999 -2.6598 -0.0431
 6394SOL    HW220796   0.741   1.230   9.476 -0.0390 -0.6374 -0.4044
 6395SOL     OW20797   4.331   6.507   1.681 -0.0532  0.1858 -0.4317
 6395SOL    HW120798   4.239   6.494   1.656 -1.0665  1.6648  2.1071
 6395SOL    HW220799   4.358   6.585   1.633 -0.5811  0.5423 -0.1637
 6396SOL     OW20800   2.317   8.679   9.484  0.3528  0.2715  0.1775
 6396SOL    HW120801   2.232   8.653   9.521  0.5666  0.4738  0.8230
 6396SOL    HW220802   2.309   8.774   9.470  0.1621  0.1523 -0.6170
 6397SOL     OW20803   9.433   8.451   4.408  0.4305  0.0748  0.1507
 6397SOL    HW120804   9.346   8.444   4.449  0.5114  0.4513  0.3852
 6397SOL    HW220805   9.493   8.463   4.482  0.9090 -2.0067  0.1488
 6398SOL     OW20806   2.905   8.675   9.827  0.0477  0.2878 -0.1737
 6398SOL    HW120807   2.970   8.610   9.852 -0.8668 -0.6600 -0.2183
 6398SOL    HW220808   2.821   8.631   9.839 -0.5770  1.3552 -0.5070
 6399SOL     OW20809   1.076   9.015   3.654 -0.4194 -0.0779 -0.4635
 6399SOL    HW120810   1.011   9.071   3.697  1.2003  1.2203  0.4057
 6399SOL    HW220811   1.103   8.953   3.721 -0.1280 -0.0493 -0.5529
 6400SOL     OW20812   0.080   6.502   6.616 -0.1292 -0.0861  0.2008
 6400SOL    HW120813   0.114   6.438   6.680 -1.5422 -1.0963 -0.0137
 6400SOL    HW220814  -0.015   6.487   6.615 -0.1965  0.2022 -1.8267
 6401SOL     OW20815   9.421   5.368   0.512 -0.0740  0.4834 -0.3209
 6401SOL    HW120816   9.425   5.345   0.419 -0.1567  0.5084 -0.3307
 6401SOL    HW220817   9.327   5.371   0.532 -0.1286 -3.6447  0.8205
 6402SOL     OW20818   0.844   3.317   4.870 -0.1676  0.0349 -0.5159
 6402SOL    HW120819   0.805   3.400   4.841  0.2557  0.4138 -0.0197
 6402SOL    HW220820   0.899   3.289   4.797  1.5710  1.4170  0.1966
 6403SOL     OW20821   7.670   4.567   0.673 -0.0593  0.0909 -0.5080
 6403SOL    HW120822   7.666   4.578   0.768  2.2917 -0.9036 -0.2211
 6403SOL    HW220823   7.696   4.476   0.661 -0.7107  0.0870 -2.1505
 6404SOL     OW20824   8.353   2.054   7.777 -0.1981  0.0829  0.5096
 6404SOL    HW120825   8.276   2.057   7.720 -0.6879 -1.6407  1.0207
 6404SOL    HW220826   8.410   1.989   7.737 -0.7096 -1.4415  2.1059
 6405SOL     OW20827   8.678   0.709   4.885 -0.5184  0.1541 -0.1164
 6405SOL    HW120828   8.746   0.645   4.904  0.5293  1.0228 -0.8402
 6405SOL    HW220829   8.684   0.774   4.956 -0.1343  0.5903 -0.5438
 6406SOL     OW20830   6.012   0.263   5.164 -0.0258  0.0902  0.2825
 6406SOL    HW120831   5.946   0.269   5.095 -1.9827  0.7438  2.1492
 6406SOL    HW220832   6.017   0.350   5.202  0.3909 -0.4527  1.5488
 6407SOL     OW20833   2.964   3.483   6.428  0.0555  0.2719 -0.4325
 6407SOL    HW120834   2.970   3.456   6.519 -0.2097 -1.0562 -0.7923
 6407SOL    HW220835   3.035   3.547   6.417  1.4795 -1.1231  0.1842
 6408SOL     OW20836   0.475   6.181   9.713  0.2747  0.4589  0.3189
 6408SOL    HW120837   0.453   6.180   9.806  0.7742 -0.0207  0.4406
 6408SOL    HW220838   0.392   6.200   9.669 -0.5278 -1.6757  0.7374
 6409SOL     OW20839   4.977   5.802   3.411 -0.2349 -0.5928  0.2004
 6409SOL    HW120840   5.064   5.784   3.447 -0.7479  1.2839  2.6470
 6409SOL    HW220841   4.917   5.761   3.473 -1.1249 -0.0730 -0.3077
 6410SOL     OW20842   9.490   3.786   6.132  0.0612  0.5401 -0.1446
 6410SOL    HW120843   9.498   3.870   6.088 -0.5140  0.4919 -0.3579
 6410SOL    HW220844   9.402   3.787   6.171 -0.1973 -0.1994 -0.6767
 6411SOL     OW20845   7.030   1.685   2.958  0.5670  0.2022 -0.6977
 6411SOL    HW120846   7.106   1.719   3.004  1.0935  0.0452 -1.4317
 6411SOL    HW220847   6.999   1.612   3.012  0.0295  1.1879  0.3678
 6412SOL     OW20848   3.940   3.721   8.391 -0.1067  0.6375 -0.2259
 6412SOL    HW120849   3.984   3.771   8.322  0.2372  2.8609  1.5145
 6412SOL    HW220850   3.849   3.716   8.362  0.2715  0.4204 -1.4272
 6413SOL     OW20851   0.301   4.703   0.305 -0.1414 -0.0063 -0.4174
 6413SOL    HW120852   0.311   4.645   0.230 -0.8886 -0.4288 -0.2091
 6413SOL    HW220853   0.206   4.711   0.317 -0.1189 -2.1803  2.1434
 6414SOL     OW20854   0.663   6.539   9.707 -0.0184 -0.3816  0.1702
 6414SOL    HW120855   0.674   6.633   9.723  0.0547 -0.4683  0.6316
 6414SOL    HW220856   0.579   6.518   9.748 -0.6470 -0.2759 -0.9921
 6415SOL     OW20857   6.153   7.778   1.677 -0.3985 -0.3324  0.1329
 6415SOL    HW120858   6.196   7.828   1.608 -0.8068 -0.3992 -0.1675
 6415SOL    HW220859   6.175   7.687   1.658  0.3094 -0.2841  0.6558
 6416SOL     OW20860   4.099   3.353   2.503 -0.2207 -0.0745 -0.1362
 6416SOL    HW120861   4.189   3.382   2.496  0.0432 -0.7066  0.5315
 6416SOL    HW220862   4.093   3.310   2.589 -1.3559  0.6597  0.1840
 6417SOL     OW20863   3.942   4.324   9.307  0.1999  0.0169 -0.0934
 6417SOL    HW120864   3.988   4.389   9.361 -0.5469  0.8383 -0.4194
 6417SOL    HW220865   3.851   4.353   9.308 -0.0949 -0.8877 -0.4710
 6418SOL     OW20866   2.559   0.221   7.821  0.2283  0.2676 -0.2175
 6418SOL    HW120867   2.495   0.291   7.807  0.6468  0.9927  1.2278
 6418SOL    HW220868   2.643   0.266   7.833  0.4949 -0.4491  0.8367
 6419SOL     OW20869   0.417   3.316   4.077  0.4316 -0.2222 -0.4528
 6419SOL    HW120870   0.508   3.292   4.091 -0.2714 -1.9796  1.6374
 6419SOL    HW220871   0.370   3.232   4.075 -1.3018  0.6954 -0.0507
 6420SOL     OW20872   4.200   1.051   5.874  0.4753  0.3811 -0.0310
 6420SOL    HW120873   4.238   1.118   5.817  3.3165  0.5604  1.8583
 6420SOL    HW220874   4.232   0.969   5.838 -2.6211 -0.0964 -2.0635
 6421SOL     OW20875   0.320   7.380   0.314 -0.7688  0.2585  0.3065
 6421SOL    HW120876   0.381   7.454   0.309 -1.5763  0.8741 -1.9496
 6421SOL    HW220877   0.271   7.393   0.394  1.1995  0.4164  1.5452
 6422SOL     OW20878   8.878   7.861   8.734 -0.2007 -0.2446 -0.3861
 6422SOL    HW120879   8.806   7.816   8.778  0.9186 -0.6007  1.1473
 6422SOL    HW220880   8.924   7.909   8.803  1.2022 -0.2604 -1.2503
 6423SOL     OW20881   8.496   0.913   3.496  0.5039 -0.3897 -0.1430
 6423SOL    HW120882   8.457   0.934   3.581  0.8516 -1.3961  0.2814
 6423SOL    HW220883   8.448   0.836   3.466  0.4759 -0.1228 -0.8043
 6424SOL     OW20884   4.087   4.958   6.244 -0.1155  0.2720 -0.1508
 6424SOL    HW120885   4.020   4.898   6.212 -0.3006 -0.9923  2.3874
 6424SOL    HW220886   4.170   4.912   6.229 -0.1381  0.0568  0.3659
 6425SOL     OW20887   2.008   9.801   4.263  0.1937 -0.4570  0.4260
 6425SOL    HW120888   1.966   9.735   4.317 -0.5346 -0.2658  0.1021
 6425SOL    HW220889   1.969   9.884   4.290  0.6028 -0.2344  0.3548
 6426SOL     OW20890   5.266   1.330   3.655 -0.6785 -0.5954 -0.1991
 6426SOL    HW120891   5.361   1.335   3.665 -0.5703 -0.1564 -1.2824
 6426SOL    HW220892   5.231   1.375   3.732 -0.0134 -0.9454  0.3123
 6427SOL     OW20893   0.317   0.917   8.255  0.1725  0.0329 -0.1361
 6427SOL    HW120894   0.288   0.832   8.288  0.4039 -0.9166 -2.2160
 6427SOL    HW220895   0.245   0.947   8.199  1.3423 -0.3277 -1.9209
 6428SOL     OW20896   0.410   9.756   5.843 -0.3364  0.3712  0.9876
 6428SOL    HW120897   0.457   9.687   5.795 -0.2245 -0.3126  2.0504
 6428SOL    HW220898   0.318   9.735   5.828 -0.3283 -1.0371  2.6726
 6429SOL     OW20899   4.303   4.151   2.544 -0.1215  0.0466  0.0306
 6429SOL    HW120900   4.317   4.220   2.480  0.2862  0.8124  0.9131
 6429SOL    HW220901   4.362   4.080   2.518  1.0518  0.8911  0.3347
 6430SOL     OW20902   5.759   4.946   0.741  0.5406  0.0757  0.2504
 6430SOL    HW120903   5.683   4.908   0.697  0.5530 -1.0993  1.1911
 6430SOL    HW220904   5.807   4.990   0.671  0.3162 -1.3188 -0.8278
 6431SOL     OW20905   7.653   0.497   1.992 -1.1046  0.1325  0.4444
 6431SOL    HW120906   7.680   0.418   2.040  0.3148  0.2774 -0.0466
 6431SOL    HW220907   7.583   0.534   2.045 -1.8968 -1.5170  0.6246
 6432SOL     OW20908   5.113   7.088   8.566 -0.1205 -0.0530  0.4361
 6432SOL    HW120909   5.167   7.090   8.486  1.1812 -1.0513  1.2326
 6432SOL    HW220910   5.036   7.140   8.544  1.0512  1.2502 -0.8455
 6433SOL     OW20911   9.084   6.509   1.303 -0.0544  0.7546 -0.1763
 6433SOL    HW120912   9.090   6.501   1.398 -1.8715  1.9890  0.0952
 6433SOL    HW220913   9.160   6.562   1.279 -0.1631  1.3494  0.7359
 6434SOL     OW20914   2.277   0.831   0.719  0.1425 -0.3289 -0.8498
 6434SOL    HW120915   2.361   0.784   0.723  0.8677  1.0061  0.2308
 6434SOL    HW220916   2.232   0.806   0.799  0.8930  1.3954  0.1660
 6435SOL     OW20917   9.698   5.547   0.900  0.5838  0.5743  0.1576
 6435SOL    HW120918   9.609   5.582   0.896  0.2509 -0.1455  0.8416
 6435SOL    HW220919   9.688   5.455   0.873  1.1344  0.5134  0.1560
 6436SOL     OW20920   3.725   6.387   7.227  0.6453 -0.0540  0.0093
 6436SOL    HW120921   3.762   6.300   7.214  0.9675  0.2378 -1.1829
 6436SOL    HW220922   3.702   6.390   7.320  3.1717 -0.4266  0.7061
 6437SOL     OW20923   1.154   1.535   8.708  0.3176 -0.9835  0.1327
 6437SOL    HW120924   1.215   1.604   8.682 -0.6611 -0.1562 -0.0361
 6437SOL    HW220925   1.199   1.488   8.777  0.8009  0.1839  0.6467
 6438SOL     OW20926   6.573   9.206   7.808 -0.1496 -0.2064  0.0733
 6438SOL    HW120927   6.648   9.147   7.800  1.1328  1.3792 -0.0936
 6438SOL    HW220928   6.604   9.277   7.864 -1.4394  0.6547 -0.2499
 6439SOL     OW20929   4.073   4.449   6.235 -0.4523 -0.2303 -0.0116
 6439SOL    HW120930   4.122   4.390   6.177  1.3882  1.0685  0.1307
 6439SOL    HW220931   4.138   4.481   6.297 -0.9283  3.2318 -1.1091
 6440SOL     OW20932   5.123   3.222   9.602 -0.1664 -0.1298  0.4662
 6440SOL    HW120933   5.112   3.127   9.605  1.9378 -0.4456 -0.1744
 6440SOL    HW220934   5.110   3.251   9.692  1.2220 -1.3153  1.0817
 6441SOL     OW20935   5.954   5.398   0.713  0.1007  0.2970 -0.7466
 6441SOL    HW120936   5.963   5.390   0.808 -2.3978  1.2756 -0.3442
 6441SOL    HW220937   6.033   5.357   0.678  1.5936  0.8126  1.7556
 6442SOL     OW20938   2.098   4.653   2.740 -0.1585  0.2682 -0.4809
 6442SOL    HW120939   2.156   4.682   2.669  0.9512  0.7012  0.5656
 6442SOL    HW220940   2.157   4.622   2.809 -1.1697  0.5712  0.5629
 6443SOL     OW20941   6.371   8.771   0.708  0.1991 -0.3808 -0.7823
 6443SOL    HW120942   6.414   8.856   0.697 -3.7826  2.3102  1.8174
 6443SOL    HW220943   6.312   8.764   0.634 -2.3547  1.3148  0.9135
 6444SOL     OW20944   2.226   6.898   1.647 -0.1379  0.0857 -0.2139
 6444SOL    HW120945   2.306   6.848   1.661  0.3225  0.5293 -1.1974
 6444SOL    HW220946   2.229   6.967   1.713  2.0096  2.1532 -2.2513
 6445SOL     OW20947   9.253   1.991   9.757  0.1632  0.0280 -0.2284
 6445SOL    HW120948   9.250   2.071   9.809 -0.4820 -1.5332  2.2767
 6445SOL    HW220949   9.338   1.995   9.712  0.0870  2.1381 -0.2923
 6446SOL     OW20950   0.422   5.747   7.149  0.0500 -0.1149 -0.3086
 6446SOL    HW120951   0.470   5.814   7.102  0.0987  1.2621  1.6050
 6446SOL    HW220952   0.482   5.718   7.218 -1.1367  0.2645  0.9252
 6447SOL     OW20953   2.977   9.027   3.390 -0.5874 -0.1306 -0.0581
 6447SOL    HW120954   3.020   9.098   3.342 -0.0865 -0.1916  0.2900
 6447SOL    HW220955   2.905   9.070   3.438  0.0159  0.2322  0.5420
 6448SOL     OW20956   5.732   2.419   9.517 -0.5792  0.4093  0.2467
 6448SOL    HW120957   5.675   2.426   9.440 -0.5160  1.2204  0.2606
 6448SOL    HW220958   5.788   2.497   9.512  2.2465 -1.5718 -1.1002
 6449SOL     OW20959   9.423   3.687   9.536 -0.1937 -0.4494 -0.1011
 6449SOL    HW120960   9.507   3.699   9.492  0.5560 -2.2712  0.7179
 6449SOL    HW220961   9.419   3.759   9.599  0.0304  0.5305 -1.1824
 6450SOL     OW20962   7.740   1.363   3.651  0.5945  0.0208  0.2683
 6450SOL    HW120963   7.805   1.426   3.683  0.1265  1.1395 -0.8819
 6450SOL    HW220964   7.779   1.326   3.572  0.6266 -0.7391  0.6308
 6451SOL     OW20965   5.733   2.965   2.200 -0.1499  0.3255  0.2139
 6451SOL    HW120966   5.663   2.998   2.256  1.3207 -0.0748  2.3705
 6451SOL    HW220967   5.687   2.920   2.129 -2.0730  0.2029  1.4722
 6452SOL     OW20968   0.527   9.727   0.353  0.2347 -0.0208 -0.3257
 6452SOL    HW120969   0.584   9.657   0.321 -0.0784 -0.0016 -0.9518
 6452SOL    HW220970   0.483   9.759   0.274  0.7677  1.2369 -0.1282
 6453SOL     OW20971   9.370   2.944   0.665 -0.7581  0.5390 -0.1532
 6453SOL    HW120972   9.411   2.858   0.678 -3.4607 -0.7600  0.4610
 6453SOL    HW220973   9.327   2.963   0.748  0.5111  2.9753  0.0190
 6454SOL     OW20974   0.385   4.467   3.879 -0.2502  0.2115 -0.1727
 6454SOL    HW120975   0.419   4.414   3.807 -0.8494  0.3440 -0.5615
 6454SOL    HW220976   0.299   4.497   3.848 -0.2240  0.8153  0.3323
 6455SOL     OW20977   4.536   3.114   2.179  0.2724 -0.1631 -0.3771
 6455SOL    HW120978   4.537   3.064   2.098 -1.5624  0.1567 -0.6276
 6455SOL    HW220979   4.447   3.149   2.185  0.4501  0.0579  1.6217
 6456SOL     OW20980   8.404   3.964   6.552  0.0596  0.2351  0.4535
 6456SOL    HW120981   8.383   4.037   6.494 -0.0000 -0.3974 -0.3340
 6456SOL    HW220982   8.474   3.916   6.508 -1.5746 -1.6113 -0.2929
 6457SOL     OW20983   7.349   1.957   6.681 -0.2500 -0.1051  0.7019
 6457SOL    HW120984   7.340   2.033   6.738 -0.0314 -0.2012  0.8660
 6457SOL    HW220985   7.261   1.919   6.679 -0.7488  1.0198 -0.6210
 6458SOL     OW20986   7.979   7.242   7.446  0.2164  0.0795  0.4258
 6458SOL    HW120987   7.886   7.253   7.426  0.0200 -0.8447  0.7584
 6458SOL    HW220988   8.024   7.303   7.388 -0.6573  1.4215  1.1111
 6459SOL     OW20989   5.380   3.788   6.756 -0.2077 -0.2621 -0.5512
 6459SOL    HW120990   5.385   3.694   6.737 -1.2625 -0.4202 -0.1133
 6459SOL    HW220991   5.369   3.830   6.671  0.7548 -0.4889 -0.7948
 6460SOL     OW20992   6.781   7.689   7.468 -0.1581 -0.5527  0.1263
 6460SOL    HW120993   6.740   7.633   7.402  1.7552  0.3860 -2.0057
 6460SOL    HW220994   6.874   7.685   7.448  0.2932  1.3697  1.5327
 6461SOL     OW20995   9.613   9.542   0.502 -0.2099  0.2271 -0.0914
 6461SOL    HW120996   9.563   9.578   0.576  0.3882 -3.3821  2.3710
 6461SOL    HW220997   9.552   9.482   0.459  0.9995 -2.2283  1.3405
 6462SOL     OW20998   3.936   8.913   3.791  0.6288  0.1055 -0.0747
 6462SOL    HW120999   3.938   8.901   3.696 -1.9715  1.6695 -0.4184
 6462SOL    HW221000   3.943   9.007   3.803  2.5610 -0.1720  1.4503
 6463SOL     OW21001   7.447   8.065   6.618 -0.3565 -0.0429 -0.0832
 6463SOL    HW121002   7.436   8.064   6.713  1.2051  2.3455  0.1984
 6463SOL    HW221003   7.437   8.157   6.594  1.1311 -0.3236 -1.9745
 6464SOL     OW21004   2.415   4.238   0.923  0.1880 -0.2936 -0.5820
 6464SOL    HW121005   2.443   4.177   0.854 -2.5375 -0.3559 -1.7879
 6464SOL    HW221006   2.403   4.321   0.877  0.5718  0.2785  0.3378
 6465SOL     OW21007   4.188   2.954   0.409 -0.6901 -0.0815 -0.2447
 6465SOL    HW121008   4.134   2.992   0.339  0.3242  1.4124 -0.2350
 6465SOL    HW221009   4.248   2.895   0.363  0.6721  1.6686 -0.8173
 6466SOL     OW21010   6.080   3.424   8.701  0.2639  0.5365 -0.9345
 6466SOL    HW121011   6.073   3.516   8.727  0.8236  0.3995 -0.2875
 6466SOL    HW221012   5.991   3.390   8.712  0.4343  0.5339  0.6624
 6467SOL     OW21013   4.094   3.318   7.574  0.2812  0.1798  0.2571
 6467SOL    HW121014   4.016   3.356   7.615 -0.6977 -1.5334  0.0856
 6467SOL    HW221015   4.059   3.255   7.510  1.7891  0.9470 -1.4110
 6468SOL     OW21016   5.946   1.297   0.295 -0.3340  0.1069  0.2736
 6468SOL    HW121017   6.009   1.364   0.321 -0.1783  0.2304 -0.3867
 6468SOL    HW221018   5.870   1.311   0.351  0.0023  0.3311  0.6757
 6469SOL     OW21019   0.856   8.622   3.731 -0.5230 -0.6385  0.2539
 6469SOL    HW121020   0.824   8.583   3.812 -1.3775  1.0763  0.7861
 6469SOL    HW221021   0.925   8.683   3.759 -1.2877  0.4729 -0.2054
 6470SOL     OW21022   1.253   8.605   4.439  0.1176  0.4393  0.1555
 6470SOL    HW121023   1.284   8.690   4.408 -1.5344  1.2322  0.5474
 6470SOL    HW221024   1.256   8.549   4.361  1.7194  0.6709  0.0119
 6471SOL     OW21025   5.637   6.411   0.574 -0.2040 -0.4552 -0.8937
 6471SOL    HW121026   5.587   6.469   0.516 -0.7176 -0.4925 -0.5023
 6471SOL    HW221027   5.661   6.467   0.648 -0.5137 -0.6822 -0.6183
 6472SOL     OW21028   3.083   4.589   9.515  0.4321 -0.4128 -0.5700
 6472SOL    HW121029   2.994   4.556   9.521  0.4529 -0.2161  3.2663
 6472SOL    HW221030   3.138   4.511   9.514  0.2778 -0.6084  1.7759
 6473SOL     OW21031   0.963   5.379   7.332  0.1845 -0.0368  0.5072
 6473SOL    HW121032   0.897   5.315   7.357 -0.3258  0.1993 -0.1970
 6473SOL    HW221033   0.992   5.350   7.245  1.1188 -0.2240  0.8737
 6474SOL     OW21034   3.339   3.232   9.314 -0.2386  0.3040 -0.4177
 6474SOL    HW121035   3.381   3.209   9.397  0.7616  1.1249 -0.6803
 6474SOL    HW221036   3.395   3.192   9.247 -1.3324 -0.8127 -0.7058
 6475SOL     OW21037   9.285   1.404   4.065  0.0774  0.2800  1.2302
 6475SOL    HW121038   9.216   1.350   4.104  0.2296  0.4885  1.8010
 6475SOL    HW221039   9.239   1.462   4.005 -0.0965 -0.4326  0.6637
 6476SOL     OW21040   6.815   9.021   0.620 -0.1899 -0.3281  0.1602
 6476SOL    HW121041   6.853   9.097   0.576  1.4179 -0.5161  1.1408
 6476SOL    HW221042   6.853   8.945   0.576  1.1712 -0.5151  1.5684
 6477SOL     OW21043   1.486   4.029   2.912 -0.5974  0.6202 -0.8125
 6477SOL    HW121044   1.410   4.067   2.956 -0.3428 -0.2616  0.4414
 6477SOL    HW221045   1.527   4.103   2.868 -1.2204  1.4315 -0.0752
 6478SOL     OW21046   8.512   5.563   7.826  0.5752 -0.3029 -0.6498
 6478SOL    HW121047   8.605   5.574   7.804  0.4348 -0.9984 -1.6659
 6478SOL    HW221048   8.469   5.549   7.741 -0.3877 -0.4920 -0.1406
 6479SOL     OW21049   9.601   2.983   5.620  0.6698  0.0970 -0.1092
 6479SOL    HW121050   9.679   3.021   5.579  0.9297 -0.6420 -0.3137
 6479SOL    HW221051   9.630   2.897   5.651 -0.4144 -0.7681 -1.3987
 6480SOL     OW21052   0.486   1.988   5.434 -0.3659 -0.5767 -0.4243
 6480SOL    HW121053   0.498   2.073   5.391 -0.2263 -0.1241  0.4922
 6480SOL    HW221054   0.498   1.925   5.364  0.2400  0.1354 -0.9894
 6481SOL     OW21055   2.930   9.395   2.877  0.1622 -0.1450  0.1687
 6481SOL    HW121056   3.006   9.422   2.928  2.0970 -1.3390 -1.8618
 6481SOL    HW221057   2.905   9.473   2.829  0.7591  0.0353  0.1373
 6482SOL     OW21058   0.967   3.514   2.858 -0.5941 -0.0194  0.4648
 6482SOL    HW121059   0.974   3.602   2.893  1.8210  0.5382 -1.1674
 6482SOL    HW221060   1.053   3.475   2.871 -0.5738 -0.9136 -1.7732
 6483SOL     OW21061   2.598   6.080   3.541  0.6958  0.3802  0.3210
 6483SOL    HW121062   2.543   6.012   3.503  0.1129 -0.0684  1.8964
 6483SOL    HW221063   2.600   6.149   3.475  1.3489 -1.1627 -1.3431
 6484SOL     OW21064   3.248   1.772   3.341 -0.3423  0.1841  0.2338
 6484SOL    HW121065   3.269   1.865   3.349 -0.9047  0.1848  2.1466
 6484SOL    HW221066   3.160   1.771   3.303 -0.9438  0.5104  1.5620
 6485SOL     OW21067   3.663   3.023   0.173  0.0857  0.2447  0.0554
 6485SOL    HW121068   3.678   3.033   0.079  0.9498  0.9536  0.2584
 6485SOL    HW221069   3.569   3.033   0.184 -0.5035 -2.8487 -1.0848
 6486SOL     OW21070   9.616   7.580   0.883  0.5968  0.5685  0.4200
 6486SOL    HW121071   9.599   7.578   0.789 -4.9673 -1.7280  1.0669
 6486SOL    HW221072   9.653   7.494   0.902 -1.2360 -0.2293  0.5634
 6487SOL     OW21073   1.978   6.507   8.408 -0.3438  0.2947 -0.3857
 6487SOL    HW121074   1.909   6.459   8.363 -0.8421  0.1167  0.5537
 6487SOL    HW221075   1.954   6.504   8.500  0.6742  0.6369 -0.0956
 6488SOL     OW21076   0.238   3.418   3.906  0.7882 -0.2223 -0.1683
 6488SOL    HW121077   0.182   3.494   3.924 -0.4882 -1.1074 -0.2859
 6488SOL    HW221078   0.305   3.422   3.974  0.7776  1.0415 -0.2089
 6489SOL     OW21079   5.941   5.824   6.861  0.3519  0.0151 -0.4720
 6489SOL    HW121080   5.935   5.743   6.912  0.0212 -1.2317 -2.3717
 6489SOL    HW221081   5.855   5.832   6.819  0.2503  1.5858 -0.0180
 6490SOL     OW21082   9.560   2.749   3.935  0.1467 -0.1057  0.1597
 6490SOL    HW121083   9.585   2.772   4.024 -2.0664  1.9112  0.3451
 6490SOL    HW221084   9.473   2.710   3.943 -0.5071  0.9996 -1.1785
 6491SOL     OW21085   3.926   1.657   5.321  0.0733 -0.6633  0.5671
 6491SOL    HW121086   3.838   1.632   5.291 -0.2097  1.6321 -0.6909
 6491SOL    HW221087   3.973   1.680   5.242  1.2339 -0.1178  1.3923
 6492SOL     OW21088   0.963   1.070   1.172 -0.8225 -0.5553 -0.5642
 6492SOL    HW121089   0.998   1.158   1.157  0.2132 -1.2082 -2.2269
 6492SOL    HW221090   0.891   1.062   1.110 -0.7517 -0.9644 -0.5986
 6493SOL     OW21091   6.162   4.903   3.783  0.5269  0.2179 -0.2071
 6493SOL    HW121092   6.111   4.957   3.843 -1.0167 -2.2151  0.8260
 6493SOL    HW221093   6.114   4.910   3.700  0.0442  0.0539  0.0515
 6494SOL     OW21094   4.478   5.670   6.114 -0.1744  0.1136 -0.0155
 6494SOL    HW121095   4.515   5.625   6.038 -0.2207  1.4302 -0.8410
 6494SOL    HW221096   4.543   5.658   6.183  0.6883  0.3670 -0.7632
 6495SOL     OW21097   3.687   1.119   8.118 -0.2643 -0.7446 -0.3363
 6495SOL    HW121098   3.675   1.214   8.123  0.2829 -0.7222  1.0127
 6495SOL    HW221099   3.776   1.105   8.150 -0.7345 -1.7969  0.5311
 6496SOL     OW21100   9.498   1.714   6.549 -0.4485 -0.2893 -0.2392
 6496SOL    HW121101   9.412   1.757   6.555 -0.0652  0.4488  0.1113
 6496SOL    HW221102   9.478   1.620   6.552 -1.2925 -0.1370 -0.8576
 6497SOL     OW21103   6.589   5.304   1.553  0.0953 -0.4028 -0.0644
 6497SOL    HW121104   6.678   5.319   1.583 -0.1679  0.2756  0.3990
 6497SOL    HW221105   6.593   5.310   1.458  0.4244  0.2645 -0.0053
 6498SOL     OW21106   3.584   4.196   1.169 -0.2190  0.0610 -0.0178
 6498SOL    HW121107   3.653   4.159   1.225  1.2257 -2.0013 -2.9142
 6498SOL    HW221108   3.517   4.128   1.167 -0.1115 -0.0248 -0.9797
 6499SOL     OW21109   8.449   2.637   1.351 -0.2931  0.3165  0.4400
 6499SOL    HW121110   8.355   2.617   1.346 -0.4499  1.2296 -0.9025
 6499SOL    HW221111   8.456   2.724   1.310  1.1997  0.0293  0.0476
 6500SOL     OW21112   6.048   2.366   6.715  0.1308 -0.7874 -0.4811
 6500SOL    HW121113   6.092   2.302   6.771 -0.1924 -0.8522 -0.3017
 6500SOL    HW221114   5.989   2.413   6.773  0.1297 -0.5448 -0.6776
 6501SOL     OW21115   4.034   6.100   4.071 -0.6535  0.4364  0.1776
 6501SOL    HW121116   4.015   6.043   3.996 -0.8339  0.3504  0.2898
 6501SOL    HW221117   3.952   6.105   4.119 -0.2431 -0.4649  1.0222
 6502SOL     OW21118   5.074   8.896   3.813  0.3294  0.1923  0.3658
 6502SOL    HW121119   5.059   8.990   3.818  1.5911  0.3505  1.9445
 6502SOL    HW221120   4.996   8.862   3.769  0.4244  2.0907 -1.4104
 6503SOL     OW21121   4.005   7.592   9.772 -0.2552 -0.3130  0.2478
 6503SOL    HW121122   3.974   7.526   9.710 -0.5503 -0.5558  0.6443
 6503SOL    HW221123   4.101   7.587   9.767 -0.1987 -2.3014  1.8128
 6504SOL     OW21124   3.688   7.367   9.156  0.2199  0.4578  0.5796
 6504SOL    HW121125   3.630   7.291   9.154  0.3334  0.3810 -0.0340
 6504SOL    HW221126   3.776   7.329   9.163  0.2332  0.5600  1.0189
 6505SOL     OW21127   2.709   4.964   1.003 -0.2824  0.2400  0.2455
 6505SOL    HW121128   2.657   4.886   0.985 -0.2791  0.8682 -3.3360
 6505SOL    HW221129   2.778   4.934   1.062 -0.9618 -2.1813 -0.0840
 6506SOL     OW21130   9.220   6.017   7.839  0.1942  0.2257 -0.0166
 6506SOL    HW121131   9.178   6.090   7.884 -1.3569 -1.2364  1.0372
 6506SOL    HW221132   9.150   5.973   7.792  1.1528 -0.4057 -0.8963
 6507SOL     OW21133   6.705   2.905   8.485 -0.3941 -0.0160 -0.1286
 6507SOL    HW121134   6.668   2.969   8.424  0.6118  0.8840  0.1814
 6507SOL    HW221135   6.641   2.900   8.556 -0.1302  1.2393  0.2201
 6508SOL     OW21136   1.867   2.812   1.449  0.0169 -0.0591  0.2431
 6508SOL    HW121137   1.898   2.725   1.423 -0.1944  0.4411 -1.8431
 6508SOL    HW221138   1.772   2.804   1.451  0.0319 -0.1910  1.3884
 6509SOL     OW21139   0.196   5.330   4.689  0.2766 -0.3643 -0.6100
 6509SOL    HW121140   0.174   5.316   4.597 -0.3608  1.5117 -0.8049
 6509SOL    HW221141   0.258   5.403   4.688 -0.2245  0.1071  0.4542
 6510SOL     OW21142   2.278   5.011   3.387  0.2419 -0.7226 -0.3735
 6510SOL    HW121143   2.359   4.965   3.411  0.4043 -1.5396 -2.2957
 6510SOL    HW221144   2.208   4.951   3.412  0.2324 -0.3209  0.6310
 6511SOL     OW21145   5.393   3.378   3.667 -0.3909  0.3226 -0.5360
 6511SOL    HW121146   5.348   3.458   3.637  0.5195  1.0121 -0.1105
 6511SOL    HW221147   5.357   3.362   3.755  1.0349  1.6077  0.3462
 6512SOL     OW21148   4.926   3.265   8.646  0.3088  0.2655  0.1585
 6512SOL    HW121149   4.947   3.211   8.570 -1.9811  0.0338 -0.3513
 6512SOL    HW221150   4.880   3.341   8.610 -0.7012  0.2093  1.2808
 6513SOL     OW21151   5.751   3.926   3.154  0.4254 -0.0467  0.0057
 6513SOL    HW121152   5.720   3.865   3.087 -1.3274 -0.1187  0.8321
 6513SOL    HW221153   5.816   3.875   3.203 -0.5291 -1.0541  0.2730
 6514SOL     OW21154   8.989   4.971   9.146 -0.5433 -0.2683  0.0187
 6514SOL    HW121155   9.057   4.943   9.086 -0.2499  0.8575 -0.2054
 6514SOL    HW221156   9.030   5.040   9.198 -1.2954 -0.0646  0.3593
 6515SOL     OW21157   4.572   5.629   1.189  0.1206 -0.6980 -0.1124
 6515SOL    HW121158   4.558   5.558   1.251 -0.1838 -0.1776  0.4210
 6515SOL    HW221159   4.665   5.649   1.196 -0.0818 -0.0282  0.8640
 6516SOL     OW21160   2.884   4.028   7.130  0.0957  0.0255 -0.2134
 6516SOL    HW121161   2.901   4.122   7.126 -0.6523  0.1742 -0.1089
 6516SOL    HW221162   2.867   4.003   7.039 -1.8435  0.4292 -0.0044
 6517SOL     OW21163   9.742   4.303   2.847 -0.2062 -0.3742  0.2721
 6517SOL    HW121164   9.793   4.366   2.797 -0.3929 -0.9014 -0.5884
 6517SOL    HW221165   9.803   4.231   2.865  0.7469  1.0045  3.2958
 6518SOL     OW21166   6.634   0.476   3.093  0.6911  0.3716 -0.3927
 6518SOL    HW121167   6.564   0.460   3.030  0.2496  0.5762  0.0380
 6518SOL    HW221168   6.653   0.390   3.131  0.2437  0.4098 -0.0715
 6519SOL     OW21169   9.588   8.181   9.805 -0.1709  0.6631  0.8793
 6519SOL    HW121170   9.638   8.260   9.824 -1.5398  2.0151 -0.7533
 6519SOL    HW221171   9.567   8.144   9.891  2.1266  0.9615  1.6325
 6520SOL     OW21172   8.362   6.715   9.197  0.2765  0.0588 -0.2363
 6520SOL    HW121173   8.453   6.738   9.182  0.1830 -1.1195 -3.3351
 6520SOL    HW221174   8.362   6.666   9.279  2.3472  0.3298 -0.0392
 6521SOL     OW21175   0.943   1.009   7.677 -0.7003  0.1341  0.3761
 6521SOL    HW121176   0.936   1.087   7.622 -2.2585 -0.0566  0.2707
 6521SOL    HW221177   0.934   1.042   7.767  2.1572  0.4875  0.6238
 6522SOL     OW21178   1.578   4.237   2.747  0.0194 -0.1404  0.0595
 6522SOL    HW121179   1.619   4.195   2.671  1.6105  0.2171  0.6942
 6522SOL    HW221180   1.584   4.331   2.729 -3.0494 -0.0437 -1.1070
 6523SOL     OW21181   8.480   9.156   2.635  0.3030 -0.0563 -0.6966
 6523SOL    HW121182   8.563   9.190   2.670  0.6177  0.8938 -2.2796
 6523SOL    HW221183   8.430   9.234   2.612 -0.3257 -0.6515 -1.3778
 6524SOL     OW21184   8.964   0.901   9.061  0.0962  0.1009 -0.5567
 6524SOL    HW121185   9.010   0.977   9.028  1.0385 -0.0266  0.4218
 6524SOL    HW221186   9.016   0.826   9.031  0.2580 -0.0660  0.1248
 6525SOL     OW21187   7.841   1.964   1.289  0.2725 -0.1786 -0.7671
 6525SOL    HW121188   7.768   2.019   1.260  0.5416  1.3016  1.1261
 6525SOL    HW221189   7.799   1.888   1.330 -0.2779  0.7607  0.4984
 6526SOL     OW21190   3.484   5.932   7.050 -0.3005  0.3187  0.5618
 6526SOL    HW121191   3.580   5.925   7.049 -0.3846 -2.1774 -1.9519
 6526SOL    HW221192   3.453   5.842   7.047 -2.6768  1.0883 -1.1470
 6527SOL     OW21193   5.882   0.782   2.479 -0.2758 -0.2897  0.0236
 6527SOL    HW121194   5.793   0.750   2.470 -0.7501  0.7439  0.7878
 6527SOL    HW221195   5.912   0.746   2.562  0.3811 -1.4271 -0.6893
 6528SOL     OW21196   5.653   9.313   4.860  0.5790 -0.2490 -0.3535
 6528SOL    HW121197   5.710   9.334   4.934  0.6686  1.8164 -0.9632
 6528SOL    HW221198   5.710   9.320   4.784  0.2546 -1.4146 -0.7289
 6529SOL     OW21199   7.326   6.874   0.630 -0.6451 -0.1654 -0.1135
 6529SOL    HW121200   7.381   6.799   0.653  3.1112  2.7357  1.2687
 6529SOL    HW221201   7.275   6.891   0.709 -0.1509 -0.2090  0.2205
 6530SOL     OW21202   7.127   1.224   0.793 -0.1938  0.1222 -0.1812
 6530SOL    HW121203   7.087   1.205   0.708  0.2540 -0.6078 -0.2380
 6530SOL    HW221204   7.216   1.250   0.772  0.1086 -0.6484  0.0867
 6531SOL     OW21205   5.270   6.838   7.642  0.4721 -0.3640 -0.3713
 6531SOL    HW121206   5.271   6.811   7.551 -0.7464 -0.2284 -0.4390
 6531SOL    HW221207   5.233   6.764   7.690  0.3237 -0.1231 -0.1032
 6532SOL     OW21208   0.107   6.217   1.340  0.3877 -0.0498 -0.4447
 6532SOL    HW121209   0.070   6.234   1.426  0.2100  0.1292 -0.5568
 6532SOL    HW221210   0.081   6.127   1.320  1.4889 -0.5364  0.2291
 6533SOL     OW21211   7.947   1.895   4.495 -0.2085 -0.1231 -0.2020
 6533SOL    HW121212   7.862   1.892   4.451 -0.3602 -0.5206  0.1209
 6533SOL    HW221213   7.928   1.931   4.582 -0.0230 -0.0742 -0.1811
 6534SOL     OW21214   7.561   2.727   1.346 -0.1074  0.4272  0.1734
 6534SOL    HW121215   7.642   2.734   1.397  0.0586  2.0571 -0.2549
 6534SOL    HW221216   7.581   2.771   1.264 -1.5673  1.2854  0.2405
 6535SOL     OW21217   3.717   3.086   7.131  0.1475 -0.0390  0.1032
 6535SOL    HW121218   3.750   3.105   7.044  0.0132 -2.2059 -0.4904
 6535SOL    HW221219   3.740   2.994   7.146  1.3579  0.6209  2.9255
 6536SOL     OW21220   9.119   4.516   6.936 -0.4830  0.6197 -0.2707
 6536SOL    HW121221   9.145   4.504   6.845  0.2291  3.1695 -0.4574
 6536SOL    HW221222   9.156   4.440   6.981 -1.5617 -1.1360 -2.1775
 6537SOL     OW21223   5.893   7.207   8.473  0.1399 -0.0398 -0.0497
 6537SOL    HW121224   5.925   7.117   8.474 -0.1119 -0.2213 -2.3506
 6537SOL    HW221225   5.944   7.252   8.540  1.1331 -1.6220  0.2925
 6538SOL     OW21226   9.268   3.327   5.273 -0.0996 -0.4519 -0.4586
 6538SOL    HW121227   9.315   3.408   5.257  1.5380 -1.1694  0.5256
 6538SOL    HW221228   9.328   3.258   5.245 -0.6402 -1.3842  0.5881
 6539SOL     OW21229   6.475   2.442   8.227 -0.0363  0.2894  0.1688
 6539SOL    HW121230   6.519   2.524   8.248 -1.2359  1.4621 -1.6336
 6539SOL    HW221231   6.387   2.468   8.202 -0.2918 -1.4861 -0.9358
 6540SOL     OW21232   7.637   0.615   0.466  0.3256  0.9994  0.0799
 6540SOL    HW121233   7.599   0.608   0.378 -1.4545  4.2684  0.4128
 6540SOL    HW221234   7.728   0.641   0.451  0.2089  0.9471 -0.7921
 6541SOL     OW21235   3.005   8.993   4.820 -0.2447  0.3024  0.1470
 6541SOL    HW121236   2.961   9.055   4.762 -0.8422  0.6536  0.9547
 6541SOL    HW221237   2.963   8.909   4.801  0.6391  0.0911 -1.0240
 6542SOL     OW21238   3.202   6.977   8.759  0.4787  0.0402 -0.1253
 6542SOL    HW121239   3.232   7.046   8.818  1.4108 -0.0997 -0.4277
 6542SOL    HW221240   3.120   7.011   8.722  1.1618  1.1854 -0.6182
 6543SOL     OW21241   0.107   0.164   1.753 -0.2145  0.7193  0.3062
 6543SOL    HW121242   0.022   0.137   1.787  0.1922 -0.5669  0.3693
 6543SOL    HW221243   0.128   0.099   1.686  0.4454  1.3745 -0.1432
 6544SOL     OW21244   5.348   4.690   6.619  0.0080 -0.1468 -0.4053
 6544SOL    HW121245   5.298   4.702   6.539 -0.1021 -1.0698 -0.4785
 6544SOL    HW221246   5.358   4.596   6.628  1.1828 -0.0052 -0.0462
 6545SOL     OW21247   1.699   5.286   5.487  0.1870  0.3504 -0.0981
 6545SOL    HW121248   1.699   5.365   5.433 -0.4615  0.6422  0.3227
 6545SOL    HW221249   1.745   5.221   5.434  0.2178  0.8431 -0.6881
 6546SOL     OW21250   5.707   3.983   6.797  0.2373  0.4360  0.0611
 6546SOL    HW121251   5.710   3.902   6.745 -0.3524  0.4922 -0.0718
 6546SOL    HW221252   5.631   3.971   6.855 -0.0275  1.0095 -0.1580
 6547SOL     OW21253   0.628   6.448   5.257  0.1580  0.6186  0.7986
 6547SOL    HW121254   0.611   6.520   5.318 -1.4606  1.5776 -0.6881
 6547SOL    HW221255   0.597   6.370   5.303 -0.9335  1.3104  1.2932
 6548SOL     OW21256   5.065   3.475   6.084 -0.0476 -0.0989 -0.0280
 6548SOL    HW121257   4.975   3.506   6.093 -0.2449 -1.1862  2.6651
 6548SOL    HW221258   5.058   3.398   6.029 -1.1027 -1.1737  1.5066
 6549SOL     OW21259   1.242   2.978   2.044  0.2162 -0.5844 -0.2617
 6549SOL    HW121260   1.216   2.899   1.995  1.1687 -1.6615  0.9119
 6549SOL    HW221261   1.166   2.997   2.099 -0.1121 -0.5324 -0.7261
 6550SOL     OW21262   3.748   7.717   7.483  0.0337 -0.8109  0.2685
 6550SOL    HW121263   3.841   7.723   7.504  0.2472 -0.0919 -0.8286
 6550SOL    HW221264   3.743   7.662   7.405 -0.2279  0.9802 -1.0296
 6551SOL     OW21265   0.833   7.737   1.356  0.1022  0.9315  0.1913
 6551SOL    HW121266   0.821   7.800   1.426  0.0203  2.0956 -0.8372
 6551SOL    HW221267   0.816   7.786   1.275 -1.3503 -0.7227 -0.6000
 6552SOL     OW21268   4.462   4.705   6.408 -0.4404  0.1613  0.5541
 6552SOL    HW121269   4.523   4.747   6.469  0.0154  0.1073  0.1428
 6552SOL    HW221270   4.518   4.652   6.351 -0.9384 -0.3864  0.5712
 6553SOL     OW21271   0.026   7.413   0.040  0.1254  0.2286 -0.8335
 6553SOL    HW121272   0.047   7.474   0.111  0.7796 -0.5628 -0.3284
 6553SOL    HW221273  -0.045   7.456  -0.008 -0.5252  0.6540  0.4573
 6554SOL     OW21274   3.036   1.738   5.898  0.3901  0.1693 -0.0862
 6554SOL    HW121275   2.959   1.795   5.889 -1.2003 -1.5939  1.4931
 6554SOL    HW221276   3.015   1.661   5.845  1.1536 -0.2822  0.2593
 6555SOL     OW21277   9.145   6.137   6.933 -0.2745 -0.3892 -0.1334
 6555SOL    HW121278   9.066   6.158   6.984  0.2650 -1.0457  1.0067
 6555SOL    HW221279   9.112   6.096   6.853 -1.0895 -0.9964  0.4958
 6556SOL     OW21280   4.793   2.916   4.689  0.2307 -0.3783  0.1632
 6556SOL    HW121281   4.716   2.938   4.741 -0.1048 -1.8180  0.3128
 6556SOL    HW221282   4.866   2.953   4.738 -0.3490  1.2298 -0.1055
 6557SOL     OW21283   0.604   5.362   0.121  0.3970  0.4299  0.0567
 6557SOL    HW121284   0.629   5.324   0.205 -1.8651 -1.4940 -0.0408
 6557SOL    HW221285   0.668   5.432   0.107  2.3631 -0.7840  2.1676
 6558SOL     OW21286   5.356   6.258   5.541  0.2735 -0.0574 -0.2934
 6558SOL    HW121287   5.358   6.209   5.624  1.6138 -0.8923 -0.7749
 6558SOL    HW221288   5.279   6.224   5.495  0.4324 -0.7806 -0.0493
 6559SOL     OW21289   6.957   6.664   4.919 -0.1802 -0.4171 -0.4610
 6559SOL    HW121290   7.017   6.623   4.856  2.5395  1.5589  0.6174
 6559SOL    HW221291   6.877   6.680   4.868  1.2989 -0.3857 -2.9749
 6560SOL     OW21292   0.968   0.347   4.351  0.2494 -0.5933  0.3308
 6560SOL    HW121293   1.044   0.348   4.409 -0.7337  2.9717  1.8079
 6560SOL    HW221294   0.895   0.376   4.405 -1.3558  0.0208 -1.9906
 6561SOL     OW21295   9.440   9.223   6.163  0.0665  0.8441 -0.1639
 6561SOL    HW121296   9.397   9.308   6.166 -0.5069  0.5327  1.5648
 6561SOL    HW221297   9.431   9.188   6.252  0.6985 -0.8216 -0.7086
 6562SOL     OW21298   2.035   3.560   5.613 -0.1086  0.5084 -0.1754
 6562SOL    HW121299   1.999   3.526   5.531 -0.0548  0.1392 -0.0468
 6562SOL    HW221300   2.129   3.553   5.603 -0.1132 -0.1027  0.1517
 6563SOL     OW21301   7.988   0.462   7.234 -0.2941 -0.7233  0.3702
 6563SOL    HW121302   7.979   0.391   7.299  0.6299 -0.9555  0.2539
 6563SOL    HW221303   8.082   0.477   7.228 -0.4760  0.6278  0.4975
 6564SOL     OW21304   5.020   9.138   8.058 -0.1978 -0.3920 -0.4453
 6564SOL    HW121305   5.039   9.071   8.123 -0.4290  1.5967  1.8455
 6564SOL    HW221306   5.099   9.192   8.054 -0.7468  0.4286 -0.6091
 6565SOL     OW21307   2.642   1.759   9.074  0.2274  0.4721 -0.1568
 6565SOL    HW121308   2.561   1.808   9.093  0.0833  0.9597 -1.9081
 6565SOL    HW221309   2.613   1.669   9.065  0.2679  0.2517  1.6001
 6566SOL     OW21310   3.861   0.052   9.325 -0.2773 -0.2884  0.0355
 6566SOL    HW121311   3.922  -0.020   9.344  0.7410  0.4309 -0.4500
 6566SOL    HW221312   3.809   0.061   9.405  0.3404 -0.8204  0.5056
 6567SOL     OW21313   4.666   6.378   0.015  0.1940  0.4250 -1.3252
 6567SOL    HW121314   4.605   6.316   0.055  0.4332  0.2793 -1.1894
 6567SOL    HW221315   4.609   6.438  -0.034 -0.0386  0.0930 -1.4681
 6568SOL     OW21316   1.468   5.892   9.758 -0.6544 -0.0335  0.0650
 6568SOL    HW121317   1.440   5.801   9.752 -1.4566  0.2164 -0.2545
 6568SOL    HW221318   1.563   5.889   9.761 -0.6969 -0.9207  0.8806
 6569SOL     OW21319   0.105   7.950   8.315  0.0434 -0.0422 -0.1612
 6569SOL    HW121320   0.057   7.946   8.233 -0.5619  1.1047  0.1092
 6569SOL    HW221321   0.071   7.877   8.367  0.1268 -0.5118 -0.7598
 6570SOL     OW21322   1.364   4.564   5.172  0.2069 -0.3529  0.3463
 6570SOL    HW121323   1.301   4.521   5.229  0.7060 -0.1376  1.0764
 6570SOL    HW221324   1.429   4.496   5.153 -0.7731 -0.8785 -1.2546
 6571SOL     OW21325   5.835   4.690   5.047  0.0010 -0.1882 -0.4805
 6571SOL    HW121326   5.899   4.731   4.989 -1.6080 -0.0224 -2.2265
 6571SOL    HW221327   5.886   4.628   5.099  1.9970  1.8322  0.1323
 6572SOL     OW21328   9.353   4.926   9.511 -0.3261  0.5627 -0.4829
 6572SOL    HW121329   9.296   5.002   9.521 -1.2937 -0.0130 -1.4670
 6572SOL    HW221330   9.315   4.860   9.568 -0.7691  0.1142 -1.2878
 6573SOL     OW21331   7.920   3.595   0.314  0.3175  0.1957 -0.6578
 6573SOL    HW121332   7.933   3.687   0.338  0.6677  0.0919 -0.4433
 6573SOL    HW221333   7.915   3.549   0.398 -0.1283  0.0547 -0.7600
 6574SOL     OW21334   3.807   4.337   8.978  0.1735  0.2756  0.1135
 6574SOL    HW121335   3.741   4.318   8.912  0.0566 -0.3013  0.3889
 6574SOL    HW221336   3.848   4.419   8.949  0.0992  0.0450 -0.6408
 6575SOL     OW21337   7.821   8.182   5.577  0.0123  0.1891 -0.1039
 6575SOL    HW121338   7.800   8.089   5.576  2.3104 -0.4014 -1.3162
 6575SOL    HW221339   7.862   8.197   5.662 -0.6864  0.1901  0.2351
 6576SOL     OW21340   0.355   1.417   0.718  0.6086 -0.6452 -0.0210
 6576SOL    HW121341   0.352   1.467   0.636 -0.1707  0.9155  0.8919
 6576SOL    HW221342   0.268   1.378   0.725  0.9876 -1.5860 -0.3825
 6577SOL     OW21343   7.689   3.302   3.467 -0.4635  0.2956 -0.3229
 6577SOL    HW121344   7.681   3.317   3.373  2.3111  2.4813 -0.3210
 6577SOL    HW221345   7.782   3.312   3.486 -0.9862  0.4497  2.7537
 6578SOL     OW21346   5.183   0.149   9.681  0.1022 -0.6883  0.2594
 6578SOL    HW121347   5.278   0.161   9.678  0.3438 -1.0751  3.1916
 6578SOL    HW221348   5.171   0.063   9.721 -1.5093 -0.9583 -0.7187
 6579SOL     OW21349   5.537   9.741   9.233  0.0369 -0.2080 -0.7642
 6579SOL    HW121350   5.446   9.755   9.207  0.3417 -0.2551 -1.8938
 6579SOL    HW221351   5.571   9.677   9.171  0.9265  0.0297 -0.5428
 6580SOL     OW21352   5.734   1.138   8.596 -0.2457  0.0992  0.2265
 6580SOL    HW121353   5.823   1.165   8.617  0.6773 -0.0350 -2.9171
 6580SOL    HW221354   5.719   1.059   8.648  1.4021  0.2073  0.9205
 6581SOL     OW21355   4.613   5.440   3.158 -0.6254 -0.1407 -0.0936
 6581SOL    HW121356   4.523   5.474   3.166 -0.2389  0.6365  1.5073
 6581SOL    HW221357   4.602   5.352   3.123 -2.0229 -0.0301 -0.0051
 6582SOL     OW21358   5.411   1.068   6.976  0.1602 -0.3763  0.2457
 6582SOL    HW121359   5.473   1.085   7.047  0.0084 -0.3967  0.3851
 6582SOL    HW221360   5.464   1.032   6.905  0.3491 -0.1314  0.2631
 6583SOL     OW21361   8.810   0.186   6.899  0.1326 -0.1036 -0.3712
 6583SOL    HW121362   8.773   0.143   6.822 -0.2885  3.1708 -2.1991
 6583SOL    HW221363   8.734   0.214   6.950  0.2909  0.7072 -0.5715
 6584SOL     OW21364   9.480   3.463   0.560 -0.7012  0.2453 -0.3901
 6584SOL    HW121365   9.391   3.451   0.594  0.1360 -0.8841  1.5754
 6584SOL    HW221366   9.505   3.551   0.587 -0.7038  0.0219  0.3573
 6585SOL     OW21367   9.212   6.959   8.594  0.2441 -0.3014 -0.9894
 6585SOL    HW121368   9.285   6.953   8.655 -0.6747 -1.4965  0.0396
 6585SOL    HW221369   9.226   7.042   8.548  0.5175  1.0870  1.4374
 6586SOL     OW21370   2.996   1.474   1.501  0.0985  0.0714 -0.0144
 6586SOL    HW121371   3.027   1.463   1.411  3.4091  0.1325  0.9688
 6586SOL    HW221372   3.014   1.390   1.543 -0.0888  0.4761  0.9122
 6587SOL     OW21373   8.705   5.296   5.853 -0.1862 -0.1447  0.2398
 6587SOL    HW121374   8.719   5.264   5.942 -1.2695  0.7127  0.7485
 6587SOL    HW221375   8.758   5.239   5.798  1.8035  0.3206  1.5722
 6588SOL     OW21376   1.250   7.659   8.244 -0.5424 -0.1131  0.6415
 6588SOL    HW121377   1.324   7.620   8.292 -2.8597 -1.1090  3.7556
 6588SOL    HW221378   1.218   7.728   8.303 -1.5603  0.9300 -1.0542
 6589SOL     OW21379   6.203   3.024   3.899 -0.0292  0.6540 -0.0237
 6589SOL    HW121380   6.267   2.961   3.866  0.4925  0.8018  0.6827
 6589SOL    HW221381   6.134   2.970   3.938 -0.0816  0.5027 -0.3267
 6590SOL     OW21382   2.115   8.129   1.473  0.0549  0.2619 -1.4841
 6590SOL    HW121383   2.029   8.128   1.516  0.9885 -0.0932  0.4850
 6590SOL    HW221384   2.110   8.200   1.409 -1.4674  0.7128 -0.9000
 6591SOL     OW21385   7.556   9.527   9.836 -0.6071 -0.0892  0.5678
 6591SOL    HW121386   7.645   9.492   9.824 -1.3227 -2.7252  2.1268
 6591SOL    HW221387   7.566   9.594   9.904  0.4328  1.0882 -0.6847
 6592SOL     OW21388   7.615   2.060   6.649 -0.4396  0.3266 -0.4834
 6592SOL    HW121389   7.667   1.995   6.602 -1.2742  0.9875 -2.4493
 6592SOL    HW221390   7.544   2.010   6.689 -0.4921 -0.1125 -1.1074
 6593SOL     OW21391   0.013   5.221   1.820  0.7286  0.2207 -0.0895
 6593SOL    HW121392  -0.051   5.292   1.819 -1.0246 -1.2346  0.6647
 6593SOL    HW221393   0.030   5.202   1.728 -1.5813 -0.6835 -0.3977
 6594SOL     OW21394   6.883   0.403   5.727  0.1281 -0.0278 -0.4487
 6594SOL    HW121395   6.799   0.448   5.717  0.4701  1.0301  1.0532
 6594SOL    HW221396   6.886   0.377   5.819  0.5432 -1.9674 -0.9796
 6595SOL     OW21397   5.782   9.737   6.191 -0.1448  0.3292 -0.1101
 6595SOL    HW121398   5.706   9.794   6.200 -0.5899 -0.2292 -0.2894
 6595SOL    HW221399   5.857   9.793   6.211 -0.5763  0.9737 -0.2883
 6596SOL     OW21400   4.682   7.486   9.584 -0.2909 -0.1162 -0.2271
 6596SOL    HW121401   4.707   7.567   9.539 -0.9409  0.4923  0.4680
 6596SOL    HW221402   4.736   7.485   9.663 -0.5383 -0.1636 -0.0548
 6597SOL     OW21403   8.426   0.955   3.753  0.0570 -0.5909  0.4968
 6597SOL    HW121404   8.414   0.878   3.808 -0.6388  0.5795  2.0576
 6597SOL    HW221405   8.469   1.019   3.809 -1.1214  0.8114 -0.1152
 6598SOL     OW21406   3.822   7.772   4.710  0.4631  0.3356  0.0116
 6598SOL    HW121407   3.824   7.701   4.646  0.7207 -1.3292  1.7725
 6598SOL    HW221408   3.837   7.852   4.659 -1.2140 -0.6960 -2.2289
 6599SOL     OW21409   3.298   9.446   9.599  0.1952 -0.4885  0.5589
 6599SOL    HW121410   3.322   9.515   9.538  0.6752 -1.5869 -0.5372
 6599SOL    HW221411   3.380   9.401   9.619 -0.1310 -0.8522  1.1374
 6600SOL     OW21412   7.928   3.129   5.125  0.1551  0.3162 -0.1120
 6600SOL    HW121413   7.895   3.043   5.100 -0.1782 -0.2514  2.0742
 6600SOL    HW221414   7.851   3.186   5.119 -0.1030  0.0215  0.3621
 6601SOL     OW21415   9.087   4.414   1.105  0.1565  0.4893  0.4746
 6601SOL    HW121416   9.017   4.348   1.103 -1.0211  1.6988 -1.7701
 6601SOL    HW221417   9.167   4.363   1.093 -0.5945 -0.6824  0.2179
 6602SOL     OW21418   2.360   2.830   7.693  0.0355  0.0692 -0.6204
 6602SOL    HW121419   2.382   2.743   7.661  0.9479  0.2231 -0.4516
 6602SOL    HW221420   2.386   2.889   7.623 -3.8475  0.0764 -2.3350
 6603SOL     OW21421   7.837   5.102   7.308 -0.1097  0.0986  0.3698
 6603SOL    HW121422   7.773   5.080   7.376  0.4754  1.5329  1.4446
 6603SOL    HW221423   7.872   5.187   7.335  1.2648 -0.0162 -0.9232
 6604SOL     OW21424   0.242   3.633   2.985 -0.5175 -0.0818 -0.1843
 6604SOL    HW121425   0.311   3.658   2.924 -1.0965 -1.9542 -1.7148
 6604SOL    HW221426   0.196   3.714   3.005  2.4260  1.3382  1.3732
 6605SOL     OW21427   5.774   4.577   0.578 -0.3909 -0.9358  0.0204
 6605SOL    HW121428   5.794   4.659   0.622  1.1103 -0.7670 -0.9177
 6605SOL    HW221429   5.697   4.597   0.524  1.3746  0.6180 -2.0801
 6606SOL     OW21430   5.534   3.979   5.010  0.6124  0.0704 -0.1262
 6606SOL    HW121431   5.484   4.017   4.938  1.2258 -0.7693 -1.0169
 6606SOL    HW221432   5.620   4.021   5.004  0.3151  0.8567  0.8539
 6607SOL     OW21433   4.141   6.829   8.939  0.2865 -0.2542 -0.0312
 6607SOL    HW121434   4.214   6.785   8.895 -0.5164  0.5169 -2.3283
 6607SOL    HW221435   4.182   6.903   8.984  1.0958 -0.7505  0.0767
 6608SOL     OW21436   2.487   4.073   4.153  0.1980 -0.5452 -0.5700
 6608SOL    HW121437   2.504   3.979   4.152 -0.4774 -0.6688 -1.4200
 6608SOL    HW221438   2.446   4.091   4.069 -2.4320 -0.0160  0.7225
 6609SOL     OW21439   2.814   0.102   5.057  0.1316  0.5375 -0.1255
 6609SOL    HW121440   2.732   0.132   5.017 -0.6635  1.5177  2.0962
 6609SOL    HW221441   2.870   0.180   5.057  0.7254  0.1238 -0.7361
 6610SOL     OW21442   4.618   4.000   4.883  0.0180 -0.0322  0.1795
 6610SOL    HW121443   4.709   4.004   4.912 -0.0591  0.6983  0.3393
 6610SOL    HW221444   4.580   3.926   4.931  0.6317 -0.6167 -0.2134
 6611SOL     OW21445   1.531   5.429   0.919  0.4248 -0.0244 -0.1681
 6611SOL    HW121446   1.568   5.502   0.869  2.7781 -1.2945 -0.4120
 6611SOL    HW221447   1.563   5.442   1.008 -0.6254  0.1715  0.1952
 6612SOL     OW21448   7.998   7.208   2.838 -0.2005 -0.0464 -0.4541
 6612SOL    HW121449   7.902   7.204   2.832 -0.1399 -2.4451 -0.5745
 6612SOL    HW221450   8.015   7.243   2.925 -1.1776  0.7929 -0.5787
 6613SOL     OW21451   1.088   9.129   3.098  0.7737  0.6151 -0.4573
 6613SOL    HW121452   1.121   9.132   3.188 -1.7267  0.2574  0.5431
 6613SOL    HW221453   1.035   9.208   3.089 -0.5227 -0.2767 -0.9426
 6614SOL     OW21454   8.098   9.841   2.621 -0.4565  0.0859 -0.2527
 6614SOL    HW121455   8.046   9.890   2.557  0.8297  2.2066  0.2131
 6614SOL    HW221456   8.114   9.904   2.692 -0.2607 -1.6133  1.2923
 6615SOL     OW21457   9.506   8.345   5.763  0.3232 -0.9588  0.7322
 6615SOL    HW121458   9.438   8.295   5.717  1.2336 -1.9232  0.3971
 6615SOL    HW221459   9.506   8.310   5.851 -0.7159  0.1861  1.2265
 6616SOL     OW21460   6.600   4.813   9.277  0.5568 -0.3085  0.1702
 6616SOL    HW121461   6.672   4.877   9.274  0.4651 -0.2059  0.1792
 6616SOL    HW221462   6.638   4.737   9.321  0.0634  0.4873  2.0793
 6617SOL     OW21463   0.950   9.710   5.042 -0.0802  0.0565  0.7999
 6617SOL    HW121464   0.970   9.781   4.980  0.2403 -1.0631 -0.4277
 6617SOL    HW221465   1.004   9.730   5.118 -0.7553  1.6706  0.8889
 6618SOL     OW21466   4.744   2.658   1.980  0.1305 -0.2463 -0.0799
 6618SOL    HW121467   4.817   2.597   1.996 -0.0596  0.1808  2.9090
 6618SOL    HW221468   4.787   2.737   1.948  0.6701 -0.8762 -0.9889
 6619SOL     OW21469   6.886   3.896   9.197 -0.0855  0.1651 -0.1930
 6619SOL    HW121470   6.965   3.888   9.251 -1.2826  0.9384  1.7455
 6619SOL    HW221471   6.901   3.975   9.145  0.7116 -0.1040 -0.3991
 6620SOL     OW21472   2.074   0.418   0.101  0.0726 -0.1112  0.6441
 6620SOL    HW121473   2.147   0.476   0.122 -0.3256  0.4517  0.5119
 6620SOL    HW221474   2.036   0.396   0.185  0.3853 -0.4025  0.7133
 6621SOL     OW21475   7.963   8.609   5.078  0.1318  0.6204  0.1236
 6621SOL    HW121476   8.045   8.568   5.106  1.0430  1.6948 -0.8770
 6621SOL    HW221477   7.903   8.536   5.065  0.7267 -0.1502  1.4410
 6622SOL     OW21478   4.743   1.302   5.984  0.3463 -0.2306 -0.2077
 6622SOL    HW121479   4.688   1.354   5.926  0.4516 -1.1416 -1.1627
 6622SOL    HW221480   4.802   1.366   6.025 -1.2809  0.7343  0.7113
 6623SOL     OW21481   7.849   1.664   9.027  0.0944  0.0094  0.4632
 6623SOL    HW121482   7.859   1.726   9.100 -0.4857 -1.1147  1.5363
 6623SOL    HW221483   7.762   1.627   9.040 -0.8209  1.1259 -1.9156
 6624SOL     OW21484   2.673   2.782   9.413  0.8581  0.0547  0.6591
 6624SOL    HW121485   2.676   2.870   9.375 -1.3692 -0.1343 -0.1144
 6624SOL    HW221486   2.759   2.745   9.396  0.4977  0.4957 -3.0737
 6625SOL     OW21487   3.222   3.831   6.998 -0.0353  0.4543  0.0440
 6625SOL    HW121488   3.161   3.887   7.047 -0.5121 -0.6028  0.6842
 6625SOL    HW221489   3.308   3.871   7.014 -0.1560  0.0792  1.8756
 6626SOL     OW21490   8.170   5.944   2.136  0.1561  0.3630  0.0784
 6626SOL    HW121491   8.212   5.913   2.056  0.3374  1.0294 -0.0926
 6626SOL    HW221492   8.235   5.931   2.205  0.6589  1.3809 -0.1830
 6627SOL     OW21493   0.070   3.010   8.515 -0.3266  0.2088  0.4020
 6627SOL    HW121494   0.053   3.070   8.588 -1.1080  0.4405  0.0366
 6627SOL    HW221495  -0.013   3.005   8.468  0.2109  0.1811 -0.5608
 6628SOL     OW21496   5.688   6.470   3.881 -0.0508  0.3819 -0.0394
 6628SOL    HW121497   5.643   6.479   3.798 -0.2719  0.1291  0.0515
 6628SOL    HW221498   5.636   6.521   3.943 -0.8817 -0.8412  0.3150
 6629SOL     OW21499   0.145   6.085   4.227  0.4204 -0.5543 -0.2073
 6629SOL    HW121500   0.232   6.047   4.216  1.1115  0.7613  0.4632
 6629SOL    HW221501   0.135   6.144   4.152  1.1377  1.1147  0.9586
 6630SOL     OW21502   6.077   2.900   7.968  0.6979  0.1431  0.9859
 6630SOL    HW121503   6.035   2.983   7.990 -2.2512 -0.4250 -1.6475
 6630SOL    HW221504   6.127   2.918   7.888  0.0829 -0.5258  0.4233
 6631SOL     OW21505   1.707   2.815   5.610 -0.0057  0.2660  0.5826
 6631SOL    HW121506   1.722   2.880   5.679  0.6479 -0.3198  0.9942
 6631SOL    HW221507   1.628   2.769   5.638 -0.1100  0.4564  0.6068
 6632SOL     OW21508   5.722   0.225   2.873  0.8785  0.4825  0.4171
 6632SOL    HW121509   5.745   0.205   2.782  0.8686  1.5805  0.1643
 6632SOL    HW221510   5.753   0.148   2.922 -0.6770 -0.9270 -0.6984
 6633SOL     OW21511   3.466   6.766   4.466 -0.3203  0.3711  0.1228
 6633SOL    HW121512   3.478   6.694   4.528 -2.0728  0.5418  0.7162
 6633SOL    HW221513   3.490   6.845   4.515  0.8582  0.2782 -0.2835
 6634SOL     OW21514   4.464   2.215   3.327  0.4276  0.0447 -0.0695
 6634SOL    HW121515   4.450   2.288   3.267  1.0948  0.9298  0.8398
 6634SOL    HW221516   4.405   2.232   3.401 -3.1256 -2.8299 -1.8600
 6635SOL     OW21517   1.460   0.612   0.378  0.6674 -0.1668 -0.3634
 6635SOL    HW121518   1.487   0.564   0.456 -1.4727  0.7086  1.0007
 6635SOL    HW221519   1.365   0.611   0.381  0.5156 -0.1271 -3.0231
 6636SOL     OW21520   0.325   5.344   5.844 -0.0131  0.4039 -0.5992
 6636SOL    HW121521   0.400   5.403   5.830 -0.0415  0.3745 -0.8826
 6636SOL    HW221522   0.301   5.358   5.935  0.1607  0.6232 -0.5840
 6637SOL     OW21523   8.157   9.783   4.914 -0.3567 -0.3680 -0.4284
 6637SOL    HW121524   8.178   9.735   4.834  2.4481 -1.7469  1.0235
 6637SOL    HW221525   8.139   9.872   4.883  1.2424 -0.6949 -2.5852
 6638SOL     OW21526   0.463   6.028   6.110 -0.4218 -0.2564  0.0449
 6638SOL    HW121527   0.487   6.117   6.137  0.3346 -0.4503  0.0283
 6638SOL    HW221528   0.370   6.021   6.133 -0.4924  0.5381  0.0439
 6639SOL     OW21529   7.107   0.390   9.669 -0.3007 -0.0624 -0.0078
 6639SOL    HW121530   7.200   0.405   9.686 -0.1413  1.9880 -2.1233
 6639SOL    HW221531   7.062   0.430   9.743  0.4410 -1.4728  1.2724
 6640SOL     OW21532   1.504   6.671   8.144  0.7735  0.2011  0.0802
 6640SOL    HW121533   1.433   6.728   8.112 -0.9752 -2.2481 -0.7416
 6640SOL    HW221534   1.530   6.621   8.067  3.4580  0.9633  0.3859
 6641SOL     OW21535   9.609   0.513   0.177  0.2761  0.4851  0.1656
 6641SOL    HW121536   9.539   0.515   0.242  0.9927  2.1496  0.9393
 6641SOL    HW221537   9.567   0.540   0.095 -0.0866  0.9650  0.5087
 6642SOL     OW21538   9.237   1.687   6.793  0.3101 -0.1024 -0.0950
 6642SOL    HW121539   9.288   1.731   6.861 -1.2847  0.0126  1.0924
 6642SOL    HW221540   9.259   1.595   6.802 -1.5301 -0.3977  2.1500
 6643SOL     OW21541   8.120   4.815   0.073  0.3962  0.5380 -0.5564
 6643SOL    HW121542   8.107   4.720   0.078  1.0067  0.5280  2.9299
 6643SOL    HW221543   8.179   4.826  -0.002  0.9348 -1.9039 -0.5902
 6644SOL     OW21544   2.839   6.154   3.652 -0.3818  0.4104 -0.0672
 6644SOL    HW121545   2.751   6.129   3.623 -0.8864  0.0677  1.6967
 6644SOL    HW221546   2.826   6.239   3.695  0.7741  2.2255 -2.9892
 6645SOL     OW21547   2.907   7.752   0.892 -0.7068  0.1296  0.3243
 6645SOL    HW121548   2.881   7.737   0.801  0.3618 -1.0125  0.1791
 6645SOL    HW221549   2.976   7.819   0.887  0.3589 -0.9424  0.1154
 6646SOL     OW21550   8.387   7.742   7.004 -0.2846 -0.1615  0.7011
 6646SOL    HW121551   8.472   7.717   7.041  1.5016  2.3805 -1.3564
 6646SOL    HW221552   8.359   7.817   7.057 -1.4237 -1.1066  1.4968
 6647SOL     OW21553   6.171   4.545   4.089  1.2179 -0.1556 -0.7516
 6647SOL    HW121554   6.234   4.507   4.028  0.8367 -1.6975 -0.2381
 6647SOL    HW221555   6.136   4.470   4.137  0.7587  0.9132  0.6511
 6648SOL     OW21556   1.531   1.528   4.934  0.4509 -0.4154  1.0560
 6648SOL    HW121557   1.549   1.444   4.977  0.0276 -0.9716  0.1830
 6648SOL    HW221558   1.597   1.534   4.864 -0.9915 -1.2154 -0.4547
 6649SOL     OW21559   3.954   8.874   9.062 -0.4467  0.4255  0.3910
 6649SOL    HW121560   3.928   8.828   8.982  1.7612  0.2805 -0.2829
 6649SOL    HW221561   4.034   8.831   9.091 -1.9249 -0.5529  3.6191
 6650SOL     OW21562   4.271   7.521   9.784  0.0099 -0.4802 -0.0687
 6650SOL    HW121563   4.330   7.447   9.799  2.0874  1.2181  0.5373
 6650SOL    HW221564   4.309   7.568   9.710 -0.1485  1.0171  0.7542
 6651SOL     OW21565   9.168   0.168   3.117 -0.3395  0.1204 -0.2512
 6651SOL    HW121566   9.171   0.225   3.041  0.0415 -1.0873 -1.1789
 6651SOL    HW221567   9.087   0.192   3.162 -0.4858  0.9694 -0.9351
 6652SOL     OW21568   6.102   9.297   1.933 -0.2806  1.1327  0.4169
 6652SOL    HW121569   6.180   9.286   1.878 -0.8684  0.1676 -0.2583
 6652SOL    HW221570   6.051   9.218   1.917 -0.9008  1.2656  1.6728
 6653SOL     OW21571   7.002   7.024   0.371  0.5092  0.1933 -0.1344
 6653SOL    HW121572   6.929   7.056   0.423  0.2431  0.1502 -0.4822
 6653SOL    HW221573   7.039   7.103   0.331  1.6691  0.4390  1.3149
 6654SOL     OW21574   3.388   5.280   1.771  0.1142 -0.7413 -0.5524
 6654SOL    HW121575   3.367   5.190   1.743  1.0134 -0.8379 -0.9451
 6654SOL    HW221576   3.483   5.281   1.778  0.0918  0.1194 -0.2948
 6655SOL     OW21577   7.453   9.467   5.216  0.1365  0.2500  0.1077
 6655SOL    HW121578   7.385   9.448   5.281  0.5435 -0.8238  0.2394
 6655SOL    HW221579   7.419   9.541   5.166 -0.7954  0.1953  0.6482
 6656SOL     OW21580   1.035   2.891   3.658  0.1274 -0.2024 -0.1013
 6656SOL    HW121581   1.029   2.887   3.753  1.3682  1.8655  0.1355
 6656SOL    HW221582   1.024   2.800   3.629 -0.1463 -0.8953  2.0035
 6657SOL     OW21583   2.577   0.849   2.498 -0.3021  0.1397  0.4717
 6657SOL    HW121584   2.622   0.869   2.416  0.0554  1.3170  0.9239
 6657SOL    HW221585   2.644   0.811   2.554 -0.5786 -0.7909  0.1835
 6658SOL     OW21586   1.514   9.406   8.131  0.2265  0.4376  0.5869
 6658SOL    HW121587   1.532   9.495   8.159 -0.5428  0.1442  2.1230
 6658SOL    HW221588   1.597   9.359   8.144  0.5509  0.8560  0.0429
 6659SOL     OW21589   6.227   9.484   9.257  0.1619  0.6744  0.1771
 6659SOL    HW121590   6.142   9.441   9.244  0.0691  0.7482  0.5092
 6659SOL    HW221591   6.210   9.549   9.326  0.7938 -0.2708  1.2666
 6660SOL     OW21592   6.238   3.580   3.417 -0.0661  0.4252 -0.0398
 6660SOL    HW121593   6.184   3.509   3.453 -0.3326  0.1790 -0.9073
 6660SOL    HW221594   6.266   3.630   3.494 -0.6921 -0.0425  0.5046
 6661SOL     OW21595   2.853   6.173   6.532 -0.2472  0.0675  0.5752
 6661SOL    HW121596   2.902   6.172   6.614  0.2885  2.4816  0.3554
 6661SOL    HW221597   2.916   6.204   6.467 -0.7913 -1.3614 -0.7026
 6662SOL     OW21598   9.773   2.562   9.093 -0.2046 -0.4980  0.4281
 6662SOL    HW121599   9.733   2.649   9.087  0.9488  0.0399  0.4182
 6662SOL    HW221600   9.728   2.511   9.026 -0.5632  0.2123  0.1119
 6663SOL     OW21601   7.884   1.769   1.628  0.3021  0.0542 -0.1426
 6663SOL    HW121602   7.803   1.799   1.671  1.0912 -1.7861  2.9672
 6663SOL    HW221603   7.872   1.675   1.618  1.8855 -0.2027  0.0757
 6664SOL     OW21604   5.179   7.851   5.036  0.4997 -0.0884 -0.1480
 6664SOL    HW121605   5.119   7.862   4.962  0.6681 -1.2845 -0.4869
 6664SOL    HW221606   5.220   7.766   5.021 -0.2179 -0.8493  1.8683
 6665SOL     OW21607   0.084   7.122   1.732  0.4147 -0.7145  0.0563
 6665SOL    HW121608   0.069   7.046   1.788  0.8994 -1.4921 -0.8425
 6665SOL    HW221609   0.156   7.096   1.675  0.1368  0.1704 -0.7188
 6666SOL     OW21610   7.263   0.532   1.194  0.3724 -0.4589 -0.2456
 6666SOL    HW121611   7.221   0.497   1.115  1.6129 -1.0780 -0.6647
 6666SOL    HW221612   7.355   0.510   1.183  0.6919  0.1875  1.0003
 6667SOL     OW21613   8.176   7.218   9.159  0.5069  0.3356  0.1411
 6667SOL    HW121614   8.100   7.247   9.108  1.6381  1.5505 -0.9289
 6667SOL    HW221615   8.141   7.151   9.218 -1.5339  1.3879  0.2172
 6668SOL     OW21616   5.969   9.210   4.840  0.0792 -0.8432  0.0708
 6668SOL    HW121617   5.991   9.285   4.784 -1.0022 -0.3299  0.3114
 6668SOL    HW221618   6.045   9.152   4.832  0.7271  0.0452 -0.5061
 6669SOL     OW21619   5.989   5.865   9.030  0.5306  0.5804 -0.7701
 6669SOL    HW121620   5.907   5.912   9.039  0.5342  0.5841 -0.7578
 6669SOL    HW221621   5.991   5.805   9.104  1.0722  1.3826 -0.1083
 6670SOL     OW21622   2.649   4.172   4.968 -0.8244  0.1752 -0.0489
 6670SOL    HW121623   2.598   4.249   4.940 -2.1161 -0.8689 -0.7227
 6670SOL    HW221624   2.724   4.170   4.908 -2.3171 -0.6846 -2.0101
 6671SOL     OW21625   3.280   0.626   3.993  0.2881  0.4482 -0.4923
 6671SOL    HW121626   3.229   0.672   3.926 -3.1483 -2.1655  0.0371
 6671SOL    HW221627   3.275   0.534   3.968 -0.6194 -0.5941  2.9288
 6672SOL     OW21628   0.017   8.719   3.139 -0.1724 -0.0706 -0.4609
 6672SOL    HW121629   0.052   8.651   3.083  1.5015 -0.6796  1.2179
 6672SOL    HW221630  -0.053   8.676   3.188  0.1192 -0.2663 -0.2153
 6673SOL     OW21631   0.090   9.283   0.462  0.2434  0.4395 -0.1305
 6673SOL    HW121632   0.142   9.319   0.390 -0.6206  0.2347 -0.8758
 6673SOL    HW221633   0.130   9.199   0.481  0.5621  0.5574 -0.2825
 6674SOL     OW21634   6.942   9.745   6.060  0.4926 -0.2356 -0.2106
 6674SOL    HW121635   7.026   9.786   6.081  0.1672  0.6443 -0.5604
 6674SOL    HW221636   6.903   9.803   5.995 -1.0041  0.1507  0.9615
 6675SOL     OW21637   8.127   3.529   1.637 -0.2041 -0.1520 -0.0291
 6675SOL    HW121638   8.031   3.521   1.629 -0.1248  0.2389 -1.6877
 6675SOL    HW221639   8.140   3.614   1.679 -0.5795 -0.4037  0.6234
 6676SOL     OW21640   8.247   3.407   3.133  0.0842 -0.0332  0.3586
 6676SOL    HW121641   8.231   3.379   3.043 -0.2790  0.2776  0.3210
 6676SOL    HW221642   8.240   3.503   3.129  1.2388  0.0626  0.4891
 6677SOL     OW21643   5.770   9.566   6.450  0.2206  0.1517 -0.3921
 6677SOL    HW121644   5.705   9.500   6.471  0.6116  0.1365  0.9285
 6677SOL    HW221645   5.762   9.581   6.356 -0.1772 -1.4327 -0.6247
 6678SOL     OW21646   1.020   5.077   0.308  0.3796  0.7810  0.0290
 6678SOL    HW121647   1.001   4.985   0.289  0.5865  1.0464 -1.5579
 6678SOL    HW221648   0.984   5.090   0.396 -1.2877 -0.3473 -0.4204
 6679SOL     OW21649   5.034   2.232   4.504 -0.6063 -0.2752  0.4032
 6679SOL    HW121650   5.092   2.156   4.497  1.5589  1.3361 -0.0834
 6679SOL    HW221651   5.025   2.246   4.599  0.3540 -0.1468  0.4810
 6680SOL     OW21652   7.961   3.602   4.245 -0.5287 -0.1163  0.0731
 6680SOL    HW121653   8.030   3.667   4.232 -0.0732 -0.7821 -0.9554
 6680SOL    HW221654   7.978   3.565   4.331  0.7671 -0.6935 -0.4153
 6681SOL     OW21655   4.055   8.500   2.802 -0.3364  0.4696  0.1352
 6681SOL    HW121656   4.109   8.426   2.831 -1.3750 -0.0950  0.6744
 6681SOL    HW221657   4.090   8.575   2.851  0.4646  0.2736 -0.1124
 6682SOL     OW21658   4.023   5.197   1.806  0.6666 -0.6368  0.7410
 6682SOL    HW121659   4.111   5.198   1.844  1.2033  0.0586 -0.4332
 6682SOL    HW221660   4.038   5.204   1.711 -0.6544 -0.5203  0.5156
 6683SOL     OW21661   6.665   1.545   8.532 -0.4478 -0.3130  0.6143
 6683SOL    HW121662   6.660   1.626   8.582  2.7059 -0.6031  1.6719
 6683SOL    HW221663   6.720   1.488   8.585  0.5256 -1.7771 -1.7811
 6684SOL     OW21664   8.184   9.665   4.656  0.1059  0.0426 -0.4963
 6684SOL    HW121665   8.171   9.710   4.572  0.3804 -0.9786 -1.1032
 6684SOL    HW221666   8.278   9.654   4.663  0.1293  0.6692  0.2500
 6685SOL     OW21667   2.926   4.018   7.417  0.5436  0.3351 -0.6189
 6685SOL    HW121668   2.912   4.071   7.495  0.5103  0.4818 -0.7245
 6685SOL    HW221669   3.014   3.982   7.428  1.0320  1.3484 -1.0932
 6686SOL     OW21670   8.373   3.212   1.135  0.0650 -0.1066 -0.3112
 6686SOL    HW121671   8.293   3.257   1.161 -1.3188 -0.3967 -3.6464
 6686SOL    HW221672   8.387   3.146   1.204 -1.9048  0.6716  0.9048
 6687SOL     OW21673   1.194   8.727   6.298  0.2891 -0.2946  0.3648
 6687SOL    HW121674   1.232   8.768   6.376 -0.1377 -0.9547  0.9372
 6687SOL    HW221675   1.269   8.695   6.248  0.5456 -0.5165  0.8813
 6688SOL     OW21676   7.946   4.154   8.805 -0.2138  0.0050  0.7699
 6688SOL    HW121677   7.895   4.221   8.759 -0.9986  0.2059  1.8761
 6688SOL    HW221678   8.034   4.192   8.811 -0.5673  0.8185  1.0864
 6689SOL     OW21679   1.008   8.158   3.968 -0.0596  0.1677  0.0212
 6689SOL    HW121680   0.959   8.176   4.048  0.1965  0.0544  0.2035
 6689SOL    HW221681   0.964   8.210   3.901  0.0409  0.6611  0.3373
 6690SOL     OW21682   4.014   3.999   3.778  0.3958  0.3602  0.1271
 6690SOL    HW121683   4.095   3.989   3.727 -0.0155  1.8902 -0.8774
 6690SOL    HW221684   3.960   3.924   3.751  1.1276 -0.1844  0.1437
 6691SOL     OW21685   2.231   1.671   6.588 -0.1008  0.6802 -0.7386
 6691SOL    HW121686   2.325   1.672   6.602 -0.0279 -0.6990 -1.0155
 6691SOL    HW221687   2.201   1.592   6.633 -1.0876  0.9405 -0.9085
 6692SOL     OW21688   4.732   3.157   1.713  0.0669  0.1965 -0.1155
 6692SOL    HW121689   4.695   3.079   1.672  3.0040 -0.9926 -0.7946
 6692SOL    HW221690   4.819   3.129   1.742  0.7179  2.8941  0.7867
 6693SOL     OW21691   1.224   7.817   7.408 -0.0079 -0.3098 -0.0961
 6693SOL    HW121692   1.169   7.864   7.471  0.8026  0.5844 -0.0374
 6693SOL    HW221693   1.225   7.873   7.330  0.3844 -0.5729 -0.2840
 6694SOL     OW21694   3.729   0.388   6.595 -0.1258 -0.0014 -0.8991
 6694SOL    HW121695   3.681   0.318   6.639  0.9516 -0.0710  0.2220
 6694SOL    HW221696   3.663   0.435   6.545 -1.0135 -1.3005 -0.9951
 6695SOL     OW21697   9.525   5.193   9.395  0.1796  0.0568 -0.3552
 6695SOL    HW121698   9.576   5.138   9.455 -1.4381 -0.3483  0.6946
 6695SOL    HW221699   9.589   5.254   9.359  1.6053 -1.1009  0.1176
 6696SOL     OW21700   9.110   2.504   2.021  1.0603 -0.0458  0.0146
 6696SOL    HW121701   9.087   2.454   1.942  1.7076  0.0756 -0.2584
 6696SOL    HW221702   9.199   2.475   2.041  0.9842  0.1021  0.5669
 6697SOL     OW21703   2.743   7.478   7.222  0.4157  0.1322  0.1438
 6697SOL    HW121704   2.815   7.430   7.262 -0.2415  0.6188  2.0302
 6697SOL    HW221705   2.778   7.567   7.209  0.4569  0.1177  0.1551
 6698SOL     OW21706   0.232   0.908   0.831 -0.2155  0.1919  0.1597
 6698SOL    HW121707   0.293   0.974   0.865  1.0581 -1.4194  1.1051
 6698SOL    HW221708   0.191   0.872   0.910 -1.5724  0.4402 -0.4051
 6699SOL     OW21709   7.720   8.342   5.807 -0.0014 -0.1350 -0.5960
 6699SOL    HW121710   7.685   8.333   5.718 -1.5830  0.9863 -0.1278
 6699SOL    HW221711   7.647   8.377   5.858  1.1718  0.1686  0.9359
 6700SOL     OW21712   3.464   3.897   4.180  0.8365 -0.2963  0.2533
 6700SOL    HW121713   3.385   3.917   4.230 -0.8497 -0.9395 -2.0349
 6700SOL    HW221714   3.526   3.965   4.207 -0.3557  0.0783  2.3011
 6701SOL     OW21715   3.365   4.291   3.231  0.9064 -0.1000  0.0561
 6701SOL    HW121716   3.448   4.289   3.279  1.5587 -1.6356 -1.0464
 6701SOL    HW221717   3.389   4.319   3.143  0.3406 -0.9831 -0.3930
 6702SOL     OW21718   4.142   2.284   1.499 -0.4405 -0.4791 -0.3882
 6702SOL    HW121719   4.046   2.283   1.507 -0.5879 -3.2603 -1.4916
 6702SOL    HW221720   4.169   2.197   1.527  1.7355  0.0739 -0.6376
 6703SOL     OW21721   8.243   5.362   0.254  0.2275  0.4568  0.4966
 6703SOL    HW121722   8.235   5.456   0.269  1.8169  0.3937  2.0991
 6703SOL    HW221723   8.172   5.323   0.305  0.5976  0.7167  1.2315
 6704SOL     OW21724   5.516   4.855   0.602 -0.0473 -0.4967 -0.2754
 6704SOL    HW121725   5.498   4.763   0.582 -0.0132 -0.4202 -0.6673
 6704SOL    HW221726   5.490   4.902   0.522  0.4860 -0.2306 -0.2930
 6705SOL     OW21727   9.674   2.571   0.605  0.3410  0.6459  0.3157
 6705SOL    HW121728   9.589   2.530   0.588  0.1832  1.3073 -0.6006
 6705SOL    HW221729   9.737   2.514   0.561  0.2304  0.8417 -0.1010
 6706SOL     OW21730   7.220   3.757   2.975  0.4348 -0.2033 -0.7793
 6706SOL    HW121731   7.240   3.697   3.046 -0.7971  0.7030  0.3707
 6706SOL    HW221732   7.160   3.708   2.918  0.5476 -0.5487 -0.6013
 6707SOL     OW21733   8.797   6.385   7.293 -0.2353 -0.3923  0.3806
 6707SOL    HW121734   8.772   6.370   7.384 -0.7919 -0.3660  0.2317
 6707SOL    HW221735   8.763   6.472   7.272  0.0050 -0.3425  0.1849
 6708SOL     OW21736   5.347   0.446   4.405  0.6188 -0.3783  0.0865
 6708SOL    HW121737   5.283   0.403   4.462  0.6843  0.4358  0.7958
 6708SOL    HW221738   5.377   0.521   4.455  0.7346  0.3236 -1.0049
 6709SOL     OW21739   6.647   9.124   8.591 -0.1091 -0.1558  0.0369
 6709SOL    HW121740   6.608   9.211   8.579 -0.9309 -0.4924  0.1845
 6709SOL    HW221741   6.731   9.141   8.633 -0.9164  0.4882  1.4748
 6710SOL     OW21742   4.528   0.218   5.018  0.1717  0.0724 -0.1580
 6710SOL    HW121743   4.535   0.251   4.928  2.0035 -2.8185 -1.2198
 6710SOL    HW221744   4.617   0.222   5.051  0.4438 -3.0410 -0.1991
 6711SOL     OW21745   1.576   0.266   8.082  0.1480  0.2431 -0.2282
 6711SOL    HW121746   1.637   0.197   8.109  0.1876  1.1120  2.1321
 6711SOL    HW221747   1.618   0.347   8.112 -1.5873  0.9635  0.3415
 6712SOL     OW21748   9.794   9.554   4.383  0.0940  0.0964 -0.8016
 6712SOL    HW121749   9.827   9.469   4.354 -2.2864 -0.9509 -0.6586
 6712SOL    HW221750   9.710   9.564   4.339 -0.6623  1.4073  0.8100
 6713SOL     OW21751   5.148   4.623   8.834 -0.1358  0.3195 -0.0472
 6713SOL    HW121752   5.166   4.686   8.904 -0.1114 -0.2737  0.4869
 6713SOL    HW221753   5.227   4.570   8.828 -0.8521 -0.8810  0.8061
 6714SOL     OW21754   2.966   3.311   5.276 -0.0101  0.3818  0.0577
 6714SOL    HW121755   2.895   3.362   5.236  0.8102  1.7571  0.3250
 6714SOL    HW221756   2.973   3.233   5.221 -0.8477  0.8573 -0.7437
 6715SOL     OW21757   1.715   9.325   7.897  0.2435  0.0649 -0.0343
 6715SOL    HW121758   1.719   9.234   7.867  1.7649 -0.0233  0.3589
 6715SOL    HW221759   1.645   9.364   7.844 -0.0288 -1.1711 -0.6328
 6716SOL     OW21760   5.761   1.437   4.686  0.1101  1.0139  0.1135
 6716SOL    HW121761   5.698   1.417   4.617  1.0041  1.3667 -0.8266
 6716SOL    HW221762   5.715   1.415   4.767  0.7882 -4.4855 -0.6590
 6717SOL     OW21763   3.944   7.305   9.188 -0.0350 -0.3765  0.0470
 6717SOL    HW121764   4.002   7.313   9.112 -2.1152 -0.1178 -1.5824
 6717SOL    HW221765   4.004   7.304   9.263  2.0537  0.0624 -1.5197
 6718SOL     OW21766   2.759   8.738   2.186 -0.2200  0.4868  0.0804
 6718SOL    HW121767   2.744   8.832   2.176  1.0636  0.6868 -0.0899
 6718SOL    HW221768   2.771   8.725   2.280 -0.4441  0.4804  0.1090
 6719SOL     OW21769   7.570   2.152   3.786 -0.5265 -0.1466 -0.1662
 6719SOL    HW121770   7.621   2.175   3.864 -1.4194  1.6605 -0.0576
 6719SOL    HW221771   7.622   2.084   3.743 -0.0400 -1.2321  2.0044
 6720SOL     OW21772   0.856   0.317   2.873  0.0498  0.0842  0.1317
 6720SOL    HW121773   0.912   0.294   2.947 -0.4918  0.9773  0.8387
 6720SOL    HW221774   0.778   0.263   2.886  0.7290 -1.1855 -0.8715
 6721SOL     OW21775   7.804   6.110   5.718 -0.5541  0.5279  0.0664
 6721SOL    HW121776   7.805   6.092   5.812  1.5899 -0.4766 -0.0950
 6721SOL    HW221777   7.819   6.204   5.712 -1.8408  0.8053  0.7172
 6722SOL     OW21778   6.435   7.363   6.089  0.2882  0.1557 -0.3202
 6722SOL    HW121779   6.502   7.418   6.049  1.2383  0.3691  1.4628
 6722SOL    HW221780   6.373   7.425   6.129  0.0316 -0.0637 -0.3713
 6723SOL     OW21781   9.379   4.938   7.117 -0.1560  0.5581 -0.2571
 6723SOL    HW121782   9.465   4.896   7.108 -0.3409  0.1810 -0.2933
 6723SOL    HW221783   9.331   4.882   7.178  0.1619  1.6296  1.0026
 6724SOL     OW21784   3.004   4.972   7.342 -0.4838  0.7105  0.0109
 6724SOL    HW121785   3.081   5.026   7.362 -0.6491  0.7682  0.5204
 6724SOL    HW221786   3.023   4.933   7.257 -0.7360  2.2646 -0.7856
 6725SOL     OW21787   6.978   7.116   9.747  0.3251  0.3689  0.5361
 6725SOL    HW121788   7.052   7.102   9.807  2.1813 -2.4552 -2.1590
 6725SOL    HW221789   6.951   7.029   9.720 -2.0201  1.4568 -0.9839
 6726SOL     OW21790   0.794   4.064   2.615  0.3211 -0.1146 -0.1985
 6726SOL    HW121791   0.730   4.111   2.562  0.3952 -0.4893 -0.6286
 6726SOL    HW221792   0.748   4.043   2.696  0.3158  0.7789  0.0485
 6727SOL     OW21793   8.110   5.738   3.421  0.3597  0.4583  0.3623
 6727SOL    HW121794   8.134   5.770   3.334  1.3459 -0.1507  0.4021
 6727SOL    HW221795   8.168   5.784   3.481  0.6434 -0.1597  0.5670
 6728SOL     OW21796   6.299   5.883   4.839 -0.1187  0.8484  0.3161
 6728SOL    HW121797   6.212   5.922   4.849  0.1484  1.4012  0.5329
 6728SOL    HW221798   6.335   5.926   4.762 -0.6256 -0.5063 -0.7168
 6729SOL     OW21799   4.259   3.165   8.990 -0.3406  0.7230  0.3645
 6729SOL    HW121800   4.352   3.181   9.007  0.3992 -1.2909 -1.3645
 6729SOL    HW221801   4.242   3.078   9.026 -1.5350  1.0070  0.5358
 6730SOL     OW21802   6.783   1.700   9.446 -0.6329 -0.0724  0.0304
 6730SOL    HW121803   6.780   1.613   9.486 -2.8144 -0.3873 -0.7076
 6730SOL    HW221804   6.856   1.695   9.384 -0.4272 -1.2335  0.3370
 6731SOL     OW21805   0.028   1.965   2.786 -0.6331  0.3937  0.2098
 6731SOL    HW121806  -0.043   1.901   2.791 -1.4063  1.1432 -0.6266
 6731SOL    HW221807   0.007   2.017   2.708 -0.0827  1.7057  0.9072
 6732SOL     OW21808   6.425   7.473   3.339 -0.5116  0.7294  0.2300
 6732SOL    HW121809   6.510   7.495   3.378 -0.3681  0.8423 -0.1347
 6732SOL    HW221810   6.392   7.400   3.391  1.3285 -1.5883 -1.6224
 6733SOL     OW21811   3.950   9.395   8.396 -0.3545  0.0350  0.3791
 6733SOL    HW121812   3.861   9.416   8.421 -0.8792  0.2972 -1.5266
 6733SOL    HW221813   4.003   9.467   8.429 -1.2210  1.1537 -0.6082
 6734SOL     OW21814   4.459   0.168   7.521  0.1986 -0.4096 -0.0173
 6734SOL    HW121815   4.381   0.117   7.547  0.5045 -1.3721 -0.9251
 6734SOL    HW221816   4.531   0.126   7.569  0.2557  0.0873  0.3365
 6735SOL     OW21817   6.951   9.244   3.197  0.1204 -0.2842  0.2315
 6735SOL    HW121818   7.018   9.277   3.138 -1.5521  1.3057 -0.8933
 6735SOL    HW221819   6.884   9.312   3.198 -1.1621 -1.4799  1.8717
 6736SOL     OW21820   5.899   1.176   9.835 -0.1046 -0.5017  0.6095
 6736SOL    HW121821   5.811   1.150   9.863  0.6362 -1.5690  2.0175
 6736SOL    HW221822   5.948   1.190   9.916  1.7710 -2.5401 -0.0764
 6737SOL     OW21823   4.962   1.631   8.559 -0.8984 -0.2668  0.2258
 6737SOL    HW121824   5.026   1.702   8.556 -1.9995  1.0621  3.5098
 6737SOL    HW221825   4.996   1.571   8.626 -0.8287 -2.0592 -1.3162
 6738SOL     OW21826   5.265   5.352   0.054 -0.3269  0.8704 -0.3417
 6738SOL    HW121827   5.239   5.263   0.034  0.3378  0.3107  1.1773
 6738SOL    HW221828   5.329   5.374  -0.014  0.0594 -0.0836 -0.2925
 6739SOL     OW21829   2.579   4.868   0.301 -0.7224  0.0907 -0.4127
 6739SOL    HW121830   2.499   4.917   0.323  0.0282  1.9048 -1.4583
 6739SOL    HW221831   2.588   4.879   0.206  0.9289  0.2301 -0.2731
 6740SOL     OW21832   3.778   4.416   2.407 -0.5222  0.3060  0.0651
 6740SOL    HW121833   3.687   4.398   2.384 -0.4333  0.0114 -0.0677
 6740SOL    HW221834   3.826   4.409   2.324 -0.3330  0.1290  0.1864
 6741SOL     OW21835   7.792   8.912   2.745 -0.1664  0.5362 -0.4035
 6741SOL    HW121836   7.815   8.932   2.654  2.4954  2.1077  0.4889
 6741SOL    HW221837   7.793   8.816   2.750  0.4422  0.4466 -1.8649
 6742SOL     OW21838   2.587   6.881   2.487  0.1457 -0.5256 -0.3295
 6742SOL    HW121839   2.657   6.943   2.464  0.2399 -1.0380 -1.5221
 6742SOL    HW221840   2.590   6.875   2.582  1.8821 -0.7025 -0.3593
 6743SOL     OW21841   7.502   8.422   5.353  0.5369 -0.4674  0.2574
 6743SOL    HW121842   7.484   8.496   5.295 -1.7308 -0.8180  0.4036
 6743SOL    HW221843   7.508   8.460   5.440 -0.5078 -0.4150  0.3180
 6744SOL     OW21844   4.101   7.302   0.482  0.1883 -0.6075 -1.0226
 6744SOL    HW121845   4.129   7.389   0.455 -1.3022  0.2650  0.0812
 6744SOL    HW221846   4.043   7.273   0.411 -2.1516  0.8560  0.1607
 6745SOL     OW21847   6.042   5.319   0.964 -0.2038  0.2763 -0.0019
 6745SOL    HW121848   5.979   5.346   1.031 -0.0528  0.8052 -0.0749
 6745SOL    HW221849   6.054   5.225   0.980 -1.3341  0.0782 -0.2537
 6746SOL     OW21850   0.431   5.807   4.840 -0.6093  0.0120 -0.1465
 6746SOL    HW121851   0.388   5.869   4.899 -1.0336 -0.6061  0.2035
 6746SOL    HW221852   0.519   5.795   4.876 -0.0665  1.3889 -0.9411
 6747SOL     OW21853   1.044   6.855   1.552 -0.4839  0.0705  0.2202
 6747SOL    HW121854   1.040   6.867   1.647 -0.7505 -0.5470  0.2902
 6747SOL    HW221855   0.973   6.910   1.517  0.1688  0.9935  0.3003
 6748SOL     OW21856   0.868   5.620   7.491  0.1176  0.1761  0.4740
 6748SOL    HW121857   0.893   5.673   7.566  2.3144 -0.0195 -0.0457
 6748SOL    HW221858   0.943   5.562   7.476 -0.8015 -0.7122 -1.0622
 6749SOL     OW21859   7.695   1.205   2.424 -0.3175 -0.0863 -0.5732
 6749SOL    HW121860   7.630   1.145   2.386  0.1528 -0.0971 -1.3750
 6749SOL    HW221861   7.645   1.285   2.441 -1.3280 -1.1553  1.9495
 6750SOL     OW21862   8.168   2.564   8.896  0.9265 -0.4636 -0.4009
 6750SOL    HW121863   8.206   2.615   8.968  0.5868  0.9958 -1.2207
 6750SOL    HW221864   8.183   2.618   8.819 -0.6887 -0.9763 -1.0999
 6751SOL     OW21865   0.325   2.202   9.547  0.0953 -0.0349 -0.1269
 6751SOL    HW121866   0.354   2.155   9.469  0.8346 -0.5834  0.4662
 6751SOL    HW221867   0.340   2.141   9.620 -0.2401  0.5968  0.4894
 6752SOL     OW21868   2.839   0.166   2.728  0.1839 -0.2132 -0.4041
 6752SOL    HW121869   2.807   0.090   2.680 -1.6553 -1.2401  2.2364
 6752SOL    HW221870   2.932   0.149   2.740 -0.3200 -2.5336  0.8057
 6753SOL     OW21871   0.590   3.350   8.322  0.2414 -0.2498  0.1241
 6753SOL    HW121872   0.619   3.415   8.387  0.9673 -0.8146  0.3793
 6753SOL    HW221873   0.667   3.295   8.308 -0.0806 -0.4678 -0.8139
 6754SOL     OW21874   2.902   3.054   4.469  0.6360  0.5088  0.1844
 6754SOL    HW121875   2.827   3.083   4.521 -0.8326 -1.8194 -0.5014
 6754SOL    HW221876   2.957   3.006   4.532  0.4916  0.4370  0.2558
 6755SOL     OW21877   8.037   3.807   2.712  0.4253  0.6161  0.2951
 6755SOL    HW121878   7.952   3.821   2.669 -2.4803 -0.5068  4.9853
 6755SOL    HW221879   8.046   3.712   2.716  2.0384  0.7235 -0.1839
 6756SOL     OW21880   0.930   2.509   2.840 -0.9411 -0.2353 -0.1702
 6756SOL    HW121881   0.916   2.415   2.833  2.2377 -0.7967 -0.8639
 6756SOL    HW221882   1.026   2.518   2.844 -1.1738  2.8675  1.6917
 6757SOL     OW21883   5.594   9.582   1.140 -0.1133 -0.4557 -0.4494
 6757SOL    HW121884   5.684   9.552   1.126 -0.0558 -0.7356  0.4490
 6757SOL    HW221885   5.542   9.501   1.143 -0.0559 -0.4640  1.2870
 6758SOL     OW21886   6.224   1.887   3.714 -1.0568  0.3288  0.0904
 6758SOL    HW121887   6.219   1.805   3.665 -0.0890 -0.3674  1.1251
 6758SOL    HW221888   6.297   1.934   3.676 -2.1858  1.1631 -1.1279
 6759SOL     OW21889   4.728   1.811   1.161 -0.1068 -0.3559 -0.1751
 6759SOL    HW121890   4.670   1.883   1.186  0.5287 -0.8501  3.2797
 6759SOL    HW221891   4.809   1.854   1.134 -0.6487  0.2429 -0.8913
 6760SOL     OW21892   0.671   2.282   7.376 -0.1698 -0.1134 -0.3053
 6760SOL    HW121893   0.658   2.377   7.368  0.6499 -0.0339 -0.7421
 6760SOL    HW221894   0.625   2.259   7.457  0.0289  0.7334  0.0590
 6761SOL     OW21895   5.955   9.177   4.510  0.4544 -0.5343 -0.1818
 6761SOL    HW121896   5.911   9.261   4.524  0.6558 -0.7202  1.9150
 6761SOL    HW221897   6.048   9.197   4.516  0.4985 -0.9210  0.5312
 6762SOL     OW21898   7.101   9.139   4.238  0.3785 -0.6654 -0.0473
 6762SOL    HW121899   7.024   9.186   4.269  0.5333 -0.1532 -0.4236
 6762SOL    HW221900   7.081   9.116   4.147  0.4910 -0.9240 -0.0098
 6763SOL     OW21901   2.086   9.402   5.963 -0.2319  0.1227  0.5726
 6763SOL    HW121902   2.067   9.360   5.879 -1.9891 -0.3746  1.1721
 6763SOL    HW221903   2.163   9.356   5.996  0.0559 -0.1498 -0.4438
 6764SOL     OW21904   4.726   1.621   2.315 -0.0973 -0.4399  0.4680
 6764SOL    HW121905   4.761   1.675   2.245  1.9132 -3.3740 -1.0425
 6764SOL    HW221906   4.757   1.662   2.396  3.3107 -0.4462 -0.6734
 6765SOL     OW21907   3.033   7.456   7.259  0.1699  0.2038  0.2725
 6765SOL    HW121908   3.003   7.413   7.339  0.7258 -0.0535  0.3427
 6765SOL    HW221909   3.127   7.438   7.255  0.0380 -0.3323 -0.7664
 6766SOL     OW21910   3.284   7.139   2.211 -0.1659 -0.2128 -0.1524
 6766SOL    HW121911   3.243   7.216   2.172  1.4113  0.7655  0.0294
 6766SOL    HW221912   3.361   7.123   2.156  1.0309  0.0180  1.4071
 6767SOL     OW21913   4.093   9.615   3.923 -0.5502  0.6310 -0.0301
 6767SOL    HW121914   4.136   9.700   3.928  0.0790  0.4269 -1.6376
 6767SOL    HW221915   4.012   9.632   3.876 -0.2951  0.2924 -0.5938
 6768SOL     OW21916   4.553   0.991   5.707 -0.6755 -0.4082  0.0248
 6768SOL    HW121917   4.553   1.000   5.803 -0.0363 -0.0995  0.0043
 6768SOL    HW221918   4.536   0.898   5.692 -0.3160 -0.5501  0.4572
 6769SOL     OW21919   1.798   7.149   8.501 -0.2386  0.1012  0.2188
 6769SOL    HW121920   1.822   7.241   8.513 -0.7909  0.1326  1.2237
 6769SOL    HW221921   1.713   7.141   8.543 -0.9215 -0.5380 -1.1971
 6770SOL     OW21922   3.805   6.253   4.111  0.1741  0.2203  0.0414
 6770SOL    HW121923   3.881   6.307   4.133  0.3068  0.3474 -0.6846
 6770SOL    HW221924   3.743   6.315   4.072 -0.5215  0.2119  1.0928
 6771SOL     OW21925   0.277   9.120   2.098  0.4242 -0.9524  0.3320
 6771SOL    HW121926   0.209   9.097   2.162 -0.3205 -0.3878 -0.2433
 6771SOL    HW221927   0.324   9.193   2.138  1.3001 -1.9095  1.1296
 6772SOL     OW21928   4.238   2.398   6.597  0.2594 -0.3998 -0.1747
 6772SOL    HW121929   4.299   2.464   6.563 -0.9765 -0.1170 -1.9530
 6772SOL    HW221930   4.285   2.315   6.587  0.8667 -0.0532 -0.2588
 6773SOL     OW21931   2.118   3.537   2.735  0.0341  0.2884  0.1327
 6773SOL    HW121932   2.208   3.530   2.767 -0.3331 -3.1280  0.8194
 6773SOL    HW221933   2.127   3.551   2.641  1.3534 -1.0250  0.0256
 6774SOL     OW21934   4.577   6.399   5.374  0.5381 -0.1500 -0.4528
 6774SOL    HW121935   4.534   6.314   5.371 -0.0447  0.1695 -2.0653
 6774SOL    HW221936   4.535   6.450   5.305  0.1103  1.8344  1.1824
 6775SOL     OW21937   7.730   5.964   0.382  0.3176  0.4732 -0.1153
 6775SOL    HW121938   7.804   5.997   0.433  0.9606 -0.3193 -0.5067
 6775SOL    HW221939   7.718   5.874   0.412 -0.4665  0.5846 -0.0874
 6776SOL     OW21940   2.042   6.718   6.109  0.4329  0.1202  0.5810
 6776SOL    HW121941   2.001   6.730   6.023  1.2307 -1.5956 -0.0754
 6776SOL    HW221942   1.969   6.725   6.171 -0.3647  0.1146 -0.3309
 6777SOL     OW21943   0.421   7.775   2.567 -0.6299 -0.1761 -0.2792
 6777SOL    HW121944   0.497   7.752   2.513 -0.8230  1.5014 -1.3448
 6777SOL    HW221945   0.348   7.729   2.527 -1.0485  2.1636 -2.5057
 6778SOL     OW21946   3.710   2.250   7.404 -0.1394  0.0388 -0.9376
 6778SOL    HW121947   3.768   2.320   7.371 -0.7857  1.9556  1.6686
 6778SOL    HW221948   3.742   2.171   7.361  3.3218  1.2600 -0.9751
 6779SOL     OW21949   1.083   9.823   8.627 -0.2101 -0.1497  0.3433
 6779SOL    HW121950   1.132   9.823   8.709  3.0528  0.7185 -1.4081
 6779SOL    HW221951   1.039   9.908   8.625 -0.6224 -0.3313  1.3119
 6780SOL     OW21952   5.286   4.058   4.941 -0.6496  0.0005  0.3717
 6780SOL    HW121953   5.227   3.995   4.901 -0.9337  0.5367 -0.0666
 6780SOL    HW221954   5.254   4.143   4.912 -0.2491  0.3482  0.9225
 6781SOL     OW21955   4.534   4.547   8.927  0.0597  0.0738  0.3575
 6781SOL    HW121956   4.504   4.629   8.966 -0.7691 -0.2489  0.4152
 6781SOL    HW221957   4.513   4.555   8.834 -2.5957 -1.1329  0.7429
 6782SOL     OW21958   3.324   8.157   3.220  0.2732  0.2074  0.5161
 6782SOL    HW121959   3.393   8.169   3.155  1.2544  0.7049  1.6189
 6782SOL    HW221960   3.288   8.070   3.201  2.1543 -0.6718  0.8069
 6783SOL     OW21961   2.296   9.511   9.115  0.1861  0.0336  0.1502
 6783SOL    HW121962   2.275   9.603   9.099 -0.5739 -0.1472  0.0478
 6783SOL    HW221963   2.292   9.471   9.028 -0.6455 -0.3116  0.3325
 6784SOL     OW21964   5.293   0.066   4.054 -0.3418 -0.0306  0.7418
 6784SOL    HW121965   5.335   0.044   4.137 -0.0586 -0.5923  0.4574
 6784SOL    HW221966   5.356   0.039   3.987 -0.1497  1.3221  0.3531
 6785SOL     OW21967   3.700   4.639   2.816  0.3469 -0.2107  0.0395
 6785SOL    HW121968   3.701   4.600   2.728 -0.5323  1.3419 -0.6983
 6785SOL    HW221969   3.664   4.727   2.803 -1.8044 -0.6357  2.2378
 6786SOL     OW21970   1.446   3.818   3.252 -0.0413 -0.3464 -0.2774
 6786SOL    HW121971   1.411   3.850   3.336  2.2165  0.0732  0.5583
 6786SOL    HW221972   1.387   3.746   3.228 -1.9672  0.8479  0.5800
 6787SOL     OW21973   0.411   3.878   6.246  1.0336  0.5369  0.0609
 6787SOL    HW121974   0.419   3.842   6.334 -0.8009 -1.7060 -0.5798
 6787SOL    HW221975   0.357   3.956   6.256  1.1092  0.4791  0.9589
 6788SOL     OW21976   6.878   8.761   5.869  0.1389  0.3207  0.2422
 6788SOL    HW121977   6.940   8.777   5.798 -0.5042 -1.2959 -0.7626
 6788SOL    HW221978   6.793   8.757   5.825 -0.3803  0.2278  1.2426
 6789SOL     OW21979   8.836   8.372   4.710  0.4053  0.4475 -0.2868
 6789SOL    HW121980   8.827   8.468   4.713 -0.4565  0.3611  0.0552
 6789SOL    HW221981   8.928   8.358   4.687 -0.0452  1.3692 -2.9374
 6790SOL     OW21982   0.018   6.573   5.605 -0.0141 -0.3780 -0.2140
 6790SOL    HW121983   0.013   6.576   5.700  1.2172 -1.0675 -0.1100
 6790SOL    HW221984   0.093   6.628   5.583 -0.2348 -0.3002 -0.7817
 6791SOL     OW21985   8.362   8.225   4.071  0.0070  0.6636  0.5285
 6791SOL    HW121986   8.416   8.196   4.144 -0.8102 -0.2102  0.8028
 6791SOL    HW221987   8.339   8.316   4.093  1.9893  1.3560  0.0094
 6792SOL     OW21988   0.172   7.710   0.606 -0.0957  0.0513 -0.6076
 6792SOL    HW121989   0.128   7.780   0.557  0.6048  0.5077 -0.5988
 6792SOL    HW221990   0.244   7.755   0.651 -0.4586 -0.4345  0.4803
 6793SOL     OW21991   9.327   5.728   0.558 -0.0621 -1.1253  0.6860
 6793SOL    HW121992   9.253   5.748   0.614  0.6242 -1.3905  1.7219
 6793SOL    HW221993   9.381   5.807   0.561 -0.8837 -0.4624 -1.0591
 6794SOL     OW21994   9.818   2.026   8.200 -0.4896  0.1178 -0.0843
 6794SOL    HW121995   9.862   2.012   8.116 -2.4357  1.9474 -1.4863
 6794SOL    HW221996   9.875   2.088   8.246  0.7231 -1.0916  0.1245
 6795SOL     OW21997   4.046   0.945   7.239  0.1054  0.2363  0.6396
 6795SOL    HW121998   4.079   1.021   7.288 -1.0354  0.4735  1.0560
 6795SOL    HW221999   3.960   0.973   7.207  0.0389 -0.5897  0.0750
 6796SOL     OW22000   8.342   0.133   7.822  0.1459  0.1186 -0.5707
 6796SOL    HW122001   8.374   0.215   7.784  1.0347  0.3397  0.5824
 6796SOL    HW222002   8.329   0.154   7.915 -0.3764 -0.8407 -0.4193
 6797SOL     OW22003   7.612   0.675   6.440 -0.0212  0.0803 -0.3814
 6797SOL    HW122004   7.619   0.614   6.367 -1.7670 -0.1300 -0.4251
 6797SOL    HW222005   7.630   0.622   6.518 -0.1869 -0.1700 -0.5138
 6798SOL     OW22006   6.261   2.457   7.878  0.2246  0.1408  0.3415
 6798SOL    HW122007   6.321   2.484   7.948  0.7943  0.1216 -0.1357
 6798SOL    HW222008   6.203   2.393   7.921 -0.3671  1.2059  1.1640
 6799SOL     OW22009   0.714   5.283   9.661  0.3513  0.0899 -0.3094
 6799SOL    HW122010   0.653   5.218   9.626 -0.0241  1.7886 -3.2094
 6799SOL    HW222011   0.677   5.367   9.633  1.2022  1.5689  2.6167
 6800SOL     OW22012   7.994   4.505   4.956  0.1040  0.1026  0.1660
 6800SOL    HW122013   7.904   4.518   4.927  0.1514  1.1854  0.4388
 6800SOL    HW222014   7.992   4.523   5.050  0.6245  0.3135  0.1422
 6801SOL     OW22015   7.622   3.543   8.575  0.8041 -0.1575  0.1794
 6801SOL    HW122016   7.530   3.550   8.550  1.2923 -0.1752 -1.7836
 6801SOL    HW222017   7.628   3.462   8.625 -0.1073 -0.5710 -0.3668
 6802SOL     OW22018   6.976   8.714   6.788  0.3138  0.7499 -0.0688
 6802SOL    HW122019   7.056   8.665   6.807  0.2527  0.6251 -0.1318
 6802SOL    HW222020   6.936   8.667   6.714 -0.7413 -0.2612  1.0927
 6803SOL     OW22021   2.338   9.152   3.039 -0.0612  0.1019 -0.0015
 6803SOL    HW122022   2.296   9.147   3.125  2.7848  2.2350  1.6786
 6803SOL    HW222023   2.407   9.086   3.043 -0.4602 -0.3962 -1.0563
 6804SOL     OW22024   1.906   4.502   2.590  0.0351 -0.1549 -0.0893
 6804SOL    HW122025   1.953   4.565   2.644  0.8018 -0.3428 -0.5172
 6804SOL    HW222026   1.968   4.431   2.576  0.0250  0.0905 -1.5779
 6805SOL     OW22027   7.614   4.913   3.250  0.2648 -0.0616 -0.5427
 6805SOL    HW122028   7.692   4.968   3.240  1.2739 -1.0230  1.4112
 6805SOL    HW222029   7.645   4.835   3.296 -1.5529 -1.2786 -1.2568
 6806SOL     OW22030   5.912   0.471   6.955 -0.2604  0.2261  0.1524
 6806SOL    HW122031   5.972   0.407   6.994 -1.6125 -0.3560  1.3823
 6806SOL    HW222032   5.968   0.526   6.900  1.3344 -0.4815  0.9960
 6807SOL     OW22033   0.015   4.694   0.756  0.3837  0.0488  0.4553
 6807SOL    HW122034   0.060   4.638   0.693  0.2797  1.2084 -0.6849
 6807SOL    HW222035  -0.062   4.726   0.710 -0.8501 -0.7308  1.8943
 6808SOL     OW22036   8.927   8.018   6.097  0.1600  0.0257  0.4162
 6808SOL    HW122037   8.857   7.956   6.077  0.9701 -0.6712 -0.3805
 6808SOL    HW222038   8.939   8.066   6.015  0.7986 -0.0685  0.4474
 6809SOL     OW22039   7.013   3.419   9.167 -0.3932 -0.2929  0.4520
 6809SOL    HW122040   7.053   3.489   9.218  3.2714 -1.2896 -0.7705
 6809SOL    HW222041   6.943   3.462   9.117  1.7996  2.5714 -0.3656
 6810SOL     OW22042   4.293   0.621   8.918 -1.0347  0.5471 -0.0572
 6810SOL    HW122043   4.347   0.550   8.953 -0.4061  1.2511  0.4044
 6810SOL    HW222044   4.305   0.615   8.823 -0.4498  0.4606  0.0213
 6811SOL     OW22045   5.577   8.112   1.929 -0.6179 -0.4346  0.4217
 6811SOL    HW122046   5.666   8.144   1.914 -0.7165 -0.4576 -0.2489
 6811SOL    HW222047   5.590   8.029   1.975 -0.2321 -0.9493 -0.5616
 6812SOL     OW22048   0.422   9.257   5.918  0.0571 -0.1806  0.0115
 6812SOL    HW122049   0.427   9.195   5.990  1.5599 -0.3270 -0.1929
 6812SOL    HW222050   0.501   9.242   5.867  0.1996  1.5509 -0.3509
 6813SOL     OW22051   7.981   1.618   0.299 -0.6380  0.4916  0.2925
 6813SOL    HW122052   7.930   1.634   0.378 -1.5786 -1.2384  0.0688
 6813SOL    HW222053   7.994   1.523   0.297  1.6077  0.7384 -0.2897
 6814SOL     OW22054   6.413   1.068   4.467 -0.2823 -0.6043  0.2112
 6814SOL    HW122055   6.372   1.106   4.544 -0.2864 -0.5635  0.1893
 6814SOL    HW222056   6.479   1.007   4.501  0.9914  0.7525  0.2807
 6815SOL     OW22057   5.605   5.969   0.599  0.1241 -0.3287 -0.1723
 6815SOL    HW122058   5.642   6.032   0.537 -0.1563 -1.5699 -1.6831
 6815SOL    HW222059   5.680   5.923   0.635  0.2151 -0.7486 -0.8893
 6816SOL     OW22060   4.271   3.504   9.605  0.0813  0.1851  0.0228
 6816SOL    HW122061   4.290   3.584   9.654 -1.4611  1.5220 -1.4406
 6816SOL    HW222062   4.341   3.498   9.540 -0.6032  1.2400 -0.8487
 6817SOL     OW22063   3.085   1.466   1.232 -0.2198  0.5393  0.5013
 6817SOL    HW122064   3.033   1.448   1.154  1.6247  0.2869 -0.7114
 6817SOL    HW222065   3.172   1.433   1.212  0.5683  1.3830  2.2871
 6818SOL     OW22066   4.800   8.352   0.487 -0.8001 -0.5081 -0.1678
 6818SOL    HW122067   4.867   8.394   0.541 -1.2789  0.1911 -0.1105
 6818SOL    HW222068   4.737   8.317   0.550 -1.9718  1.3106 -0.2434
 6819SOL     OW22069   7.262   5.570   7.244 -0.4195  0.2058 -0.4508
 6819SOL    HW122070   7.263   5.610   7.331 -0.5393 -0.7103 -0.0182
 6819SOL    HW222071   7.315   5.491   7.253 -0.3266  0.1683 -1.2461
 6820SOL     OW22072   5.408   1.765   0.529  0.7081  0.9540  0.1835
 6820SOL    HW122073   5.441   1.816   0.455  1.7445 -0.2619 -0.2329
 6820SOL    HW222074   5.478   1.768   0.594  0.7714  0.1008  0.1633
 6821SOL     OW22075   3.536   6.120   9.323 -0.2131  0.1284  0.3831
 6821SOL    HW122076   3.455   6.141   9.368 -0.5497  0.2983 -0.2880
 6821SOL    HW222077   3.514   6.125   9.230  1.0576  2.3330  0.1122
 6822SOL     OW22078   7.685   3.973   0.713 -0.0114  0.0413 -0.2952
 6822SOL    HW122079   7.709   3.999   0.802 -0.1224 -1.4336  0.1920
 6822SOL    HW222080   7.715   4.046   0.658  2.1781 -0.0407  0.6881
 6823SOL     OW22081   1.046   5.817   4.620  0.4478 -0.0815 -0.4012
 6823SOL    HW122082   0.981   5.809   4.690  0.4634 -1.1141 -0.4859
 6823SOL    HW222083   0.999   5.795   4.540  0.6935 -0.0078 -0.5681
 6824SOL     OW22084   1.169   5.512   8.653  0.6634 -0.0290  0.2908
 6824SOL    HW122085   1.204   5.423   8.660  0.2070 -0.2239  0.1309
 6824SOL    HW222086   1.236   5.567   8.694  1.7548 -0.2465 -1.1438
 6825SOL     OW22087   4.796   9.231   7.667 -0.1946  0.2849  0.2189
 6825SOL    HW122088   4.828   9.152   7.710 -1.2723  0.0718  0.6697
 6825SOL    HW222089   4.822   9.303   7.725 -1.4724  0.0168  1.1592
 6826SOL     OW22090   7.176   3.062   3.321 -0.3872 -0.3329 -0.3027
 6826SOL    HW122091   7.195   3.074   3.228 -0.7643  0.8459 -0.2493
 6826SOL    HW222092   7.105   2.997   3.323 -0.9221  0.2172 -0.8971
 6827SOL     OW22093   3.522   6.738   5.833  0.0996 -0.4170 -0.3665
 6827SOL    HW122094   3.439   6.747   5.880  0.7031 -0.9529  0.8665
 6827SOL    HW222095   3.502   6.679   5.760 -1.2251  1.6755 -1.8117
 6828SOL     OW22096   9.212   0.043   0.683  0.4056  0.1413 -0.0638
 6828SOL    HW122097   9.278  -0.023   0.703 -0.5016 -0.4984  0.9401
 6828SOL    HW222098   9.184   0.023   0.594 -1.0373 -1.9234  0.7755
 6829SOL     OW22099   8.871   7.081   3.778  0.4040 -0.0591  0.3494
 6829SOL    HW122100   8.905   7.096   3.690  1.0664  2.0659  0.8930
 6829SOL    HW222101   8.905   6.995   3.803  0.4041 -0.5769 -1.3660
 6830SOL     OW22102   7.164   1.201   5.979  0.3231  0.3173 -0.3296
 6830SOL    HW122103   7.215   1.121   5.993 -1.0790 -0.6261 -0.3706
 6830SOL    HW222104   7.148   1.203   5.885 -1.3094 -0.4541 -0.0998
 6831SOL     OW22105   0.142   9.377   1.536  0.5472 -0.0583 -0.3186
 6831SOL    HW122106   0.222   9.370   1.589  1.1479  1.3110 -1.0092
 6831SOL    HW222107   0.172   9.366   1.446  0.0660  1.0710 -0.6287
 6832SOL     OW22108   2.738   2.660   3.034 -0.1691  0.0284 -0.0936
 6832SOL    HW122109   2.659   2.609   3.015 -0.4463  0.4729 -0.1358
 6832SOL    HW222110   2.734   2.734   2.973  0.4861 -0.1606 -0.3799
 6833SOL     OW22111   5.869   5.715   0.154  0.4984 -0.4528 -0.6827
 6833SOL    HW122112   5.861   5.755   0.067  3.4580  1.6578 -0.1549
 6833SOL    HW222113   5.841   5.784   0.214  1.5707 -0.6762  0.1036
 6834SOL     OW22114   5.644   1.848   5.679  0.1521  0.1522  0.1903
 6834SOL    HW122115   5.603   1.925   5.640 -0.3410  0.7441  1.7913
 6834SOL    HW222116   5.732   1.877   5.702 -0.3437  0.5561  1.6529
 6835SOL     OW22117   8.383   8.040   3.563  0.6449  0.3851 -0.0890
 6835SOL    HW122118   8.289   8.026   3.551  1.0502 -1.0544 -2.2125
 6835SOL    HW222119   8.415   8.065   3.476  2.1513  1.5508  0.7411
 6836SOL     OW22120   1.490   8.109   7.976  0.2412 -0.2871  0.7518
 6836SOL    HW122121   1.485   8.189   8.028  1.2032 -0.9250  1.8636
 6836SOL    HW222122   1.401   8.098   7.941  0.1235  1.3219  0.4484
 6837SOL     OW22123   0.660   8.985   1.511  0.1905  0.4669  0.0336
 6837SOL    HW122124   0.754   8.964   1.513  0.4180  1.3822 -0.5009
 6837SOL    HW222125   0.649   9.040   1.433 -0.4505  1.8796  1.0633
 6838SOL     OW22126   2.844   4.943   6.938  0.0659 -0.2915  0.4654
 6838SOL    HW122127   2.807   4.865   6.898 -0.3596 -0.7538  1.7040
 6838SOL    HW222128   2.848   5.007   6.868  1.7306 -1.8250 -0.9676
 6839SOL     OW22129   9.213   9.415   0.774  0.2851  0.1776  0.3739
 6839SOL    HW122130   9.140   9.400   0.714  2.1790  0.1851 -2.0810
 6839SOL    HW222131   9.227   9.330   0.816 -1.5029  0.3442  1.4112
 6840SOL     OW22132   3.195   1.260   3.748 -0.1427 -0.0473  0.1490
 6840SOL    HW122133   3.134   1.333   3.734  1.6875  1.5783  0.0595
 6840SOL    HW222134   3.271   1.301   3.791 -0.0083 -2.3844  2.3598
 6841SOL     OW22135   9.489   1.949   8.481  0.4020 -0.5310  0.2882
 6841SOL    HW122136   9.518   1.965   8.571 -0.9868  0.6507  0.5665
 6841SOL    HW222137   9.567   1.916   8.436  1.4479  0.0239  1.6193
 6842SOL     OW22138   4.572   3.916   8.620 -0.0752 -0.4462  0.0815
 6842SOL    HW122139   4.624   3.840   8.594 -0.8733 -1.0075  0.1200
 6842SOL    HW222140   4.520   3.938   8.543 -1.2546 -1.1276  0.6508
 6843SOL     OW22141   2.255   3.856   2.094  0.0947  0.0153  0.5492
 6843SOL    HW122142   2.272   3.816   2.179 -0.5584  0.0040  0.6818
 6843SOL    HW222143   2.341   3.878   2.059  0.3712 -0.1329  1.1404
 6844SOL     OW22144   4.626   5.698   0.820 -0.5719  0.6019 -0.4724
 6844SOL    HW122145   4.568   5.758   0.772 -1.7693  0.4450  0.7008
 6844SOL    HW222146   4.662   5.752   0.891 -0.8663  0.1977 -0.0073
 6845SOL     OW22147   0.870   7.290   1.441  0.2092  0.1928 -0.4801
 6845SOL    HW122148   0.921   7.227   1.391  2.0351  1.3943 -0.2123
 6845SOL    HW222149   0.892   7.375   1.404 -2.5253  0.7343 -1.1202
 6846SOL     OW22150   3.290   4.310   1.942  0.6207  0.0772 -0.0297
 6846SOL    HW122151   3.251   4.242   1.888  1.6503 -0.0055 -0.7051
 6846SOL    HW222152   3.239   4.309   2.023  0.6112 -1.4790 -0.0300
 6847SOL     OW22153   7.224   1.974   3.617  0.9297  0.5541  0.7421
 6847SOL    HW122154   7.276   1.932   3.548 -0.6725  1.0160 -0.8234
 6847SOL    HW222155   7.207   1.903   3.679  1.0796 -0.3070 -0.1528
 6848SOL     OW22156   8.733   8.682   1.030  0.4045 -0.0477  0.5588
 6848SOL    HW122157   8.818   8.684   0.985  0.6937 -1.5789  0.9665
 6848SOL    HW222158   8.696   8.597   1.007 -0.3116 -0.0570  1.6609
 6849SOL     OW22159   4.155   8.019   0.170 -0.4644 -0.2257 -0.1356
 6849SOL    HW122160   4.157   8.085   0.101 -2.1230 -0.7818 -0.7626
 6849SOL    HW222161   4.200   7.944   0.133  0.4804  0.1595  0.1875
 6850SOL     OW22162   6.720   8.959   5.486  0.6195 -0.5575  0.0185
 6850SOL    HW122163   6.678   9.039   5.517  1.7843  0.2986 -0.5340
 6850SOL    HW222164   6.661   8.926   5.418 -0.1016 -0.4441  0.5721
 6851SOL     OW22165   8.559   0.591   8.822  0.2406  0.4178 -0.0922
 6851SOL    HW122166   8.577   0.626   8.735 -0.0783  1.6843  0.3248
 6851SOL    HW222167   8.627   0.630   8.877  1.5794 -1.8109 -0.0565
 6852SOL     OW22168   7.713   2.531   4.010 -0.1102  0.1708  0.9316
 6852SOL    HW122169   7.633   2.528   3.958 -0.2622 -0.0101  1.1726
 6852SOL    HW222170   7.772   2.468   3.968 -0.0806  0.3301  0.7338
 6853SOL     OW22171   6.353   5.660   6.434  0.1192 -0.2558 -0.1719
 6853SOL    HW122172   6.329   5.576   6.473 -2.0106  2.2675  4.7605
 6853SOL    HW222173   6.270   5.700   6.408  0.5432  1.9514  1.5715
 6854SOL     OW22174   0.369   4.554   7.589 -0.4987  1.2105  0.2546
 6854SOL    HW122175   0.451   4.602   7.578 -1.1953  2.1311 -1.2366
 6854SOL    HW222176   0.315   4.610   7.646 -0.1596  0.6522  1.1527
 6855SOL     OW22177   5.461   6.514   4.262  0.2094 -0.0227  0.2280
 6855SOL    HW122178   5.476   6.572   4.187 -2.9290  0.0579 -0.4537
 6855SOL    HW222179   5.451   6.427   4.222 -0.6449 -0.1124  0.6237
 6856SOL     OW22180   6.563   4.158   4.407  0.1233 -0.1760 -0.3922
 6856SOL    HW122181   6.474   4.127   4.421  0.3779  0.2143  2.5971
 6856SOL    HW222182   6.607   4.086   4.360 -1.0153 -1.5594  0.5931
 6857SOL     OW22183   8.183   3.396   0.792 -0.2588  0.2162  0.0941
 6857SOL    HW122184   8.194   3.475   0.844  1.5074 -0.1835  0.3963
 6857SOL    HW222185   8.129   3.423   0.718  0.2449  1.6755  0.2273
 6858SOL     OW22186   6.619   5.861   3.053  0.3697 -0.0021  0.1185
 6858SOL    HW122187   6.578   5.899   2.975  2.8820  1.0929 -0.7764
 6858SOL    HW222188   6.612   5.767   3.040 -1.9841  0.0916  0.1699
 6859SOL     OW22189   9.126   5.653   0.332  0.2754 -0.7674  0.3316
 6859SOL    HW122190   9.112   5.560   0.353 -1.4276 -0.4559  0.7228
 6859SOL    HW222191   9.119   5.698   0.416  0.4423 -0.2215  0.0534
 6860SOL     OW22192   2.374   3.375   1.986  0.2190  0.4634 -0.0307
 6860SOL    HW122193   2.377   3.280   1.974  1.6100  0.6034 -1.0815
 6860SOL    HW222194   2.281   3.396   1.980 -0.0876 -0.7977 -0.0959
 6861SOL     OW22195   2.316   5.620   1.537  0.5415 -0.1704  0.7205
 6861SOL    HW122196   2.252   5.681   1.572  0.2321 -1.1736  1.9805
 6861SOL    HW222197   2.311   5.631   1.442  0.3154  1.5510  0.9071
 6862SOL     OW22198   9.043   4.813   7.709  0.1030 -0.0630  0.0812
 6862SOL    HW122199   8.950   4.815   7.689 -0.0027 -0.6973  0.4941
 6862SOL    HW222200   9.048   4.786   7.800  0.5971  2.3012  0.8236
 6863SOL     OW22201   8.049   7.001   4.165  0.3350 -0.3629  0.7240
 6863SOL    HW122202   7.960   7.007   4.198 -0.3486 -1.0785 -0.8662
 6863SOL    HW222203   8.071   7.091   4.137 -0.6501 -0.5233 -0.6634
 6864SOL     OW22204   3.021   3.056   4.729  0.6520 -0.0167  0.5304
 6864SOL    HW122205   2.954   3.042   4.796 -0.3661 -0.1160 -0.4684
 6864SOL    HW222206   3.098   3.011   4.762  0.7952  1.5931  2.5429
 6865SOL     OW22207   1.710   0.218   4.608 -0.1787 -0.1960 -0.1928
 6865SOL    HW122208   1.673   0.299   4.572 -1.7722 -1.0135 -0.4771
 6865SOL    HW222209   1.634   0.168   4.638  0.5739 -2.3522 -1.6266
 6866SOL     OW22210   3.585   7.985   3.287 -0.1438 -0.3824 -0.5834
 6866SOL    HW122211   3.568   7.977   3.193 -0.6502 -0.5492 -0.4829
 6866SOL    HW222212   3.508   7.945   3.329 -0.6333  1.0051 -0.0875
 6867SOL     OW22213   7.070   3.917   8.346  1.0202  0.0920 -0.5730
 6867SOL    HW122214   7.164   3.928   8.334  1.2508 -0.5065  0.5382
 6867SOL    HW222215   7.048   3.976   8.418  0.3045  1.1127 -1.5808
 6868SOL     OW22216   8.254   1.509   2.722 -0.2424  0.3086  0.0983
 6868SOL    HW122217   8.222   1.460   2.647 -0.0523 -0.4476  0.5058
 6868SOL    HW222218   8.291   1.589   2.685 -1.2424  0.5073 -0.5066
 6869SOL     OW22219   7.961   1.314   2.275  0.4834  0.1482 -0.0378
 6869SOL    HW122220   8.025   1.269   2.220  0.2036  1.2268 -1.2804
 6869SOL    HW222221   7.935   1.391   2.224 -1.8702 -0.2897  0.4066
 6870SOL     OW22222   3.527   4.553   5.671 -0.7346 -0.6031  0.3691
 6870SOL    HW122223   3.573   4.470   5.671 -0.7165 -0.7872 -3.5278
 6870SOL    HW222224   3.596   4.620   5.666 -0.6922 -0.7348 -2.2199
 6871SOL     OW22225   6.741   4.841   8.215 -0.4737 -0.2401 -0.4001
 6871SOL    HW122226   6.647   4.839   8.233 -0.0113 -0.4373  2.3883
 6871SOL    HW222227   6.757   4.929   8.178 -1.5971  0.1983  0.1209
 6872SOL     OW22228   5.833   9.534   7.895 -0.0720  0.0412 -0.1476
 6872SOL    HW122229   5.889   9.518   7.971 -0.2135  1.2672  0.2297
 6872SOL    HW222230   5.744   9.524   7.928 -0.1300  0.3021 -0.2257
 6873SOL     OW22231   7.322   2.172   6.813  0.1660 -0.3019 -0.0510
 6873SOL    HW122232   7.326   2.261   6.777 -1.1208 -0.4867 -0.6956
 6873SOL    HW222233   7.326   2.185   6.908  1.7061  0.3155 -0.1715
 6874SOL     OW22234   9.023   8.044   5.580  0.3846 -0.3701  0.5034
 6874SOL    HW122235   8.963   7.975   5.551  0.4091  0.5099 -1.8701
 6874SOL    HW222236   8.976   8.125   5.561  1.7158  0.3136  0.0065
 6875SOL     OW22237   4.818   1.228   4.408  0.2198 -0.0927 -0.1661
 6875SOL    HW122238   4.857   1.272   4.333  1.6978  1.8587  1.6288
 6875SOL    HW222239   4.849   1.137   4.401  0.1097 -0.0191 -2.0053
 6876SOL     OW22240   5.602   7.436   2.407  0.3862  0.2430  0.6189
 6876SOL    HW122241   5.552   7.413   2.329  0.5673  1.0686  0.2574
 6876SOL    HW222242   5.536   7.463   2.471  0.3894  2.9857 -0.3989
 6877SOL     OW22243   9.706   9.245   6.332  0.0809 -0.0524 -0.8286
 6877SOL    HW122244   9.688   9.156   6.364  1.1384 -0.2984 -0.8787
 6877SOL    HW222245   9.670   9.246   6.244  1.3411 -0.9403 -1.3985
 6878SOL     OW22246   2.713   5.601   9.223 -0.1661  0.1880 -0.2313
 6878SOL    HW122247   2.691   5.664   9.154  1.1614  0.4392 -0.4471
 6878SOL    HW222248   2.800   5.568   9.199 -0.5107 -1.1799  0.2815
 6879SOL     OW22249   4.807   3.560   6.088  0.3374  0.0614  0.3717
 6879SOL    HW122250   4.780   3.643   6.128  1.1566 -0.5000  2.1821
 6879SOL    HW222251   4.743   3.496   6.121 -0.1047 -0.1075 -0.7684
 6880SOL     OW22252   4.830   7.669   9.419  0.0148  0.2078 -0.1804
 6880SOL    HW122253   4.795   7.755   9.442  0.9442  0.6399 -0.3607
 6880SOL    HW222254   4.823   7.665   9.324 -1.3613 -0.5170 -0.0863
 6881SOL     OW22255   4.262   1.849   3.778 -0.3506 -0.2480  0.1514
 6881SOL    HW122256   4.348   1.891   3.780 -0.0469 -0.8556  2.2721
 6881SOL    HW222257   4.264   1.796   3.698  0.9931  0.2220 -0.1706
 6882SOL     OW22258   1.352   0.168   3.152  0.6104 -0.1372  0.5060
 6882SOL    HW122259   1.356   0.214   3.068  1.9625 -1.0225  0.0504
 6882SOL    HW222260   1.333   0.077   3.129  1.9934 -0.5940  1.0484
 6883SOL     OW22261   8.962   3.706   2.657 -0.0952 -0.0599  0.2651
 6883SOL    HW122262   8.962   3.773   2.589 -0.3958 -0.2689  0.0558
 6883SOL    HW222263   9.018   3.742   2.726 -0.9140  0.7773  0.5172
 6884SOL     OW22264   2.021   8.999   0.981 -0.1003 -0.0319 -0.0220
 6884SOL    HW122265   2.064   9.001   1.066 -1.1591 -2.5486  0.6550
 6884SOL    HW222266   1.930   9.020   0.999 -0.0418  0.9605 -0.7920
 6885SOL     OW22267   6.749   2.192   2.160 -0.2759  0.5039 -0.1584
 6885SOL    HW122268   6.803   2.259   2.119 -0.3841  0.8277  0.2191
 6885SOL    HW222269   6.712   2.235   2.238 -0.1003 -0.0828  0.2570
 6886SOL     OW22270   6.031   1.025   9.109  0.7602 -0.3480  0.3513
 6886SOL    HW122271   6.062   1.109   9.143  0.3882 -0.3648  0.7534
 6886SOL    HW222272   5.958   1.002   9.167  1.4877 -1.4302  0.8688
 6887SOL     OW22273   4.087   2.949   4.406 -0.3198  0.2606 -0.5821
 6887SOL    HW122274   4.088   3.026   4.349 -0.2515  0.0395 -0.8829
 6887SOL    HW222275   4.172   2.907   4.392  1.6257  2.5498  2.9551
 6888SOL     OW22276   0.260   2.003   6.458 -0.2782 -0.1953  0.4152
 6888SOL    HW122277   0.185   1.970   6.408  0.2355 -1.4256  0.4139
 6888SOL    HW222278   0.261   1.948   6.537 -0.0083  0.5231  0.9148
 6889SOL     OW22279   3.541   0.571   6.404  0.3114  0.0328 -0.0203
 6889SOL    HW122280   3.533   0.663   6.380  0.1351  0.3174  1.0813
 6889SOL    HW222281   3.523   0.524   6.323 -1.1222  0.9387 -0.2613
 6890SOL     OW22282   0.962   3.194   4.643  0.5888 -0.7997  0.4024
 6890SOL    HW122283   0.909   3.148   4.578 -0.7725  0.9820  0.1897
 6890SOL    HW222284   1.004   3.265   4.594  1.0495 -0.5789  1.1066
 6891SOL     OW22285   9.451   8.038   3.152 -0.3969  0.0098 -0.3044
 6891SOL    HW122286   9.518   8.018   3.217  1.5680 -0.1083 -2.2344
 6891SOL    HW222287   9.457   7.966   3.089 -2.2036  0.1365 -0.6527
 6892SOL     OW22288   4.495   4.691   2.303  0.0954  0.1068  0.0863
 6892SOL    HW122289   4.519   4.763   2.245  2.4613  0.1720  0.9998
 6892SOL    HW222290   4.460   4.623   2.245  0.5278  0.9054 -1.1444
 6893SOL     OW22291   1.721   8.507   7.112 -1.0036 -0.1229  0.5010
 6893SOL    HW122292   1.781   8.510   7.187 -0.5663  0.2936  0.1401
 6893SOL    HW222293   1.727   8.417   7.080  1.6587  0.5838 -1.2991
 6894SOL     OW22294   8.202   1.871   2.870  0.2277  0.3139  0.2877
 6894SOL    HW122295   8.204   1.813   2.793  0.4753  0.4259  0.2101
 6894SOL    HW222296   8.280   1.924   2.862 -0.4578  1.2918 -0.1204
 6895SOL     OW22297   4.665   7.062   7.285 -0.4771  0.0703  0.0204
 6895SOL    HW122298   4.748   7.039   7.326 -1.5281  0.5110  2.5451
 6895SOL    HW222299   4.661   7.007   7.206  0.5960 -2.6503  1.7345
 6896SOL     OW22300   9.609   1.930   2.439  0.2024  0.2546 -0.0217
 6896SOL    HW122301   9.520   1.900   2.423  0.2846  0.4939 -1.0761
 6896SOL    HW222302   9.645   1.869   2.503 -0.3516 -0.5262 -0.4362
 6897SOL     OW22303   0.844   0.306   8.034  0.2668  0.1378  0.1681
 6897SOL    HW122304   0.831   0.286   8.127 -0.0887  0.4551  0.1883
 6897SOL    HW222305   0.926   0.262   8.012  0.6209  0.4872  0.7593
 6898SOL     OW22306   5.451   6.942   9.763 -0.5656 -0.7351 -0.2302
 6898SOL    HW122307   5.466   7.036   9.756 -0.9861 -0.5815  0.8257
 6898SOL    HW222308   5.514   6.903   9.702 -1.2408  0.2788 -1.6383
 6899SOL     OW22309   4.593   1.844   4.810  0.0042  0.2556  0.2658
 6899SOL    HW122310   4.652   1.806   4.745 -0.9202 -0.0082 -0.4437
 6899SOL    HW222311   4.592   1.781   4.881  1.3130  0.7184  0.7375
 6900SOL     OW22312   8.686   3.998   0.404 -0.8153  0.4704  0.3050
 6900SOL    HW122313   8.641   4.077   0.434 -2.0435  0.0227 -0.2788
 6900SOL    HW222314   8.703   3.949   0.484  0.3930  1.5162  0.7251
 6901SOL     OW22315   6.334   6.558   5.077 -0.3266 -0.1432 -0.0549
 6901SOL    HW122316   6.243   6.534   5.058 -0.5734 -0.2704  1.2048
 6901SOL    HW222317   6.332   6.591   5.167  0.7001  0.8387 -0.3698
 6902SOL     OW22318   2.309   2.444   9.308 -0.1227 -0.3816 -0.2480
 6902SOL    HW122319   2.250   2.368   9.315  0.0296 -0.5328 -0.5940
 6902SOL    HW222320   2.327   2.468   9.399  1.1806 -1.8237 -0.0759
 6903SOL     OW22321   2.569   8.211   8.315  0.6867 -0.2661  0.2200
 6903SOL    HW122322   2.584   8.213   8.221  0.8648 -1.8396  0.1905
 6903SOL    HW222323   2.654   8.230   8.353  1.4793 -3.0430  0.0319
 6904SOL     OW22324   9.558   8.885   9.146 -1.1661 -0.0916  0.4097
 6904SOL    HW122325   9.571   8.953   9.080 -1.1768  0.3061  0.8127
 6904SOL    HW222326   9.588   8.804   9.103 -0.7268  0.2361  0.0866
 6905SOL     OW22327   8.477   4.621   5.806 -0.8324  0.0963 -0.1508
 6905SOL    HW122328   8.494   4.528   5.824 -1.1291  0.3497  1.6185
 6905SOL    HW222329   8.396   4.621   5.756 -0.0149 -0.6653 -1.5432
 6906SOL     OW22330   2.503   0.370   2.176  0.1806  0.1241  0.3342
 6906SOL    HW122331   2.449   0.435   2.222 -0.8667  0.1735 -0.9101
 6906SOL    HW222332   2.441   0.321   2.122  1.2719 -0.4002 -0.4825
 6907SOL     OW22333   3.323   1.227   9.677  0.4699  0.5052 -0.6210
 6907SOL    HW122334   3.283   1.145   9.648  0.8737  0.1232 -0.1255
 6907SOL    HW222335   3.274   1.250   9.756  1.5232 -0.2423  0.2946
 6908SOL     OW22336   4.695   9.247   6.356 -0.1045 -0.2138 -0.2091
 6908SOL    HW122337   4.704   9.176   6.291 -1.5739 -0.7600  0.1481
 6908SOL    HW222338   4.762   9.227   6.422  1.6469  0.5321 -1.6654
 6909SOL     OW22339   7.684   4.922   0.289 -0.1740 -0.3332 -0.4459
 6909SOL    HW122340   7.683   4.987   0.360 -3.2928 -0.7963  0.0635
 6909SOL    HW222341   7.723   4.844   0.329 -0.9911 -0.2776  0.5076
 6910SOL     OW22342   3.558   7.883   4.794  0.2126  0.1952  0.1110
 6910SOL    HW122343   3.503   7.921   4.726 -0.1320  1.3342  0.9897
 6910SOL    HW222344   3.571   7.792   4.767  0.3477  0.6975 -1.6111
 6911SOL     OW22345   8.427   6.417   2.565 -0.2579 -0.0737  0.1325
 6911SOL    HW122346   8.334   6.403   2.579 -0.0162 -0.8284  1.1406
 6911SOL    HW222347   8.454   6.344   2.508 -0.7238  1.5110 -2.2531
 6912SOL     OW22348   2.494   6.456   0.472 -0.3395  0.5476 -0.0138
 6912SOL    HW122349   2.473   6.523   0.537  1.1590  1.3637 -0.3228
 6912SOL    HW222350   2.583   6.477   0.444  0.4057 -1.8813  0.2683
 6913SOL     OW22351   0.888   2.405   3.330 -0.7868  0.1895 -0.3064
 6913SOL    HW122352   0.864   2.313   3.324 -2.3983  0.4880  0.7987
 6913SOL    HW222353   0.804   2.451   3.336  0.0125  1.5828  0.8059
 6914SOL     OW22354   6.522   5.260   9.386  0.4489 -0.7264 -0.1188
 6914SOL    HW122355   6.501   5.297   9.300  2.1122  0.6971  0.0403
 6914SOL    HW222356   6.617   5.273   9.395  0.2675 -0.5760  2.0467
 6915SOL     OW22357   0.088   7.743   2.170 -0.2547 -0.0904  0.2800
 6915SOL    HW122358   0.056   7.692   2.095 -2.1966  1.2925  0.0734
 6915SOL    HW222359   0.043   7.828   2.161  1.1056  0.8525  1.8530
 6916SOL     OW22360   0.766   6.822   7.958  0.3462  0.3710  0.6069
 6916SOL    HW122361   0.772   6.754   8.026 -1.2582 -1.1045 -0.6255
 6916SOL    HW222362   0.672   6.835   7.946  0.6054  1.1952 -0.7604
 6917SOL     OW22363   1.017   7.573   0.644 -0.2209  0.4723 -0.3662
 6917SOL    HW122364   1.067   7.506   0.690  1.6227  0.1188 -2.6833
 6917SOL    HW222365   0.930   7.534   0.632 -0.4576  0.2149  1.8518
 6918SOL     OW22366   6.158   4.267   1.093 -0.0676 -0.0126 -0.4528
 6918SOL    HW122367   6.144   4.292   1.002 -0.9074  1.1325 -0.0463
 6918SOL    HW222368   6.250   4.286   1.109 -0.0552  0.3317 -0.9092
 6919SOL     OW22369   3.151   6.065   6.429  0.4053 -0.2161 -0.1218
 6919SOL    HW122370   3.237   6.087   6.465 -0.5019  0.5876  1.7255
 6919SOL    HW222371   3.122   6.146   6.388  1.3020 -1.0446 -2.5391
 6920SOL     OW22372   8.369   7.389   6.822  0.0916 -0.6694  0.4559
 6920SOL    HW122373   8.408   7.437   6.749  1.6249 -1.3486  0.7963
 6920SOL    HW222374   8.414   7.305   6.823 -0.4415 -0.9615  1.7285
 6921SOL     OW22375   1.620   4.317   8.223  0.2991 -0.1021 -0.2241
 6921SOL    HW122376   1.679   4.369   8.168 -0.9486  1.3997 -0.1977
 6921SOL    HW222377   1.646   4.339   8.313 -0.2856  0.5939 -0.2117
 6922SOL     OW22378   3.968   6.992   7.459 -0.1343 -0.0269  0.1382
 6922SOL    HW122379   3.993   6.907   7.495  0.9445 -0.2002 -0.9761
 6922SOL    HW222380   3.985   6.985   7.365 -0.8136  1.1480 -0.0912
 6923SOL     OW22381   3.464   4.355   7.838  0.0167 -0.1686  0.2922
 6923SOL    HW122382   3.496   4.302   7.911  0.6648 -0.1291  0.0413
 6923SOL    HW222383   3.402   4.298   7.792  0.9349 -0.8322 -0.1547
 6924SOL     OW22384   4.535   8.145   6.405  0.3032 -0.0685  0.2704
 6924SOL    HW122385   4.522   8.240   6.415 -1.0134 -0.1436 -0.4867
 6924SOL    HW222386   4.482   8.122   6.329  0.1210 -1.5209  0.8123
 6925SOL     OW22387   6.519   7.026   1.500 -0.2060  0.8658 -0.3284
 6925SOL    HW122388   6.508   6.984   1.586 -2.3974  0.2178 -0.8483
 6925SOL    HW222389   6.516   6.953   1.438  2.9713  1.1359 -0.9695
 6926SOL     OW22390   2.279   5.200   5.291 -0.0056 -0.0273 -0.2781
 6926SOL    HW122391   2.263   5.111   5.320 -0.7124 -0.8245 -2.8577
 6926SOL    HW222392   2.350   5.192   5.227  0.6324  1.4315  0.1915
 6927SOL     OW22393   9.841   5.063   8.100  0.4847  0.3412 -0.2032
 6927SOL    HW122394   9.764   5.037   8.050  0.4983  0.6808 -0.4018
 6927SOL    HW222395   9.861   4.987   8.155  0.0410  0.2347 -0.1885
 6928SOL     OW22396   5.840   2.265   2.256 -0.6218  0.3404  0.2434
 6928SOL    HW122397   5.933   2.286   2.262 -0.9108  1.3563  1.8332
 6928SOL    HW222398   5.832   2.178   2.296 -0.4589  0.6563  0.9825
 6929SOL     OW22399   0.914   1.531   1.687 -0.3423  0.8874  0.2628
 6929SOL    HW122400   0.983   1.499   1.629  0.3424  2.4948  0.1438
 6929SOL    HW222401   0.847   1.463   1.684  2.0694 -1.7444  2.0289
 6930SOL     OW22402   5.130   9.776   3.304  0.5747 -0.5054 -0.1071
 6930SOL    HW122403   5.209   9.725   3.283  0.3581 -0.4470 -1.0702
 6930SOL    HW222404   5.144   9.803   3.395  2.1157  0.3152 -0.5455
 6931SOL     OW22405   6.337   4.633   4.410  0.3895 -0.2255  0.7425
 6931SOL    HW122406   6.402   4.690   4.369  0.0351  0.2950  0.8845
 6931SOL    HW222407   6.373   4.545   4.402  0.4376 -0.1107 -0.4628
 6932SOL     OW22408   0.531   4.783   6.852 -0.7940 -0.3325 -0.0506
 6932SOL    HW122409   0.567   4.697   6.873 -0.8677 -0.1852  0.6708
 6932SOL    HW222410   0.464   4.799   6.918  1.4842  1.7280  1.9618
 6933SOL     OW22411   3.044   9.719   9.363 -0.2312  0.3782 -0.2420
 6933SOL    HW122412   3.055   9.761   9.449 -0.3134 -1.9102  0.9733
 6933SOL    HW222413   2.978   9.651   9.379 -0.1521 -0.1803 -2.1089
 6934SOL     OW22414   1.263   1.747   9.049 -0.2458 -0.0242 -0.5118
 6934SOL    HW122415   1.338   1.803   9.030  0.2537 -0.2892  0.6094
 6934SOL    HW222416   1.187   1.797   9.019 -0.1095  2.5178  2.7867
 6935SOL     OW22417   7.699   9.318   3.441 -0.1820  0.6133  0.4624
 6935SOL    HW122418   7.768   9.352   3.498 -0.7497  1.2753  0.7722
 6935SOL    HW222419   7.667   9.240   3.487 -0.3813  0.9278  0.8591
 6936SOL     OW22420   8.856   3.586   8.187 -0.1499  0.4671 -0.6773
 6936SOL    HW122421   8.846   3.648   8.115  2.2600 -0.1832 -1.6364
 6936SOL    HW222422   8.800   3.622   8.257 -0.4590  2.5503 -1.9216
 6937SOL     OW22423   5.800   8.367   6.032 -0.4745 -0.4094 -0.0781
 6937SOL    HW122424   5.889   8.336   6.052  0.0483  1.0127 -0.0934
 6937SOL    HW222425   5.798   8.458   6.063 -2.8328 -1.2052  2.5050
 6938SOL     OW22426   5.533   7.240   0.460  0.3511 -0.0575  0.1197
 6938SOL    HW122427   5.514   7.238   0.366  1.4021  0.8413 -0.1250
 6938SOL    HW222428   5.497   7.323   0.491 -0.7102 -0.7088  0.6925
 6939SOL     OW22429   6.641   2.853   5.107 -0.8005  0.3439 -0.1055
 6939SOL    HW122430   6.599   2.768   5.094  0.2454 -0.3170  0.6604
 6939SOL    HW222431   6.573   2.909   5.143 -1.5619 -0.1032 -0.8320
 6940SOL     OW22432   6.927   4.008   1.414  0.0973 -0.1200  0.3856
 6940SOL    HW122433   7.017   4.033   1.436 -0.5423  1.7458  1.0511
 6940SOL    HW222434   6.887   3.987   1.498  0.0603 -1.6263  0.0235
 6941SOL     OW22435   1.537   5.481   3.555  0.3795  0.4240 -0.2849
 6941SOL    HW122436   1.579   5.512   3.635 -0.4904  1.4959 -0.2111
 6941SOL    HW222437   1.601   5.422   3.515  0.4415 -0.9089  1.6674
 6942SOL     OW22438   5.569   1.905   5.268  0.9048 -0.3246 -0.3641
 6942SOL    HW122439   5.664   1.909   5.257  1.1787 -1.5022  1.3039
 6942SOL    HW222440   5.542   1.996   5.275  1.9542  0.0051 -0.4355
 6943SOL     OW22441   9.144   7.919   0.365  0.1001  0.3030  0.0397
 6943SOL    HW122442   9.113   7.936   0.277 -0.5739  1.0598  0.4095
 6943SOL    HW222443   9.079   7.961   0.422 -0.4663 -1.6997  0.9624
 6944SOL     OW22444   8.707   6.881   2.108  0.2980 -0.0306 -0.0864
 6944SOL    HW122445   8.801   6.864   2.118  0.9054  2.1212 -1.5231
 6944SOL    HW222446   8.701   6.975   2.092 -2.2094  0.0442  0.8041
 6945SOL     OW22447   3.317   9.809   7.063 -0.1928 -0.3597  0.8683
 6945SOL    HW122448   3.263   9.841   6.990 -0.3210  1.0767  1.5620
 6945SOL    HW222449   3.352   9.888   7.103  2.8332 -1.2254  0.1821
 6946SOL     OW22450   4.066   0.225   0.610 -0.2980  0.0208 -0.1101
 6946SOL    HW122451   4.126   0.167   0.657 -1.4281 -0.6493  0.5560
 6946SOL    HW222452   4.054   0.182   0.525  0.7146  0.5493 -0.5462
 6947SOL     OW22453   2.405   7.850   3.680  0.2882 -0.1701 -0.4949
 6947SOL    HW122454   2.326   7.855   3.734  0.8887 -0.0171  0.3861
 6947SOL    HW222455   2.372   7.850   3.590 -0.7330 -0.5025 -0.1377
 6948SOL     OW22456   5.387   5.665   8.430  0.4268  0.2560 -0.1716
 6948SOL    HW122457   5.334   5.608   8.485 -0.9288  1.7744  0.1684
 6948SOL    HW222458   5.390   5.621   8.345 -0.6234 -0.3156  0.0682
 6949SOL     OW22459   9.656   9.699   2.113  0.4835  0.1901  0.2831
 6949SOL    HW122460   9.642   9.630   2.048  0.0699 -1.5296  2.1192
 6949SOL    HW222461   9.597   9.677   2.185  1.6034  1.4887  1.6569
 6950SOL     OW22462   7.305   0.201   1.155  0.1332 -0.0359 -0.3314
 6950SOL    HW122463   7.364   0.132   1.125 -1.3561 -2.8107  2.5597
 6950SOL    HW222464   7.360   0.280   1.158  2.8560 -1.7920 -0.6670
 6951SOL     OW22465   8.637   1.304   8.802  0.3170  0.3032 -0.2549
 6951SOL    HW122466   8.634   1.298   8.706  0.7147  0.1230 -0.2613
 6951SOL    HW222467   8.681   1.223   8.829 -0.1103  0.1920  0.1038
 6952SOL     OW22468   2.203   1.728   7.233  0.1584  0.1799  0.1299
 6952SOL    HW122469   2.277   1.698   7.179  0.3116 -0.6012  0.7635
 6952SOL    HW222470   2.244   1.775   7.305 -0.0345  0.9130 -0.2262
 6953SOL     OW22471   2.799   6.513   3.235 -0.2729  0.1296  0.1237
 6953SOL    HW122472   2.722   6.566   3.214 -0.7016 -0.4387  0.2516
 6953SOL    HW222473   2.776   6.424   3.208 -0.0931 -0.2512  1.1839
 6954SOL     OW22474   0.355   7.636   0.421  0.6273  0.3443 -0.2254
 6954SOL    HW122475   0.282   7.637   0.483  1.0627  2.2697  0.3288
 6954SOL    HW222476   0.418   7.699   0.456  1.3176  0.7900 -2.0985
 6955SOL     OW22477   5.415   9.076   1.317 -0.4452 -0.2925 -0.2426
 6955SOL    HW122478   5.336   9.035   1.349 -0.4584 -0.8307 -0.9370
 6955SOL    HW222479   5.393   9.106   1.229 -0.3751  1.0432  0.1655
 6956SOL     OW22480   8.934   8.865   1.506 -0.9251  0.6189 -0.5223
 6956SOL    HW122481   8.913   8.853   1.413 -0.2129 -0.9038 -0.5331
 6956SOL    HW222482   9.015   8.916   1.506  0.0558 -0.8450 -0.8664
 6957SOL     OW22483   9.003   8.045   7.318 -0.1056 -0.0574 -0.1954
 6957SOL    HW122484   9.002   8.118   7.256 -1.2831  0.3576  0.2668
 6957SOL    HW222485   9.092   8.044   7.353 -0.3921  2.0829  0.8057
 6958SOL     OW22486   4.350   1.717   6.600 -0.0914  0.1175  0.0796
 6958SOL    HW122487   4.360   1.811   6.584 -0.8904  0.0779 -0.7624
 6958SOL    HW222488   4.399   1.701   6.681 -0.6125  1.4056  0.6773
 6959SOL     OW22489   7.196   5.471   6.154  0.3655 -0.4946 -0.1386
 6959SOL    HW122490   7.206   5.469   6.059  0.6772 -1.2625 -0.0948
 6959SOL    HW222491   7.105   5.497   6.168 -0.4360 -2.8450 -0.6978
 6960SOL     OW22492   1.923   1.541   3.035 -0.1457  0.0262  0.0520
 6960SOL    HW122493   1.909   1.623   2.987  1.5437  0.1868 -0.2214
 6960SOL    HW222494   1.850   1.537   3.097  0.2492  2.2811  0.7603
 6961SOL     OW22495   0.830   4.187   2.061 -0.5445  0.2208  0.7934
 6961SOL    HW122496   0.758   4.184   2.123  0.5787 -1.3149  2.1135
 6961SOL    HW222497   0.899   4.134   2.101  1.0048  0.8944 -0.8191
 6962SOL     OW22498   9.370   0.025   7.315  0.3447  0.1211  0.1423
 6962SOL    HW122499   9.431   0.077   7.264 -1.7635  0.5295 -2.1150
 6962SOL    HW222500   9.412  -0.061   7.323  1.3462  0.4817 -1.0481
 6963SOL     OW22501   1.713   5.116   0.155  0.3512  0.6568  0.7621
 6963SOL    HW122502   1.797   5.095   0.114 -0.7742 -0.5480 -1.0723
 6963SOL    HW222503   1.705   5.053   0.227  1.2859  1.2208  1.3839
 6964SOL     OW22504   7.904   4.359   5.711 -0.3051  0.5636 -0.1396
 6964SOL    HW122505   7.869   4.394   5.794  1.3358 -1.6968  1.6330
 6964SOL    HW222506   7.841   4.292   5.685  0.5040 -0.6126  0.8114
 6965SOL     OW22507   5.004   7.763   6.470 -0.5900  0.4361 -0.5417
 6965SOL    HW122508   4.932   7.784   6.410 -0.4384  0.1036 -0.8431
 6965SOL    HW222509   5.000   7.668   6.480 -2.0209  0.6466  1.7527
 6966SOL     OW22510   0.929   8.506   9.527  0.5747  0.0069 -0.1885
 6966SOL    HW122511   0.988   8.432   9.541  0.3462 -0.1481 -0.0562
 6966SOL    HW222512   0.960   8.573   9.588  0.4399 -0.1750  0.0787
 6967SOL     OW22513   4.579   5.019   0.701 -0.8534 -0.5489 -0.1246
 6967SOL    HW122514   4.550   4.930   0.721 -0.1537 -0.5648  0.9143
 6967SOL    HW222515   4.551   5.071   0.776  1.9445 -0.6161  1.0905
 6968SOL     OW22516   8.443   2.714   6.097  0.0656  0.3344  0.2266
 6968SOL    HW122517   8.360   2.761   6.099  0.7900  1.6946  2.1906
 6968SOL    HW222518   8.466   2.709   6.004 -0.4590  3.2298 -0.1648
 6969SOL     OW22519   9.060   6.375   2.409 -0.3114 -0.0444 -0.7232
 6969SOL    HW122520   9.132   6.341   2.463  0.1704  0.5568 -0.9691
 6969SOL    HW222521   9.003   6.300   2.394 -0.3823 -0.2521  0.5088
 6970SOL     OW22522   1.928   6.464   6.030 -0.1056 -0.8428  0.2818
 6970SOL    HW122523   1.913   6.399   6.098  1.0552 -1.0870  0.3294
 6970SOL    HW222524   1.980   6.532   6.073  0.9198 -1.1548 -0.4080
 6971SOL     OW22525   6.840   6.412   6.753  0.1236  0.0976 -0.1787
 6971SOL    HW122526   6.843   6.507   6.744  1.5117 -0.1130 -3.0756
 6971SOL    HW222527   6.930   6.388   6.776 -0.0590 -0.5634 -0.1428
 6972SOL     OW22528   3.772   2.788   5.185  0.1290 -0.2681 -0.3283
 6972SOL    HW122529   3.861   2.757   5.167 -0.3811 -0.8025 -2.1711
 6972SOL    HW222530   3.722   2.708   5.204 -0.0949 -0.0342  0.0954
 6973SOL     OW22531   7.051   9.512   4.125  0.0275  0.0074 -0.1385
 6973SOL    HW122532   7.059   9.459   4.046 -0.8217 -0.8319  0.3199
 6973SOL    HW222533   6.989   9.464   4.180  0.0673  0.9359  0.7434
 6974SOL     OW22534   1.538   6.258   3.824 -0.1553  0.0726 -0.3767
 6974SOL    HW122535   1.512   6.169   3.801  2.6130 -0.9948  0.2211
 6974SOL    HW222536   1.573   6.251   3.913 -0.7548  1.9746  0.0670
 6975SOL     OW22537   0.222   9.066   5.772  1.1660  0.1029 -0.3932
 6975SOL    HW122538   0.184   9.050   5.858  1.3959 -0.2889 -0.3644
 6975SOL    HW222539   0.274   9.146   5.783 -1.1221  1.7707 -0.8826
 6976SOL     OW22540   7.384   2.843   9.602  0.3964  0.0327  0.5379
 6976SOL    HW122541   7.403   2.800   9.686  0.2712  0.5501  0.8376
 6976SOL    HW222542   7.315   2.906   9.623  1.9340  1.7946  0.5580
 6977SOL     OW22543   9.391   7.355   9.424 -0.0353  0.4457 -0.1221
 6977SOL    HW122544   9.388   7.292   9.496  1.0575 -0.1961 -0.6134
 6977SOL    HW222545   9.484   7.374   9.412 -0.3249  2.2243  0.0527
 6978SOL     OW22546   5.516   0.624   9.345  0.4781  0.3772 -0.5360
 6978SOL    HW122547   5.460   0.632   9.422  2.4174 -1.5002  1.1967
 6978SOL    HW222548   5.472   0.557   9.291  0.0787  0.2984 -0.1197
 6979SOL     OW22549   0.339   0.068   2.212 -0.6744 -0.1513  0.0059
 6979SOL    HW122550   0.296   0.058   2.127  0.5094 -3.3557 -0.3639
 6979SOL    HW222551   0.432   0.071   2.191 -0.2481 -2.7409  1.1717
 6980SOL     OW22552   4.775   9.509   4.521  0.1455  0.2861 -0.6029
 6980SOL    HW122553   4.719   9.433   4.509  0.1972  0.3160 -1.0485
 6980SOL    HW222554   4.723   9.583   4.489  0.1804  0.4099 -0.3805
 6981SOL     OW22555   8.092   3.593   9.118  0.1785  0.3622 -0.2552
 6981SOL    HW122556   8.127   3.643   9.192  0.8411 -0.8587  0.2871
 6981SOL    HW222557   8.109   3.648   9.042  1.8454  0.5361  0.2010
 6982SOL     OW22558   1.453   3.752   5.846  0.2597  0.4000  0.2086
 6982SOL    HW122559   1.500   3.697   5.908 -1.7539  0.7708  2.1766
 6982SOL    HW222560   1.361   3.748   5.874 -0.6864  1.0185 -2.4366
 6983SOL     OW22561   2.886   2.019   7.129 -0.0991 -0.4601 -0.0749
 6983SOL    HW122562   2.843   1.935   7.111  1.1481 -1.3631  0.9974
 6983SOL    HW222563   2.834   2.058   7.199  0.8408 -1.6057  1.3061
 6984SOL     OW22564   5.066   5.722   7.693 -0.4614 -0.2023 -0.3963
 6984SOL    HW122565   5.069   5.662   7.768  3.3205  0.6651  0.3580
 6984SOL    HW222566   5.072   5.809   7.732  1.8788  0.2561 -1.5976
 6985SOL     OW22567   0.181   2.462   2.214 -0.3566  0.1424 -0.3650
 6985SOL    HW122568   0.161   2.542   2.263  0.1940 -0.4532  0.8856
 6985SOL    HW222569   0.098   2.414   2.212 -0.7784  0.8814 -1.4295
 6986SOL     OW22570   9.673   8.881   8.171 -0.3442 -0.4475 -0.4488
 6986SOL    HW122571   9.695   8.927   8.090  3.2019 -1.0162  0.0564
 6986SOL    HW222572   9.715   8.796   8.163  0.9479 -0.1816  2.3155
 6987SOL     OW22573   4.686   7.155   5.823 -0.8904  0.3923 -0.3341
 6987SOL    HW122574   4.781   7.171   5.825 -0.8356  0.1209 -0.6053
 6987SOL    HW222575   4.657   7.191   5.739 -0.8530 -0.4133 -0.7038
 6988SOL     OW22576   6.983   4.984   9.114 -0.0323 -0.5823 -0.5978
 6988SOL    HW122577   6.904   5.004   9.163  0.4248 -2.9411  1.2949
 6988SOL    HW222578   7.045   5.053   9.138 -1.3141  1.0796 -1.8290
 6989SOL     OW22579   3.099   1.932   9.372  0.4481 -0.5427  0.3321
 6989SOL    HW122580   3.015   1.954   9.330  1.1031 -2.7133 -2.3929
 6989SOL    HW222581   3.081   1.852   9.421  0.9033 -1.0005 -0.2393
 6990SOL     OW22582   5.728   5.625   5.807  0.1011 -0.0787 -0.0326
 6990SOL    HW122583   5.714   5.585   5.722  1.5801  1.7427 -1.2144
 6990SOL    HW222584   5.819   5.604   5.830 -0.0257  0.1307  0.7176
 6991SOL     OW22585   7.864   1.534   2.125  0.4450 -0.2138  0.8274
 6991SOL    HW122586   7.789   1.594   2.126  0.3550 -0.3132  0.4694
 6991SOL    HW222587   7.856   1.488   2.041  0.6067 -0.6065  1.0243
 6992SOL     OW22588   8.433   0.299   4.969 -0.5071 -0.8785 -0.2604
 6992SOL    HW122589   8.389   0.214   4.966 -0.5120 -0.9386  0.9265
 6992SOL    HW222590   8.496   0.291   5.040 -0.7964  0.2392  0.1433
 6993SOL     OW22591   4.478   5.522   1.758  0.6867  0.1784 -0.0404
 6993SOL    HW122592   4.445   5.511   1.847 -0.8499 -2.9900 -0.8432
 6993SOL    HW222593   4.418   5.584   1.717 -0.3326 -0.4782  0.4051
 6994SOL     OW22594   9.183   8.891   8.308 -0.4252 -0.0957 -0.4311
 6994SOL    HW122595   9.240   8.940   8.250 -1.0540  0.3842 -0.6537
 6994SOL    HW222596   9.230   8.810   8.325  0.7613  0.6780  0.1533
 6995SOL     OW22597   7.028   0.679   8.384 -0.0344  0.0561  0.0011
 6995SOL    HW122598   6.988   0.596   8.358 -1.6606  0.6323  0.5247
 6995SOL    HW222599   7.089   0.699   8.313  0.5779 -1.6911 -0.0119
 6996SOL     OW22600   0.860   6.348   8.033 -0.2599  0.1300 -1.2413
 6996SOL    HW122601   0.955   6.342   8.047 -0.4362 -0.2476 -0.1197
 6996SOL    HW222602   0.841   6.441   8.042 -0.1209  0.0969 -0.5472
 6997SOL     OW22603   1.708   3.274   7.629  0.2845 -0.4272  0.9405
 6997SOL    HW122604   1.717   3.352   7.684  0.8235 -2.0826  3.3997
 6997SOL    HW222605   1.788   3.224   7.645  0.1772 -1.2762 -0.9431
 6998SOL     OW22606   0.318   5.763   5.315 -0.2686 -0.0023 -0.1525
 6998SOL    HW122607   0.357   5.848   5.295  0.1374 -0.3362 -0.8071
 6998SOL    HW222608   0.392   5.703   5.322 -0.5652 -0.3502  0.0519
 6999SOL     OW22609   7.942   4.975   3.511 -0.3555  0.5623  0.7802
 6999SOL    HW122610   7.954   4.911   3.580 -0.6355  0.9138  1.1582
 6999SOL    HW222611   7.899   4.926   3.440  0.9813 -0.0794  0.3870
 7000SOL     OW22612   4.241   7.368   7.580 -0.1595 -0.4703 -0.4337
 7000SOL    HW122613   4.149   7.349   7.602  0.1137  0.3461  1.5973
 7000SOL    HW222614   4.291   7.298   7.622  0.2026 -0.5090 -0.9236
 7001SOL     OW22615   9.148   7.468   4.513  0.5534 -0.2217 -0.7590
 7001SOL    HW122616   9.130   7.473   4.419  1.4864 -1.3791 -1.0220
 7001SOL    HW222617   9.071   7.426   4.550 -0.5544  1.6884 -0.7223
 7002SOL     OW22618   7.343   3.095   5.517 -1.0479  0.1214  0.1915
 7002SOL    HW122619   7.290   3.119   5.441 -0.9831  1.6080  0.5865
 7002SOL    HW222620   7.432   3.119   5.491 -1.1137  1.2756  0.9599
 7003SOL     OW22621   2.703   3.730   9.312 -0.2204  0.1161  0.2047
 7003SOL    HW122622   2.656   3.692   9.237  0.0251 -2.0866  1.0845
 7003SOL    HW222623   2.790   3.750   9.277 -0.2723 -0.3976 -0.2387
 7004SOL     OW22624   5.275   0.464   5.085  0.1045 -0.1561  0.1999
 7004SOL    HW122625   5.219   0.414   5.026  1.7097 -0.9867 -0.6794
 7004SOL    HW222626   5.270   0.554   5.053  0.1767 -0.4301 -0.5973
 7005SOL     OW22627   8.951   3.353   9.065  0.4021 -0.0867  0.3108
 7005SOL    HW122628   8.943   3.355   9.161  1.4488  1.1202  0.3906
 7005SOL    HW222629   8.920   3.438   9.036 -0.9405 -0.8297 -0.5475
 7006SOL     OW22630   9.031   5.499   1.564 -0.1554 -0.0067  0.2031
 7006SOL    HW122631   9.122   5.479   1.582  0.2366 -0.5310 -2.0097
 7006SOL    HW222632   9.035   5.570   1.499 -1.4077  1.9510  2.1244
 7007SOL     OW22633   8.216   4.918   5.749  0.4331  0.3128  0.3740
 7007SOL    HW122634   8.285   4.948   5.691 -0.1250  1.3260  0.2075
 7007SOL    HW222635   8.171   4.849   5.700  0.3811  0.7051 -0.1388
 7008SOL     OW22636   8.023   5.105   8.616 -1.0609 -0.2373  0.0987
 7008SOL    HW122637   8.092   5.157   8.657 -0.9336  0.5791 -1.1108
 7008SOL    HW222638   8.052   5.014   8.627 -0.4168  0.0266  0.6874
 7009SOL     OW22639   1.824   3.417   2.962  0.2409  0.3728  0.4587
 7009SOL    HW122640   1.886   3.367   2.909  0.7007  0.9208  0.4691
 7009SOL    HW222641   1.764   3.351   2.997  0.5544 -0.1141  0.0963
 7010SOL     OW22642   3.097   6.722   2.106  0.0004 -0.1629 -0.0371
 7010SOL    HW122643   3.077   6.811   2.133  0.0948 -0.2727  0.4091
 7010SOL    HW222644   3.141   6.731   2.022 -0.1079  0.2011 -0.0564
 7011SOL     OW22645   9.258   0.876   0.955 -0.3015 -0.0339  0.1965
 7011SOL    HW122646   9.305   0.925   1.022  0.5996  0.3804 -0.7133
 7011SOL    HW222647   9.268   0.928   0.875  0.9545 -1.8124 -0.8928
 7012SOL     OW22648   8.685   4.139   8.553 -0.0697  0.5529  0.4446
 7012SOL    HW122649   8.649   4.140   8.464 -0.6241  1.2517  0.6712
 7012SOL    HW222650   8.609   4.136   8.610  0.2661  0.7231  0.9083
 7013SOL     OW22651   1.387   8.360   3.219 -0.3102  0.5964  0.0541
 7013SOL    HW122652   1.404   8.447   3.183  0.6390  1.3904  2.2576
 7013SOL    HW222653   1.339   8.376   3.301 -1.5851 -1.0671 -0.3023
 7014SOL     OW22654   4.418   8.435   7.676 -0.0488  0.2232  0.3644
 7014SOL    HW122655   4.460   8.353   7.648 -2.2749 -0.7166 -0.4040
 7014SOL    HW222656   4.430   8.495   7.602 -0.5540 -0.2282 -0.0862
 7015SOL     OW22657   0.552   9.483   6.093 -0.2636 -0.2819 -0.3848
 7015SOL    HW122658   0.573   9.391   6.109 -0.7549 -0.2677  0.4320
 7015SOL    HW222659   0.604   9.508   6.017 -0.5063 -1.3809 -0.9283
 7016SOL     OW22660   0.166   9.028   6.065  0.2150 -0.7276 -0.1656
 7016SOL    HW122661   0.188   8.935   6.072  2.2445 -0.1691  2.8394
 7016SOL    HW222662   0.098   9.042   6.131 -0.3664 -0.1252 -0.8695
 7017SOL     OW22663   3.555   9.559   2.413 -0.2206  0.2523  0.2377
 7017SOL    HW122664   3.576   9.478   2.364  0.8926  1.2931 -1.1156
 7017SOL    HW222665   3.465   9.579   2.388 -0.5670 -0.6463  0.7150
 7018SOL     OW22666   7.965   7.303   6.048 -0.1146  0.5781  0.2555
 7018SOL    HW122667   8.019   7.354   6.109  0.4913  1.0497 -0.6652
 7018SOL    HW222668   8.011   7.219   6.040  1.4780  1.5723 -1.8443
 7019SOL     OW22669   7.258   2.988   1.429 -0.4998  0.3136 -0.1290
 7019SOL    HW122670   7.239   2.894   1.421  1.0115 -0.1365  1.1701
 7019SOL    HW222671   7.203   3.029   1.362 -1.1168 -1.5001 -0.7935
 7020SOL     OW22672   3.708   7.326   3.320 -0.1322 -0.6616  0.1780
 7020SOL    HW122673   3.744   7.409   3.350  0.9435 -0.2570 -2.0103
 7020SOL    HW222674   3.766   7.260   3.358  1.3865 -0.1506 -1.1211
 7021SOL     OW22675   8.812   1.385   3.145 -0.2723  0.4781  0.1553
 7021SOL    HW122676   8.888   1.436   3.118 -0.2990 -0.4091 -1.7582
 7021SOL    HW222677   8.741   1.448   3.150  0.4148  1.1937  1.2773
 7022SOL     OW22678   7.952   9.289   3.185 -0.1091 -0.5505  0.0768
 7022SOL    HW122679   7.996   9.373   3.177  0.0702 -0.7613 -1.5466
 7022SOL    HW222680   7.881   9.292   3.120 -0.2676 -1.5368  0.1757
 7023SOL     OW22681   5.592   6.753   5.474  0.2550 -0.1377 -0.3901
 7023SOL    HW122682   5.658   6.726   5.409 -0.5968 -0.0799 -1.3018
 7023SOL    HW222683   5.529   6.681   5.475  0.8241 -0.6484  1.2078
 7024SOL     OW22684   0.684   2.052   5.119  0.1130  0.3214  0.3590
 7024SOL    HW122685   0.644   1.968   5.141  0.2809  0.3852  0.9269
 7024SOL    HW222686   0.714   2.087   5.203  2.2924 -0.1817 -0.1439
 7025SOL     OW22687   5.804   2.683   9.750  0.1816  1.0234  0.5439
 7025SOL    HW122688   5.871   2.652   9.690  0.8252  0.8829  1.3117
 7025SOL    HW222689   5.836   2.657   9.837 -1.6931 -0.6064  0.8295
 7026SOL     OW22690   3.693   9.697   6.180 -0.0469  0.5388  0.2491
 7026SOL    HW122691   3.743   9.658   6.108  0.6174  1.4358  0.2050
 7026SOL    HW222692   3.743   9.676   6.258 -0.0252  0.7497  0.2936
 7027SOL     OW22693   7.799   4.044   3.011 -0.7352 -0.2983 -0.4287
 7027SOL    HW122694   7.833   3.961   3.041  0.4518  0.5924  0.7768
 7027SOL    HW222695   7.875   4.091   2.976 -0.9166  1.1406  0.9712
 7028SOL     OW22696   0.569   6.423   0.835 -0.0749  0.0474  0.7019
 7028SOL    HW122697   0.545   6.332   0.820  0.2002  0.2597 -1.3931
 7028SOL    HW222698   0.486   6.470   0.837 -0.1426  0.0823 -1.1175
 7029SOL     OW22699   9.494   1.868   5.263  0.1899 -0.1833 -0.4978
 7029SOL    HW122700   9.404   1.892   5.286 -0.1398 -1.1953 -0.6851
 7029SOL    HW222701   9.518   1.803   5.329  0.9726  0.4310 -0.1551
 7030SOL     OW22702   0.508   0.939   9.567  0.3264 -0.3051  0.2333
 7030SOL    HW122703   0.483   0.902   9.483  1.6283 -1.7780  0.4377
 7030SOL    HW222704   0.449   1.013   9.580 -1.4705 -1.4857 -0.8515
 7031SOL     OW22705   3.446   0.365   5.714 -0.4233 -0.9255  0.5571
 7031SOL    HW122706   3.422   0.272   5.713  0.5015 -1.1830 -1.1438
 7031SOL    HW222707   3.394   0.404   5.644  1.4967 -0.8350 -0.8976
 7032SOL     OW22708   4.251   8.378   7.082  0.1059 -0.0743  0.5344
 7032SOL    HW122709   4.215   8.355   6.997 -0.0534 -2.4211  1.1732
 7032SOL    HW222710   4.322   8.316   7.097  0.8468  0.9798  1.6794
 7033SOL     OW22711   6.621   9.258   3.326 -0.4775  0.1203  0.3609
 7033SOL    HW122712   6.565   9.181   3.317 -0.1281 -0.1302  0.2775
 7033SOL    HW222713   6.629   9.291   3.237 -1.7872  1.1024  0.5847
 7034SOL     OW22714   2.770   2.919   3.452 -0.0559  0.1091  0.0474
 7034SOL    HW122715   2.837   2.977   3.487 -1.2043  0.3058  2.1665
 7034SOL    HW222716   2.804   2.831   3.468  0.0418  0.2095  0.4151
 7035SOL     OW22717   3.970   0.367   2.206  0.1254 -0.3724  0.0220
 7035SOL    HW122718   3.964   0.459   2.231 -0.4900 -0.3973 -0.0210
 7035SOL    HW222719   3.883   0.332   2.222  0.8431 -1.4317  1.8693
 7036SOL     OW22720   6.099   9.531   7.324  0.0775  0.1237  0.3765
 7036SOL    HW122721   6.138   9.606   7.279  0.8622 -0.8335 -0.6058
 7036SOL    HW222722   6.085   9.560   7.414 -1.7311  2.1788 -0.4840
 7037SOL     OW22723   8.546   9.301   9.273 -0.1401 -0.1099  0.5307
 7037SOL    HW122724   8.625   9.257   9.242  1.8606  2.0813  2.1450
 7037SOL    HW222725   8.500   9.327   9.193  1.0092 -0.9945 -0.4613
 7038SOL     OW22726   9.105   3.007   6.794 -0.2931  0.1668  0.4760
 7038SOL    HW122727   9.146   3.081   6.840 -0.1588  1.5471 -1.7061
 7038SOL    HW222728   9.179   2.952   6.768  0.0294  1.3542 -1.2803
 7039SOL     OW22729   8.886   0.008   6.389  0.4966  0.4451 -0.1941
 7039SOL    HW122730   8.978   0.006   6.415  0.1608  1.3200  1.1550
 7039SOL    HW222731   8.885  -0.028   6.300  2.1225  0.3835 -0.2095
 7040SOL     OW22732   4.102   6.491   7.378  0.3212 -0.1308  0.0964
 7040SOL    HW122733   4.088   6.586   7.380  0.6572 -0.0790  0.0695
 7040SOL    HW222734   4.049   6.458   7.450  0.6327  0.1365  0.4490
 7041SOL     OW22735   4.325   4.531   2.774  0.0714  0.1810 -0.1595
 7041SOL    HW122736   4.277   4.450   2.755 -1.5198  0.7794  1.1056
 7041SOL    HW222737   4.339   4.571   2.688 -0.4280 -0.7306 -0.6788
 7042SOL     OW22738   8.638   9.016   8.019 -0.0879 -0.1264 -0.2652
 7042SOL    HW122739   8.645   8.946   7.953 -0.2722 -0.3756 -0.0212
 7042SOL    HW222740   8.722   9.062   8.013  0.7459 -1.4186  0.7476
 7043SOL     OW22741   1.070   8.883   7.209 -0.4629  0.6958  0.8205
 7043SOL    HW122742   1.032   8.967   7.184 -0.8839  0.7762  1.6909
 7043SOL    HW222743   1.010   8.818   7.173  0.3082  0.7191 -0.5893
 7044SOL     OW22744   7.935   8.682   6.883 -0.3422 -0.4711 -0.1298
 7044SOL    HW122745   7.945   8.638   6.798 -1.3724 -1.0849  0.0565
 7044SOL    HW222746   7.969   8.619   6.947  1.2607  0.3394 -0.1395
 7045SOL     OW22747   0.066   9.375   8.330 -0.6549  0.3096  0.4521
 7045SOL    HW122748   0.099   9.464   8.338 -0.2121  0.3423 -1.2769
 7045SOL    HW222749   0.137   9.327   8.286 -1.4321 -0.5450  0.0933
 7046SOL     OW22750   3.235   2.551   6.762  0.1094 -0.0479  0.2317
 7046SOL    HW122751   3.209   2.499   6.686  1.4371  0.1904 -0.4292
 7046SOL    HW222752   3.200   2.505   6.837  0.3379 -1.3040 -0.4138
 7047SOL     OW22753   1.261   4.209   8.088  0.3006  0.1069 -0.3457
 7047SOL    HW122754   1.260   4.142   8.019  1.3870 -0.8612  0.5351
 7047SOL    HW222755   1.249   4.291   8.041 -0.6732 -0.6596 -1.5053
 7048SOL     OW22756   9.744   7.172   0.686 -0.8651  0.1147  0.0522
 7048SOL    HW122757   9.738   7.228   0.609  0.8150 -0.9150 -0.8959
 7048SOL    HW222758   9.823   7.201   0.731 -2.3559  1.3787  2.0276
 7049SOL     OW22759   5.497   8.451   8.887  0.1826 -0.5039  0.4652
 7049SOL    HW122760   5.518   8.451   8.980  1.9224 -0.9570  0.1243
 7049SOL    HW222761   5.576   8.416   8.845  1.0062  3.1545 -1.4794
 7050SOL     OW22762   9.436   7.993   8.787  0.3455 -0.4211  0.4290
 7050SOL    HW122763   9.515   8.013   8.737 -0.1412 -0.5178 -0.3958
 7050SOL    HW222764   9.442   7.900   8.805  0.0823 -0.5773 -0.2551
 7051SOL     OW22765   3.510   8.050   0.181 -0.1957 -0.0037  0.4984
 7051SOL    HW122766   3.585   8.107   0.196 -1.1269  1.0895  1.2586
 7051SOL    HW222767   3.503   8.042   0.086  1.1729 -0.5444  0.4345
 7052SOL     OW22768   8.258   0.287   5.309  0.6433 -0.0316  0.2078
 7052SOL    HW122769   8.282   0.359   5.368  0.9812  0.9348 -1.0487
 7052SOL    HW222770   8.164   0.295   5.299  0.3836 -0.9804  1.5511
 7053SOL     OW22771   4.882   6.992   3.911  0.2159 -0.0854 -0.0940
 7053SOL    HW122772   4.962   6.943   3.893  0.2947  0.7658 -2.4891
 7053SOL    HW222773   4.912   7.075   3.947  0.5940  0.7835 -2.2505
 7054SOL     OW22774   0.166   7.431   0.536  0.1548  0.0171  0.3072
 7054SOL    HW122775   0.144   7.513   0.581  2.6495  0.6765  0.4749
 7054SOL    HW222776   0.086   7.407   0.490 -0.1642  3.6678 -1.3969
 7055SOL     OW22777   6.547   3.531   7.277  0.3312  0.1882  0.5196
 7055SOL    HW122778   6.540   3.436   7.289  0.6799 -0.0365 -0.8538
 7055SOL    HW222779   6.465   3.566   7.312  0.0659 -0.6455  0.7564
 7056SOL     OW22780   9.287   0.930   4.884  0.1677  0.7194  0.0657
 7056SOL    HW122781   9.325   0.924   4.797  0.5048  0.8824  0.1979
 7056SOL    HW222782   9.227   0.855   4.890  0.7841  0.2084 -0.0017
 7057SOL     OW22783   5.358   0.515   3.109 -0.4261 -0.2121 -0.5213
 7057SOL    HW122784   5.417   0.453   3.066 -0.4344  0.0378 -0.8959
 7057SOL    HW222785   5.414   0.566   3.167 -0.6330 -1.5493  0.9346
 7058SOL     OW22786   5.934   0.865   0.001  0.2682  0.8026  0.0285
 7058SOL    HW122787   5.898   0.859   0.090  0.0298  3.3008  0.1664
 7058SOL    HW222788   5.929   0.958  -0.020  2.5511  0.5958 -1.6916
 7059SOL     OW22789   5.776   3.777   4.405  0.7729  0.1947  0.2944
 7059SOL    HW122790   5.753   3.774   4.498  0.0868 -1.0464  0.0984
 7059SOL    HW222791   5.843   3.709   4.394 -1.6977 -2.2143 -0.7562
 7060SOL     OW22792   4.306   2.502   1.448 -0.4705 -0.5818 -0.0108
 7060SOL    HW122793   4.246   2.440   1.490  0.8827 -0.9586  1.4601
 7060SOL    HW222794   4.316   2.469   1.359 -0.5199 -1.9510  0.4679
 7061SOL     OW22795   0.801   8.338   7.339 -0.0800 -0.1780 -0.7040
 7061SOL    HW122796   0.838   8.258   7.376  0.5267  0.0976 -0.7115
 7061SOL    HW222797   0.778   8.392   7.415  1.1561  0.3837 -0.7104
 7062SOL     OW22798   5.402   9.040   6.088  0.3002 -0.0719 -0.0103
 7062SOL    HW122799   5.394   8.949   6.117  0.0734 -0.0106  0.1263
 7062SOL    HW222800   5.347   9.045   6.010 -0.5034  0.1952  0.5637
 7063SOL     OW22801   9.603   2.111   1.731  0.0813 -0.6161 -0.3876
 7063SOL    HW122802   9.564   2.030   1.764  0.5843 -1.4417 -1.7498
 7063SOL    HW222803   9.686   2.084   1.693  0.6952  0.7008 -0.0418
 7064SOL     OW22804   7.900   8.789   3.472 -0.1680  0.6576  0.6294
 7064SOL    HW122805   7.975   8.822   3.425 -1.0507 -1.1850 -2.3550
 7064SOL    HW222806   7.937   8.738   3.544  1.8001 -2.5037 -2.2930
 7065SOL     OW22807   9.789   8.139   8.424  0.0093  0.3512 -0.0462
 7065SOL    HW122808   9.844   8.071   8.387 -0.7701  0.4797 -1.5191
 7065SOL    HW222809   9.820   8.220   8.383 -1.1127  0.4505 -0.7440
 7066SOL     OW22810   4.084   6.549   4.801  0.6268 -0.1157  0.2722
 7066SOL    HW122811   4.163   6.569   4.751  0.0795  1.1183 -0.1399
 7066SOL    HW222812   4.062   6.631   4.845  0.4939 -0.8913  1.7080
 7067SOL     OW22813   9.116   0.182   0.038 -0.6152  0.1460  0.5599
 7067SOL    HW122814   9.057   0.224   0.100 -1.6069 -1.1354  0.5278
 7067SOL    HW222815   9.143   0.252  -0.021  0.4364  1.4311  2.4625
 7068SOL     OW22816   5.329   5.007   8.629 -0.1434 -0.3818  0.5058
 7068SOL    HW122817   5.407   4.991   8.576  0.2238 -2.4815  1.5726
 7068SOL    HW222818   5.364   5.027   8.717 -0.7880  0.2821  0.6207
 7069SOL     OW22819   0.146   5.067   0.486 -0.5821  0.2372 -0.2154
 7069SOL    HW122820   0.109   5.022   0.562  0.6549 -1.6658 -0.6480
 7069SOL    HW222821   0.207   5.131   0.523 -1.7478  1.0248  0.4067
 7070SOL     OW22822   4.210   4.896   0.947  0.0208  0.1009 -0.2788
 7070SOL    HW122823   4.197   4.989   0.963 -2.0695 -0.1860 -0.0351
 7070SOL    HW222824   4.188   4.854   1.030  0.6567 -0.6572 -0.4734
 7071SOL     OW22825   0.202   7.193   1.396 -0.0434 -0.1234  0.0263
 7071SOL    HW122826   0.233   7.179   1.306 -0.5956 -0.2519 -0.1482
 7071SOL    HW222827   0.243   7.275   1.423  0.8601 -0.5437 -0.0093
 7072SOL     OW22828   6.874   8.229   5.225  0.1477 -0.1808 -0.2119
 7072SOL    HW122829   6.829   8.283   5.290 -1.1374 -2.2233  0.7210
 7072SOL    HW222830   6.803   8.191   5.173  1.1097  0.6915 -2.2889
 7073SOL     OW22831   8.410   0.913   6.130 -0.3255 -0.5385 -0.0040
 7073SOL    HW122832   8.446   0.880   6.047  0.1282 -0.7943  0.2893
 7073SOL    HW222833   8.397   0.834   6.183  0.8474 -0.2605  0.7388
 7074SOL     OW22834   8.108   0.622   0.751  0.0476  0.0441  0.1062
 7074SOL    HW122835   8.171   0.569   0.800  2.9406  0.8390 -2.4443
 7074SOL    HW222836   8.064   0.559   0.694 -2.9028 -0.7855  2.9967
 7075SOL     OW22837   0.349   7.053   7.143  0.7185 -0.2299 -0.3129
 7075SOL    HW122838   0.399   6.981   7.181  1.7476  0.4473 -0.3511
 7075SOL    HW222839   0.369   7.049   7.049  0.4249 -0.1506 -0.3821
 7076SOL     OW22840   6.728   5.605   6.192  0.5132 -0.3437  0.0944
 7076SOL    HW122841   6.732   5.659   6.113  0.3510 -1.0087 -0.3746
 7076SOL    HW222842   6.660   5.540   6.174  0.1832 -0.2473  0.9467
 7077SOL     OW22843   8.623   0.526   3.363 -0.0504 -0.0105  0.3495
 7077SOL    HW122844   8.565   0.598   3.389 -1.2661  0.4988 -3.2273
 7077SOL    HW222845   8.566   0.450   3.357 -0.4412  0.4169 -2.8547
 7078SOL     OW22846   2.586   5.907   5.838  0.1178  0.1988  0.5293
 7078SOL    HW122847   2.560   5.900   5.746 -0.9625  0.0856  0.8305
 7078SOL    HW222848   2.631   5.824   5.856  0.1157  0.1174  0.1689
 7079SOL     OW22849   3.823   5.223   1.136  0.2276 -0.2104 -0.5515
 7079SOL    HW122850   3.860   5.290   1.078 -0.6840 -0.0886 -1.0006
 7079SOL    HW222851   3.729   5.230   1.125  0.1157 -1.6696 -0.7101
 7080SOL     OW22852   5.491   7.519   6.688  0.0633  0.0701 -0.0788
 7080SOL    HW122853   5.561   7.584   6.687  0.1155  0.0545  0.9692
 7080SOL    HW222854   5.535   7.435   6.677  0.3693 -0.0396  1.6814
 7081SOL     OW22855   7.344   5.268   5.992 -0.5937 -0.2622  0.0550
 7081SOL    HW122856   7.410   5.335   6.014  0.6721 -1.5565  0.3953
 7081SOL    HW222857   7.356   5.253   5.898 -0.6614 -0.2434  0.0433
 7082SOL     OW22858   1.507   2.239   6.212  0.3363 -0.1872  0.2820
 7082SOL    HW122859   1.546   2.286   6.286  2.2193  0.7156 -1.2002
 7082SOL    HW222860   1.581   2.196   6.169 -1.0222 -2.5770  0.1713
 7083SOL     OW22861   8.966   7.254   3.988  0.3414  0.5123 -0.4859
 7083SOL    HW122862   8.922   7.216   3.912  1.1132 -0.4144 -0.4978
 7083SOL    HW222863   8.905   7.241   4.060  0.4934 -0.5907 -0.5375
 7084SOL     OW22864   8.929   6.452   5.582 -0.1189 -0.2157  0.1366
 7084SOL    HW122865   8.985   6.461   5.659 -2.4147  0.8561  1.7950
 7084SOL    HW222866   8.842   6.479   5.612 -1.0311  0.7365 -2.9796
 7085SOL     OW22867   8.678   1.362   4.934 -0.3786  0.2450  0.4183
 7085SOL    HW122868   8.634   1.278   4.945 -0.4667  0.4081  1.3130
 7085SOL    HW222869   8.608   1.423   4.910 -0.1923 -0.0955 -1.1339
 7086SOL     OW22870   1.740   4.484   6.789 -0.6759 -0.4735  0.1498
 7086SOL    HW122871   1.728   4.402   6.742  0.0084 -0.2215 -0.4838
 7086SOL    HW222872   1.829   4.512   6.767 -0.8378  0.3490  0.4958
 7087SOL     OW22873   3.137   2.275   4.067 -0.0459 -0.1665 -0.0049
 7087SOL    HW122874   3.123   2.347   4.129  0.1079 -0.0803 -0.0683
 7087SOL    HW222875   3.162   2.200   4.122  2.5401  0.5207 -0.0841
 7088SOL     OW22876   4.332   5.483   2.426  0.0675  0.0190  0.2848
 7088SOL    HW122877   4.399   5.417   2.442  0.1815  0.1448  0.3352
 7088SOL    HW222878   4.377   5.566   2.444 -1.0122  0.0095  3.8016
 7089SOL     OW22879   7.726   4.616   1.476  0.3534  0.3206  0.0046
 7089SOL    HW122880   7.689   4.701   1.454  4.1716  1.7281 -1.9829
 7089SOL    HW222881   7.716   4.564   1.397 -0.5420 -0.5432  0.6728
 7090SOL     OW22882   0.945   9.224   0.024  0.0765 -0.5453  0.2654
 7090SOL    HW122883   0.884   9.175  -0.031  0.0176 -0.3474  0.1514
 7090SOL    HW222884   1.030   9.183   0.009  0.2717  0.2421 -0.8775
 7091SOL     OW22885   3.417   4.528   2.794  0.7369 -0.2827  0.4043
 7091SOL    HW122886   3.493   4.532   2.851  0.7813 -0.9487  0.4019
 7091SOL    HW222887   3.453   4.512   2.707  0.7687  2.1707 -0.0914
 7092SOL     OW22888   3.621   6.613   6.973 -0.0151 -0.4624  0.1363
 7092SOL    HW122889   3.710   6.626   7.004 -0.3172  0.7922  0.5424
 7092SOL    HW222890   3.566   6.626   7.051 -0.6093 -0.1990 -0.3171
 7093SOL     OW22891   0.932   0.112   5.320  0.3807 -0.2171 -0.2240
 7093SOL    HW122892   0.898   0.127   5.232  1.4258  1.7122 -0.3484
 7093SOL    HW222893   1.024   0.091   5.308 -0.0271 -2.5925  0.2922
 7094SOL     OW22894   8.958   3.959   4.877  0.1335 -0.0647 -0.1281
 7094SOL    HW122895   8.871   3.924   4.859  0.5317 -1.0844 -0.1449
 7094SOL    HW222896   9.013   3.882   4.888  1.2655  0.5587 -1.1932
 7095SOL     OW22897   8.025   3.252   9.650 -0.1928 -0.0087 -0.0704
 7095SOL    HW122898   7.965   3.322   9.676  0.5137  0.5934 -0.0249
 7095SOL    HW222899   8.111   3.292   9.653  0.0963 -0.4798 -1.4488
 7096SOL     OW22900   8.662   2.232   3.511 -0.0361 -0.2447  0.1938
 7096SOL    HW122901   8.679   2.299   3.445 -0.4938  0.0326  0.3578
 7096SOL    HW222902   8.706   2.153   3.477  0.9625  0.2686  0.2564
 7097SOL     OW22903   9.342   9.300   2.116 -0.0410 -0.0999  0.3973
 7097SOL    HW122904   9.378   9.256   2.039 -0.7376 -0.1376  0.0851
 7097SOL    HW222905   9.380   9.254   2.191 -0.4466 -0.9819  0.0780
 7098SOL     OW22906   1.930   9.049   3.821 -1.4317 -0.3800 -0.3042
 7098SOL    HW122907   2.011   9.010   3.856 -2.0869 -0.3447  1.3535
 7098SOL    HW222908   1.949   9.143   3.816 -1.0061 -0.4954 -1.0145
 7099SOL     OW22909   2.738   5.224   9.480 -0.3347 -0.5863  0.1543
 7099SOL    HW122910   2.683   5.292   9.519  0.3778  0.3380 -0.4113
 7099SOL    HW222911   2.682   5.146   9.478 -2.5325  0.8700 -2.6162
 7100SOL     OW22912   8.070   8.988   9.503  0.0759 -0.3135  0.2620
 7100SOL    HW122913   8.116   8.988   9.587 -1.3433 -4.1602  1.2385
 7100SOL    HW222914   8.005   9.058   9.511  1.6989  1.1829  1.1922
 7101SOL     OW22915   1.596   8.999   0.514 -0.9041 -0.3427  0.5132
 7101SOL    HW122916   1.649   9.007   0.593 -0.2674 -0.9697  0.1569
 7101SOL    HW222917   1.635   8.926   0.466 -1.4820 -0.1746 -0.2276
 7102SOL     OW22918   2.986   7.220   6.477 -0.9500 -1.0050  0.1678
 7102SOL    HW122919   2.961   7.129   6.493  1.9883 -1.7690  1.0732
 7102SOL    HW222920   3.080   7.222   6.494 -0.4072  1.6656 -2.3972
 7103SOL     OW22921   9.808   6.849   4.234  0.0766 -0.4862  0.3833
 7103SOL    HW122922   9.851   6.875   4.153  0.5218 -2.0111  0.1118
 7103SOL    HW222923   9.846   6.765   4.257 -0.1466 -0.1628  2.1162
 7104SOL     OW22924   3.327   8.485   7.834  0.4693 -0.6045  0.6890
 7104SOL    HW122925   3.346   8.403   7.879  0.0392 -1.1089 -0.0252
 7104SOL    HW222926   3.392   8.491   7.764 -0.4328 -1.1167 -0.2233
 7105SOL     OW22927   0.488   6.192   8.982  0.7189 -0.3566  0.4552
 7105SOL    HW122928   0.500   6.248   9.058 -0.3994  0.0744  0.3347
 7105SOL    HW222929   0.561   6.213   8.924  1.1566 -0.1431  1.0846
 7106SOL     OW22930   2.502   7.333   9.543  0.0522 -0.0148 -0.6099
 7106SOL    HW122931   2.529   7.384   9.467  2.1640 -1.4968 -0.9363
 7106SOL    HW222932   2.486   7.399   9.611  0.8572  1.2023 -1.5501
 7107SOL     OW22933   0.792   6.425   2.680  0.6619 -0.8844 -0.0686
 7107SOL    HW122934   0.756   6.397   2.764  0.9494 -1.6194 -0.1758
 7107SOL    HW222935   0.717   6.427   2.621  0.6646 -1.6509 -0.1049
 7108SOL     OW22936   0.094   6.041   2.050  0.4990 -0.0473  0.0883
 7108SOL    HW122937   0.177   6.038   2.001  0.7432 -0.6531  0.5287
 7108SOL    HW222938   0.118   6.076   2.136  0.2078  0.2557  0.0492
 7109SOL     OW22939   7.221   1.713   1.352 -0.5407  0.1420  0.1769
 7109SOL    HW122940   7.272   1.709   1.272 -1.9115 -0.6868 -0.7070
 7109SOL    HW222941   7.215   1.622   1.381 -0.1791  0.4193  1.1463
 7110SOL     OW22942   8.494   7.680   4.695 -0.4149  0.1814 -0.3281
 7110SOL    HW122943   8.405   7.651   4.673  0.4343 -2.0735 -1.0094
 7110SOL    HW222944   8.540   7.600   4.721  0.8303  1.6098  2.2856
 7111SOL     OW22945   3.998   7.257   7.500 -0.1235  0.0839  0.2869
 7111SOL    HW122946   3.980   7.165   7.518  0.2268 -0.1413 -0.4875
 7111SOL    HW222947   4.000   7.264   7.405 -1.2185  1.1111  0.3047
 7112SOL     OW22948   5.341   3.840   5.855  0.2259  0.6013 -0.6033
 7112SOL    HW122949   5.268   3.779   5.869  2.0061 -1.9894 -1.7585
 7112SOL    HW222950   5.409   3.808   5.914  1.0717  1.8038 -0.9106
 7113SOL     OW22951   9.011   4.556   6.267  0.2533 -0.5536 -0.2205
 7113SOL    HW122952   9.098   4.520   6.282 -0.0488 -0.6999  1.3709
 7113SOL    HW222953   8.979   4.511   6.188  1.3762 -0.9354 -0.4692
 7114SOL     OW22954   9.561   2.355   3.335  0.2255  0.0746 -0.1990
 7114SOL    HW122955   9.635   2.349   3.394  0.4681  1.4360 -0.3380
 7114SOL    HW222956   9.516   2.435   3.360 -0.3823  0.0175 -1.0455
 7115SOL     OW22957   5.851   0.773   7.645 -0.5336 -0.5205 -0.5575
 7115SOL    HW122958   5.792   0.718   7.696 -2.2215  1.9492  0.3318
 7115SOL    HW222959   5.891   0.831   7.708  0.7806 -0.3256 -1.5284
 7116SOL     OW22960   4.620   3.782   8.244  0.3224 -0.3680 -0.7078
 7116SOL    HW122961   4.529   3.759   8.225 -0.4256  1.4112  0.4437
 7116SOL    HW222962   4.641   3.851   8.182 -0.4674  1.9320  1.4223
 7117SOL     OW22963   0.665   4.402   0.249 -0.0351  0.4204  0.5376
 7117SOL    HW122964   0.745   4.377   0.204 -0.8694 -0.5965 -0.4334
 7117SOL    HW222965   0.594   4.377   0.189 -1.1067  0.7330  1.6261
 7118SOL     OW22966   0.763   5.590   3.345 -0.4439 -0.3138  0.0877
 7118SOL    HW122967   0.815   5.592   3.265 -1.7993 -1.6105 -0.8840
 7118SOL    HW222968   0.673   5.578   3.315 -1.5976  3.3405  1.6314
 7119SOL     OW22969   1.927   7.828   2.271  0.1116  0.3271 -0.2334
 7119SOL    HW122970   1.973   7.899   2.315 -0.4734  0.0639  0.8251
 7119SOL    HW222971   1.973   7.748   2.299  0.0018  0.1854 -0.4500
 7120SOL     OW22972   7.539   8.784   1.077  0.0801 -0.0439  0.2787
 7120SOL    HW122973   7.584   8.702   1.058  0.3532  0.4181 -1.1861
 7120SOL    HW222974   7.525   8.824   0.991 -1.5412  0.6645  0.8246
 7121SOL     OW22975   0.013   8.218   8.158 -0.2675 -0.3233  0.9343
 7121SOL    HW122976  -0.007   8.296   8.106 -0.7835 -0.3183  1.1319
 7121SOL    HW222977  -0.067   8.165   8.154  0.6796 -1.7225 -0.7041
 7122SOL     OW22978   7.267   7.261   8.801  0.2074 -0.1836 -0.5457
 7122SOL    HW122979   7.188   7.210   8.784 -0.2035  0.3192 -0.1979
 7122SOL    HW222980   7.331   7.197   8.832 -0.1825 -0.5448 -0.4814
 7123SOL     OW22981   2.760   1.714   2.072  0.0029  0.0416 -0.1754
 7123SOL    HW122982   2.793   1.769   2.001  1.3121  0.1017  0.4628
 7123SOL    HW222983   2.718   1.641   2.027  0.0388  0.5221 -1.0166
 7124SOL     OW22984   4.150   8.559   7.250  0.5122 -0.6661 -0.4042
 7124SOL    HW122985   4.227   8.596   7.295 -0.9307  1.9071  0.1677
 7124SOL    HW222986   4.186   8.516   7.173  2.5999 -0.3127  0.2968
 7125SOL     OW22987   7.207   4.640   5.960  0.2949  0.0663  0.0036
 7125SOL    HW122988   7.253   4.678   6.035  0.6121 -0.4479  0.0755
 7125SOL    HW222989   7.122   4.614   5.994 -0.0102  0.8978 -0.0961
 7126SOL     OW22990   0.699   5.907   7.408  0.3306  0.2120  0.0108
 7126SOL    HW122991   0.668   5.891   7.497 -1.2154  0.1106 -0.5167
 7126SOL    HW222992   0.794   5.896   7.413  0.3968  1.2730  1.8623
 7127SOL     OW22993   4.989   3.838   6.441 -0.3034 -0.2669  0.9309
 7127SOL    HW122994   4.936   3.765   6.471 -3.2961  1.5065  0.4491
 7127SOL    HW222995   4.943   3.871   6.363  3.1840 -0.3085 -1.3719
 7128SOL     OW22996   4.962   4.959   6.866 -0.0902 -0.0406  0.6570
 7128SOL    HW122997   4.887   4.999   6.909 -0.9261 -0.4889 -0.3282
 7128SOL    HW222998   4.961   4.868   6.896 -0.5023 -0.2790 -0.0351
 7129SOL     OW22999   9.041   6.578   0.553 -0.3922  0.1055  0.0568
 7129SOL    HW123000   9.121   6.630   0.554 -0.8912  0.9114 -0.4615
 7129SOL    HW223001   9.040   6.538   0.466  0.6493 -1.8626  0.9040
 7130SOL     OW23002   4.324   1.691   5.728 -0.2825  0.1901  0.0808
 7130SOL    HW123003   4.236   1.668   5.700  0.2132 -1.9420  0.1338
 7130SOL    HW223004   4.380   1.624   5.688  1.2772  1.3058  0.3159
 7131SOL     OW23005   5.509   1.107   6.288  0.1777  0.0808 -0.1568
 7131SOL    HW123006   5.529   1.073   6.375  0.2922 -0.8763 -0.5511
 7131SOL    HW223007   5.414   1.104   6.282  0.0620  1.5944  0.4986
 7132SOL     OW23008   2.072   0.010   6.891  0.7929 -0.4775 -0.3662
 7132SOL    HW123009   2.069   0.100   6.924 -1.2304  0.7711 -3.5354
 7132SOL    HW223010   2.018  -0.039   6.953 -0.2705  1.0602  0.0017
 7133SOL     OW23011   1.246   9.754   9.542  0.2050 -0.4446 -0.3870
 7133SOL    HW123012   1.165   9.782   9.499  0.5669  2.4986  0.5598
 7133SOL    HW223013   1.246   9.803   9.625  2.0893 -1.7798  0.4591
 7134SOL     OW23014   1.460   8.107   4.416 -0.9485 -0.1064 -0.4902
 7134SOL    HW123015   1.499   8.036   4.366 -1.5871  0.2433 -1.5223
 7134SOL    HW223016   1.533   8.145   4.465 -0.2753 -0.3829 -1.2551
 7135SOL     OW23017   1.474   1.111   0.826 -0.0058 -0.1700 -0.1767
 7135SOL    HW123018   1.426   1.073   0.900 -0.1965 -0.6697 -0.5493
 7135SOL    HW223019   1.525   1.182   0.864 -0.5378 -0.0580  0.3409
 7136SOL     OW23020   1.629   6.569   4.029 -0.0084  0.4325 -0.0160
 7136SOL    HW123021   1.661   6.648   3.984  0.4515 -0.2080 -0.8306
 7136SOL    HW223022   1.671   6.496   3.983 -0.9577 -0.3264  0.2827
 7137SOL     OW23023   3.230   6.566   7.487 -0.0215  0.3484  0.3822
 7137SOL    HW123024   3.312   6.524   7.513  1.1115  1.1733 -1.6324
 7137SOL    HW223025   3.228   6.648   7.536  0.6149  0.5619  0.0511
 7138SOL     OW23026   3.233   3.611   7.702  0.2545  0.1433 -0.3949
 7138SOL    HW123027   3.181   3.665   7.761 -1.4502 -0.6981 -1.0638
 7138SOL    HW223028   3.193   3.624   7.616  0.5578 -1.2396 -0.7695
 7139SOL     OW23029   2.943   6.717   2.988  0.1728 -0.1128  0.2875
 7139SOL    HW123030   3.032   6.683   2.977  0.7792  1.2563  0.7159
 7139SOL    HW223031   2.886   6.645   2.960  1.4132 -0.8973 -0.3069
 7140SOL     OW23032   3.608   7.527   0.987  0.0001  0.0083 -0.3512
 7140SOL    HW123033   3.628   7.451   0.933 -1.6726 -0.6276 -0.1483
 7140SOL    HW223034   3.536   7.498   1.044  0.8127  1.0605  1.3020
 7141SOL     OW23035   4.441   4.860   5.091  0.4115 -0.0829  0.1715
 7141SOL    HW123036   4.376   4.907   5.039  0.5501  0.8748  0.8359
 7141SOL    HW223037   4.501   4.821   5.027  0.9046  1.5350 -0.3866
 7142SOL     OW23038   1.540   0.367   1.068 -0.0708  0.2448 -0.3477
 7142SOL    HW123039   1.452   0.397   1.045 -0.4014 -0.6167 -0.2479
 7142SOL    HW223040   1.591   0.380   0.988 -0.2019  1.0457 -0.3095
 7143SOL     OW23041   1.049   7.594   9.842 -0.2231  0.3405  0.0185
 7143SOL    HW123042   1.128   7.606   9.789  0.6846 -1.5724  0.8038
 7143SOL    HW223043   0.988   7.548   9.785 -0.8256  1.9012 -0.6195
 7144SOL     OW23044   8.122   1.008   5.867 -0.0087 -0.1160 -0.3333
 7144SOL    HW123045   8.057   1.064   5.909 -1.8148 -0.6624 -2.2034
 7144SOL    HW223046   8.099   0.919   5.895  1.8587 -0.1449  1.3503
 7145SOL     OW23047   6.032   1.408   6.473  0.0019  0.0482 -0.3070
 7145SOL    HW123048   6.043   1.373   6.385  2.0422 -1.3011  0.3939
 7145SOL    HW223049   6.084   1.488   6.473  2.0045 -1.1752  0.2472
 7146SOL     OW23050   7.412   0.345   2.125 -0.0431  0.1170  0.0570
 7146SOL    HW123051   7.381   0.410   2.063  1.3725 -0.5095 -1.3657
 7146SOL    HW223052   7.356   0.357   2.202  0.5355  3.4345  0.1230
 7147SOL     OW23053   7.227   2.027   6.461  0.0133  0.4498  0.1548
 7147SOL    HW123054   7.193   2.102   6.510 -0.8543 -0.0589  0.3543
 7147SOL    HW223055   7.300   1.994   6.515  1.2764  1.9108 -0.5753
 7148SOL     OW23056   8.463   1.029   0.088 -1.0735 -0.0077  0.5473
 7148SOL    HW123057   8.456   0.993   0.177 -2.2153  1.1912  0.9624
 7148SOL    HW223058   8.395   0.983   0.039 -0.6794 -0.4107  0.3698
 7149SOL     OW23059   2.915   6.707   4.686 -0.0604 -0.0374  0.0728
 7149SOL    HW123060   2.890   6.653   4.761  0.1244 -3.2311 -1.9910
 7149SOL    HW223061   2.992   6.755   4.717  0.1053 -1.3497  1.9109
 7150SOL     OW23062   5.980   8.119   7.192 -0.1183  0.3046 -0.0401
 7150SOL    HW123063   5.888   8.093   7.197 -0.4354  1.1434 -1.1892
 7150SOL    HW223064   5.990   8.154   7.104  0.6057  2.8490  0.9800
 7151SOL     OW23065   3.013   5.916   1.945  0.1170 -0.1638  0.3310
 7151SOL    HW123066   2.974   5.882   1.864  1.6848 -1.8481  0.1961
 7151SOL    HW223067   2.939   5.945   1.997 -1.0848 -0.8047 -0.9443
 7152SOL     OW23068   6.010   8.505   9.305 -0.4461 -0.3612  0.0306
 7152SOL    HW123069   6.064   8.435   9.341 -0.8152 -1.3594 -1.2839
 7152SOL    HW223070   6.073   8.566   9.266 -0.1495 -0.2148  0.7332
 7153SOL     OW23071   5.137   3.770   1.564 -0.4450 -0.5791 -0.2315
 7153SOL    HW123072   5.117   3.859   1.536  0.0643 -0.6796 -0.9375
 7153SOL    HW223073   5.209   3.780   1.627 -2.2630 -0.2613  1.9320
 7154SOL     OW23074   1.055   5.730   4.180  0.4706  0.0506 -0.1372
 7154SOL    HW123075   1.095   5.649   4.212  0.8035  0.0626 -0.5131
 7154SOL    HW223076   1.119   5.798   4.201  0.8005  0.0231 -1.0472
 7155SOL     OW23077   5.279   8.546   0.273  0.4352 -0.5385 -0.6008
 7155SOL    HW123078   5.341   8.540   0.201  0.0479  0.5870 -1.0393
 7155SOL    HW223079   5.200   8.585   0.234 -0.3180 -1.3268  0.0917
 7156SOL     OW23080   0.801   2.820   5.325 -0.2052  0.1607 -0.2698
 7156SOL    HW123081   0.868   2.817   5.257 -0.6944 -0.1218 -0.7334
 7156SOL    HW223082   0.720   2.795   5.282 -0.6317  0.5560  0.2779
 7157SOL     OW23083   3.496   0.884   0.373  0.2431  0.2769  0.5323
 7157SOL    HW123084   3.475   0.909   0.463  2.0467 -0.1411  1.1160
 7157SOL    HW223085   3.513   0.967   0.329  1.1074  0.3938  1.0702
 7158SOL     OW23086   7.971   4.073   6.558 -0.0764  0.2254  0.4209
 7158SOL    HW123087   8.004   4.159   6.582  2.9787 -1.2319  2.0973
 7158SOL    HW223088   8.019   4.050   6.479 -0.4740 -0.1740  0.2873
 7159SOL     OW23089   0.960   4.167   3.654 -0.3658 -0.2745  0.2624
 7159SOL    HW123090   1.008   4.088   3.633 -1.8813 -0.6865 -2.0560
 7159SOL    HW223091   0.884   4.137   3.704  0.7951  0.1821  2.4218
 7160SOL     OW23092   5.616   9.387   6.594  0.0773  0.4202  0.3435
 7160SOL    HW123093   5.615   9.321   6.663  1.6300 -1.3393 -1.2239
 7160SOL    HW223094   5.531   9.431   6.602 -1.7539 -2.8366  0.4610
 7161SOL     OW23095   0.823   7.810   0.088  0.3121 -0.1091  0.2705
 7161SOL    HW123096   0.870   7.870   0.031 -0.3448 -0.5902 -0.8375
 7161SOL    HW223097   0.885   7.788   0.157  1.3280  0.1025 -0.5447
 7162SOL     OW23098   5.571   9.093   3.377  0.1566  0.4372 -0.6534
 7162SOL    HW123099   5.577   9.171   3.432 -0.4251 -1.4775  2.3936
 7162SOL    HW223100   5.485   9.099   3.336  0.7559  2.1081 -1.7348
 7163SOL     OW23101   8.574   0.844   1.631  0.2904  0.5299 -0.0747
 7163SOL    HW123102   8.624   0.817   1.708  1.1787  0.7443 -0.5495
 7163SOL    HW223103   8.606   0.932   1.612  0.2652  0.3860 -0.8182
 7164SOL     OW23104   9.131   5.441   0.523 -0.5419 -0.1651 -0.7440
 7164SOL    HW123105   9.084   5.361   0.502 -0.8860  0.0606 -0.8515
 7164SOL    HW223106   9.063   5.501   0.555 -0.5369  0.5811 -2.0425
 7165SOL     OW23107   1.750   4.771   8.980  0.1966 -0.1659 -0.1863
 7165SOL    HW123108   1.662   4.738   8.966 -1.0124  2.6422  0.1968
 7165SOL    HW223109   1.777   4.804   8.894  0.2588  0.3294  0.0212
 7166SOL     OW23110   3.439   2.951   9.242 -0.4556 -0.0235 -0.0594
 7166SOL    HW123111   3.424   2.867   9.285 -1.5171  1.1013  1.9181
 7166SOL    HW223112   3.532   2.968   9.255 -0.5091 -0.2796  0.7041
 7167SOL     OW23113   3.547   9.647   6.963  0.3153 -0.0705  0.0339
 7167SOL    HW123114   3.564   9.606   7.047  0.2435  1.0136  0.5993
 7167SOL    HW223115   3.480   9.713   6.982  0.7830  0.6419 -0.7411
 7168SOL     OW23116   4.864   9.330   7.360 -0.4349 -0.2790  0.3758
 7168SOL    HW123117   4.775   9.301   7.384  0.4320 -3.3520  0.3600
 7168SOL    HW223118   4.920   9.288   7.425  1.1425  0.0812 -0.7144
 7169SOL     OW23119   0.612   1.335   5.869 -1.1465 -0.1195 -0.2529
 7169SOL    HW123120   0.630   1.329   5.776  1.1724  2.3142 -0.0873
 7169SOL    HW223121   0.670   1.270   5.909  1.3867  1.9506 -0.3076
 7170SOL     OW23122   4.925   0.033   0.754 -0.0231  0.3188  0.4826
 7170SOL    HW123123   4.931  -0.058   0.785  1.3512 -0.2467 -1.2629
 7170SOL    HW223124   4.911   0.025   0.660 -1.3497  1.9485  0.5003
 7171SOL     OW23125   2.433   7.808   7.815 -0.2092 -0.3186  0.6687
 7171SOL    HW123126   2.505   7.861   7.780  0.6406 -0.0633  2.6877
 7171SOL    HW223127   2.365   7.872   7.836  1.1098  0.2141  3.8346
 7172SOL     OW23128   3.155   4.136   3.617  0.6298  0.4671 -0.0331
 7172SOL    HW123129   3.198   4.124   3.532  0.5461 -0.0348 -0.0071
 7172SOL    HW223130   3.168   4.053   3.662  0.5789  0.6945  0.4078
 7173SOL     OW23131   6.821   4.576   3.393  0.1997 -0.1286 -0.0347
 7173SOL    HW123132   6.777   4.554   3.475 -2.1409  1.6335 -0.7151
 7173SOL    HW223133   6.753   4.615   3.339  2.0584  0.3012 -2.2067
 7174SOL     OW23134   4.683   6.810   4.337 -0.2390 -0.3894 -0.1474
 7174SOL    HW123135   4.760   6.799   4.281 -0.3586 -0.4212 -0.3065
 7174SOL    HW223136   4.626   6.868   4.287 -0.3747 -0.4720 -0.0867
 7175SOL     OW23137   8.093   8.770   8.322 -0.1172 -0.0970  0.8530
 7175SOL    HW123138   8.178   8.812   8.337 -0.2341 -0.0227  1.3285
 7175SOL    HW223139   8.080   8.715   8.400 -1.3448  1.2841  1.6671
 7176SOL     OW23140   0.756   8.542   3.983  0.0028  0.4843 -0.5040
 7176SOL    HW123141   0.790   8.585   4.061 -0.8982 -0.9618  0.7366
 7176SOL    HW223142   0.663   8.531   4.000  0.0047 -0.9311 -1.2502
 7177SOL     OW23143   5.232   7.525   3.035 -0.2442 -0.4936  0.7109
 7177SOL    HW123144   5.220   7.609   3.080  1.5315 -0.3130  0.9116
 7177SOL    HW223145   5.169   7.466   3.078 -0.7445  0.4444  1.3049
 7178SOL     OW23146   4.584   7.907   1.419 -0.1899 -0.1153 -0.5851
 7178SOL    HW123147   4.557   7.982   1.471  0.5621 -2.3347  3.5083
 7178SOL    HW223148   4.679   7.917   1.409  0.1217 -0.9559  1.0580
 7179SOL     OW23149   2.692   4.748   8.361  0.4986 -0.4356 -0.1986
 7179SOL    HW123150   2.733   4.662   8.373  0.8381 -0.6007 -2.1877
 7179SOL    HW223151   2.599   4.732   8.374  0.6254 -0.9863  0.0475
 7180SOL     OW23152   4.612   9.615   1.088 -0.0059  0.9367  0.2052
 7180SOL    HW123153   4.677   9.683   1.108 -1.0935  1.6958  1.2925
 7180SOL    HW223154   4.641   9.539   1.138 -0.0903  1.3527  0.8936
 7181SOL     OW23155   1.037   7.599   7.403 -0.1855 -0.4102 -0.2205
 7181SOL    HW123156   0.970   7.660   7.373  0.6671  0.9492  0.4900
 7181SOL    HW223157   1.120   7.643   7.382  0.4555 -1.3075  0.3511
 7182SOL     OW23158   9.377   4.613   2.185  0.2921  0.1378  0.2225
 7182SOL    HW123159   9.335   4.614   2.272  0.5683 -2.2081  0.4256
 7182SOL    HW223160   9.305   4.632   2.124 -0.1663  0.5152  0.8616
 7183SOL     OW23161   6.171   4.769   4.236 -0.2699 -0.6268  0.4105
 7183SOL    HW123162   6.214   4.744   4.317  1.6168 -0.2894 -0.4372
 7183SOL    HW223163   6.175   4.690   4.181  0.9073 -0.0947 -0.3119
 7184SOL     OW23164   7.203   8.630   5.810 -0.0741  0.1954 -0.1311
 7184SOL    HW123165   7.254   8.674   5.741 -1.1268  0.8034 -0.5437
 7184SOL    HW223166   7.119   8.609   5.769 -0.5572  0.1712  0.8310
 7185SOL     OW23167   6.565   2.596   7.906  0.2664 -1.0802  0.3504
 7185SOL    HW123168   6.502   2.587   7.835  1.6580 -1.6938 -0.8524
 7185SOL    HW223169   6.634   2.652   7.871  1.5225 -2.2973  0.7841
 7186SOL     OW23170   2.355   7.519   1.526 -0.0805 -0.1460  0.2816
 7186SOL    HW123171   2.413   7.580   1.570  0.5945 -0.9994  0.5958
 7186SOL    HW223172   2.318   7.466   1.596 -0.4908 -0.2504 -0.0102
 7187SOL     OW23173   6.077   7.071   2.844  0.6437 -0.1849  0.1335
 7187SOL    HW123174   5.999   7.055   2.791  1.3920 -0.8033 -0.8093
 7187SOL    HW223175   6.110   7.156   2.814 -0.9009  1.2376  2.1339
 7188SOL     OW23176   0.890   7.751   5.601  0.0053 -0.8317  0.1940
 7188SOL    HW123177   0.903   7.715   5.689  0.9859  0.6559  0.7017
 7188SOL    HW223178   0.804   7.720   5.574 -0.1886 -1.5472  1.5625
 7189SOL     OW23179   5.080   5.168   0.298  0.2436 -0.4093 -0.0662
 7189SOL    HW123180   5.131   5.131   0.226  0.7011 -1.8334  0.9553
 7189SOL    HW223181   5.086   5.103   0.368 -0.3945  0.8178  1.1798
 7190SOL     OW23182   1.456   3.670   8.142  0.3614  0.5194 -0.2364
 7190SOL    HW123183   1.521   3.601   8.153  0.8028  0.8435 -0.7553
 7190SOL    HW223184   1.387   3.630   8.088  0.5582  0.4453 -0.4346
 7191SOL     OW23185   1.006   8.352   8.366  0.1467  0.4790  0.7026
 7191SOL    HW123186   1.045   8.430   8.407  1.2845  0.5361 -0.4238
 7191SOL    HW223187   1.009   8.370   8.272  0.5825 -0.9899  0.4122
 7192SOL     OW23188   3.885   0.039   9.068  0.6486  0.5821  0.0783
 7192SOL    HW123189   3.895   0.132   9.047 -2.0957  1.3142  1.5713
 7192SOL    HW223190   3.899   0.034   9.162 -1.7325 -0.0011  0.4677
 7193SOL     OW23191   1.624   4.743   8.618 -0.4202  0.2392  0.1080
 7193SOL    HW123192   1.537   4.767   8.588 -0.8750  0.8016  1.7426
 7193SOL    HW223193   1.612   4.719   8.710  1.0899 -0.0217  0.2705
 7194SOL     OW23194   4.139   9.018   2.239 -0.3246 -0.3351 -0.3098
 7194SOL    HW123195   4.062   9.050   2.286  0.4040  0.5439  0.3169
 7194SOL    HW223196   4.175   9.095   2.196  1.0070 -0.4141  0.5804
 7195SOL     OW23197   9.255   8.333   0.570  0.1323 -0.4218 -0.1804
 7195SOL    HW123198   9.345   8.302   0.583  0.2057  0.5287  1.9136
 7195SOL    HW223199   9.248   8.411   0.624 -1.9569 -0.4360 -0.3409
 7196SOL     OW23200   7.057   3.963   3.844  0.5301  0.2133  0.0089
 7196SOL    HW123201   7.040   4.037   3.787  0.4186  0.9218  0.9521
 7196SOL    HW223202   7.130   3.917   3.802 -0.0458  0.2969 -1.0905
 7197SOL     OW23203   2.661   0.166   6.813 -0.2838 -0.1752  0.2033
 7197SOL    HW123204   2.584   0.142   6.761 -0.7696 -0.6818  1.1208
 7197SOL    HW223205   2.735   0.139   6.759 -0.5883  2.8110 -1.9392
 7198SOL     OW23206   5.521   2.635   2.642 -0.1965  0.1043 -0.5826
 7198SOL    HW123207   5.601   2.687   2.635  0.1499 -0.6657 -4.1165
 7198SOL    HW223208   5.486   2.632   2.553 -3.8275 -0.2159  0.6736
 7199SOL     OW23209   7.120   4.333   0.291  0.8422  0.1238 -0.4265
 7199SOL    HW123210   7.130   4.305   0.383 -3.3584  1.2764  0.5933
 7199SOL    HW223211   7.188   4.399   0.279  2.2558 -0.8777  1.4182
 7200SOL     OW23212   3.597   5.492   2.316 -1.3152  0.2124 -0.1552
 7200SOL    HW123213   3.538   5.490   2.241 -2.2147 -1.2847  0.5426
 7200SOL    HW223214   3.539   5.489   2.392 -0.3701 -1.1253  0.5563
 7201SOL     OW23215   7.119   2.842   9.671 -0.9785  0.2453 -0.1844
 7201SOL    HW123216   7.134   2.795   9.753 -3.8121 -0.8052 -0.1654
 7201SOL    HW223217   7.055   2.910   9.694 -3.0739 -1.0925 -1.7625
 7202SOL     OW23218   4.480   8.676   6.846  0.3201  0.0719  0.3141
 7202SOL    HW123219   4.404   8.732   6.860 -0.3543 -0.7204 -0.1421
 7202SOL    HW223220   4.547   8.712   6.904 -0.3169  0.9355  0.5245
 7203SOL     OW23221   3.707   3.417   9.387  0.0054  0.0983 -0.0228
 7203SOL    HW123222   3.713   3.487   9.452 -1.8848  0.1993  0.0929
 7203SOL    HW223223   3.794   3.414   9.348  0.9482  0.6082  1.9041
 7204SOL     OW23224   6.725   7.877   9.468 -0.0991 -0.2286 -0.3528
 7204SOL    HW123225   6.708   7.907   9.379 -1.0627  0.3922  0.0302
 7204SOL    HW223226   6.709   7.783   9.464  0.1271 -0.2530 -0.8877
 7205SOL     OW23227   7.610   2.292   1.246  0.5144  0.0373  0.5716
 7205SOL    HW123228   7.595   2.312   1.154 -2.4865 -1.7124  0.5502
 7205SOL    HW223229   7.612   2.197   1.251  3.8969  0.0442  1.9815
 7206SOL     OW23230   0.705   1.062   7.117 -0.3000  0.3204 -0.0162
 7206SOL    HW123231   0.774   1.014   7.164 -1.0274 -1.1158 -0.3487
 7206SOL    HW223232   0.675   1.001   7.050 -1.3463  1.2177 -0.3945
 7207SOL     OW23233   2.444   4.579   2.612 -0.0152  0.1126  0.1022
 7207SOL    HW123234   2.485   4.589   2.697  1.4789 -2.0061 -0.2754
 7207SOL    HW223235   2.385   4.653   2.604  0.8158  1.0943  2.3914
 7208SOL     OW23236   8.500   9.370   6.973 -0.3442 -0.2937  0.5654
 7208SOL    HW123237   8.546   9.429   7.033  0.7139 -1.4793  0.9627
 7208SOL    HW223238   8.426   9.338   7.024 -0.7542  0.4256  0.4475
 7209SOL     OW23239   7.566   8.509   8.983 -0.6188 -0.2259 -0.2504
 7209SOL    HW123240   7.628   8.573   9.019 -1.5067  0.2402  0.4782
 7209SOL    HW223241   7.622   8.443   8.942  0.3545  0.2902  0.1979
 7210SOL     OW23242   4.040   1.269   7.764  0.1094 -0.5333  0.5518
 7210SOL    HW123243   4.108   1.247   7.827 -0.0956 -1.7645  0.3762
 7210SOL    HW223244   4.088   1.286   7.682  0.2137 -1.6415  0.3653
 7211SOL     OW23245   3.510   1.993   9.668  0.3557  0.1669 -0.7493
 7211SOL    HW123246   3.530   1.933   9.595  0.7360 -0.6210 -0.0126
 7211SOL    HW223247   3.471   1.937   9.735 -0.3310  0.9504 -0.4753
 7212SOL     OW23248   7.619   3.863   1.913 -0.3370  0.4185 -0.0706
 7212SOL    HW123249   7.579   3.794   1.860 -2.8191  0.5579  1.4541
 7212SOL    HW223250   7.664   3.816   1.983  2.2981  0.2679 -1.7118
 7213SOL     OW23251   3.580   6.449   9.473  0.6061 -1.0264  0.3786
 7213SOL    HW123252   3.588   6.388   9.547 -0.6553 -0.5736  0.9192
 7213SOL    HW223253   3.486   6.452   9.455  0.9274 -1.5551 -1.6340
 7214SOL     OW23254   2.579   6.649   8.222 -0.2904  0.3260  0.2253
 7214SOL    HW123255   2.517   6.591   8.179  0.0633  0.2562 -0.2011
 7214SOL    HW223256   2.652   6.593   8.247 -0.0990  0.5212  0.1161
 7215SOL     OW23257   3.001   3.690   4.131 -0.1110 -0.0728  0.5306
 7215SOL    HW123258   3.059   3.737   4.191 -0.4575  1.0073  0.0537
 7215SOL    HW223259   2.926   3.664   4.185 -1.2372  2.3816  0.2758
 7216SOL     OW23260   6.520   6.087   8.944 -0.3946  0.0310 -0.3918
 7216SOL    HW123261   6.477   6.079   8.858 -0.8363  0.1436 -0.1839
 7216SOL    HW223262   6.573   6.166   8.937  1.1638 -1.0283 -1.2418
 7217SOL     OW23263   1.242   8.537   5.932  0.1374  0.1403  0.3345
 7217SOL    HW123264   1.332   8.544   5.900  0.6566 -0.5840  1.5883
 7217SOL    HW223265   1.238   8.601   6.003 -0.4290  0.3527  0.1156
 7218SOL     OW23266   7.461   2.119   8.926  0.0586 -0.2582  0.6300
 7218SOL    HW123267   7.367   2.102   8.929  0.2996 -1.5479  1.4325
 7218SOL    HW223268   7.499   2.059   8.990  1.3455  0.9205  1.0310
 7219SOL     OW23269   3.270   2.850   7.461  0.5359  0.1122 -0.0608
 7219SOL    HW123270   3.310   2.862   7.375 -1.0150  0.7458 -0.7237
 7219SOL    HW223271   3.197   2.790   7.445  0.5057 -0.1130  0.8949
 7220SOL     OW23272   1.293   0.001   1.628 -0.1182  0.2311  0.3153
 7220SOL    HW123273   1.260   0.085   1.660 -1.0461 -0.3652  0.9559
 7220SOL    HW223274   1.282   0.006   1.533  0.0284  0.9079  0.3239
 7221SOL     OW23275   4.142   0.217   4.279 -0.3876  0.0831 -0.3137
 7221SOL    HW123276   4.104   0.149   4.223 -0.8055  0.6829 -0.7810
 7221SOL    HW223277   4.068   0.251   4.329  0.0030 -0.5151  0.6966
 7222SOL     OW23278   6.662   0.531   8.249  0.3045 -0.1599  0.1936
 7222SOL    HW123279   6.756   0.510   8.248  0.5869  0.8944  1.5785
 7222SOL    HW223280   6.659   0.624   8.273 -1.0646  0.1054 -0.9442
 7223SOL     OW23281   7.988   6.897   8.958  0.0708 -0.3491 -0.2620
 7223SOL    HW123282   7.978   6.845   8.878  0.7784  0.1150 -0.6512
 7223SOL    HW223283   7.904   6.942   8.967 -0.4749 -1.3806 -0.0395
 7224SOL     OW23284   4.076   9.488   7.998  0.4128  0.2184 -0.0264
 7224SOL    HW123285   4.081   9.486   8.093 -2.2842  0.6950  0.2038
 7224SOL    HW223286   4.103   9.577   7.974  2.8027 -0.4213  0.0827
 7225SOL     OW23287   0.563   8.374   0.199  0.7329 -0.3189 -0.5228
 7225SOL    HW123288   0.526   8.303   0.251  1.0139 -1.1731 -1.4505
 7225SOL    HW223289   0.640   8.403   0.249  1.5548 -1.7685 -0.8944
 7226SOL     OW23290   4.103   5.616   6.588  0.0412 -0.3059  0.1787
 7226SOL    HW123291   4.019   5.662   6.586 -0.0775 -0.4026  1.7901
 7226SOL    HW223292   4.161   5.670   6.535 -1.2289 -0.6913 -1.6999
 7227SOL     OW23293   6.956   4.723   9.071 -0.0400 -0.1005  0.0515
 7227SOL    HW123294   6.954   4.819   9.074  0.3722 -0.1060  0.8469
 7227SOL    HW223295   7.023   4.703   9.006  0.3655  0.1648  0.3775
 7228SOL     OW23296   7.503   9.164   2.684  0.0921 -0.1574 -0.1906
 7228SOL    HW123297   7.450   9.137   2.759 -0.7922 -0.5090 -0.9202
 7228SOL    HW223298   7.504   9.260   2.688  0.0968 -0.1776  0.2968
 7229SOL     OW23299   2.806   0.167   0.825  0.1435  0.5059  0.2663
 7229SOL    HW123300   2.858   0.220   0.886 -1.0854  0.1305  1.7016
 7229SOL    HW223301   2.779   0.229   0.758 -0.0464  1.3971  1.1283
 7230SOL     OW23302   7.262   9.176   9.477 -0.9163  0.2444  0.6555
 7230SOL    HW123303   7.223   9.138   9.399  1.0228 -0.7644  0.0948
 7230SOL    HW223304   7.215   9.258   9.491 -2.7584 -0.6167 -0.2722
 7231SOL     OW23305   6.819   4.134   6.203  0.3113  0.1819  0.3208
 7231SOL    HW123306   6.903   4.161   6.242  0.2715  0.7494  0.0328
 7231SOL    HW223307   6.805   4.197   6.132 -0.1012 -0.2383  0.0261
 7232SOL     OW23308   0.690   1.694   0.521  0.3587  0.1378 -0.1173
 7232SOL    HW123309   0.723   1.642   0.448  1.8734  0.1092  0.5543
 7232SOL    HW223310   0.762   1.754   0.542 -0.4107  0.7778  0.7512
 7233SOL     OW23311   6.338   9.370   5.468 -0.3707  0.2407  0.2359
 7233SOL    HW123312   6.266   9.310   5.484 -0.3666 -0.0813 -0.9019
 7233SOL    HW223313   6.306   9.455   5.499 -1.1859  0.0736 -0.1255
 7234SOL     OW23314   1.043   6.340   0.623  0.4776 -0.0181 -0.7448
 7234SOL    HW123315   1.092   6.421   0.636  1.7516 -1.0074  1.1015
 7234SOL    HW223316   0.964   6.350   0.675  0.5467  0.1093 -0.6642
 7235SOL     OW23317   6.064   5.424   8.679 -0.6479 -0.1525  0.0684
 7235SOL    HW123318   6.030   5.344   8.640 -3.2642  0.1741  1.4501
 7235SOL    HW223319   6.038   5.419   8.771  3.0197  0.2970  1.3094
 7236SOL     OW23320   7.484   7.230   8.169 -0.6438  0.1267 -0.0475
 7236SOL    HW123321   7.452   7.140   8.158  2.2876 -0.8575 -1.7402
 7236SOL    HW223322   7.502   7.238   8.263 -0.2079 -1.3324  0.0109
 7237SOL     OW23323   8.883   7.018   0.472 -0.3338  0.3756 -0.4478
 7237SOL    HW123324   8.789   7.024   0.488 -0.2794  0.2255 -0.0597
 7237SOL    HW223325   8.899   7.080   0.401 -0.5163  1.4477  0.4155
 7238SOL     OW23326   8.825   4.262   3.784 -0.8186  0.4369 -0.0138
 7238SOL    HW123327   8.770   4.185   3.798 -0.3873 -0.2272 -1.7026
 7238SOL    HW223328   8.770   4.322   3.733 -1.6600  1.9296  2.4835
 7239SOL     OW23329   1.558   0.868   8.258  0.1534  0.7957 -0.7226
 7239SOL    HW123330   1.574   0.795   8.197 -0.1824  1.1021 -1.1868
 7239SOL    HW223331   1.636   0.922   8.250  1.4627 -0.6580  1.3292
 7240SOL     OW23332   8.492   5.747   6.434  0.0779 -0.5423  0.1987
 7240SOL    HW123333   8.422   5.696   6.473  1.4501 -2.2071  0.5911
 7240SOL    HW223334   8.559   5.683   6.411  0.8177  0.7998 -1.6618
 7241SOL     OW23335   3.035   1.303   7.009  0.4959  0.3992 -0.8539
 7241SOL    HW123336   3.121   1.291   6.969 -0.1629 -4.0706 -1.4371
 7241SOL    HW223337   3.049   1.284   7.102  0.1659 -0.6759 -1.0054
 7242SOL     OW23338   1.362   0.450   9.336 -0.1350  0.3312 -0.3801
 7242SOL    HW123339   1.373   0.540   9.366  1.9532  0.2162 -0.6854
 7242SOL    HW223340   1.450   0.421   9.312 -0.5854 -2.0886  0.5372
 7243SOL     OW23341   3.964   5.087   8.900  0.2304 -0.8049 -0.5218
 7243SOL    HW123342   4.033   5.150   8.919 -0.9119  0.4803 -0.4752
 7243SOL    HW223343   3.963   5.029   8.975  1.1043 -0.7001 -0.4188
 7244SOL     OW23344   4.856   3.937   5.186  0.1493 -0.3247  0.0845
 7244SOL    HW123345   4.776   3.946   5.238 -0.3241  0.4767 -0.7517
 7244SOL    HW223346   4.927   3.946   5.249 -0.4160 -0.1953  0.7136
 7245SOL     OW23347   2.626   9.751   3.265 -0.1142 -0.0985 -0.7108
 7245SOL    HW123348   2.645   9.740   3.172 -1.4669 -1.5296 -0.8674
 7245SOL    HW223349   2.621   9.662   3.300  1.9756  0.4229  1.1343
 7246SOL     OW23350   7.077   4.148   7.671 -0.5576 -0.3935  0.0258
 7246SOL    HW123351   6.986   4.168   7.649 -0.4143 -2.4996 -3.1851
 7246SOL    HW223352   7.127   4.223   7.638 -0.9846 -0.2762 -0.3581
 7247SOL     OW23353   9.741   0.003   8.477 -0.1316  0.3532 -0.6812
 7247SOL    HW123354   9.832  -0.001   8.507 -0.9445 -4.1813  2.1075
 7247SOL    HW223355   9.741  -0.047   8.395  0.0644  1.9410 -1.6981
 7248SOL     OW23356   6.962   7.035   4.589 -0.4919  0.0631 -0.2928
 7248SOL    HW123357   6.885   7.039   4.646  0.2067  0.2407  0.6643
 7248SOL    HW223358   7.018   6.968   4.628 -0.5847 -0.7896 -1.5482
 7249SOL     OW23359   7.825   7.783   4.785  0.1740 -0.4878 -0.0810
 7249SOL    HW123360   7.916   7.786   4.813 -0.3412  1.2360  1.5602
 7249SOL    HW223361   7.795   7.696   4.813  0.5539 -0.0046  1.9748
 7250SOL     OW23362   7.140   5.982   2.485 -0.4683 -0.5234  0.6160
 7250SOL    HW123363   7.185   5.903   2.517  0.9113 -0.0573 -0.0966
 7250SOL    HW223364   7.178   6.054   2.535 -0.1084 -0.0738 -0.2812
 7251SOL     OW23365   7.576   6.786   7.705  0.4256 -0.0091 -0.7559
 7251SOL    HW123366   7.646   6.760   7.646 -0.4102 -1.0262 -1.3305
 7251SOL    HW223367   7.504   6.725   7.686 -0.5517  0.8854 -0.0674
 7252SOL     OW23368   0.168   4.819   4.152 -0.9012 -0.1752  0.4551
 7252SOL    HW123369   0.221   4.742   4.136 -1.7646 -0.6096 -0.3876
 7252SOL    HW223370   0.086   4.785   4.187 -1.2756  0.3573  0.1144
 7253SOL     OW23371   9.553   3.913   7.232 -0.0538  0.1679 -0.2753
 7253SOL    HW123372   9.585   3.859   7.305 -0.1109  4.0355  2.9476
 7253SOL    HW223373   9.631   3.961   7.202 -0.8025  1.7850  0.2805
 7254SOL     OW23374   6.621   9.725   6.874  0.4280 -0.3187 -0.0898
 7254SOL    HW123375   6.670   9.731   6.792  0.9657  1.6970  0.3201
 7254SOL    HW223376   6.688   9.712   6.941 -0.0438 -2.4189  0.0412
 7255SOL     OW23377   0.223   8.467   3.726  0.3494  0.4886 -0.3090
 7255SOL    HW123378   0.145   8.522   3.721  0.8287  1.3657  1.0269
 7255SOL    HW223379   0.296   8.529   3.728  1.1140 -0.3129 -1.6461
 7256SOL     OW23380   3.617   7.049   9.128  0.1786 -0.8793  0.6962
 7256SOL    HW123381   3.617   6.961   9.088 -0.7661 -0.4336 -0.3509
 7256SOL    HW223382   3.525   7.064   9.150  0.2895 -0.0287  0.5839
 7257SOL     OW23383   4.832   8.349   3.040  0.0511 -0.2842 -0.1916
 7257SOL    HW123384   4.849   8.391   2.956  0.9785 -2.5669 -1.2359
 7257SOL    HW223385   4.758   8.290   3.022  0.5703 -1.1481  0.4408
 7258SOL     OW23386   0.075   4.277   1.898 -0.5428  0.5008 -0.0164
 7258SOL    HW123387   0.132   4.255   1.824 -0.9186 -0.2849 -0.0933
 7258SOL    HW223388   0.116   4.352   1.940  0.6306 -0.1378  0.0214
 7259SOL     OW23389   0.200   7.380   9.634  0.6690 -0.1024  0.2216
 7259SOL    HW123390   0.244   7.363   9.718  0.1464 -2.3226  0.1084
 7259SOL    HW223391   0.109   7.398   9.658  0.2135 -2.0342  0.1250
 7260SOL     OW23392   7.223   6.996   1.239  0.2722  0.7806 -0.1375
 7260SOL    HW123393   7.295   6.998   1.302 -0.9585 -0.1872  1.3737
 7260SOL    HW223394   7.231   6.910   1.197  0.3372  0.9114 -0.3944
 7261SOL     OW23395   5.403   0.065   3.007  0.0928  0.4690  0.2789
 7261SOL    HW123396   5.496   0.067   2.986 -0.1824 -0.3661 -1.1514
 7261SOL    HW223397   5.372  -0.018   2.971 -1.2304  0.8003  0.6006
 7262SOL     OW23398   4.202   0.629   4.548  0.0612 -0.1892 -0.2028
 7262SOL    HW123399   4.238   0.678   4.622 -0.1848  2.0272 -1.4655
 7262SOL    HW223400   4.248   0.663   4.472 -0.3686 -1.7363 -1.1963
 7263SOL     OW23401   1.157   5.090   5.299  0.0774 -0.6097 -0.8283
 7263SOL    HW123402   1.234   5.128   5.256  0.9080 -0.7873  0.4398
 7263SOL    HW223403   1.150   5.137   5.382 -1.0590 -0.7511 -0.8363
 7264SOL     OW23404   9.133   6.095   3.431  0.5002  0.1278  0.4808
 7264SOL    HW123405   9.127   6.015   3.379  1.4536  0.6501 -0.4733
 7264SOL    HW223406   9.043   6.112   3.460  0.1529 -0.8083 -0.0113
 7265SOL     OW23407   8.587   3.625   7.931  0.2108 -0.0796  0.0865
 7265SOL    HW123408   8.672   3.659   7.959 -0.0809 -0.4612  1.5544
 7265SOL    HW223409   8.524   3.687   7.967 -0.2374 -1.1776  1.2646
 7266SOL     OW23410   7.898   2.569   8.310  0.5010 -0.6709  0.1315
 7266SOL    HW123411   7.939   2.603   8.390  1.0094  2.8925 -1.4359
 7266SOL    HW223412   7.949   2.491   8.289  0.6888 -1.4168  2.9326
 7267SOL     OW23413   7.907   8.887   2.504 -0.4031  0.0405  0.1155
 7267SOL    HW123414   7.841   8.827   2.470 -0.9839  0.2742  0.8204
 7267SOL    HW223415   7.934   8.939   2.427  0.0408 -1.0380 -0.4780
 7268SOL     OW23416   0.123   3.745   6.174 -0.4144  0.2086 -0.0092
 7268SOL    HW123417   0.101   3.790   6.256 -0.9612  0.8921 -0.5134
 7268SOL    HW223418   0.218   3.739   6.175 -0.4396 -0.2133  0.8946
 7269SOL     OW23419   6.768   2.904   3.566  0.2856  0.3352 -0.5273
 7269SOL    HW123420   6.700   2.948   3.515 -1.0646 -0.8095  0.2259
 7269SOL    HW223421   6.791   2.827   3.513 -1.6181 -1.2424  0.8035
 7270SOL     OW23422   5.372   8.772   8.420 -0.6992  0.4715  0.6339
 7270SOL    HW123423   5.326   8.734   8.495 -1.6706 -1.3554 -0.8066
 7270SOL    HW223424   5.459   8.731   8.423 -1.6426 -1.8098 -0.7375
 7271SOL     OW23425   0.091   1.284   4.735  0.2677 -0.6684 -0.5431
 7271SOL    HW123426   0.079   1.349   4.805 -1.1883  0.3417 -1.6905
 7271SOL    HW223427   0.181   1.253   4.748  0.8138  1.1325  0.4032
 7272SOL     OW23428   0.846   2.022   2.819  0.3616  0.6789 -0.5491
 7272SOL    HW123429   0.918   2.058   2.767  0.6420  1.0188  0.0668
 7272SOL    HW223430   0.856   2.063   2.905  1.7398 -2.1374  0.7627
 7273SOL     OW23431   5.180   0.011   6.748  0.1253  0.3957 -0.7486
 7273SOL    HW123432   5.273   0.009   6.727  0.6570  0.4024  1.3785
 7273SOL    HW223433   5.169   0.091   6.800 -1.0025  0.2294 -0.7137
 7274SOL     OW23434   9.842   5.645   0.668 -0.0864 -0.2842 -0.1859
 7274SOL    HW123435   9.761   5.624   0.622  0.1577  0.4300 -0.9530
 7274SOL    HW223436   9.829   5.609   0.756 -0.4170 -1.9614 -0.8914
 7275SOL     OW23437   6.818   3.384   5.177 -0.2656  0.2922 -0.2612
 7275SOL    HW123438   6.736   3.413   5.137 -0.5844 -0.4326 -0.1581
 7275SOL    HW223439   6.801   3.389   5.271 -0.3317 -0.2191 -0.2414
 7276SOL     OW23440   5.128   5.320   0.988  0.2859  0.0156 -0.3417
 7276SOL    HW123441   5.088   5.285   0.908  0.4805 -0.8136 -0.0852
 7276SOL    HW223442   5.222   5.301   0.978  0.2608 -0.4375  0.2588
 7277SOL     OW23443   8.513   8.166   2.336 -0.5425 -0.1928  0.7030
 7277SOL    HW123444   8.554   8.081   2.320 -1.2258 -0.7001  1.5451
 7277SOL    HW223445   8.576   8.213   2.391  0.3924  0.3528 -0.7653
 7278SOL     OW23446   7.500   3.914   8.960  0.2677 -0.3121 -0.6135
 7278SOL    HW123447   7.507   3.819   8.957 -1.3455 -0.5795  1.8664
 7278SOL    HW223448   7.590   3.945   8.968  0.6693 -1.7733  0.8557
 7279SOL     OW23449   7.557   6.669   0.947  0.0461  0.0659 -0.4621
 7279SOL    HW123450   7.517   6.666   0.861 -1.5267 -0.5670  0.2509
 7279SOL    HW223451   7.550   6.760   0.975 -1.5687 -0.1535 -0.0768
 7280SOL     OW23452   9.334   6.636   6.560  0.5122 -0.0998  0.5946
 7280SOL    HW123453   9.249   6.592   6.567  0.1802  0.2586 -0.8091
 7280SOL    HW223454   9.369   6.607   6.476  1.0525  0.9925  0.4248
 7281SOL     OW23455   5.144   7.723   1.945  1.0004 -0.4666 -0.4957
 7281SOL    HW123456   5.052   7.701   1.927  0.6555 -1.6661  2.1647
 7281SOL    HW223457   5.139   7.788   2.016  2.1686 -1.5285  0.6106
 7282SOL     OW23458   0.029   4.017   2.085  0.3460  0.4544  0.0726
 7282SOL    HW123459   0.001   4.096   2.131 -2.3231  0.6672 -1.6898
 7282SOL    HW223460  -0.018   3.946   2.130 -1.3492  0.5326 -1.4730
 7283SOL     OW23461   8.985   5.078   2.409  0.0592  0.3960 -0.1498
 7283SOL    HW123462   9.075   5.053   2.388  0.2453 -1.3496  2.2209
 7283SOL    HW223463   8.943   4.995   2.434 -1.6855  1.4095  0.4409
 7284SOL     OW23464   3.476   2.097   8.941  0.2717 -0.4370 -0.0767
 7284SOL    HW123465   3.394   2.110   8.989 -0.8344 -2.0540 -1.3998
 7284SOL    HW223466   3.488   2.179   8.892 -0.2432  0.0268  0.5574
 7285SOL     OW23467   7.832   6.915   1.830 -0.2747  0.2975  0.7900
 7285SOL    HW123468   7.832   6.858   1.753 -3.2868  1.1118  0.0774
 7285SOL    HW223469   7.878   6.864   1.897  2.7401 -0.3154 -1.5181
 7286SOL     OW23470   1.033   1.311   9.608 -0.0586 -0.3803  0.2653
 7286SOL    HW123471   0.988   1.395   9.617 -0.2702 -0.3510 -0.9169
 7286SOL    HW223472   1.007   1.279   9.521 -0.0255 -1.6931  0.7150
 7287SOL     OW23473   2.909   6.865   1.687 -0.5704  0.1995  0.6650
 7287SOL    HW123474   2.990   6.874   1.738 -1.6632  0.4706  2.4354
 7287SOL    HW223475   2.895   6.771   1.681  1.0634  0.0347 -1.7022
 7288SOL     OW23476   7.879   2.846   5.059 -0.7752 -0.5695 -0.0908
 7288SOL    HW123477   7.959   2.802   5.088  0.1272  0.9368 -0.1879
 7288SOL    HW223478   7.813   2.822   5.124  0.0265 -0.9912  0.5838
 7289SOL     OW23479   4.450   4.696   3.965 -0.6147 -0.6430 -0.2871
 7289SOL    HW123480   4.432   4.766   4.028  0.3307 -0.0470 -0.6609
 7289SOL    HW223481   4.431   4.735   3.880 -1.9022 -1.4495 -0.3966
 7290SOL     OW23482   6.849   5.355   9.555 -0.2046  0.5068  0.1421
 7290SOL    HW123483   6.873   5.434   9.603 -0.3010 -0.3792  1.7004
 7290SOL    HW223484   6.897   5.285   9.598  0.4488 -0.2274 -1.6772
 7291SOL     OW23485   3.719   7.284   1.162 -0.2470 -0.1344  0.6958
 7291SOL    HW123486   3.723   7.362   1.217 -1.5811 -0.4036  1.2117
 7291SOL    HW223487   3.687   7.215   1.220 -0.1896 -0.7924 -0.0338
 7292SOL     OW23488   8.474   2.722   3.148 -0.4543 -0.8223  0.0370
 7292SOL    HW123489   8.510   2.664   3.216 -0.8284 -1.8167 -0.5831
 7292SOL    HW223490   8.396   2.760   3.188  1.4685  1.8120  1.6054
 7293SOL     OW23491   0.218   0.736   1.069  0.0496  0.3740 -0.2873
 7293SOL    HW123492   0.261   0.742   1.155  1.3958 -0.8104 -0.8342
 7293SOL    HW223493   0.236   0.647   1.040 -2.6038 -0.0920 -0.6962
 7294SOL     OW23494   6.163   7.280   1.657  0.3271  0.6190  0.3966
 7294SOL    HW123495   6.192   7.248   1.572  1.1242 -1.3653  1.3540
 7294SOL    HW223496   6.122   7.205   1.698  0.8495  1.2507  2.1630
 7295SOL     OW23497   8.569   6.403   8.520 -0.1344  0.0348  0.1898
 7295SOL    HW123498   8.634   6.460   8.478  2.0368 -1.6460  1.0896
 7295SOL    HW223499   8.515   6.372   8.447  0.1081  1.3919 -0.6144
 7296SOL     OW23500   9.660   7.224   2.463 -0.2955  0.1753 -0.4660
 7296SOL    HW123501   9.584   7.276   2.491 -0.4195  0.5863 -1.5328
 7296SOL    HW223502   9.695   7.189   2.544 -2.0665 -0.6257  0.0090
 7297SOL     OW23503   2.051   1.764   8.187 -0.2300 -0.3209 -0.7198
 7297SOL    HW123504   2.062   1.689   8.129  2.1058 -0.6073  0.0033
 7297SOL    HW223505   2.106   1.833   8.149 -1.0145  0.4863 -0.4421
 7298SOL     OW23506   0.138   6.702   1.030 -0.0800 -0.2492 -0.1439
 7298SOL    HW123507   0.069   6.751   0.986  0.7297  2.2228  1.1229
 7298SOL    HW223508   0.093   6.653   1.098 -0.6343  1.4469  0.7663
 7299SOL     OW23509   8.727   2.853   0.925  0.3642  0.0030 -0.5620
 7299SOL    HW123510   8.695   2.881   0.839 -3.4613 -0.3388  0.5826
 7299SOL    HW223511   8.719   2.758   0.924  3.1645 -0.3239 -0.7320
 7300SOL     OW23512   4.596   0.712   5.107 -0.5035  0.2402  0.2078
 7300SOL    HW123513   4.588   0.679   5.196 -0.5351  1.2443  0.5890
 7300SOL    HW223514   4.507   0.708   5.071 -0.6633  0.7092  0.5449
 7301SOL     OW23515   4.120   4.557   0.214  0.1115 -0.0984  0.8773
 7301SOL    HW123516   4.071   4.553   0.296  1.6236  0.2701  1.8399
 7301SOL    HW223517   4.147   4.467   0.198 -0.9932 -0.3413  0.2303
 7302SOL     OW23518   5.463   7.851   2.340 -0.1996  0.6068 -0.1774
 7302SOL    HW123519   5.483   7.917   2.407 -0.7890 -1.0835  1.8023
 7302SOL    HW223520   5.427   7.778   2.390  0.7407 -1.3647 -2.2267
 7303SOL     OW23521   0.141   8.186   7.253 -0.6813 -0.4332 -0.0688
 7303SOL    HW123522   0.130   8.145   7.167 -0.6756 -0.5311 -0.0230
 7303SOL    HW223523   0.120   8.117   7.315 -0.3944 -0.4488  0.0133
 7304SOL     OW23524   1.047   3.343   5.736 -0.0150  0.3666  0.1404
 7304SOL    HW123525   1.069   3.422   5.786  0.4152  0.2056  0.2063
 7304SOL    HW223526   1.111   3.278   5.764  1.8123  0.9339 -2.3628
 7305SOL     OW23527   4.994   7.231   5.494  0.0025  0.2888  0.5115
 7305SOL    HW123528   4.900   7.244   5.486 -0.1408 -0.9235  0.0025
 7305SOL    HW223529   5.022   7.296   5.558 -0.8309  2.1253 -0.8755
 7306SOL     OW23530   5.940   0.112   6.358  0.8107 -0.3416  0.0968
 7306SOL    HW123531   5.953   0.042   6.422  0.3737  2.2854  3.3568
 7306SOL    HW223532   6.028   0.136   6.330  1.0628 -1.0699  0.2591
 7307SOL     OW23533   4.155   0.136   9.443 -0.7050  0.3275  0.2810
 7307SOL    HW123534   4.116   0.161   9.360 -1.1151  0.9209  0.6403
 7307SOL    HW223535   4.130   0.206   9.504  0.3845  0.3991  0.6828
 7308SOL     OW23536   2.376   7.355   9.095 -0.4360 -0.0128 -0.4049
 7308SOL    HW123537   2.356   7.279   9.039 -1.1033 -0.3297  0.2491
 7308SOL    HW223538   2.304   7.415   9.080 -0.0893  0.3517 -0.6462
 7309SOL     OW23539   4.103   8.139   7.517 -0.0138 -0.2571 -0.0648
 7309SOL    HW123540   4.012   8.110   7.522 -0.3564  0.9194  1.4459
 7309SOL    HW223541   4.097   8.235   7.514  1.1473 -0.0211  2.4180
 7310SOL     OW23542   1.405   7.437   4.715 -0.1803 -0.2567  0.1077
 7310SOL    HW123543   1.422   7.344   4.726 -0.6969 -0.5480 -1.2799
 7310SOL    HW223544   1.399   7.472   4.804 -2.6694 -2.0509  0.7462
 7311SOL     OW23545   9.153   9.101   1.444  0.1108  0.2228  1.1074
 7311SOL    HW123546   9.132   9.134   1.532 -2.1320  0.6861  0.4534
 7311SOL    HW223547   9.216   9.164   1.410 -1.2866  1.7919  1.2910
 7312SOL     OW23548   4.924   6.075   3.306 -0.3515  0.1035 -0.0941
 7312SOL    HW123549   4.987   6.141   3.277 -1.1364  0.2291 -1.5820
 7312SOL    HW223550   4.946   6.060   3.398  1.3166  0.7347 -0.3596
 7313SOL     OW23551   2.677   6.967   3.827 -0.4765  0.7779 -0.3032
 7313SOL    HW123552   2.736   6.937   3.758 -0.3815 -0.0068  0.1160
 7313SOL    HW223553   2.631   6.889   3.856  0.4345  0.8269  1.4424
 7314SOL     OW23554   6.798   9.497   6.651  0.6169  0.4514  0.6728
 7314SOL    HW123555   6.844   9.413   6.649  0.2717  0.2448  1.3269
 7314SOL    HW223556   6.722   9.485   6.594  0.5527  0.3122  0.7885
 7315SOL     OW23557   6.612   9.395   0.242 -0.2321  0.0291  0.2033
 7315SOL    HW123558   6.547   9.435   0.184 -0.6055 -1.9960 -0.8948
 7315SOL    HW223559   6.676   9.464   0.258 -0.8534  1.0717 -1.4953
 7316SOL     OW23560   2.587   6.696   5.248  0.1931  0.0529  0.0011
 7316SOL    HW123561   2.502   6.736   5.266  0.4333  0.9150 -0.6754
 7316SOL    HW223562   2.599   6.631   5.317 -0.3802  0.9155  0.9387
 7317SOL     OW23563   0.438   5.604   8.512 -0.2402 -0.0815 -0.5690
 7317SOL    HW123564   0.419   5.564   8.597 -0.3777  0.2394 -0.4475
 7317SOL    HW223565   0.372   5.673   8.503  0.0369  0.1602 -0.7507
 7318SOL     OW23566   2.438   5.699   2.830 -0.5504 -0.4120  0.5172
 7318SOL    HW123567   2.436   5.743   2.745  1.1302  0.2268  0.7573
 7318SOL    HW223568   2.351   5.712   2.867 -0.6720  1.0728 -0.2369
 7319SOL     OW23569   2.343   2.191   2.545 -0.8830  0.0897 -0.5225
 7319SOL    HW123570   2.275   2.250   2.577 -1.6358 -1.8465  1.8139
 7319SOL    HW223571   2.313   2.104   2.571  1.4594 -1.0667 -1.3788
 7320SOL     OW23572   1.568   1.342   7.861 -0.7137 -0.1547  0.6934
 7320SOL    HW123573   1.541   1.318   7.950  0.8327  1.8601  1.7740
 7320SOL    HW223574   1.502   1.406   7.833 -2.5911 -2.5020 -0.6616
 7321SOL     OW23575   7.101   3.285   0.139  0.2580 -0.0952  0.1197
 7321SOL    HW123576   7.070   3.257   0.226 -0.3616 -1.1369 -0.4192
 7321SOL    HW223577   7.040   3.355   0.114  0.3892  0.1542  0.4822
 7322SOL     OW23578   4.108   4.213   2.010  0.0087  0.5481 -0.1022
 7322SOL    HW123579   4.119   4.261   1.928  0.1435  1.6962  0.5685
 7322SOL    HW223580   4.195   4.212   2.050  0.2485 -1.1758 -0.5603
 7323SOL     OW23581   1.063   3.242   2.211 -0.0910 -0.0863  0.1349
 7323SOL    HW123582   0.984   3.270   2.164  0.8922 -0.0337 -1.5550
 7323SOL    HW223583   1.079   3.312   2.274 -0.7881  0.4380 -0.2507
 7324SOL     OW23584   8.243   9.584   8.870 -0.2201  0.1051 -0.6909
 7324SOL    HW123585   8.242   9.530   8.949  1.5996  0.7730 -0.1552
 7324SOL    HW223586   8.183   9.656   8.891 -0.6793 -0.3592 -0.3906
 7325SOL     OW23587   1.330   3.389   4.833  0.4086 -0.1444  0.3324
 7325SOL    HW123588   1.358   3.453   4.898 -0.3288  0.5832 -0.0542
 7325SOL    HW223589   1.345   3.432   4.749 -0.4734 -0.3103  0.0811
 7326SOL     OW23590   6.207   4.733   9.708 -0.2950 -0.3232 -0.0091
 7326SOL    HW123591   6.171   4.774   9.629  1.3040 -2.0110 -1.7228
 7326SOL    HW223592   6.273   4.795   9.739  0.6774 -0.6362 -1.3724
 7327SOL     OW23593   3.708   3.958   1.892 -0.1425  0.1522  0.2116
 7327SOL    HW123594   3.726   3.993   1.805 -1.5036 -0.6286 -0.4306
 7327SOL    HW223595   3.735   4.026   1.952  0.9627  0.6462 -0.8214
 7328SOL     OW23596   3.897   1.578   6.251 -0.0695  0.3168 -0.4168
 7328SOL    HW123597   3.974   1.523   6.267  0.3143  0.5647 -1.3634
 7328SOL    HW223598   3.833   1.519   6.212  0.0778  0.3666 -0.7414
 7329SOL     OW23599   2.690   0.406   3.300 -0.3080 -0.5120  0.5750
 7329SOL    HW123600   2.746   0.362   3.364 -0.4015  0.3442  1.2623
 7329SOL    HW223601   2.746   0.418   3.223  0.2070 -0.4073  0.9569
 7330SOL     OW23602   7.564   0.543   2.565 -0.0183  0.4419  0.3116
 7330SOL    HW123603   7.513   0.567   2.642 -1.0272 -2.3071  0.6166
 7330SOL    HW223604   7.521   0.589   2.492 -2.4775 -1.0923  0.6928
 7331SOL     OW23605   4.322   4.232   0.372 -0.1601  0.9250  0.9262
 7331SOL    HW123606   4.394   4.281   0.410  0.0065  0.6324  0.9859
 7331SOL    HW223607   4.330   4.144   0.408  1.0550  0.1348 -1.1049
 7332SOL     OW23608   7.621   3.299   2.529  0.7030  0.4565  0.1751
 7332SOL    HW123609   7.668   3.379   2.503  0.0900  0.9552  0.5707
 7332SOL    HW223610   7.617   3.247   2.449  0.3943  1.1824 -0.2942
 7333SOL     OW23611   8.134   1.146   7.618  0.2503  0.0128 -0.2496
 7333SOL    HW123612   8.159   1.071   7.564  0.8574  1.4271 -2.0351
 7333SOL    HW223613   8.101   1.210   7.556  0.5421  1.5535  1.1125
 7334SOL     OW23614   2.740   9.452   7.097  0.0675  0.0153  0.2227
 7334SOL    HW123615   2.696   9.378   7.138 -1.7664  0.9369  0.0006
 7334SOL    HW223616   2.765   9.509   7.171 -1.4458  0.7112  0.2339
 7335SOL     OW23617   0.404   8.237   1.199 -0.0378  0.0393  0.2174
 7335SOL    HW123618   0.444   8.247   1.112 -1.0015 -0.9678 -0.3595
 7335SOL    HW223619   0.336   8.171   1.187 -1.7492  1.5386  1.2103
 7336SOL     OW23620   3.965   1.898   9.568  0.1611  0.3491 -0.0500
 7336SOL    HW123621   3.908   1.821   9.567 -2.0458  1.7592  2.7892
 7336SOL    HW223622   4.008   1.894   9.653  0.3542  1.9842 -0.0379
 7337SOL     OW23623   6.666   9.127   0.256  0.0059 -0.3544 -0.6018
 7337SOL    HW123624   6.627   9.214   0.255  0.5897 -0.0910 -1.0651
 7337SOL    HW223625   6.599   9.071   0.294 -0.3774  0.2950 -0.3075
 7338SOL     OW23626   4.967   8.502   3.759  0.2963  0.0640 -0.3491
 7338SOL    HW123627   4.940   8.533   3.672  1.0658  0.3978 -0.4777
 7338SOL    HW223628   5.062   8.513   3.760  0.4538 -1.2113  0.0427
 7339SOL     OW23629   8.808   6.714   9.324  0.1227 -0.5425  0.5138
 7339SOL    HW123630   8.771   6.655   9.258 -0.9046 -1.6008  1.9690
 7339SOL    HW223631   8.777   6.679   9.407  0.7207  1.2095  1.5282
 7340SOL     OW23632   4.158   8.627   9.390 -0.4687  0.2380  0.3199
 7340SOL    HW123633   4.244   8.627   9.348  0.6475 -0.7476  2.4958
 7340SOL    HW223634   4.102   8.677   9.329  1.5741  0.8044 -1.1953
 7341SOL     OW23635   0.847   1.113   7.901 -0.4201  0.4264  0.6215
 7341SOL    HW123636   0.903   1.080   7.972 -0.5795  0.7694  0.9082
 7341SOL    HW223637   0.759   1.087   7.927 -0.2155 -2.2007 -0.9605
 7342SOL     OW23638   3.527   2.048   5.325  0.4898 -0.1681  0.3743
 7342SOL    HW123639   3.600   2.004   5.282  0.3939 -0.7052  0.7563
 7342SOL    HW223640   3.465   2.066   5.254  1.4787  1.3391 -0.1670
 7343SOL     OW23641   9.366   6.890   7.148 -0.5513 -0.5621 -0.2802
 7343SOL    HW123642   9.431   6.870   7.081 -0.1798 -1.1281  0.2413
 7343SOL    HW223643   9.286   6.910   7.099 -0.2122 -0.6950 -0.8981
 7344SOL     OW23644   4.461   8.980   1.298  0.0192 -0.1208  0.6933
 7344SOL    HW123645   4.428   8.906   1.350  1.8771 -0.9161  0.8011
 7344SOL    HW223646   4.554   8.986   1.320  0.5543  0.4408 -1.4624
 7345SOL     OW23647   4.816   7.862   5.954  1.0109  0.1268  1.0221
 7345SOL    HW123648   4.857   7.799   6.013  1.5192 -1.2805 -0.7373
 7345SOL    HW223649   4.877   7.870   5.881  0.8871  2.5872  1.0889
 7346SOL     OW23650   8.697   2.069   2.974 -0.1014 -1.0631 -0.2097
 7346SOL    HW123651   8.728   2.075   2.883  0.4583  3.1153  0.0179
 7346SOL    HW223652   8.603   2.081   2.968 -0.4152 -3.2735 -0.3036
 7347SOL     OW23653   7.860   1.810   1.006 -0.0482 -0.0725  0.6826
 7347SOL    HW123654   7.779   1.792   0.957  0.6999  2.3149 -1.6623
 7347SOL    HW223655   7.844   1.895   1.049  1.2152  0.4940  0.0905
 7348SOL     OW23656   6.871   9.570   1.580 -0.0078 -0.1004 -0.1656
 7348SOL    HW123657   6.903   9.485   1.611  0.2712 -0.3189 -1.0225
 7348SOL    HW223658   6.931   9.593   1.509  0.1838  1.0275  0.3384
 7349SOL     OW23659   6.367   0.778   7.533  0.2194 -0.8198  0.2563
 7349SOL    HW123660   6.456   0.745   7.538  0.0563 -1.2967  0.1362
 7349SOL    HW223661   6.314   0.709   7.573  0.0369  0.0331  1.5220
 7350SOL     OW23662   3.336   8.193   4.996  0.6042 -0.1623  0.0709
 7350SOL    HW123663   3.429   8.174   4.989  0.6869  0.4134 -0.4959
 7350SOL    HW223664   3.330   8.289   5.000  0.0643 -0.2060  0.6035
 7351SOL     OW23665   2.048   0.789   9.142 -0.6348  0.3316 -0.9571
 7351SOL    HW123666   2.089   0.876   9.142  2.0227 -0.8238 -1.5062
 7351SOL    HW223667   2.052   0.761   9.234 -0.3357  0.2860 -0.9836
 7352SOL     OW23668   5.057   5.056   3.165  0.3343  0.3663  0.5178
 7352SOL    HW123669   5.149   5.031   3.177  0.7411  0.4561 -1.9485
 7352SOL    HW223670   5.011   4.974   3.150  0.2366  0.4274  0.4808
 7353SOL     OW23671   3.901   2.151   3.667 -0.2223  0.3674  0.6008
 7353SOL    HW123672   3.811   2.165   3.638  0.1554  0.8292 -0.3976
 7353SOL    HW223673   3.903   2.186   3.756 -0.9432  0.6856  0.4994
 7354SOL     OW23674   3.224   1.444   6.170 -0.7168  0.1232 -0.1716
 7354SOL    HW123675   3.249   1.378   6.106  1.0062  0.4535  0.1133
 7354SOL    HW223676   3.225   1.398   6.254 -1.7782 -0.0164 -0.2205
 7355SOL     OW23677   8.977   3.744   7.228 -0.0423 -0.0555 -0.6784
 7355SOL    HW123678   8.928   3.824   7.247 -0.7188 -0.7094  0.4921
 7355SOL    HW223679   9.043   3.739   7.297 -0.9075 -1.1873  0.1107
 7356SOL     OW23680   1.031   3.254   8.763  0.0415 -0.4496 -0.0818
 7356SOL    HW123681   1.091   3.247   8.837 -0.1649 -2.5335 -0.0745
 7356SOL    HW223682   1.062   3.331   8.715  1.2518 -0.0978  1.1997
 7357SOL     OW23683   4.994   4.221   2.899  0.0039 -0.8773  0.0041
 7357SOL    HW123684   4.981   4.127   2.896  1.2671 -1.0458 -2.2005
 7357SOL    HW223685   5.073   4.233   2.952 -0.3616 -1.0254  0.5832
 7358SOL     OW23686   5.334   7.737   6.771 -0.2145 -0.1027 -0.0759
 7358SOL    HW123687   5.371   7.659   6.730  0.2981  0.0047  0.1705
 7358SOL    HW223688   5.399   7.805   6.754 -2.0633  1.1302 -3.1161
 7359SOL     OW23689   0.923   3.036   7.606 -0.1932 -0.6516  0.0844
 7359SOL    HW123690   0.960   2.998   7.527 -1.4105  0.7344 -1.2216
 7359SOL    HW223691   0.999   3.057   7.661  0.6428 -2.1119 -0.4590
 7360SOL     OW23692   7.711   7.798   0.305 -0.1956  0.5367 -0.3053
 7360SOL    HW123693   7.754   7.815   0.221 -1.3900  1.1032 -0.8249
 7360SOL    HW223694   7.782   7.801   0.369  0.9018 -0.8613 -1.3750
 7361SOL     OW23695   2.884   7.096   4.720  0.1402  0.0957  0.2396
 7361SOL    HW123696   2.959   7.038   4.731 -1.3431 -2.2227 -0.9833
 7361SOL    HW223697   2.846   7.103   4.808  1.8487  1.5045  0.9217
 7362SOL     OW23698   8.855   7.548   2.108 -0.0593  0.2015 -0.5443
 7362SOL    HW123699   8.764   7.527   2.087 -0.5028  0.6150  0.8767
 7362SOL    HW223700   8.877   7.490   2.181  0.0610  1.6493  0.6163
 7363SOL     OW23701   4.522   7.250   4.189  0.0092 -0.1774 -0.5441
 7363SOL    HW123702   4.440   7.274   4.147 -2.0716 -0.2454  3.1008
 7363SOL    HW223703   4.589   7.299   4.141 -1.9818 -0.5188 -3.9950
 7364SOL     OW23704   4.094   9.587   8.480 -0.1600  0.3670  0.4510
 7364SOL    HW123705   4.065   9.638   8.556  0.9372  2.8604 -0.7067
 7364SOL    HW223706   4.188   9.573   8.496 -0.1782 -0.1539  0.1079
 7365SOL     OW23707   9.588   2.604   2.427 -0.8033  0.0359  0.5317
 7365SOL    HW123708   9.672   2.559   2.424 -1.1276 -0.6105  0.7854
 7365SOL    HW223709   9.559   2.594   2.518 -0.7278  1.0618  0.6767
 7366SOL     OW23710   3.005   5.652   4.388 -0.1231 -0.1717  0.0046
 7366SOL    HW123711   2.927   5.708   4.388 -0.9963 -1.3446  0.6562
 7366SOL    HW223712   3.029   5.644   4.480 -0.3861 -1.3560 -0.0138
 7367SOL     OW23713   1.418   5.074   4.252 -0.3053 -0.6061 -0.5183
 7367SOL    HW123714   1.398   5.164   4.280 -3.0057 -0.9327 -1.1033
 7367SOL    HW223715   1.433   5.027   4.334 -0.5019  0.0561 -0.0917
 7368SOL     OW23716   9.817   2.574   2.786 -0.2022 -0.7452 -0.6712
 7368SOL    HW123717   9.891   2.556   2.843  0.1454  0.4647 -0.7314
 7368SOL    HW223718   9.758   2.499   2.799 -0.3001 -0.3473  1.5205
 7369SOL     OW23719   1.158   4.543   2.994 -0.4506 -0.0182 -0.1308
 7369SOL    HW123720   1.230   4.567   2.936 -0.2723  0.4324  0.2685
 7369SOL    HW223721   1.173   4.451   3.014 -0.4670 -0.1537 -0.7264
 7370SOL     OW23722   3.558   0.489   3.750  0.0571 -0.2202 -0.4157
 7370SOL    HW123723   3.474   0.447   3.732  0.7550 -0.5245 -3.4348
 7370SOL    HW223724   3.538   0.582   3.751 -0.3390 -0.2952 -0.9583
 7371SOL     OW23725   1.226   8.215   5.882  0.3242  0.2118  0.2237
 7371SOL    HW123726   1.135   8.216   5.851  0.5747 -0.0536 -0.5391
 7371SOL    HW223727   1.246   8.307   5.901 -0.4032  0.1598  1.3169
 7372SOL     OW23728   5.935   5.037   3.899  0.0821  0.5595 -0.0498
 7372SOL    HW123729   5.951   5.079   3.983  0.7664  0.1042  0.0569
 7372SOL    HW223730   5.842   5.051   3.882 -1.2686 -3.1164  2.9455
 7373SOL     OW23731   9.722   4.762   8.767  0.8593  0.8330 -0.0255
 7373SOL    HW123732   9.634   4.799   8.758  0.5430  0.0717 -0.1469
 7373SOL    HW223733   9.715   4.702   8.841  1.2232  0.6208 -0.1609
 7374SOL     OW23734   2.641   0.857   1.886  0.1647  0.9154 -0.5967
 7374SOL    HW123735   2.690   0.876   1.967 -0.8854  0.5625  0.1415
 7374SOL    HW223736   2.564   0.808   1.916  0.9690 -1.3833 -2.0457
 7375SOL     OW23737   4.040   9.425   2.397 -0.0257  0.1251 -0.7398
 7375SOL    HW123738   4.110   9.476   2.358  0.7806  0.1843  0.6933
 7375SOL    HW223739   4.021   9.471   2.479  0.2786 -1.4875  0.2766
 7376SOL     OW23740   6.279   5.218   3.775 -0.0889  0.2216 -0.7171
 7376SOL    HW123741   6.356   5.259   3.735 -0.0207  0.9005  0.0770
 7376SOL    HW223742   6.246   5.158   3.708  1.6472 -0.7605 -0.7540
 7377SOL     OW23743   3.050   4.118   0.114 -0.1446  0.2921  0.4806
 7377SOL    HW123744   3.116   4.052   0.136 -0.2716  0.0065  0.0254
 7377SOL    HW223745   3.067   4.137   0.021 -0.0799  0.9312  0.6235
 7378SOL     OW23746   6.835   1.695   3.578  0.3015  0.0849 -0.5559
 7378SOL    HW123747   6.805   1.653   3.498 -0.8941  1.9276 -1.1320
 7378SOL    HW223748   6.861   1.783   3.552 -0.9346  1.0352  1.1800
 7379SOL     OW23749   1.207   1.653   5.183 -0.0638 -0.4795  0.1311
 7379SOL    HW123750   1.147   1.668   5.110 -0.3841  0.0076  0.4887
 7379SOL    HW223751   1.255   1.574   5.158  0.7215  0.3625 -1.1821
 7380SOL     OW23752   5.254   0.777   1.810  0.1750 -0.1565  0.2461
 7380SOL    HW123753   5.296   0.836   1.747  0.5460 -1.2828 -0.5838
 7380SOL    HW223754   5.252   0.827   1.891 -2.8058  2.4849 -1.1965
 7381SOL     OW23755   2.151   1.641   5.759 -0.2530  0.3649 -0.5358
 7381SOL    HW123756   2.058   1.652   5.740 -0.6347  1.7070  1.7992
 7381SOL    HW223757   2.153   1.581   5.834  0.7430  0.4624 -0.4726
 7382SOL     OW23758   6.734   5.654   5.709 -0.0042 -0.1843 -0.1330
 7382SOL    HW123759   6.782   5.572   5.720  0.0509  0.0569  1.8223
 7382SOL    HW223760   6.792   5.721   5.744  0.3513  0.8912 -2.5729
 7383SOL     OW23761   8.205   4.230   6.685  0.3609 -0.0311  0.1066
 7383SOL    HW123762   8.276   4.218   6.622 -0.8940 -3.7804 -0.8250
 7383SOL    HW223763   8.235   4.186   6.764 -0.2085 -0.1228  0.2790
 7384SOL     OW23764   8.103   3.385   8.497  0.0999  0.2351 -0.0971
 7384SOL    HW123765   8.103   3.453   8.429 -0.9040  0.5452  0.2110
 7384SOL    HW223766   8.109   3.303   8.448  1.3184  0.5156 -0.4735
 7385SOL     OW23767   0.297   4.550   4.786  0.0696  0.0525  0.1502
 7385SOL    HW123768   0.320   4.505   4.704 -0.2724  0.3069 -0.0914
 7385SOL    HW223769   0.333   4.495   4.855  2.0779  0.8126 -0.2180
 7386SOL     OW23770   4.290   5.078   3.674  0.3810 -0.5121 -0.3786
 7386SOL    HW123771   4.370   5.107   3.630  0.3324 -0.4005 -0.3937
 7386SOL    HW223772   4.222   5.136   3.642  0.6961  0.8956  1.3236
 7387SOL     OW23773   6.406   1.875   0.474 -0.3541  0.3149  0.2638
 7387SOL    HW123774   6.490   1.831   0.487 -0.0261  0.5883 -0.8529
 7387SOL    HW223775   6.347   1.806   0.443 -0.1350  0.4310 -0.4156
 7388SOL     OW23776   8.600   4.891   9.818  0.5439  0.2145 -0.0775
 7388SOL    HW123777   8.671   4.831   9.841  0.6187 -0.1723 -1.2531
 7388SOL    HW223778   8.627   4.931   9.736  1.0786  2.8718  1.2712
 7389SOL     OW23779   5.115   8.911   7.524 -0.3361 -0.0373  0.5671
 7389SOL    HW123780   5.148   8.822   7.539 -2.1682 -0.4477  2.7107
 7389SOL    HW223781   5.161   8.965   7.589 -1.5195 -0.0489  1.4474
 7390SOL     OW23782   3.616   8.750   5.034  0.1937 -0.1778  0.8528
 7390SOL    HW123783   3.618   8.834   4.987  0.0692 -0.2017  0.8048
 7390SOL    HW223784   3.614   8.684   4.965 -1.6681 -0.1793  0.8693
 7391SOL     OW23785   1.889   1.799   2.937  0.3007  0.1975  0.1129
 7391SOL    HW123786   1.802   1.838   2.942  0.6831  1.1243 -0.2466
 7391SOL    HW223787   1.948   1.873   2.924  1.0743 -0.4773 -0.3560
 7392SOL     OW23788   8.894   7.772   7.164 -0.1765 -0.2823  0.4272
 7392SOL    HW123789   8.868   7.863   7.151  2.5745  0.2429 -2.6894
 7392SOL    HW223790   8.938   7.771   7.248 -1.3521  0.9208  1.0977
 7393SOL     OW23791   7.909   4.214   8.397 -0.3115 -0.0807 -0.5784
 7393SOL    HW123792   7.841   4.259   8.448 -0.0219  0.1198 -0.3700
 7393SOL    HW223793   7.976   4.190   8.461 -1.2314 -2.3706 -0.3495
 7394SOL     OW23794   9.001   1.106   9.578  0.0206  0.1718  0.1538
 7394SOL    HW123795   9.016   1.130   9.486  0.6545  0.4094  0.3121
 7394SOL    HW223796   8.908   1.086   9.583 -0.0994  0.5645 -0.4518
 7395SOL     OW23797   2.492   5.797   6.165 -0.2619 -0.6381 -0.1797
 7395SOL    HW123798   2.547   5.778   6.240  0.3836 -0.4716 -0.6018
 7395SOL    HW223799   2.547   5.775   6.089  0.1660  1.8650 -0.6942
 7396SOL     OW23800   9.364   6.557   3.349  0.3110 -0.1096  0.1256
 7396SOL    HW123801   9.433   6.623   3.341  1.1286 -0.9340  0.1449
 7396SOL    HW223802   9.406   6.484   3.396 -0.0390 -1.3377 -1.3909
 7397SOL     OW23803   1.343   8.860   6.497  0.6631  0.5560 -0.2406
 7397SOL    HW123804   1.287   8.926   6.538  1.1633  0.7944  0.0631
 7397SOL    HW223805   1.410   8.841   6.563  0.3590 -0.4693 -0.2122
 7398SOL     OW23806   6.502   2.543   8.664  0.1814 -0.3979  0.2174
 7398SOL    HW123807   6.538   2.454   8.660  0.7876 -0.1225 -1.4739
 7398SOL    HW223808   6.444   2.548   8.588 -0.8664  0.2415  1.0450
 7399SOL     OW23809   6.799   2.052   0.099  0.2639 -0.1550 -0.6460
 7399SOL    HW123810   6.785   2.139   0.138  0.4207 -0.0464 -0.8317
 7399SOL    HW223811   6.752   1.993   0.157 -1.2000  0.2318 -1.4026
 7400SOL     OW23812   6.055   1.620   0.875 -0.3598 -0.0351  0.9306
 7400SOL    HW123813   6.015   1.630   0.788  0.2290 -1.4078  0.4690
 7400SOL    HW223814   5.981   1.629   0.936 -0.9511 -0.0609  0.2398
 7401SOL     OW23815   1.851   1.430   3.531 -0.1692  0.4468  0.4600
 7401SOL    HW123816   1.841   1.467   3.443 -2.4611  1.3907  1.0544
 7401SOL    HW223817   1.922   1.481   3.570  0.6515  0.2340 -0.7075
 7402SOL     OW23818   2.362   2.834   6.367  0.1868  0.1294  0.4015
 7402SOL    HW123819   2.295   2.898   6.389 -0.0027  0.7878 -1.8045
 7402SOL    HW223820   2.316   2.750   6.366 -0.1049  0.2776  0.9849
 7403SOL     OW23821   3.025   8.537   1.223 -0.5320  0.2308  0.4664
 7403SOL    HW123822   3.009   8.443   1.209  0.8106 -0.0190  0.4799
 7403SOL    HW223823   3.059   8.543   1.312 -1.6180  0.8844  0.8636
 7404SOL     OW23824   8.327   4.451   7.258  0.4054 -0.1912 -0.4384
 7404SOL    HW123825   8.288   4.533   7.226 -1.1947 -0.9436 -0.5323
 7404SOL    HW223826   8.402   4.479   7.310 -0.5299  1.3815  0.1365
 7405SOL     OW23827   3.524   0.564   7.755 -0.1325  0.6627  0.3418
 7405SOL    HW123828   3.500   0.633   7.816  0.3014  1.9454 -0.8668
 7405SOL    HW223829   3.444   0.548   7.705 -0.2433  0.2553  0.6485
 7406SOL     OW23830   3.205   8.675   8.757  0.1223 -0.0832 -0.2148
 7406SOL    HW123831   3.167   8.762   8.766 -3.3992 -1.2770 -1.7329
 7406SOL    HW223832   3.256   8.679   8.676  0.9299  0.8109  0.3188
 7407SOL     OW23833   6.948   6.547   5.401 -0.5375 -0.4389  0.6997
 7407SOL    HW123834   6.896   6.476   5.364 -0.0822 -0.4838  0.1428
 7407SOL    HW223835   7.023   6.555   5.343 -0.1623 -0.0565  1.2321
 7408SOL     OW23836   2.941   4.494   1.567 -0.4481 -0.0697 -0.5315
 7408SOL    HW123837   2.958   4.574   1.616 -0.3867 -0.2492 -0.2589
 7408SOL    HW223838   3.019   4.481   1.514 -0.7814  0.4826 -1.1778
 7409SOL     OW23839   7.277   2.399   6.044 -0.4280 -0.0126 -0.0963
 7409SOL    HW123840   7.191   2.426   6.075 -1.0836 -1.2532 -0.7629
 7409SOL    HW223841   7.298   2.320   6.095  1.2781  1.3865  1.5467
 7410SOL     OW23842   1.566   5.015   5.919  0.2199 -0.0520  0.2872
 7410SOL    HW123843   1.558   4.958   5.842 -1.8602 -0.8528  1.0264
 7410SOL    HW223844   1.658   5.006   5.946  0.1607 -2.5304 -0.0676
 7411SOL     OW23845   9.666   0.782   3.316 -0.1762 -0.0380 -0.3060
 7411SOL    HW123846   9.718   0.749   3.390 -1.6661 -0.2699  0.6821
 7411SOL    HW223847   9.703   0.739   3.239  0.2364 -1.2195  0.5280
 7412SOL     OW23848   5.670   0.874   0.847  0.2568  0.7023 -0.2063
 7412SOL    HW123849   5.575   0.885   0.849 -0.0721 -1.5648  1.5790
 7412SOL    HW223850   5.686   0.819   0.771  0.1386  1.0699 -0.4979
 7413SOL     OW23851   7.992   8.147   0.933  0.2524  0.2863 -0.0860
 7413SOL    HW123852   7.904   8.108   0.926 -0.9876  2.8880 -0.0122
 7413SOL    HW223853   7.999   8.205   0.858  1.0331  1.7428  1.0670
 7414SOL     OW23854   5.963   5.810   2.434 -0.3284  0.1512 -0.1676
 7414SOL    HW123855   5.881   5.846   2.400 -0.4585 -0.4583 -0.5052
 7414SOL    HW223856   5.958   5.717   2.415  0.9591  0.2694 -1.2258
 7415SOL     OW23857   6.956   5.316   7.936 -0.0953  0.1008  0.1891
 7415SOL    HW123858   6.951   5.364   7.853  1.0540 -0.2176 -0.0729
 7415SOL    HW223859   6.934   5.382   8.002  0.9187  0.8764 -0.2173
 7416SOL     OW23860   0.190   7.211   0.150 -0.2002 -0.3821  0.9758
 7416SOL    HW123861   0.123   7.277   0.129  0.7963  1.0804  2.1931
 7416SOL    HW223862   0.246   7.254   0.215  2.4233 -1.2408 -0.5824
 7417SOL     OW23863   1.035   1.760   7.596  0.2976 -0.3139  0.3260
 7417SOL    HW123864   0.995   1.683   7.555  0.3695 -0.5288  0.6494
 7417SOL    HW223865   0.968   1.793   7.656 -0.2863  0.7625 -0.8903
 7418SOL     OW23866   4.959   5.817   5.454  0.4954  0.0190 -0.1987
 7418SOL    HW123867   5.041   5.844   5.412  0.6154 -1.0124 -0.6478
 7418SOL    HW223868   4.980   5.809   5.547  0.4151  1.6018 -0.0195
 7419SOL     OW23869   1.869   2.360   7.205 -0.1138 -0.0185  0.8715
 7419SOL    HW123870   1.888   2.296   7.136 -2.7062  2.5801 -2.6081
 7419SOL    HW223871   1.951   2.408   7.216  0.2780 -0.2565 -0.7282
 7420SOL     OW23872   3.673   7.517   2.181 -0.0098 -0.3770 -0.8143
 7420SOL    HW123873   3.621   7.545   2.105  0.3294 -0.4165 -1.0616
 7420SOL    HW223874   3.720   7.596   2.208 -0.4595 -0.2559 -0.3775
 7421SOL     OW23875   9.239   4.928   9.003  0.0071  0.4314  0.0490
 7421SOL    HW123876   9.293   4.916   9.081  0.7348 -0.3651 -0.5675
 7421SOL    HW223877   9.210   4.840   8.980  0.7051  0.5178 -1.2163
 7422SOL     OW23878   9.564   4.038   9.490 -0.1436 -0.0401 -0.2200
 7422SOL    HW123879   9.652   4.027   9.526 -0.8912  1.3484  2.3460
 7422SOL    HW223880   9.508   3.986   9.547 -1.2746  1.3303 -0.0081
 7423SOL     OW23881   3.755   7.760   6.371  0.5029  0.5069  0.0716
 7423SOL    HW123882   3.838   7.750   6.323  0.8203  0.1231  0.6847
 7423SOL    HW223883   3.782   7.773   6.462 -0.0813  1.6467  0.0891
 7424SOL     OW23884   3.178   8.770   0.053  0.3749  0.0957 -0.2103
 7424SOL    HW123885   3.121   8.838   0.088  0.7058  0.6336 -0.6931
 7424SOL    HW223886   3.127   8.730  -0.017  0.2055 -0.1082  0.0295
 7425SOL     OW23887   6.315   4.522   2.903  0.4040 -0.4847  0.4281
 7425SOL    HW123888   6.398   4.569   2.895 -0.4701  1.1527  0.5410
 7425SOL    HW223889   6.298   4.487   2.816  1.4394 -1.2767  0.5229
 7426SOL     OW23890   4.334   7.566   6.717 -0.8630  0.5440 -0.8537
 7426SOL    HW123891   4.405   7.623   6.687 -0.3187 -0.6196 -1.8983
 7426SOL    HW223892   4.255   7.602   6.674 -0.3316 -0.1783 -2.5392
 7427SOL     OW23893   7.322   3.271   3.206  0.1239  0.0066 -0.0283
 7427SOL    HW123894   7.276   3.242   3.128 -0.1239 -0.6803  0.3735
 7427SOL    HW223895   7.285   3.220   3.278  0.0533  0.9231  0.6124
 7428SOL     OW23896   1.823   3.560   6.054 -0.1385  0.0173  0.1807
 7428SOL    HW123897   1.744   3.571   6.001 -0.7848 -1.3172  0.8228
 7428SOL    HW223898   1.794   3.576   6.144 -0.1469 -2.2395  0.6388
 7429SOL     OW23899   1.524   6.011   8.167  0.1425  0.1888 -0.7453
 7429SOL    HW123900   1.558   5.931   8.127  0.2927  0.6045 -1.4625
 7429SOL    HW223901   1.592   6.077   8.151  0.1616  0.3937  0.1137
 7430SOL     OW23902   2.771   3.606   6.990 -0.0848 -0.0730  0.1059
 7430SOL    HW123903   2.744   3.692   6.959  1.0449 -0.0060 -0.7515
 7430SOL    HW223904   2.733   3.545   6.927 -0.0910 -0.1447  0.1788
 7431SOL     OW23905   5.885   6.588   9.518 -0.5307  0.6342  0.1898
 7431SOL    HW123906   5.893   6.583   9.423  0.1979  0.5734  0.2491
 7431SOL    HW223907   5.862   6.679   9.536  0.1974  0.8617  0.0059
 7432SOL     OW23908   5.716   6.433   8.161 -0.3834 -0.2597 -0.5406
 7432SOL    HW123909   5.779   6.462   8.227 -1.3082 -1.0041  0.7115
 7432SOL    HW223910   5.743   6.343   8.140 -0.7302 -0.4100 -0.3563
 7433SOL     OW23911   1.203   8.126   4.416  0.1046  0.1887  0.1613
 7433SOL    HW123912   1.298   8.137   4.406  0.0220  0.3681 -0.5113
 7433SOL    HW223913   1.191   8.032   4.428  0.3820  0.1837  0.4070
 7434SOL     OW23914   5.640   0.938   8.196 -0.0768  0.2632  0.5694
 7434SOL    HW123915   5.731   0.960   8.176  0.8404 -0.4099  3.4589
 7434SOL    HW223916   5.604   1.017   8.237 -1.5256  1.2321 -2.3376
 7435SOL     OW23917   3.237   1.465   7.667 -0.5117  0.2220 -0.4105
 7435SOL    HW123918   3.329   1.486   7.656  0.3814 -1.1897  3.1433
 7435SOL    HW223919   3.200   1.543   7.710 -0.9958  0.7126 -1.6650
 7436SOL     OW23920   1.015   6.601   0.345  0.6257  0.4106 -0.1040
 7436SOL    HW123921   1.016   6.630   0.437  0.6270 -0.4736  0.1825
 7436SOL    HW223922   0.965   6.520   0.346 -0.3364  0.9665 -1.0765
 7437SOL     OW23923   0.723   8.779   5.749  0.1340  0.1900 -0.1586
 7437SOL    HW123924   0.717   8.703   5.691 -0.2453  1.0681 -1.3251
 7437SOL    HW223925   0.814   8.807   5.743  0.7897 -1.3290  1.8592
 7438SOL     OW23926   4.248   5.746   7.247  0.8966  0.3598  0.1434
 7438SOL    HW123927   4.190   5.675   7.220  0.1533  0.9411  0.1660
 7438SOL    HW223928   4.303   5.762   7.171 -0.7900  1.5883 -0.8911
 7439SOL     OW23929   0.953   3.182   3.630 -0.0470 -0.1676  0.0885
 7439SOL    HW123930   1.021   3.140   3.683  1.0008  0.4216 -0.7589
 7439SOL    HW223931   0.907   3.109   3.590  1.3695 -0.5665 -0.8922
 7440SOL     OW23932   6.463   7.710   1.506 -0.2052  0.0533 -0.2197
 7440SOL    HW123933   6.447   7.629   1.458 -1.3876 -0.0724  0.3495
 7440SOL    HW223934   6.472   7.683   1.597 -2.7196  0.7049  0.3007
 7441SOL     OW23935   3.349   6.465   7.085 -0.1331 -0.2697 -0.6017
 7441SOL    HW123936   3.381   6.376   7.091 -1.4442 -0.8075 -1.2026
 7441SOL    HW223937   3.386   6.509   7.162  1.7204 -0.8986 -1.0787
 7442SOL     OW23938   8.564   2.199   6.167 -0.0981  0.5444 -0.5501
 7442SOL    HW123939   8.613   2.143   6.227 -1.4315  0.5523  0.6045
 7442SOL    HW223940   8.609   2.283   6.171 -1.2065  1.1217  1.9681
 7443SOL     OW23941   4.485   1.811   2.826 -0.2122 -0.1786 -0.0365
 7443SOL    HW123942   4.455   1.763   2.904  0.6218 -0.0947  0.3518
 7443SOL    HW223943   4.462   1.754   2.753 -0.3508 -0.5997  0.3253
 7444SOL     OW23944   6.636   0.790   1.322 -0.0694 -0.1307 -0.5674
 7444SOL    HW123945   6.698   0.844   1.370  1.4948 -0.1205 -2.4614
 7444SOL    HW223946   6.585   0.745   1.390 -0.5857  2.7047  1.0494
 7445SOL     OW23947   0.714   3.506   4.059 -0.0215  0.3316 -0.9436
 7445SOL    HW123948   0.727   3.426   4.110 -0.3688  1.1105  0.3948
 7445SOL    HW223949   0.777   3.498   3.987 -0.1843 -1.2277 -0.9544
 7446SOL     OW23950   7.906   4.943   2.056  0.6419  0.0150 -0.1813
 7446SOL    HW123951   7.926   4.881   2.126 -0.4412  0.4863  0.5570
 7446SOL    HW223952   7.904   5.029   2.098  0.0638  0.3159 -0.7967
 7447SOL     OW23953   6.089   4.439   2.166 -0.0343 -0.1187 -0.1956
 7447SOL    HW123954   6.147   4.392   2.106 -0.9320  1.2856 -2.2586
 7447SOL    HW223955   6.003   4.397   2.153 -0.2293  0.1824  0.1168
 7448SOL     OW23956   6.754   5.719   5.445  0.2435 -0.1750 -0.0038
 7448SOL    HW123957   6.848   5.731   5.457  0.0655  0.4815  0.8156
 7448SOL    HW223958   6.721   5.703   5.533 -0.4391 -0.2384 -0.2660
 7449SOL     OW23959   5.114   2.012   1.817  0.8071  0.0317 -0.2087
 7449SOL    HW123960   5.045   1.966   1.866 -0.1599  1.3871 -0.2269
 7449SOL    HW223961   5.096   1.992   1.726 -0.2439  1.2071 -0.2902
 7450SOL     OW23962   7.129   7.308   5.977  0.1253 -0.4747  0.2968
 7450SOL    HW123963   7.207   7.346   6.016  0.8036 -0.1799 -1.2625
 7450SOL    HW223964   7.135   7.330   5.884 -2.1835  0.1626  0.2291
 7451SOL     OW23965   8.358   4.541   3.762  0.0509  0.1606  0.6321
 7451SOL    HW123966   8.281   4.583   3.724  0.3727 -0.0189 -0.2382
 7451SOL    HW223967   8.425   4.609   3.762  0.5990 -0.3433 -0.8608
 7452SOL     OW23968   6.233   7.684   9.237  0.4999 -0.6800  0.1340
 7452SOL    HW123969   6.284   7.671   9.317 -0.1005  1.6980  1.0112
 7452SOL    HW223970   6.154   7.631   9.251  1.1077 -1.5402  0.3835
 7453SOL     OW23971   1.498   9.652   3.551  0.0755  0.2459  0.0924
 7453SOL    HW123972   1.471   9.611   3.633  0.2649 -0.5157 -0.2131
 7453SOL    HW223973   1.593   9.635   3.546  0.4397  1.9775  0.6527
 7454SOL     OW23974   7.826   1.559   5.713 -0.0615 -0.0459 -0.1187
 7454SOL    HW123975   7.841   1.465   5.698 -2.2104 -0.3962 -0.3674
 7454SOL    HW223976   7.881   1.579   5.789 -0.9263 -1.9796  1.1181
 7455SOL     OW23977   2.489   3.581   3.392  0.3396 -0.0949  0.4901
 7455SOL    HW123978   2.485   3.642   3.465 -1.0870  0.0429  0.3341
 7455SOL    HW223979   2.459   3.631   3.316 -0.2020 -0.7833  0.2306
 7456SOL     OW23980   2.811   3.265   2.387  0.0975  0.6561 -0.0785
 7456SOL    HW123981   2.836   3.193   2.445 -1.2955  1.9871  2.2907
 7456SOL    HW223982   2.723   3.241   2.357  0.0692  0.8787 -0.1722
 7457SOL     OW23983   2.439   5.565   0.884  0.1096 -0.3574  0.2374
 7457SOL    HW123984   2.532   5.581   0.870  0.1097  0.6904  1.2922
 7457SOL    HW223985   2.402   5.559   0.796  1.0362  0.0666 -0.1918
 7458SOL     OW23986   2.584   8.991   6.580  0.4393  0.0911 -0.1106
 7458SOL    HW123987   2.513   8.985   6.516 -0.9682 -0.5828  1.4399
 7458SOL    HW223988   2.588   9.084   6.603 -1.8226 -0.1848  1.7272
 7459SOL     OW23989   6.192   8.594   5.272  0.0221  0.6844  0.2329
 7459SOL    HW123990   6.151   8.680   5.272 -1.3896  0.0570 -1.2184
 7459SOL    HW223991   6.145   8.545   5.205  0.1140 -1.5552  1.7093
 7460SOL     OW23992   2.110   0.179   7.254 -0.4487 -0.2265 -0.3560
 7460SOL    HW123993   2.199   0.180   7.216 -1.0549  0.9738 -1.8636
 7460SOL    HW223994   2.060   0.237   7.196 -2.2518 -0.9865  0.4107
 7461SOL     OW23995   7.858   8.900   4.126  0.3133 -0.3000 -0.5149
 7461SOL    HW123996   7.776   8.856   4.103  0.2818 -1.4568  1.5087
 7461SOL    HW223997   7.836   8.953   4.203  1.7903 -2.1328  1.2831
 7462SOL     OW23998   4.039   4.467   8.083 -0.0348 -0.1229  0.0592
 7462SOL    HW123999   4.054   4.521   8.161  2.1159  0.3395 -0.6260
 7462SOL    HW224000   4.046   4.528   8.010  0.7427 -1.0377 -0.6466
 7463SOL     OW24001   4.046   4.801   9.504  0.2248 -0.4056  0.0198
 7463SOL    HW124002   4.021   4.814   9.595 -0.0008 -1.4371  0.1169
 7463SOL    HW224003   4.131   4.846   9.496  1.3461 -2.1335  1.3313
 7464SOL     OW24004   9.798   0.392   7.725 -0.3858 -0.2629 -0.1053
 7464SOL    HW124005   9.767   0.318   7.776 -0.1072  0.2739  0.8649
 7464SOL    HW224006   9.891   0.401   7.750 -0.2765  0.0736 -0.6191
 7465SOL     OW24007   2.635   6.237   4.635 -0.1677 -0.4250 -0.4971
 7465SOL    HW124008   2.674   6.156   4.602 -0.4595 -0.6723 -0.2446
 7465SOL    HW224009   2.562   6.255   4.575 -1.0757 -1.2027  0.3415
 7466SOL     OW24010   5.020   3.380   9.012  0.3569  0.6754  0.3056
 7466SOL    HW124011   4.976   3.450   9.061 -2.0970  0.8394 -1.9068
 7466SOL    HW224012   4.949   3.332   8.971  2.1569 -1.1823 -0.8014
 7467SOL     OW24013   0.519   5.907   7.638  0.3762 -0.0738  0.2761
 7467SOL    HW124014   0.579   5.932   7.708 -0.1309 -1.6777  1.3295
 7467SOL    HW224015   0.435   5.946   7.662  0.2432 -0.4841  0.4919
 7468SOL     OW24016   1.012   6.698   4.912  0.0304  0.4005 -0.2547
 7468SOL    HW124017   0.923   6.715   4.943  0.3468 -0.6751  1.4363
 7468SOL    HW224018   1.007   6.610   4.874  0.1257  0.8258 -1.2648
 7469SOL     OW24019   5.813   0.546   0.246  0.1573  0.0113  1.0434
 7469SOL    HW124020   5.762   0.601   0.306  0.1206  2.0103 -0.6869
 7469SOL    HW224021   5.886   0.515   0.299 -0.8834  0.0823  2.6076
 7470SOL     OW24022   7.943   6.534   4.187 -0.4978 -0.0139  0.8060
 7470SOL    HW124023   7.936   6.472   4.259  0.0109  0.1303  0.9791
 7470SOL    HW224024   7.910   6.486   4.111  1.1702 -0.9849  0.6480
 7471SOL     OW24025   5.197   1.183   8.226  0.0796 -0.5440  0.1380
 7471SOL    HW124026   5.231   1.265   8.260 -1.2780 -0.1812  0.7110
 7471SOL    HW224027   5.274   1.135   8.194  1.2730 -0.3584  2.5522
 7472SOL     OW24028   3.835   7.831   6.610  0.3895  0.1142  0.0149
 7472SOL    HW124029   3.813   7.771   6.682 -0.0359 -0.0052 -0.2120
 7472SOL    HW224030   3.861   7.912   6.653 -2.2016  0.8858  0.3137
 7473SOL     OW24031   3.155   6.424   4.275 -0.3709  0.2958 -0.5350
 7473SOL    HW124032   3.148   6.329   4.268 -1.2317  0.2132  0.9965
 7473SOL    HW224033   3.240   6.445   4.235  1.4498 -1.5072  2.0092
 7474SOL     OW24034   5.778   0.174   8.250 -0.2893  0.6831 -0.5646
 7474SOL    HW124035   5.823   0.099   8.212 -2.5187 -0.4720 -1.1149
 7474SOL    HW224036   5.808   0.249   8.199  1.8270  0.1739 -0.1453
 7475SOL     OW24037   1.008   1.035   9.699 -0.0015 -0.1678 -0.2987
 7475SOL    HW124038   0.945   1.009   9.632  0.0088  1.9851 -1.2447
 7475SOL    HW224039   1.017   1.130   9.688  2.3934 -0.1982  0.6895
 7476SOL     OW24040   5.701   8.545   5.212  0.5963 -0.8210 -0.4446
 7476SOL    HW124041   5.750   8.464   5.197 -0.2261 -1.2699 -0.8297
 7476SOL    HW224042   5.756   8.597   5.271  1.0581 -1.7289 -0.0603
 7477SOL     OW24043   8.508   6.383   6.999  0.0800  0.1027  0.0658
 7477SOL    HW124044   8.535   6.304   6.953 -0.0078  0.1979 -0.1551
 7477SOL    HW224045   8.413   6.387   6.985  0.2680  1.0130 -1.1632
 7478SOL     OW24046   5.958   4.690   2.456  0.3302  0.1315  0.3247
 7478SOL    HW124047   5.864   4.681   2.472  0.3807 -1.1384  0.0195
 7478SOL    HW224048   5.966   4.689   2.360  0.8127 -2.0494  0.3389
 7479SOL     OW24049   5.851   7.908   0.906  0.1845 -0.3658  0.2383
 7479SOL    HW124050   5.761   7.895   0.935 -0.0102  1.2633  0.4519
 7479SOL    HW224051   5.885   7.978   0.962  2.1690 -2.0728  1.3325
 7480SOL     OW24052   0.782   0.741   4.372 -0.0576 -0.2151  0.4031
 7480SOL    HW124053   0.763   0.667   4.430 -0.9495 -0.3832 -0.0824
 7480SOL    HW224054   0.733   0.814   4.410 -0.9195 -0.4055 -0.2938
 7481SOL     OW24055   6.025   2.158   3.959  0.2532  0.2686  0.3417
 7481SOL    HW124056   5.932   2.160   3.934  0.0653  0.8895  1.0703
 7481SOL    HW224057   6.064   2.231   3.912 -0.0992  1.4343  1.7940
 7482SOL     OW24058   5.044   5.428   0.386  0.0404  0.2326  0.0785
 7482SOL    HW124059   4.976   5.422   0.453 -1.8296 -0.6484 -1.8121
 7482SOL    HW224060   5.055   5.338   0.355  0.7585  0.6488 -0.9243
 7483SOL     OW24061   2.483   6.261   0.752  0.0585 -0.0635 -0.1899
 7483SOL    HW124062   2.401   6.263   0.702 -0.5001  2.1532  0.6987
 7483SOL    HW224063   2.552   6.268   0.686 -0.4767 -1.0133 -0.8772
 7484SOL     OW24064   3.728   1.263   7.834 -0.0834  0.4698 -0.3322
 7484SOL    HW124065   3.718   1.181   7.882  0.2893  0.7026  0.1483
 7484SOL    HW224066   3.810   1.250   7.784 -0.9958 -0.1797 -1.7467
 7485SOL     OW24067   9.046   7.447   4.266  0.6476  0.7364  0.1463
 7485SOL    HW124068   8.971   7.398   4.298  0.5776 -0.3606 -1.6012
 7485SOL    HW224069   9.116   7.382   4.258  0.3085  0.6249 -3.0414
 7486SOL     OW24070   8.398   7.853   5.415  0.2312  0.2002 -0.4634
 7486SOL    HW124071   8.488   7.834   5.443  0.9498  2.2068 -1.2496
 7486SOL    HW224072   8.352   7.874   5.495  0.7331  0.1337 -0.1522
 7487SOL     OW24073   0.038   7.350   2.110 -0.4479 -0.5129 -0.4699
 7487SOL    HW124074   0.020   7.387   2.023  2.6147  2.9398  0.1175
 7487SOL    HW224075  -0.018   7.402   2.169 -0.9855 -1.4219 -0.1678
 7488SOL     OW24076   7.242   2.241   2.690  0.2961  0.0206  0.3666
 7488SOL    HW124077   7.258   2.159   2.645 -0.3218 -0.5776  1.1999
 7488SOL    HW224078   7.147   2.244   2.702  0.1327  1.5516 -0.9111
 7489SOL     OW24079   4.606   6.075   0.740  0.3206  0.7540 -0.9812
 7489SOL    HW124080   4.660   6.150   0.763  1.3852 -0.5039  0.8578
 7489SOL    HW224081   4.656   5.998   0.768 -2.3898 -0.4924  1.0265
 7490SOL     OW24082   1.320   6.310   5.434 -0.6332 -0.2251 -0.4795
 7490SOL    HW124083   1.261   6.243   5.399 -1.1150  0.7645 -1.6402
 7490SOL    HW224084   1.339   6.280   5.523 -1.9988 -1.1479 -0.4546
 7491SOL     OW24085   5.656   7.331   6.580 -0.0329  0.4936 -0.4752
 7491SOL    HW124086   5.727   7.268   6.590 -0.7366  0.0256  3.0965
 7491SOL    HW224087   5.655   7.352   6.487  2.1558 -2.4992 -1.3358
 7492SOL     OW24088   2.949   1.411   0.968 -0.4684 -0.4594  0.3441
 7492SOL    HW124089   2.857   1.413   0.941 -0.7809 -0.8416  1.3209
 7492SOL    HW224090   2.997   1.450   0.895 -1.5721  1.1877  0.4515
 7493SOL     OW24091   1.061   2.490   8.055 -0.5140 -0.3584  0.3710
 7493SOL    HW124092   1.049   2.552   8.127 -0.4321 -1.1905  1.1207
 7493SOL    HW224093   1.115   2.537   7.991 -0.1889  0.2277  1.0672
 7494SOL     OW24094   2.393   6.526   1.062 -0.3852 -0.3464  1.0682
 7494SOL    HW124095   2.388   6.538   1.157  0.5024 -0.3980  1.1378
 7494SOL    HW224096   2.313   6.480   1.039 -0.0784 -1.3920  1.9760
 7495SOL     OW24097   0.002   6.411   5.828  0.0151 -0.4511 -0.1261
 7495SOL    HW124098  -0.074   6.382   5.777  0.4250 -1.7680 -0.0320
 7495SOL    HW224099   0.077   6.371   5.784  1.0125  2.8343 -1.7441
 7496SOL     OW24100   5.796   0.816   8.452  0.2957 -0.1707 -0.8384
 7496SOL    HW124101   5.716   0.797   8.404  0.0916 -1.6881  0.0583
 7496SOL    HW224102   5.766   0.855   8.534  0.3210 -2.2768  0.2363
 7497SOL     OW24103   8.622   7.436   2.320  0.2199  0.3877 -0.3713
 7497SOL    HW124104   8.617   7.510   2.381  0.8998 -1.0611  1.5152
 7497SOL    HW224105   8.609   7.359   2.375 -0.8217 -0.9065 -2.3503
 7498SOL     OW24106   3.784   5.634   5.653 -0.2283 -0.1911  0.0014
 7498SOL    HW124107   3.735   5.615   5.573  2.0354  1.2460 -1.8695
 7498SOL    HW224108   3.806   5.727   5.645  1.3594 -0.3903  1.5459
 7499SOL     OW24109   5.560   2.852   5.414 -0.3434  0.3280 -0.4894
 7499SOL    HW124110   5.497   2.802   5.467  1.3030  0.9226  2.2647
 7499SOL    HW224111   5.583   2.927   5.469  3.5875 -0.4602 -0.7189
 7500SOL     OW24112   6.202   8.231   8.131  0.2116  0.2931 -0.0556
 7500SOL    HW124113   6.163   8.144   8.138 -0.3151  0.6093  1.3481
 7500SOL    HW224114   6.214   8.245   8.037 -0.2722 -1.0349 -0.3331
 7501SOL     OW24115   6.684   6.788   3.136  0.2283 -0.4523  0.2232
 7501SOL    HW124116   6.591   6.803   3.117  0.2316 -1.3304 -0.5366
 7501SOL    HW224117   6.716   6.874   3.164 -0.8336 -0.1640  0.6124
 7502SOL     OW24118   8.743   2.766   3.072 -0.6923  0.3013 -0.4459
 7502SOL    HW124119   8.649   2.748   3.085 -0.8210  0.6893 -0.8200
 7502SOL    HW224120   8.766   2.717   2.993 -0.4688 -0.1466 -0.1125
 7503SOL     OW24121   9.448   4.593   5.163 -0.7882 -0.0650  0.6420
 7503SOL    HW124122   9.359   4.618   5.137 -0.7379  0.3707  0.8736
 7503SOL    HW224123   9.437   4.540   5.242 -0.8383  0.0754  0.7298
 7504SOL     OW24124   3.530   3.036   8.208 -0.0731 -0.3222  0.0606
 7504SOL    HW124125   3.451   2.988   8.183 -0.8454  0.3139  1.2300
 7504SOL    HW224126   3.515   3.063   8.298  1.3464  0.1018  0.1953
 7505SOL     OW24127   9.341   9.289   7.331  0.1520 -0.3613  0.1914
 7505SOL    HW124128   9.280   9.215   7.327  0.3050 -0.4508 -0.6502
 7505SOL    HW224129   9.373   9.289   7.421 -0.3029 -0.9583  0.3559
 7506SOL     OW24130   7.926   4.263   1.837  0.0262  0.4678 -0.2106
 7506SOL    HW124131   7.893   4.183   1.795 -0.3862  1.2714 -1.4739
 7506SOL    HW224132   7.853   4.324   1.833  0.5949  1.1729  0.0162
 7507SOL     OW24133   3.526   5.740   6.753 -0.3254 -0.1637 -0.4005
 7507SOL    HW124134   3.430   5.744   6.761 -0.6844 -2.5229 -2.4994
 7507SOL    HW224135   3.543   5.769   6.663  1.4993  4.7608  1.1986
 7508SOL     OW24136   9.460   2.134   0.184  0.0490 -0.0156  0.4741
 7508SOL    HW124137   9.538   2.083   0.161  0.7071  0.4597  1.5284
 7508SOL    HW224138   9.481   2.223   0.156  0.1642  0.2377  1.3335
 7509SOL     OW24139   1.000   0.256   2.146  0.0219  0.6124 -0.6278
 7509SOL    HW124140   1.061   0.242   2.074  1.0582  2.5477 -0.1923
 7509SOL    HW224141   0.914   0.264   2.103 -0.3417 -3.5667 -1.1383
 7510SOL     OW24142   1.048   9.684   2.520 -0.3251 -0.2371  0.7298
 7510SOL    HW124143   1.017   9.599   2.488  0.8067 -1.1468  1.9675
 7510SOL    HW224144   1.099   9.719   2.447  1.1352 -1.6947  0.9976
 7511SOL     OW24145   1.032   4.754   2.764 -0.9482 -0.3888  0.0637
 7511SOL    HW124146   0.948   4.752   2.811 -1.1250 -1.8358 -0.2841
 7511SOL    HW224147   1.016   4.703   2.685 -0.3681  1.1849 -1.1282
 7512SOL     OW24148   1.895   1.096   4.913 -0.1676 -0.3277 -0.2000
 7512SOL    HW124149   1.923   1.045   4.989  0.4398 -0.4873 -0.5248
 7512SOL    HW224150   1.905   1.188   4.941  2.2063 -0.3406 -0.8139
 7513SOL     OW24151   9.170   4.457   9.673  0.3738  0.5759 -0.0016
 7513SOL    HW124152   9.215   4.390   9.622  0.8207  1.1215 -0.3365
 7513SOL    HW224153   9.183   4.431   9.764 -1.1876 -0.8968 -0.1636
 7514SOL     OW24154   8.642   5.981   3.906 -0.7098 -0.0021 -0.0067
 7514SOL    HW124155   8.571   6.030   3.947 -1.0020  0.9381 -1.5637
 7514SOL    HW224156   8.722   6.023   3.938 -0.7458 -1.5272  2.3387
 7515SOL     OW24157   3.548   1.523   1.145 -0.0264  0.3378 -0.0529
 7515SOL    HW124158   3.625   1.531   1.089  1.9460 -0.8275  2.3289
 7515SOL    HW224159   3.554   1.595   1.207 -0.0259 -0.5776  1.0490
 7516SOL     OW24160   6.741   3.049   8.816  0.0354  0.0118  0.1085
 7516SOL    HW124161   6.787   2.966   8.821 -0.7552 -0.5263 -1.0890
 7516SOL    HW224162   6.783   3.097   8.744 -1.8682 -0.9310 -1.7349
 7517SOL     OW24163   7.973   1.292   9.298 -0.2296 -0.3965 -0.4140
 7517SOL    HW124164   8.045   1.341   9.338 -0.3984 -0.6423  0.2156
 7517SOL    HW224165   7.950   1.225   9.364 -0.2993 -1.0296 -1.0668
 7518SOL     OW24166   8.555   3.129   5.329 -0.3528 -0.3842 -0.0161
 7518SOL    HW124167   8.465   3.159   5.317 -0.1115  0.0767 -0.7259
 7518SOL    HW224168   8.605   3.208   5.344  0.1859 -0.4536 -1.2708
 7519SOL     OW24169   3.584   2.967   2.101  0.1517 -0.1007 -0.0122
 7519SOL    HW124170   3.621   3.053   2.121 -1.1078  0.2249  1.0696
 7519SOL    HW224171   3.626   2.908   2.162 -0.9030  0.2374  1.0882
 7520SOL     OW24172   9.778   8.623   7.659  0.5092 -0.2443 -0.3054
 7520SOL    HW124173   9.814   8.534   7.656 -0.4675 -0.7044  0.9649
 7520SOL    HW224174   9.786   8.654   7.569  1.6149 -1.3083 -0.6086
 7521SOL     OW24175   2.477   2.128   4.969 -0.5418  0.1332  0.1290
 7521SOL    HW124176   2.464   2.073   4.892  0.5065  1.0046 -0.7038
 7521SOL    HW224177   2.389   2.139   5.006 -0.8631 -1.4481 -0.1238
 7522SOL     OW24178   6.079   9.693   2.695  0.0528 -0.1740  0.1126
 7522SOL    HW124179   6.080   9.776   2.744 -1.7377  1.1799 -1.9391
 7522SOL    HW224180   6.171   9.667   2.690  0.6333  1.5296  1.0942
 7523SOL     OW24181   6.666   2.801   9.385  0.0808  0.1225  1.2643
 7523SOL    HW124182   6.598   2.867   9.397 -1.4222 -0.7058 -1.6191
 7523SOL    HW224183   6.623   2.732   9.334  3.3959  0.3613 -2.3465
 7524SOL     OW24184   8.029   3.540   1.966 -0.3982 -0.0678 -0.1071
 7524SOL    HW124185   8.065   3.458   1.933  2.1767  1.0746 -0.4186
 7524SOL    HW224186   7.979   3.576   1.893 -1.7703 -1.4146  0.1202
 7525SOL     OW24187   1.286   5.452   1.416 -0.2754 -0.0407  0.0620
 7525SOL    HW124188   1.264   5.521   1.353  1.9102  0.2074 -0.4975
 7525SOL    HW224189   1.244   5.480   1.497 -2.0150  0.3343 -0.9081
 7526SOL     OW24190   8.968   6.131   9.713  0.5047 -0.2391 -0.5879
 7526SOL    HW124191   8.910   6.207   9.707  2.5825  1.5714  0.8239
 7526SOL    HW224192   8.916   6.065   9.758 -1.0023  0.6854 -0.9001
 7527SOL     OW24193   2.158   4.287   4.579 -0.3152  0.3740  0.0072
 7527SOL    HW124194   2.214   4.239   4.519  0.6742  1.6885 -0.1775
 7527SOL    HW224195   2.136   4.224   4.647  2.4615  0.0893  0.7744
 7528SOL     OW24196   5.179   3.579   1.191 -0.0319  0.3005 -0.2274
 7528SOL    HW124197   5.231   3.588   1.111 -0.9345  0.9503 -0.7556
 7528SOL    HW224198   5.244   3.571   1.261  0.8285  2.1082 -0.7514
 7529SOL     OW24199   4.644   6.347   2.364 -0.5855  0.0981 -0.1621
 7529SOL    HW124200   4.585   6.383   2.432 -1.1284 -0.0896 -0.5265
 7529SOL    HW224201   4.598   6.270   2.331 -0.7414  0.6839 -1.3536
 7530SOL     OW24202   1.662   7.387   4.495 -0.2656 -0.3179  0.6515
 7530SOL    HW124203   1.616   7.383   4.411  0.1361 -0.5525  0.4402
 7530SOL    HW224204   1.628   7.313   4.545  0.9302 -1.3713 -0.0498
 7531SOL     OW24205   9.087   9.178   8.775 -0.2014  0.1451 -0.3811
 7531SOL    HW124206   9.127   9.118   8.838  1.4229  0.1723 -1.3221
 7531SOL    HW224207   9.040   9.242   8.829  2.0824  0.8478  0.9032
 7532SOL     OW24208   1.237   9.667   2.860  0.0699  0.1158 -0.1232
 7532SOL    HW124209   1.155   9.701   2.824 -1.2951 -0.0239  2.5736
 7532SOL    HW224210   1.240   9.703   2.948  2.5235 -0.5771  0.1290
 7533SOL     OW24211   8.014   0.778   5.074 -0.2817 -0.1664 -0.0240
 7533SOL    HW124212   8.012   0.874   5.074  3.4648  0.0370 -0.5044
 7533SOL    HW224213   7.981   0.753   4.987 -0.8271  0.6886 -0.0713
 7534SOL     OW24214   4.207   5.641   6.223 -0.0574  0.0913  0.7427
 7534SOL    HW124215   4.226   5.547   6.226  1.9806  0.4379  0.5502
 7534SOL    HW224216   4.261   5.674   6.151 -1.7325  1.2335 -0.0681
 7535SOL     OW24217   4.950   8.762   7.812 -0.1060 -0.7955  0.6598
 7535SOL    HW124218   5.042   8.786   7.826 -0.7997  0.3022  4.1991
 7535SOL    HW224219   4.940   8.677   7.855 -0.4459 -1.7801 -1.2459
 7536SOL     OW24220   7.464   7.514   1.197  0.0989 -0.3335  0.3869
 7536SOL    HW124221   7.424   7.429   1.179  0.2505 -0.1589 -0.8703
 7536SOL    HW224222   7.546   7.494   1.242 -0.0042 -0.8399  0.3479
 7537SOL     OW24223   5.974   3.971   3.972  0.6068 -0.0319  0.1820
 7537SOL    HW124224   5.889   3.981   4.014  1.2992  0.2826  1.6019
 7537SOL    HW224225   5.993   4.057   3.935  0.4537 -0.0022  0.1734
 7538SOL     OW24226   5.394   4.294   3.646  0.6575  0.1294  0.3103
 7538SOL    HW124227   5.359   4.279   3.733  0.1410 -1.6816 -0.1550
 7538SOL    HW224228   5.317   4.299   3.589  1.0052  0.7092 -0.1202
 7539SOL     OW24229   4.939   6.474   8.307  0.3640  0.0286  0.2500
 7539SOL    HW124230   4.985   6.506   8.385 -1.6739  0.7374  1.2325
 7539SOL    HW224231   4.903   6.389   8.333  0.1412  0.0153 -0.0897
 7540SOL     OW24232   6.831   8.178   1.176 -0.2515 -0.2860 -0.1719
 7540SOL    HW124233   6.882   8.137   1.246  1.9918  2.0826 -0.2977
 7540SOL    HW224234   6.777   8.244   1.220  1.2897  1.3290 -0.6044
 7541SOL     OW24235   8.012   5.450   2.600  0.0026 -0.5092  0.0145
 7541SOL    HW124236   7.939   5.449   2.538  0.1118 -1.3865 -0.1227
 7541SOL    HW224237   8.086   5.415   2.550  0.3295 -0.3109  0.3583
 7542SOL     OW24238   9.704   6.332   2.161  0.1231  0.2098  0.2856
 7542SOL    HW124239   9.691   6.247   2.119  2.3008 -0.0328 -0.0454
 7542SOL    HW224240   9.702   6.313   2.255  1.0910 -0.3347  0.2124
 7543SOL     OW24241   2.891   3.662   2.598  0.3512 -0.3887  0.2260
 7543SOL    HW124242   2.861   3.636   2.684 -2.1550  1.1415 -0.0961
 7543SOL    HW224243   2.954   3.732   2.615  0.5431 -0.7005  0.8179
 7544SOL     OW24244   0.660   8.880   2.059  0.5419  0.3879 -0.0175
 7544SOL    HW124245   0.677   8.867   2.152  0.1273  0.7398  0.1109
 7544SOL    HW224246   0.744   8.864   2.016  0.3389 -1.5017  0.2352
 7545SOL     OW24247   2.926   6.860   8.896 -0.9781 -0.2364 -0.2046
 7545SOL    HW124248   2.863   6.915   8.944 -1.0326  0.7229 -1.3293
 7545SOL    HW224249   2.957   6.916   8.825 -1.4951 -1.8508 -1.7791
 7546SOL     OW24250   8.069   5.988   1.450 -0.2136 -0.0557 -0.3664
 7546SOL    HW124251   8.154   5.958   1.417  1.3506  1.8316  1.6157
 7546SOL    HW224252   8.018   5.908   1.461  1.3067 -1.2686 -1.5622
 7547SOL     OW24253   3.539   5.603   9.458  0.3008  0.4803  0.1177
 7547SOL    HW124254   3.497   5.634   9.537 -0.5113 -0.8485  0.2277
 7547SOL    HW224255   3.495   5.649   9.387  0.5188  1.1053  0.3809
 7548SOL     OW24256   1.204   3.207   8.464 -0.3345  0.3919 -0.0148
 7548SOL    HW124257   1.194   3.275   8.531 -1.1634  1.8127 -1.5084
 7548SOL    HW224258   1.117   3.167   8.458  0.4496 -1.8328  1.7970
 7549SOL     OW24259   5.597   7.611   2.011 -0.2397  0.4118  0.4892
 7549SOL    HW124260   5.615   7.531   2.060 -0.2256  0.1968  0.1343
 7549SOL    HW224261   5.505   7.604   1.986 -0.8532  1.4771  2.2435
 7550SOL     OW24262   0.163   0.649   6.663 -0.1869 -0.2966  0.7376
 7550SOL    HW124263   0.113   0.672   6.742  1.3379 -1.3314  2.0726
 7550SOL    HW224264   0.228   0.718   6.655  0.6013 -0.9665  1.2688
 7551SOL     OW24265   8.494   7.863   4.262  0.2455 -0.2970  0.3023
 7551SOL    HW124266   8.453   7.778   4.279 -2.0953  0.5810 -0.5574
 7551SOL    HW224267   8.522   7.859   4.171  2.8758 -1.1309  1.0591
 7552SOL     OW24268   5.067   6.063   3.584 -0.2412  0.1564  0.3207
 7552SOL    HW124269   5.120   5.996   3.540  0.1499 -0.9978  2.4112
 7552SOL    HW224270   5.041   6.023   3.666  2.9357  3.6464  3.4243
 7553SOL     OW24271   9.098   1.310   4.248 -0.0567 -0.4708 -0.0161
 7553SOL    HW124272   9.159   1.246   4.284 -1.8305 -1.6497  1.0603
 7553SOL    HW224273   9.033   1.257   4.200 -0.2851  0.7297 -1.0992
 7554SOL     OW24274   1.700   8.784   2.552  0.2605 -0.1805  0.1027
 7554SOL    HW124275   1.698   8.699   2.596  1.0202 -0.9610 -1.3263
 7554SOL    HW224276   1.736   8.844   2.618 -0.4457 -0.9088  1.1820
 7555SOL     OW24277   3.757   0.032   2.942 -0.0767  0.1037  0.1692
 7555SOL    HW124278   3.801  -0.029   2.882  0.9120 -0.4130  1.3645
 7555SOL    HW224279   3.825   0.055   3.006 -1.3414 -0.1355  1.6555
 7556SOL     OW24280   8.831   4.098   1.904  0.2204  0.3203 -0.0334
 7556SOL    HW124281   8.922   4.077   1.886 -0.0022 -0.9203  0.1909
 7556SOL    HW224282   8.798   4.135   1.821  0.1420 -2.0677 -1.1626
 7557SOL     OW24283   9.036   6.593   6.533 -0.1379  0.5328  0.3374
 7557SOL    HW124284   8.942   6.575   6.534 -0.2880  1.2979  0.2954
 7557SOL    HW224285   9.069   6.546   6.456 -0.2133 -1.0219  1.2041
 7558SOL     OW24286   4.630   6.648   0.456  0.3417  0.2134  0.1395
 7558SOL    HW124287   4.663   6.737   0.444 -0.9610  0.8292  0.9257
 7558SOL    HW224288   4.595   6.624   0.370 -0.3124  0.9190  0.1889
 7559SOL     OW24289   8.552   5.765   9.734  0.1011 -0.1881  0.1813
 7559SOL    HW124290   8.522   5.728   9.817 -1.1104 -1.4932 -0.7932
 7559SOL    HW224291   8.632   5.718   9.714 -1.7156 -2.9159 -1.3296
 7560SOL     OW24292   6.394   6.032   9.733  0.0934  0.5384  0.2532
 7560SOL    HW124293   6.428   6.079   9.656 -0.6167 -0.6195 -0.8153
 7560SOL    HW224294   6.369   5.946   9.698  0.3459 -0.2406  1.9217
 7561SOL     OW24295   0.641   0.692   4.669  0.0325  0.6663 -0.0339
 7561SOL    HW124296   0.581   0.661   4.737  1.5439 -1.0206  0.6220
 7561SOL    HW224297   0.588   0.751   4.615 -1.8727  0.1670  1.1888
 7562SOL     OW24298   7.737   6.624   6.772  0.6080  0.1598 -0.1344
 7562SOL    HW124299   7.799   6.648   6.841  0.1981 -2.6334  1.3041
 7562SOL    HW224300   7.661   6.591   6.818 -0.8332  0.8169 -1.9314
 7563SOL     OW24301   6.691   6.012   4.555 -0.5340  0.3552  0.7056
 7563SOL    HW124302   6.766   5.971   4.599 -2.5606 -0.2676  3.9325
 7563SOL    HW224303   6.659   5.943   4.497 -1.6518 -1.5094  3.2935
 7564SOL     OW24304   7.216   7.982   3.785 -0.4032 -0.3633  0.5627
 7564SOL    HW124305   7.289   7.940   3.831  0.9866 -0.3809 -1.4682
 7564SOL    HW224306   7.191   7.919   3.718 -1.6292  0.0736  0.5887
 7565SOL     OW24307   6.746   1.111   3.168 -0.1644 -0.0780 -0.0694
 7565SOL    HW124308   6.764   1.170   3.241  1.1759  0.0697 -0.5019
 7565SOL    HW224309   6.652   1.122   3.152  0.1674  2.5200 -0.6335
 7566SOL     OW24310   3.787   4.116   3.939  0.0546 -0.4750  0.3035
 7566SOL    HW124311   3.869   4.151   3.904 -0.6878  0.4059 -0.6440
 7566SOL    HW224312   3.726   4.123   3.866 -1.2899  0.4692  1.4644
 7567SOL     OW24313   8.828   9.287   1.754  0.1886 -0.3969  0.1255
 7567SOL    HW124314   8.799   9.201   1.724 -2.8067  0.7712 -0.7175
 7567SOL    HW224315   8.806   9.289   1.847  4.7779 -2.1464  1.5281
 7568SOL     OW24316   5.231   8.164   8.077  0.2378 -0.0957 -0.0484
 7568SOL    HW124317   5.149   8.213   8.079  0.3337  0.0615  0.0386
 7568SOL    HW224318   5.220   8.100   8.007 -1.0291 -1.9382  1.7038
 7569SOL     OW24319   0.891   6.397   8.876  0.3115  0.0059  0.0509
 7569SOL    HW124320   0.952   6.324   8.878  0.0581 -0.2523 -1.1545
 7569SOL    HW224321   0.813   6.364   8.921  0.2764 -0.3876 -0.2984
 7570SOL     OW24322   5.897   5.839   4.063  0.5043  0.1757  0.6618
 7570SOL    HW124323   5.816   5.879   4.095 -0.3319 -1.2266  0.4025
 7570SOL    HW224324   5.958   5.846   4.136 -0.4854 -0.4708  1.5924
 7571SOL     OW24325   7.586   5.481   4.551 -0.1320  0.0630  0.3383
 7571SOL    HW124326   7.536   5.419   4.498 -1.3148  1.0911  0.2294
 7571SOL    HW224327   7.610   5.431   4.629  0.0618 -0.9167 -0.3299
 7572SOL     OW24328   1.517   7.818   7.304 -0.1362  0.4518 -0.5154
 7572SOL    HW124329   1.430   7.790   7.332 -0.2779  0.2184 -1.1708
 7572SOL    HW224330   1.555   7.741   7.261  0.8845  0.1612  0.8502
 7573SOL     OW24331   3.405   1.932   8.565 -0.7362 -0.2532  0.3443
 7573SOL    HW124332   3.350   1.921   8.643 -0.4130 -0.9368  0.4869
 7573SOL    HW224333   3.345   1.922   8.492 -1.1081  0.7495  0.4965
 7574SOL     OW24334   2.528   9.347   8.705 -0.0535 -0.2337  0.4242
 7574SOL    HW124335   2.442   9.330   8.667 -0.7217 -1.1881  2.2453
 7574SOL    HW224336   2.536   9.442   8.705 -1.2975 -0.1154  0.6111
 7575SOL     OW24337   2.915   6.280   5.712  1.0374 -0.2697  0.4126
 7575SOL    HW124338   2.970   6.353   5.742 -0.0842  1.2053 -0.9410
 7575SOL    HW224339   2.865   6.254   5.789  0.8184  0.9971  0.7171
 7576SOL     OW24340   2.700   8.597   7.781 -0.0453 -0.0799 -0.2096
 7576SOL    HW124341   2.654   8.546   7.848  1.2853  0.5643  1.2820
 7576SOL    HW224342   2.708   8.537   7.707 -3.4993 -0.0944 -0.7193
 7577SOL     OW24343   6.353   4.359   7.243  0.0846  0.2768 -0.0929
 7577SOL    HW124344   6.300   4.279   7.249  0.1714  0.0486 -1.8711
 7577SOL    HW224345   6.299   4.420   7.193  0.5310  0.8985  0.1655
 7578SOL     OW24346   8.035   2.954   9.402 -0.2768 -0.1804  0.0349
 7578SOL    HW124347   8.110   2.928   9.456 -0.1147  0.4219  0.1143
 7578SOL    HW224348   7.961   2.905   9.437 -0.0264 -0.3528  0.3241
 7579SOL     OW24349   2.337   0.045   6.300  0.4183  0.0705 -0.2055
 7579SOL    HW124350   2.307   0.042   6.391  1.4475 -2.4990  0.1241
 7579SOL    HW224351   2.297  -0.031   6.259  2.6370 -0.7807 -0.9610
 7580SOL     OW24352   1.633   4.677   4.437 -0.0929  0.1502 -0.2220
 7580SOL    HW124353   1.562   4.656   4.497 -0.8650  1.2172 -0.7319
 7580SOL    HW224354   1.590   4.717   4.361  0.9932  0.2743 -0.7976
 7581SOL     OW24355   1.822   5.892   7.460 -0.0163  0.2541 -0.0601
 7581SOL    HW124356   1.858   5.923   7.543 -0.4076 -0.6032  0.4510
 7581SOL    HW224357   1.893   5.903   7.397 -0.4046  2.9708 -0.1378
 7582SOL     OW24358   2.537   7.359   6.852  0.0017  0.3213 -0.2758
 7582SOL    HW124359   2.603   7.331   6.915 -1.1159 -1.5345  0.1622
 7582SOL    HW224360   2.454   7.353   6.901 -1.0477 -2.3138 -2.1390
 7583SOL     OW24361   3.124   8.025   5.480 -0.8473 -0.0571 -0.5691
 7583SOL    HW124362   3.192   8.056   5.539 -0.0073 -0.9041 -1.0656
 7583SOL    HW224363   3.143   8.068   5.397 -2.3702  1.5954 -0.1393
 7584SOL     OW24364   4.627   2.523   1.318 -0.3142 -0.5430  0.0565
 7584SOL    HW124365   4.571   2.515   1.241  0.7279  2.2889 -1.1207
 7584SOL    HW224366   4.703   2.468   1.298 -0.4105 -0.4509 -0.5797
 7585SOL     OW24367   2.978   5.587   5.468 -0.6298 -0.0340 -0.1562
 7585SOL    HW124368   3.018   5.607   5.383  1.6047  2.1859  1.2967
 7585SOL    HW224369   2.885   5.575   5.448 -0.0317 -0.7225 -3.0314
 7586SOL     OW24370   4.065   0.922   8.470  0.1982  0.8947  0.4215
 7586SOL    HW124371   4.028   0.854   8.527 -1.7284  0.8710 -0.7942
 7586SOL    HW224372   4.086   0.877   8.389  2.4925  1.0330  0.8456
 7587SOL     OW24373   7.855   7.522   1.011  0.0780  0.6339 -0.7642
 7587SOL    HW124374   7.787   7.529   0.943 -0.3306 -0.7404 -0.5234
 7587SOL    HW224375   7.901   7.606   1.007 -1.5680  1.5697 -1.0037
 7588SOL     OW24376   0.542   6.062   5.820 -0.4705  0.6883 -0.5319
 7588SOL    HW124377   0.495   6.055   5.903 -1.6677  1.4689 -1.1227
 7588SOL    HW224378   0.542   5.973   5.785  1.0073  0.1142  0.7684
 7589SOL     OW24379   8.178   8.882   8.867 -0.2100 -0.7399 -0.1710
 7589SOL    HW124380   8.173   8.875   8.772 -1.7666 -0.0501 -0.1729
 7589SOL    HW224381   8.262   8.923   8.885 -0.0090 -0.6630 -1.2621
 7590SOL     OW24382   6.779   0.824   3.380  0.0329 -0.1170  0.1572
 7590SOL    HW124383   6.723   0.747   3.386  0.2597 -0.3252 -0.3541
 7590SOL    HW224384   6.824   0.815   3.296  0.2189  0.4654  0.1884
 7591SOL     OW24385   3.524   5.145   1.489  0.1938  0.3353  0.1777
 7591SOL    HW124386   3.483   5.081   1.546 -2.1877  1.2524 -0.4092
 7591SOL    HW224387   3.589   5.094   1.439  1.2064 -0.7714  2.4672
 7592SOL     OW24388   8.886   6.571   9.790 -1.0730 -0.2138 -0.1558
 7592SOL    HW124389   8.971   6.547   9.828 -1.0535 -0.4372 -0.3347
 7592SOL    HW224390   8.843   6.487   9.774 -1.2862 -0.1034 -0.1566
 7593SOL     OW24391   7.630   3.907   9.288 -0.3425  0.1591 -0.2682
 7593SOL    HW124392   7.704   3.922   9.346 -1.1459 -1.1824  1.1901
 7593SOL    HW224393   7.621   3.812   9.285  0.7260  0.0472 -4.0541
 7594SOL     OW24394   5.995   8.243   3.565 -0.1545  0.2543  0.2981
 7594SOL    HW124395   6.082   8.221   3.533 -0.6350  0.7819 -1.4915
 7594SOL    HW224396   6.009   8.280   3.652  1.3840  0.2511  0.0668
 7595SOL     OW24397   1.700   2.797   8.114 -0.0229  0.5236  0.2431
 7595SOL    HW124398   1.794   2.784   8.100 -0.0712  0.5482 -0.1114
 7595SOL    HW224399   1.680   2.876   8.064 -0.0283  1.1117  1.1562
 7596SOL     OW24400   1.402   6.673   5.554  0.4551 -0.2541  0.0721
 7596SOL    HW124401   1.405   6.645   5.646  1.3328  2.2601  0.8793
 7596SOL    HW224402   1.329   6.623   5.517 -0.4146 -0.8034  2.3274
 7597SOL     OW24403   9.633   5.679   1.364 -0.2417 -0.6655  0.4815
 7597SOL    HW124404   9.570   5.747   1.386 -0.4704 -1.1054  1.2367
 7597SOL    HW224405   9.595   5.634   1.288  0.4794  0.7798 -0.7815
 7598SOL     OW24406   8.643   3.082   1.813 -0.1320 -0.0450 -0.6302
 7598SOL    HW124407   8.548   3.074   1.804 -0.0242 -0.0651 -1.8783
 7598SOL    HW224408   8.677   3.063   1.726  0.9481  1.2130 -0.5173
 7599SOL     OW24409   1.236   1.673   9.832 -0.0483 -0.0602 -0.4486
 7599SOL    HW124410   1.186   1.595   9.808 -1.5751  0.3055  1.2713
 7599SOL    HW224411   1.207   1.693   9.921  0.6618  2.1871 -0.6599
 7600SOL     OW24412   6.959   0.238   7.426 -0.1632  0.5816  0.2607
 7600SOL    HW124413   6.904   0.162   7.405 -1.3679  1.6140 -0.4244
 7600SOL    HW224414   6.988   0.270   7.340  0.7490  0.6130  0.5740
 7601SOL     OW24415   4.249   3.258   6.459 -0.2305  0.0102 -0.4165
 7601SOL    HW124416   4.221   3.313   6.532  0.6742 -0.0827  0.0081
 7601SOL    HW224417   4.195   3.287   6.385 -1.5468 -0.2595  0.3915
 7602SOL     OW24418   3.599   8.715   0.731 -0.0654  0.4431  0.0457
 7602SOL    HW124419   3.563   8.626   0.729 -0.2829  0.5409 -0.5842
 7602SOL    HW224420   3.588   8.747   0.641  1.4318  0.5343 -0.1292
 7603SOL     OW24421   5.230   6.793   7.375 -0.2036 -0.2772 -0.1102
 7603SOL    HW124422   5.242   6.837   7.290 -1.7212  0.9242  0.2530
 7603SOL    HW224423   5.141   6.757   7.370 -0.3894  0.0017  1.0471
 7604SOL     OW24424   4.415   7.998   5.820  0.2983 -0.0054  0.1844
 7604SOL    HW124425   4.443   8.039   5.902  0.4134  1.3478 -0.4974
 7604SOL    HW224426   4.494   7.995   5.766 -0.2012  1.0645 -0.6386
 7605SOL     OW24427   4.591   0.937   8.988  0.0529 -0.0052  0.4316
 7605SOL    HW124428   4.669   0.893   8.953  0.6889 -0.0095  1.7788
 7605SOL    HW224429   4.521   0.914   8.927  1.0261 -0.2899 -0.6201
 7606SOL     OW24430   8.512   9.053   3.264  0.3653 -0.2270 -0.7533
 7606SOL    HW124431   8.469   8.970   3.243  0.6984 -0.7995  0.7238
 7606SOL    HW224432   8.459   9.119   3.219 -0.3376 -1.1732 -1.3518
 7607SOL     OW24433   2.358   4.091   9.368 -0.3560 -0.5526 -0.4086
 7607SOL    HW124434   2.318   4.051   9.291  1.4607 -0.9150 -1.2090
 7607SOL    HW224435   2.317   4.177   9.374 -0.0129 -0.2302 -2.2111
 7608SOL     OW24436   0.180   0.600   7.761 -0.6096  0.5448  0.1048
 7608SOL    HW124437   0.152   0.621   7.672 -0.7080  0.0273  0.0073
 7608SOL    HW224438   0.139   0.667   7.816 -1.4082  0.2619 -0.1250
 7609SOL     OW24439   8.559   9.727   9.412  0.1877 -0.5471 -0.4891
 7609SOL    HW124440   8.516   9.646   9.439 -0.2122  0.5381  2.4632
 7609SOL    HW224441   8.491   9.776   9.366 -0.7783 -0.3327  1.0744
 7610SOL     OW24442   8.296   7.969   8.226 -0.0354 -0.0315  0.0762
 7610SOL    HW124443   8.384   7.942   8.252 -0.0334 -0.7196 -0.6251
 7610SOL    HW224444   8.249   7.888   8.209 -1.0002  0.3006  1.0068
 7611SOL     OW24445   9.008   8.941   0.534 -0.0527 -0.2336 -0.3893
 7611SOL    HW124446   9.035   9.026   0.499  0.7329  0.4697  1.7613
 7611SOL    HW224447   8.927   8.960   0.582 -0.7558 -1.0481 -1.2005
 7612SOL     OW24448   5.561   5.814   7.974 -0.2637 -0.3694 -0.5775
 7612SOL    HW124449   5.605   5.735   7.942 -1.7416 -1.1039 -0.8602
 7612SOL    HW224450   5.472   5.808   7.940 -0.1509  1.9458 -1.4806
 7613SOL     OW24451   1.006   9.092   6.995  0.4166 -0.4321 -0.2085
 7613SOL    HW124452   1.071   9.025   6.974  1.4491  0.7483 -0.9354
 7613SOL    HW224453   0.935   9.076   6.933  0.2475 -1.3892  0.2164
 7614SOL     OW24454   8.475   8.328   5.551 -0.2692 -0.0573  0.1082
 7614SOL    HW124455   8.388   8.300   5.523 -0.9709  0.8948  1.2299
 7614SOL    HW224456   8.476   8.422   5.535  0.5211 -0.0477  0.1832
 7615SOL     OW24457   8.722   9.009   2.108 -0.3344  0.4521  0.1786
 7615SOL    HW124458   8.662   9.001   2.034  1.7266 -1.3960 -1.4187
 7615SOL    HW224459   8.750   9.101   2.106 -0.9824  0.6396 -0.7723
 7616SOL     OW24460   7.199   1.539   4.183 -0.4384 -0.1849  0.2500
 7616SOL    HW124461   7.227   1.574   4.268 -0.5302  0.5267 -0.0086
 7616SOL    HW224462   7.130   1.599   4.153 -1.0237 -0.9323  0.0745
 7617SOL     OW24463   1.015   8.482   5.818  0.0158  0.2231  0.1588
 7617SOL    HW124464   1.000   8.399   5.772 -1.8202  0.4677  0.2203
 7617SOL    HW224465   1.104   8.476   5.850  0.8058 -0.6665 -1.9968
 7618SOL     OW24466   2.093   1.018   6.201  0.2613 -0.1221  0.2143
 7618SOL    HW124467   2.136   1.040   6.118 -1.3915 -0.6532 -0.8425
 7618SOL    HW224468   2.018   0.965   6.175 -2.0418  2.1517  1.7944
 7619SOL     OW24469   2.711   7.910   3.224  0.0683  0.0797 -0.3218
 7619SOL    HW124470   2.724   7.844   3.155 -0.0205  2.1628 -2.4660
 7619SOL    HW224471   2.620   7.938   3.213  0.2726  0.9631  0.1719
 7620SOL     OW24472   3.080   0.799   4.250  0.2060  0.4981 -0.2266
 7620SOL    HW124473   3.043   0.784   4.162 -0.2613 -0.2893  0.0872
 7620SOL    HW224474   3.027   0.869   4.286  0.0172  0.4290 -0.3629
 7621SOL     OW24475   6.542   6.018   7.053 -0.0146  0.1990  0.2207
 7621SOL    HW124476   6.457   6.031   7.096 -1.2754 -0.7039 -1.8176
 7621SOL    HW224477   6.576   6.107   7.042 -1.0886  0.6591  0.3883
 7622SOL     OW24478   4.823   7.703   1.869  0.4457  0.1839 -0.0876
 7622SOL    HW124479   4.752   7.661   1.820  1.4229 -0.5796 -0.9109
 7622SOL    HW224480   4.802   7.687   1.961 -1.0795  1.0560 -0.2476
 7623SOL     OW24481   7.210   0.771   3.116 -0.4589  0.0027  0.2770
 7623SOL    HW124482   7.122   0.772   3.156 -0.1150  1.7051  1.0627
 7623SOL    HW224483   7.266   0.813   3.181  1.0046 -1.2283 -0.1361
 7624SOL     OW24484   0.532   2.596   4.776 -0.0389 -0.2407  0.7343
 7624SOL    HW124485   0.515   2.660   4.706 -0.8760 -1.1758  0.0532
 7624SOL    HW224486   0.608   2.631   4.821  0.0531  0.7999 -0.1590
 7625SOL     OW24487   7.620   8.748   0.691  0.1489  0.6236 -0.3991
 7625SOL    HW124488   7.532   8.710   0.693  1.2241 -2.1325 -0.3289
 7625SOL    HW224489   7.642   8.754   0.598  1.3029 -2.6376 -0.4717
 7626SOL     OW24490   9.327   2.574   5.008 -0.0394  0.2567 -1.2186
 7626SOL    HW124491   9.314   2.654   4.957 -0.3888  1.4705  0.6851
 7626SOL    HW224492   9.422   2.565   5.014  0.0292  1.3416 -0.2904
 7627SOL     OW24493   7.867   7.572   7.232  0.2782  0.3769 -0.0504
 7627SOL    HW124494   7.831   7.575   7.321 -0.6738  0.6482 -0.4331
 7627SOL    HW224495   7.834   7.652   7.191  1.5230  0.7630 -0.3614
 7628SOL     OW24496   2.529   8.690   4.768  0.0963  0.3928 -0.3504
 7628SOL    HW124497   2.553   8.777   4.799 -0.5831  0.2728  0.5275
 7628SOL    HW224498   2.572   8.630   4.829 -1.9318  0.1636  0.9404
 7629SOL     OW24499   5.033   1.942   0.297  0.2393 -0.7039  0.3776
 7629SOL    HW124500   5.083   1.919   0.376  1.5741  0.0861 -0.2128
 7629SOL    HW224501   5.025   2.037   0.300 -0.8634 -0.7784  0.2209
 7630SOL     OW24502   4.334   3.742   8.409 -0.1300  0.4533  0.2261
 7630SOL    HW124503   4.264   3.764   8.470 -1.3721  0.8691 -1.2791
 7630SOL    HW224504   4.376   3.826   8.390  0.3742  0.2981  0.6276
 7631SOL     OW24505   2.324   7.217   1.464 -0.0863  0.5170 -0.5394
 7631SOL    HW124506   2.253   7.213   1.529 -0.8060 -1.6200 -1.3704
 7631SOL    HW224507   2.403   7.229   1.516 -0.5957 -1.5433  0.8482
 7632SOL     OW24508   5.472   7.983   8.862  0.1637  0.1192 -0.1959
 7632SOL    HW124509   5.480   8.062   8.809 -0.4663 -0.6860 -1.5449
 7632SOL    HW224510   5.548   7.985   8.920  0.4308  1.4473 -0.5510
 7633SOL     OW24511   7.057   7.712   2.118  0.2953  0.1904 -0.0198
 7633SOL    HW124512   7.043   7.654   2.193  1.1359 -0.3628 -0.2792
 7633SOL    HW224513   7.045   7.800   2.153 -0.2137 -0.1041  0.5570
 7634SOL     OW24514   3.117   5.733   9.838 -0.4794 -0.3610  0.2040
 7634SOL    HW124515   3.133   5.778   9.755 -1.5280  1.5193  0.9722
 7634SOL    HW224516   3.099   5.642   9.812 -0.3767  0.0939 -1.5828
 7635SOL     OW24517   1.071   0.038   4.868 -0.3113  0.0430  0.0531
 7635SOL    HW124518   1.082   0.118   4.816 -1.6128  0.5079  0.4433
 7635SOL    HW224519   1.139  -0.021   4.836 -0.0221  0.9151 -1.0112
 7636SOL     OW24520   9.041   8.542   8.238 -0.1974  0.2704 -0.0347
 7636SOL    HW124521   9.012   8.592   8.315 -2.2082 -0.6465 -0.1381
 7636SOL    HW224522   9.026   8.600   8.164  3.5283  1.9129  0.2830
 7637SOL     OW24523   6.999   2.574   3.809 -0.7606  0.2673  0.0266
 7637SOL    HW124524   7.021   2.636   3.879 -2.2316  0.5321  0.2812
 7637SOL    HW224525   6.911   2.600   3.780  0.0628  0.5958 -2.4188
 7638SOL     OW24526   0.355   3.489   5.957 -0.8124 -0.0959 -0.1066
 7638SOL    HW124527   0.374   3.432   6.031  1.9960  0.4965 -0.2778
 7638SOL    HW224528   0.393   3.574   5.982 -1.6828  0.7100 -1.3745
 7639SOL     OW24529   6.968   5.517   6.343  0.2642  0.0974 -0.4798
 7639SOL    HW124530   6.980   5.424   6.325 -0.5386  0.1399 -1.2675
 7639SOL    HW224531   6.887   5.541   6.298  1.1039  1.4655 -1.3597
 7640SOL     OW24532   8.127   4.386   6.076  0.1375  0.2358 -0.8365
 7640SOL    HW124533   8.192   4.319   6.055 -0.4507 -0.3183 -0.9475
 7640SOL    HW224534   8.043   4.345   6.052 -0.2037  1.1292 -1.1952
 7641SOL     OW24535   7.612   3.691   7.544  0.4847 -0.2369  0.0687
 7641SOL    HW124536   7.599   3.624   7.476  0.7784 -1.8061  1.4850
 7641SOL    HW224537   7.659   3.762   7.500  0.7946 -1.2717 -1.3315
 7642SOL     OW24538   3.624   4.652   5.974  0.5521  0.0505 -0.1579
 7642SOL    HW124539   3.702   4.622   6.020  0.8797  0.5346 -0.3889
 7642SOL    HW224540   3.647   4.740   5.942 -1.0575  1.4847  2.2535
 7643SOL     OW24541   2.907   1.520   8.358 -0.1501 -0.4197 -0.2031
 7643SOL    HW124542   2.869   1.586   8.299 -0.0729  0.5824  0.8437
 7643SOL    HW224543   2.868   1.437   8.329  0.8648 -0.1806 -2.5088
 7644SOL     OW24544   2.718   4.401   0.276 -0.6364  0.0926  0.2860
 7644SOL    HW124545   2.814   4.407   0.279 -0.5745  0.0941 -1.1673
 7644SOL    HW224546   2.700   4.315   0.241 -1.1328  0.5898 -0.7177
 7645SOL     OW24547   9.684   4.642   6.740  0.3095  0.4644  0.1349
 7645SOL    HW124548   9.735   4.570   6.778  0.0857 -0.6211 -1.5093
 7645SOL    HW224549   9.749   4.699   6.699  0.3811  0.3644  0.1076
 7646SOL     OW24550   7.253   9.299   1.112  0.1990  0.1050 -0.2286
 7646SOL    HW124551   7.283   9.228   1.055  0.1954  0.6476 -0.9171
 7646SOL    HW224552   7.274   9.269   1.200  1.8407  0.0147 -0.6169
 7647SOL     OW24553   1.666   9.740   0.919  0.0459 -0.4711  0.2615
 7647SOL    HW124554   1.759   9.758   0.904  0.0358  0.2628  1.0106
 7647SOL    HW224555   1.639   9.806   0.982 -0.9268 -0.8471  0.2514
 7648SOL     OW24556   6.838   4.961   5.529 -0.1966 -0.0038  0.0060
 7648SOL    HW124557   6.797   5.046   5.544  1.2086  0.8853 -0.9237
 7648SOL    HW224558   6.825   4.912   5.610 -0.6496  1.2604  0.7101
 7649SOL     OW24559   3.190   3.945   9.311  0.0691  0.4460  0.2261
 7649SOL    HW124560   3.277   3.967   9.342  0.1252  0.7624 -0.1538
 7649SOL    HW224561   3.203   3.915   9.221 -0.0355 -0.8704  0.6192
 7650SOL     OW24562   7.496   6.291   3.263  0.9503  0.2664 -0.3664
 7650SOL    HW124563   7.537   6.316   3.180  1.0439 -0.8744 -0.6797
 7650SOL    HW224564   7.566   6.249   3.313  0.7189  0.3035 -0.0054
 7651SOL     OW24565   1.064   8.371   3.004 -0.8575 -0.3906 -0.5693
 7651SOL    HW124566   1.018   8.375   3.089  0.4193 -0.2553  0.1389
 7651SOL    HW224567   1.002   8.408   2.942 -0.7158  2.3851  0.8174
 7652SOL     OW24568   9.569   6.018   7.084 -0.2413  1.0215 -0.2083
 7652SOL    HW124569   9.483   6.023   7.042 -0.6794  2.6950  0.7714
 7652SOL    HW224570   9.629   6.058   7.021 -0.3194  0.6153 -0.5463
 7653SOL     OW24571   9.731   5.302   0.376 -0.0328 -0.0642  0.0349
 7653SOL    HW124572   9.802   5.300   0.440  0.3321  0.0495 -0.3664
 7653SOL    HW224573   9.711   5.395   0.363 -0.1085 -0.0865 -0.0139
 7654SOL     OW24574   3.145   5.588   8.883  0.1832 -0.5411 -0.2200
 7654SOL    HW124575   3.141   5.620   8.793 -0.4058  2.8548  0.8683
 7654SOL    HW224576   3.079   5.640   8.929  0.6359 -2.0100  2.2492
 7655SOL     OW24577   3.826   7.876   0.100  0.0321  1.0168 -0.0422
 7655SOL    HW124578   3.775   7.814   0.151  0.5359 -0.6425 -1.4704
 7655SOL    HW224579   3.826   7.956   0.153  2.1328 -1.1031  3.5129
 7656SOL     OW24580   6.814   7.114   2.002  0.3325 -0.2493  0.4095
 7656SOL    HW124581   6.871   7.109   2.078  1.7564  2.1874 -0.3858
 7656SOL    HW224582   6.742   7.172   2.029 -0.1652 -0.8825  0.4654
 7657SOL     OW24583   3.967   3.280   3.493  0.5451  0.2689 -0.1869
 7657SOL    HW124584   3.938   3.369   3.471 -0.5114  0.1013  0.4598
 7657SOL    HW224585   3.968   3.279   3.589  3.3124  0.4353 -0.1424
 7658SOL     OW24586   6.053   3.306   6.526 -0.2489 -0.0266 -0.0648
 7658SOL    HW124587   6.049   3.288   6.620 -4.6605 -1.7659 -0.3325
 7658SOL    HW224588   6.067   3.400   6.520  1.8527 -0.0867  2.1958
 7659SOL     OW24589   1.698   4.922   9.487  0.4766 -0.1958  0.2953
 7659SOL    HW124590   1.705   5.015   9.463 -1.0205 -0.6862 -2.4841
 7659SOL    HW224591   1.620   4.918   9.543 -2.0177 -0.1460 -2.8683
 7660SOL     OW24592   8.156   2.369   4.456  0.4293  0.6771 -0.0827
 7660SOL    HW124593   8.201   2.453   4.459  1.0825  0.3365  2.4037
 7660SOL    HW224594   8.225   2.305   4.442  0.5732  0.2897  2.0479
 7661SOL     OW24595   1.130   1.536   9.187  0.3483 -0.1610  0.0241
 7661SOL    HW124596   1.117   1.585   9.268 -0.0529  0.7125 -0.5466
 7661SOL    HW224597   1.196   1.587   9.139 -1.0197  0.5927 -1.1537
 7662SOL     OW24598   7.804   9.096   2.936  0.1077 -0.4470  0.0138
 7662SOL    HW124599   7.788   9.047   2.856 -0.6181  0.9229 -0.7284
 7662SOL    HW224600   7.724   9.083   2.988 -1.6666  2.5975 -1.6673
 7663SOL     OW24601   3.951   7.042   8.973  0.4368 -0.1497 -0.8090
 7663SOL    HW124602   3.879   7.025   9.034  3.0751  0.4429  2.7625
 7663SOL    HW224603   3.998   6.959   8.966  1.0398  0.1848 -0.7963
 7664SOL     OW24604   2.520   4.519   0.086  0.7165 -0.9000  0.3130
 7664SOL    HW124605   2.552   4.459   0.018 -0.0149  0.7700 -1.6031
 7664SOL    HW224606   2.580   4.505   0.160  1.4042 -2.9635 -0.5504
 7665SOL     OW24607   3.912   9.616   9.608 -0.2339 -0.7914  0.6165
 7665SOL    HW124608   3.909   9.700   9.654 -0.2915 -1.1624  1.3015
 7665SOL    HW224609   3.946   9.638   9.521  0.8607 -0.2259  1.1667
 7666SOL     OW24610   2.324   4.131   4.413  0.4495 -0.1235 -0.5823
 7666SOL    HW124611   2.259   4.092   4.354  0.3227  0.2440 -0.6885
 7666SOL    HW224612   2.383   4.059   4.435  0.5579 -0.2387 -1.2413
 7667SOL     OW24613   8.325   6.524   4.436 -0.1939  0.1151 -0.2818
 7667SOL    HW124614   8.277   6.519   4.353  0.0536  1.2876 -0.5091
 7667SOL    HW224615   8.367   6.438   4.444 -0.6291 -0.1888 -1.1129
 7668SOL     OW24616   1.193   7.999   9.220  0.2276  0.5526  0.0714
 7668SOL    HW124617   1.283   7.966   9.217 -0.0629 -0.1928 -2.1352
 7668SOL    HW224618   1.194   8.076   9.164 -0.9877 -0.9445 -2.1757
 7669SOL     OW24619   5.563   7.709   0.764  0.5645 -0.4810 -0.1892
 7669SOL    HW124620   5.621   7.677   0.694 -0.3264 -0.2401 -1.0582
 7669SOL    HW224621   5.475   7.701   0.727 -0.0535 -1.7167  1.4488
 7670SOL     OW24622   8.565   4.151   4.215 -0.8095 -0.2829  0.1303
 7670SOL    HW124623   8.567   4.214   4.286 -1.0495  0.5189 -0.5520
 7670SOL    HW224624   8.645   4.168   4.165 -0.8826 -0.5051 -0.0665
 7671SOL     OW24625   2.779   4.125   7.885  0.1430  0.0938 -0.0167
 7671SOL    HW124626   2.872   4.146   7.874  0.4472 -0.3839  1.4329
 7671SOL    HW224627   2.733   4.197   7.841  1.1947  0.7771 -0.0409
 7672SOL     OW24628   1.700   5.033   3.195 -0.1159  0.2292 -0.4373
 7672SOL    HW124629   1.672   5.026   3.286 -0.9559 -1.3472 -0.7899
 7672SOL    HW224630   1.632   5.086   3.152  0.0780  0.6425 -0.2362
 7673SOL     OW24631   0.652   5.079   1.469 -0.9107 -0.7696  0.6579
 7673SOL    HW124632   0.617   5.051   1.384 -0.0275 -0.6516  0.2420
 7673SOL    HW224633   0.733   5.126   1.447  0.1405 -2.0367  1.6404
 7674SOL     OW24634   1.694   1.889   7.352 -0.7539  0.3485  0.2978
 7674SOL    HW124635   1.784   1.859   7.365 -1.9132 -3.0105  1.6390
 7674SOL    HW224636   1.698   1.984   7.365  2.4777  0.2664  0.7126
 7675SOL     OW24637   2.936   5.098   6.463  0.8629 -0.1596 -0.8090
 7675SOL    HW124638   2.910   5.034   6.529  2.1419  0.7406  0.6652
 7675SOL    HW224639   2.970   5.045   6.390  2.3117 -1.2211  0.5441
 7676SOL     OW24640   4.540   9.028   7.848  0.2121  0.0034  0.2434
 7676SOL    HW124641   4.633   9.046   7.829  0.4318  0.1783  1.3853
 7676SOL    HW224642   4.493   9.066   7.773  1.0873 -0.5993 -0.6407
 7677SOL     OW24643   1.891   1.205   9.241  0.2362 -0.4218  0.3736
 7677SOL    HW124644   1.963   1.143   9.234  1.0746  0.5429  0.2286
 7677SOL    HW224645   1.867   1.204   9.334  2.4710  1.4338  1.0609
 7678SOL     OW24646   2.005   3.131   6.820  0.1541 -0.5428  0.2371
 7678SOL    HW124647   1.982   3.070   6.891  1.6451 -0.1627  1.0785
 7678SOL    HW224648   2.098   3.117   6.805  0.2233  0.5759 -0.4938
 7679SOL     OW24649   1.734   9.594   8.210  0.1118 -0.5837  0.1640
 7679SOL    HW124650   1.779   9.611   8.293 -0.6180  1.4408  0.2091
 7679SOL    HW224651   1.792   9.535   8.163  2.2432  0.9356  0.7300
 7680SOL     OW24652   8.928   6.483   2.642  0.6736  0.5333  0.1730
 7680SOL    HW124653   8.966   6.570   2.657  2.4400 -0.0656 -0.5982
 7680SOL    HW224654   8.980   6.445   2.572 -2.0780  0.0291 -1.7453
 7681SOL     OW24655   1.576   1.718   2.114  0.2066  0.0734 -0.0625
 7681SOL    HW124656   1.644   1.682   2.058  1.7381  2.1705  0.3186
 7681SOL    HW224657   1.589   1.675   2.198  0.4212 -0.2653 -0.2674
 7682SOL     OW24658   1.293   9.776   4.330 -0.0041 -0.1759 -0.1362
 7682SOL    HW124659   1.208   9.732   4.334  0.1839 -0.6491 -1.1609
 7682SOL    HW224660   1.279   9.849   4.270 -0.0238  0.5609  0.7288
 7683SOL     OW24661   4.899   8.684   1.514 -0.0084  0.1512  0.0718
 7683SOL    HW124662   4.900   8.777   1.492  1.6555  0.0751 -0.2694
 7683SOL    HW224663   4.970   8.673   1.576  0.0837 -0.9637 -0.2085
 7684SOL     OW24664   5.096   9.030   5.404 -0.1436 -0.6216 -0.2190
 7684SOL    HW124665   5.174   9.084   5.417  0.3350 -0.7529 -2.1707
 7684SOL    HW224666   5.049   9.072   5.332 -1.8343 -0.6283  0.8320
 7685SOL     OW24667   0.301   8.673   4.233 -0.4141  0.3630 -0.2573
 7685SOL    HW124668   0.275   8.632   4.316 -1.7970  1.8411  0.1010
 7685SOL    HW224669   0.295   8.602   4.169 -1.0466 -0.4164  0.6197
 7686SOL     OW24670   9.767   0.603   4.809  0.0189 -0.1786 -0.0527
 7686SOL    HW124671   9.683   0.635   4.776  0.0122 -1.3023 -1.2462
 7686SOL    HW224672   9.831   0.634   4.745  0.1701 -1.3638 -0.5117
 7687SOL     OW24673   9.616   0.965   2.401  0.0501  0.4857  0.0983
 7687SOL    HW124674   9.580   0.982   2.489  0.2903 -0.5443  0.4114
 7687SOL    HW224675   9.597   0.872   2.385  0.4951  0.5268 -0.7174
 7688SOL     OW24676   4.008   8.373   1.172  0.0680 -0.1680  0.5982
 7688SOL    HW124677   3.972   8.418   1.248 -1.6102 -1.9891  0.9544
 7688SOL    HW224678   4.011   8.440   1.103  0.3475  1.1583  1.8605
 7689SOL     OW24679   4.986   2.672   2.221 -0.0262 -0.4291  0.3874
 7689SOL    HW124680   4.994   2.705   2.310 -0.5760  0.7733  0.0096
 7689SOL    HW224681   5.002   2.748   2.165 -0.9031 -0.8893 -0.5292
 7690SOL     OW24682   1.036   8.533   5.205 -0.0381  0.5876  0.5738
 7690SOL    HW124683   0.989   8.592   5.146 -0.2601  0.0853  0.2375
 7690SOL    HW224684   0.994   8.448   5.192  0.8973  0.1442  0.3270
 7691SOL     OW24685   1.253   3.180   2.808  0.1484  0.0059 -0.2624
 7691SOL    HW124686   1.249   3.178   2.904  2.1093 -1.8698 -0.1489
 7691SOL    HW224687   1.316   3.249   2.788  2.0271 -1.5658 -0.0116
 7692SOL     OW24688   1.411   4.971   0.034 -0.2990 -0.2112  0.2472
 7692SOL    HW124689   1.330   5.015   0.057 -1.1904 -1.4720 -0.3879
 7692SOL    HW224690   1.448   4.942   0.117 -0.4887  0.3789  0.5374
 7693SOL     OW24691   9.429   5.276   4.064  0.0564 -0.0757  0.3581
 7693SOL    HW124692   9.336   5.251   4.062  0.1732 -0.5115 -1.2483
 7693SOL    HW224693   9.429   5.363   4.103 -1.1521  0.3224 -0.4523
 7694SOL     OW24694   1.886   7.707   1.608  1.1659 -0.7816  0.2724
 7694SOL    HW124695   1.923   7.720   1.696  0.2744 -2.6193  0.9758
 7694SOL    HW224696   1.849   7.792   1.585  0.5638 -0.4934  2.1171
 7695SOL     OW24697   2.189   0.564   1.758 -0.4056 -0.5283  0.0655
 7695SOL    HW124698   2.226   0.492   1.706 -1.2097  0.0061 -1.2998
 7695SOL    HW224699   2.168   0.524   1.843 -0.5486 -1.8314 -0.5613
 7696SOL     OW24700   8.716   5.203   6.117  0.0651 -0.3581 -0.3504
 7696SOL    HW124701   8.691   5.215   6.209  1.5188 -0.5745  0.0904
 7696SOL    HW224702   8.656   5.135   6.085 -0.5363 -0.1965  0.3976
 7697SOL     OW24703   5.024   0.513   4.764 -0.5497 -0.0239  0.1697
 7697SOL    HW124704   4.993   0.536   4.677  0.6966  0.2568 -0.2143
 7697SOL    HW224705   5.022   0.596   4.812  2.3059  0.6581 -0.7147
 7698SOL     OW24706   5.707   4.439   4.888  0.8073 -0.4988  0.4184
 7698SOL    HW124707   5.633   4.436   4.827  1.1073 -1.8620  0.1035
 7698SOL    HW224708   5.668   4.462   4.972  0.4361  1.8090 -0.3153
 7699SOL     OW24709   5.795   7.419   7.809  0.6531 -0.1678 -0.0534
 7699SOL    HW124710   5.766   7.470   7.733  0.7341  0.1338  0.1179
 7699SOL    HW224711   5.890   7.434   7.812  0.7195 -0.5474 -0.1637
 7700SOL     OW24712   2.016   5.669   6.455 -0.2061  0.1459  0.2109
 7700SOL    HW124713   2.021   5.666   6.550  1.0956  0.4588  0.1660
 7700SOL    HW224714   2.100   5.705   6.427  0.2595 -1.8311 -1.1698
 7701SOL     OW24715   4.101   9.837   6.743  0.4674  0.8045 -0.1766
 7701SOL    HW124716   4.123   9.931   6.745  0.7853  0.7332  1.9765
 7701SOL    HW224717   4.181   9.795   6.711  1.9311  0.9798  2.8746
 7702SOL     OW24718   1.587   4.396   5.235  0.4794 -0.4552  0.0357
 7702SOL    HW124719   1.679   4.392   5.209  0.8805  0.6218  1.1343
 7702SOL    HW224720   1.568   4.310   5.273  1.2734 -0.4376  0.4946
 7703SOL     OW24721   3.810   3.615   1.435  0.6233  0.1161  0.7539
 7703SOL    HW124722   3.829   3.535   1.386 -1.0686  0.7372 -1.0945
 7703SOL    HW224723   3.894   3.643   1.471  2.0548 -0.3192 -1.9852
 7704SOL     OW24724   1.345   5.706   4.402 -0.7765  0.2048  0.2906
 7704SOL    HW124725   1.316   5.781   4.454 -0.2961 -0.2785  1.2920
 7704SOL    HW224726   1.395   5.652   4.464 -0.6005 -0.6361 -0.5604
 7705SOL     OW24727   2.425   4.393   5.021 -0.5113 -0.3567  0.1328
 7705SOL    HW124728   2.427   4.393   4.926 -0.6375 -0.3067  0.1298
 7705SOL    HW224729   2.424   4.485   5.046  3.6575 -0.1985  0.2984
 7706SOL     OW24730   5.225   0.956   6.601  0.0728 -0.9794  0.0204
 7706SOL    HW124731   5.185   1.014   6.537 -0.5898 -0.3087  1.0166
 7706SOL    HW224732   5.272   0.890   6.548 -2.2665 -1.7616 -1.2022
 7707SOL     OW24733   2.466   2.399   9.551 -0.6991  0.3245  0.2998
 7707SOL    HW124734   2.547   2.430   9.592 -0.0606 -0.3973 -0.3893
 7707SOL    HW224735   2.486   2.309   9.524 -1.9303 -0.0677  0.6472
 7708SOL     OW24736   5.816   6.141   8.134 -0.1801 -0.0838  0.1570
 7708SOL    HW124737   5.772   6.056   8.126 -0.7288  0.0956  1.1426
 7708SOL    HW224738   5.891   6.134   8.075 -0.5974 -1.0004 -0.2949
 7709SOL     OW24739   7.096   8.042   8.282 -0.0924  0.1503 -0.5261
 7709SOL    HW124740   7.188   8.049   8.258  0.2628 -1.1796  0.3026
 7709SOL    HW224741   7.091   8.083   8.368 -0.3167  0.3976 -0.6567
 7710SOL     OW24742   5.104   8.109   8.790 -0.1632  0.3284 -0.1717
 7710SOL    HW124743   5.047   8.131   8.716 -0.6072 -0.3613 -0.0482
 7710SOL    HW224744   5.143   8.192   8.816 -0.8940  0.7648 -0.4441
 7711SOL     OW24745   2.098   3.760   4.189  0.2067  0.1462 -0.2634
 7711SOL    HW124746   2.011   3.759   4.229  0.3462 -0.1180  0.0413
 7711SOL    HW224747   2.156   3.791   4.259  0.2444  1.1527 -0.7134
 7712SOL     OW24748   4.369   2.521   5.239 -0.2033 -0.1966 -0.1278
 7712SOL    HW124749   4.277   2.534   5.215  0.1112  0.9969 -0.7638
 7712SOL    HW224750   4.411   2.495   5.157  0.0691 -0.5311  0.1157
 7713SOL     OW24751   4.513   8.775   7.717 -0.2747 -0.0186 -0.0993
 7713SOL    HW124752   4.574   8.704   7.696 -1.2011 -0.5502 -1.1289
 7713SOL    HW224753   4.568   8.845   7.751  0.7553 -0.9468  0.2135
 7714SOL     OW24754   1.265   5.551   7.864 -0.2987  0.4044  0.7038
 7714SOL    HW124755   1.335   5.558   7.799  1.2581 -1.3264  2.0904
 7714SOL    HW224756   1.288   5.615   7.931 -0.1691  0.0161  1.0339
 7715SOL     OW24757   6.031   8.424   4.892  0.1761  0.1940  0.0737
 7715SOL    HW124758   6.074   8.348   4.854 -0.7178 -0.4247  0.2824
 7715SOL    HW224759   6.103   8.481   4.920  0.8949 -1.2594  1.3053
 7716SOL     OW24760   8.516   8.935   3.862 -0.0564 -0.2933 -0.2453
 7716SOL    HW124761   8.453   8.986   3.912  1.1746  0.4569  0.5942
 7716SOL    HW224762   8.515   8.974   3.775  1.4678  1.8052  0.5947
 7717SOL     OW24763   9.492   1.446   5.757  0.5463 -0.1658 -0.1884
 7717SOL    HW124764   9.423   1.439   5.690  0.7008  1.6324 -0.6026
 7717SOL    HW224765   9.473   1.529   5.801  1.7973 -0.2021  0.4495
 7718SOL     OW24766   9.186   7.157   3.095 -0.0284  0.2296  0.3878
 7718SOL    HW124767   9.222   7.072   3.068  0.5119 -0.2290  2.3733
 7718SOL    HW224768   9.107   7.134   3.144 -0.2095  0.9148  0.4228
 7719SOL     OW24769   5.812   1.931   7.327  0.3614 -0.0308  0.0724
 7719SOL    HW124770   5.728   1.888   7.344 -0.0447 -0.6909 -2.8694
 7719SOL    HW224771   5.789   2.019   7.297  0.6104 -0.3974 -1.2902
 7720SOL     OW24772   9.839   3.945   6.659 -0.0541 -0.2051 -0.4851
 7720SOL    HW124773   9.766   3.998   6.692 -1.2640 -1.1823 -1.5348
 7720SOL    HW224774   9.860   3.885   6.730 -0.5710 -0.2210 -0.3475
 7721SOL     OW24775   6.212   2.722   3.445 -0.1460  0.6091  0.2704
 7721SOL    HW124776   6.136   2.688   3.397  0.1927 -1.2618  1.0104
 7721SOL    HW224777   6.235   2.803   3.398 -2.8063  1.4613  0.2416
 7722SOL     OW24778   1.652   3.491   6.705 -0.0125 -0.0551  0.1378
 7722SOL    HW124779   1.651   3.405   6.746 -1.3517 -0.3638 -0.4727
 7722SOL    HW224780   1.714   3.542   6.757 -1.7396 -0.3453  2.6940
 7723SOL     OW24781   5.255   6.306   4.817  0.5804 -0.3134  0.5008
 7723SOL    HW124782   5.241   6.256   4.737 -1.2858 -0.3633  0.8110
 7723SOL    HW224783   5.322   6.257   4.865  1.0387 -0.7840 -0.6017
 7724SOL     OW24784   8.086   2.428   4.017 -0.0911 -0.2405  0.0659
 7724SOL    HW124785   8.171   2.470   4.027 -0.4034  0.3670  0.2387
 7724SOL    HW224786   8.074   2.422   3.922 -0.6630  1.3946  0.0005
 7725SOL     OW24787   1.319   6.477   1.672 -0.6232  1.0274  0.1631
 7725SOL    HW124788   1.309   6.389   1.635  0.5917  0.7552  0.4374
 7725SOL    HW224789   1.238   6.522   1.648 -0.9576  0.0623 -0.6159
 7726SOL     OW24790   4.694   3.798   5.962 -0.6568 -0.3479  0.3537
 7726SOL    HW124791   4.723   3.889   5.956 -3.1563  0.5002 -0.3748
 7726SOL    HW224792   4.658   3.791   6.050 -0.3869 -0.6666  0.4384
 7727SOL     OW24793   6.901   8.140   4.701 -0.3303  0.1230 -1.2014
 7727SOL    HW124794   6.893   8.091   4.619 -1.9258 -1.0840 -0.3864
 7727SOL    HW224795   6.824   8.114   4.752 -0.1275  1.9266  0.1280
 7728SOL     OW24796   6.488   2.083   9.188 -0.2501  0.3205  0.0620
 7728SOL    HW124797   6.469   1.993   9.161  1.6140 -0.2957  0.6700
 7728SOL    HW224798   6.521   2.125   9.108 -0.5843  0.3044 -0.0868
 7729SOL     OW24799   3.830   7.726   2.236 -0.2067  0.5967 -0.0665
 7729SOL    HW124800   3.848   7.808   2.190  2.6912  0.7224  1.0880
 7729SOL    HW224801   3.845   7.747   2.328 -1.0070 -0.8668  0.4268
 7730SOL     OW24802   4.218   2.836   6.558 -0.3815 -0.1679 -0.0093
 7730SOL    HW124803   4.252   2.854   6.471  2.7592 -0.6043  0.9743
 7730SOL    HW224804   4.238   2.915   6.609  0.5905 -0.9824  0.9501
 7731SOL     OW24805   8.972   1.668   3.725  0.2260  0.9334  0.3165
 7731SOL    HW124806   8.948   1.757   3.699 -0.2195  0.8079  0.2765
 7731SOL    HW224807   9.018   1.678   3.808  2.7120  1.4401 -1.0363
 7732SOL     OW24808   8.220   8.204   0.084 -0.0578 -0.2970  0.3877
 7732SOL    HW124809   8.138   8.219   0.037  1.0995  2.6854 -0.8954
 7732SOL    HW224810   8.204   8.241   0.171 -0.2413 -0.2707  0.3445
 7733SOL     OW24811   7.017   4.933   3.621 -0.3586 -0.0931  0.0523
 7733SOL    HW124812   7.026   5.025   3.594 -0.7190  0.2010  0.8967
 7733SOL    HW224813   7.053   4.931   3.710  1.7608 -1.2460 -0.7598
 7734SOL     OW24814   0.526   0.622   7.097  0.1121 -0.4022  0.1193
 7734SOL    HW124815   0.497   0.625   7.005  3.1630  1.2631 -0.9328
 7734SOL    HW224816   0.498   0.705   7.134  0.5267 -0.2634  0.1234
 7735SOL     OW24817   9.091   2.028   6.069 -1.0695 -0.0081  0.2089
 7735SOL    HW124818   9.009   1.977   6.068 -1.2920  0.3101  1.1114
 7735SOL    HW224819   9.065   2.116   6.041 -0.9531 -0.0141  0.0811
 7736SOL     OW24820   8.527   6.211   5.669  0.6264  0.1143 -0.4697
 7736SOL    HW124821   8.446   6.167   5.695  0.2902 -0.4855 -2.3546
 7736SOL    HW224822   8.596   6.164   5.716 -0.0670  0.3054  0.7706
 7737SOL     OW24823   6.162   4.823   7.092  0.5898 -0.0542 -0.2865
 7737SOL    HW124824   6.248   4.818   7.049  0.0612 -0.3360 -1.3395
 7737SOL    HW224825   6.171   4.765   7.168  0.6207 -2.0112 -1.7042
 7738SOL     OW24826   2.135   5.664   9.106  0.2765  0.1252 -0.4566
 7738SOL    HW124827   2.062   5.668   9.167  1.2778 -1.1691  0.8778
 7738SOL    HW224828   2.212   5.647   9.160  1.3422 -0.1311 -1.9774
 7739SOL     OW24829   2.084   5.081   4.094 -0.1532 -0.2543  0.2035
 7739SOL    HW124830   2.111   4.990   4.085 -0.5816 -0.3332 -0.3817
 7739SOL    HW224831   2.129   5.127   4.024  0.3886  0.0652  0.7550
 7740SOL     OW24832   8.115   7.052   6.090 -0.1499  0.6310  0.4549
 7740SOL    HW124833   8.105   7.064   6.184 -0.5602 -0.6888  0.5928
 7740SOL    HW224834   8.198   7.006   6.080  1.1885  2.9990 -0.0374
 7741SOL     OW24835   2.746   4.956   9.670 -0.2532 -0.4802  0.0760
 7741SOL    HW124836   2.665   4.945   9.720 -1.9093  1.3056 -1.9488
 7741SOL    HW224837   2.748   4.882   9.610  1.0608 -1.9303  1.8239
 7742SOL     OW24838   3.773   5.975   6.404  0.3397 -0.3036  0.0354
 7742SOL    HW124839   3.832   5.914   6.361 -0.6124 -1.8071  0.7757
 7742SOL    HW224840   3.691   5.969   6.354  0.6137  1.3813 -0.6820
 7743SOL     OW24841   0.638   8.423   5.043 -0.2970  0.0329 -0.0821
 7743SOL    HW124842   0.569   8.429   5.109  0.3108  0.5904  0.5230
 7743SOL    HW224843   0.705   8.368   5.083 -0.0251  0.1836 -0.3232
 7744SOL     OW24844   1.234   6.231   1.460 -0.3369  0.2123 -0.0077
 7744SOL    HW124845   1.320   6.248   1.421  1.0134 -2.9224  1.3067
 7744SOL    HW224846   1.177   6.215   1.384  0.3979  1.4517 -0.8688
 7745SOL     OW24847   8.173   3.618   3.483  0.3728 -1.0708 -0.3880
 7745SOL    HW124848   8.160   3.548   3.419  0.4697 -1.6780  0.2431
 7745SOL    HW224849   8.253   3.593   3.530 -0.0397 -0.9593  0.3839
 7746SOL     OW24850   7.221   5.116   3.775  0.4891 -0.1708 -0.3029
 7746SOL    HW124851   7.243   5.178   3.705 -0.2513 -0.1515 -0.5355
 7746SOL    HW224852   7.289   5.049   3.769  0.3343 -0.2723 -1.1826
 7747SOL     OW24853   6.028   6.979   8.335 -0.1730 -0.0837 -0.2083
 7747SOL    HW124854   5.955   6.919   8.349 -1.2790  0.7815 -2.0064
 7747SOL    HW224855   6.102   6.936   8.379 -1.8327 -0.6825  2.1846
 7748SOL     OW24856   2.168   5.920   8.114 -0.2787  0.5229  0.4081
 7748SOL    HW124857   2.100   5.853   8.105  0.1021  0.2350 -0.4626
 7748SOL    HW224858   2.180   5.931   8.208  0.4700 -1.4993  0.5951
 7749SOL     OW24859   1.219   8.728   3.368  0.3448  0.0229 -0.4159
 7749SOL    HW124860   1.291   8.689   3.418  2.1441  2.2411 -1.0771
 7749SOL    HW224861   1.160   8.656   3.350  2.8521 -2.1283 -0.5817
 7750SOL     OW24862   8.553   4.698   0.589  0.1653  0.0863 -0.1136
 7750SOL    HW124863   8.583   4.678   0.501  0.5288  0.8074 -0.1574
 7750SOL    HW224864   8.520   4.788   0.584 -0.7594 -0.2171  0.2468
 7751SOL     OW24865   7.826   6.913   2.728  0.0911  0.3625  1.0078
 7751SOL    HW124866   7.830   6.987   2.667 -0.0873  0.1166  0.6930
 7751SOL    HW224867   7.917   6.896   2.752  0.2978 -0.3595 -0.2035
 7752SOL     OW24868   0.719   1.029   0.096 -0.2983  0.3893  0.3570
 7752SOL    HW124869   0.724   0.951   0.040 -1.8141  1.4283 -1.3447
 7752SOL    HW224870   0.628   1.057   0.091 -0.1612  1.3366  2.2875
 7753SOL     OW24871   2.691   5.867   2.271 -0.1747 -0.8878 -0.6931
 7753SOL    HW124872   2.739   5.922   2.209 -1.1315 -0.3469 -0.9638
 7753SOL    HW224873   2.757   5.845   2.338  0.2948  0.3984 -0.6991
 7754SOL     OW24874   1.915   6.817   0.483 -0.0703 -0.0385 -0.7545
 7754SOL    HW124875   1.887   6.845   0.570  0.3987  0.3325 -0.7181
 7754SOL    HW224876   1.834   6.795   0.437 -0.2950 -0.6254 -0.0924
 7755SOL     OW24877   7.415   1.265   0.004  0.5370 -0.5773 -0.1941
 7755SOL    HW124878   7.355   1.297  -0.064  0.7815 -1.2208 -0.7149
 7755SOL    HW224879   7.366   1.197   0.049 -0.5304  1.3902  1.8500
 7756SOL     OW24880   9.694   2.186   7.387  0.0656 -0.0717 -0.6677
 7756SOL    HW124881   9.768   2.128   7.365  0.1122 -0.5967  0.7499
 7756SOL    HW224882   9.728   2.241   7.458 -1.0672 -0.7551  0.4576
 7757SOL     OW24883   1.342   2.347   3.327  0.0010  0.5210 -0.4417
 7757SOL    HW124884   1.274   2.413   3.337  0.1876  0.6777 -0.2050
 7757SOL    HW224885   1.399   2.359   3.403 -0.6450 -0.7028  0.2837
 7758SOL     OW24886   0.061   4.776   8.551  0.1812  0.2029  0.1986
 7758SOL    HW124887  -0.003   4.816   8.491  1.1789  0.4037 -0.7564
 7758SOL    HW224888   0.007   4.742   8.623 -1.1928 -1.0081 -1.3094
 7759SOL     OW24889   2.754   1.036   3.791  0.1189 -0.1749  0.5272
 7759SOL    HW124890   2.686   0.973   3.814 -0.7781  0.1627 -0.9980
 7759SOL    HW224891   2.801   0.995   3.718  0.5130  0.2700  0.5263
 7760SOL     OW24892   1.745   6.812   3.994 -0.4689 -0.2421 -0.0450
 7760SOL    HW124893   1.724   6.886   4.052  0.8289  0.6385 -0.6430
 7760SOL    HW224894   1.694   6.829   3.915  0.1930  0.2937 -0.3666
 7761SOL     OW24895   3.741   7.281   8.587  0.0891  0.0730  0.1169
 7761SOL    HW124896   3.811   7.249   8.644  0.3909 -0.0038 -0.2892
 7761SOL    HW224897   3.695   7.202   8.559  0.7210 -0.0087 -0.7389
 7762SOL     OW24898   6.427   4.295   9.339  0.4483  0.4128  0.3577
 7762SOL    HW124899   6.351   4.296   9.281 -0.0486 -2.0749  0.8547
 7762SOL    HW224900   6.398   4.341   9.418  0.0846  1.0398 -0.1354
 7763SOL     OW24901   3.071   7.225   4.298 -0.6101 -0.1260 -0.1445
 7763SOL    HW124902   3.005   7.295   4.299  0.0811  0.5701 -1.0233
 7763SOL    HW224903   3.025   7.149   4.264 -0.3782  1.0430 -3.4275
 7764SOL     OW24904   7.211   0.803   4.844  0.2184 -0.5305  0.0865
 7764SOL    HW124905   7.244   0.736   4.784  1.3196 -0.0805  0.1667
 7764SOL    HW224906   7.126   0.829   4.807 -0.2820 -2.0297  0.1229
 7765SOL     OW24907   4.225   5.807   2.352  0.2525 -0.3973  0.2641
 7765SOL    HW124908   4.288   5.832   2.419  1.2233 -0.9103 -0.4220
 7765SOL    HW224909   4.269   5.830   2.269 -0.2109 -1.3187 -0.2449
 7766SOL     OW24910   6.299   7.895   3.507  0.3146 -0.4020 -0.6459
 7766SOL    HW124911   6.280   7.827   3.443 -0.8645 -1.0725  0.3875
 7766SOL    HW224912   6.315   7.848   3.589 -1.7211  0.5580  0.3719
 7767SOL     OW24913   6.190   3.248   2.796  0.3818  0.1153 -0.1718
 7767SOL    HW124914   6.143   3.311   2.851 -0.0883  0.9632 -1.4883
 7767SOL    HW224915   6.128   3.177   2.783 -0.6076  1.2312 -1.9061
 7768SOL     OW24916   9.321   9.380   8.935 -0.4091 -0.4748  0.0501
 7768SOL    HW124917   9.285   9.297   8.903  1.4901 -1.6961  0.8648
 7768SOL    HW224918   9.392   9.400   8.874 -0.6601  0.4183  0.0377
 7769SOL     OW24919   2.192   0.464   6.645 -0.2071  0.1880 -0.6607
 7769SOL    HW124920   2.155   0.418   6.569  1.4430  0.4152 -1.6571
 7769SOL    HW224921   2.285   0.470   6.625  0.3289 -0.0349  1.5613
 7770SOL     OW24922   2.005   7.605   6.078 -0.4134  0.2436 -0.2965
 7770SOL    HW124923   2.045   7.651   6.004 -1.4440  1.2226 -0.2663
 7770SOL    HW224924   1.916   7.587   6.049 -0.3118 -0.9117  0.0663
 7771SOL     OW24925   2.672   3.677   1.246 -0.5942 -0.2162  0.1515
 7771SOL    HW124926   2.716   3.736   1.308  0.3708  0.9263 -1.5404
 7771SOL    HW224927   2.702   3.590   1.271  0.4634  0.2991  0.7553
 7772SOL     OW24928   6.119   2.904   5.779 -0.3392  0.2027  0.2884
 7772SOL    HW124929   6.174   2.830   5.754 -1.6391 -0.0544 -2.1603
 7772SOL    HW224930   6.046   2.865   5.828 -0.2723  0.0512  0.2673
 7773SOL     OW24931   1.941   8.327   2.669 -0.4971 -0.1949 -0.0658
 7773SOL    HW124932   2.020   8.375   2.692  0.9757 -2.8567  0.8535
 7773SOL    HW224933   1.879   8.349   2.739  0.1445  0.3648  0.3387
 7774SOL     OW24934   6.134   9.670   9.443 -0.1990 -0.1605 -0.3086
 7774SOL    HW124935   6.143   9.760   9.412  0.4671 -0.7426 -1.9155
 7774SOL    HW224936   6.111   9.679   9.536  0.2794  1.6445 -0.3224
 7775SOL     OW24937   4.172   6.575   3.834  0.1866 -0.0866  0.1829
 7775SOL    HW124938   4.138   6.630   3.905  0.2289 -3.1919  2.7983
 7775SOL    HW224939   4.100   6.516   3.813  1.2250 -1.3103 -0.0625
 7776SOL     OW24940   1.104   5.855   5.697 -0.4722 -0.0573  0.5112
 7776SOL    HW124941   1.114   5.949   5.682  0.4144 -0.4582 -1.6999
 7776SOL    HW224942   1.192   5.826   5.721 -0.7816 -0.3267  1.3583
 7777SOL     OW24943   5.505   5.665   3.936  0.3575 -0.5001  0.1320
 7777SOL    HW124944   5.490   5.689   4.027  0.6100 -0.2645  0.1164
 7777SOL    HW224945   5.598   5.684   3.922  0.2807 -0.3662 -0.2208
 7778SOL     OW24946   8.561   3.887   4.313 -0.4030 -0.2727  0.0204
 7778SOL    HW124947   8.529   3.902   4.402  0.4565  1.2760  0.0892
 7778SOL    HW224948   8.550   3.971   4.269  2.5271  0.0335 -0.2733
 7779SOL     OW24949   7.149   6.500   0.643  0.1891  0.3940  0.2420
 7779SOL    HW124950   7.095   6.579   0.647  0.1688  0.4159 -0.4225
 7779SOL    HW224951   7.180   6.496   0.552  0.3783 -0.2352  0.3288
 7780SOL     OW24952   3.573   8.917   2.745 -0.0675 -0.2615  0.1529
 7780SOL    HW124953   3.636   8.852   2.775  1.6862  1.1125 -0.3669
 7780SOL    HW224954   3.612   9.001   2.769 -1.6297  0.6434 -0.3405
 7781SOL     OW24955   4.193   5.608   0.363  0.2456  0.8507  0.1108
 7781SOL    HW124956   4.180   5.605   0.458  0.3193  0.2130  0.1022
 7781SOL    HW224957   4.115   5.652   0.330 -1.3118 -1.6353  0.1977
 7782SOL     OW24958   7.423   8.503   8.178 -0.2621  0.1078 -0.0451
 7782SOL    HW124959   7.332   8.481   8.157  0.2762 -0.8772 -1.4987
 7782SOL    HW224960   7.449   8.439   8.244 -0.2357 -0.4535 -0.5926
 7783SOL     OW24961   8.067   3.877   9.337 -0.0621  0.0143  0.3443
 7783SOL    HW124962   8.091   3.947   9.397 -0.7805 -1.7550  2.8413
 7783SOL    HW224963   8.132   3.808   9.353 -1.4596 -1.2926  0.6282
 7784SOL     OW24964   4.308   9.480   5.889  0.1142 -0.3231 -0.2676
 7784SOL    HW124965   4.273   9.559   5.846  0.4239  0.1479  0.3290
 7784SOL    HW224966   4.326   9.508   5.979  1.1756 -0.7950 -0.3194
 7785SOL     OW24967   0.576   7.963   6.459 -0.5169  0.4259  0.1844
 7785SOL    HW124968   0.561   7.878   6.417  1.1671 -2.9075  5.4156
 7785SOL    HW224969   0.669   7.981   6.444 -0.9192  1.6804 -1.1287
 7786SOL     OW24970   4.477   8.497   1.658 -0.1808 -0.3517  0.2086
 7786SOL    HW124971   4.556   8.525   1.705 -0.4203  0.1740  0.2919
 7786SOL    HW224972   4.428   8.445   1.722  0.3421 -1.1255  0.0020
 7787SOL     OW24973   7.029   1.491   1.144 -0.9920  0.0865 -0.2878
 7787SOL    HW124974   7.109   1.530   1.107 -0.5196 -0.8527 -0.2709
 7787SOL    HW224975   6.977   1.466   1.067 -0.9284  0.0010 -0.3028
 7788SOL     OW24976   2.332   5.471   1.105 -0.2821 -0.3713  0.2498
 7788SOL    HW124977   2.356   5.517   1.024 -0.5556 -1.3458 -0.4035
 7788SOL    HW224978   2.373   5.385   1.096  0.4507 -0.1797  1.5743
 7789SOL     OW24979   5.897   6.448   5.491  0.4976 -0.3538 -0.3150
 7789SOL    HW124980   5.846   6.367   5.491 -1.4169  0.7450 -1.8716
 7789SOL    HW224981   5.975   6.427   5.440  0.7919 -1.6096  0.6056
 7790SOL     OW24982   8.772   5.760   4.376 -0.3477 -0.3755  0.3025
 7790SOL    HW124983   8.680   5.784   4.367  0.3421  2.5477  0.1002
 7790SOL    HW224984   8.792   5.778   4.468 -0.2836 -2.4469  0.7422
 7791SOL     OW24985   6.263   4.962   3.259 -0.1213  0.3689  0.1849
 7791SOL    HW124986   6.238   5.010   3.180  1.4390 -0.8425 -1.1280
 7791SOL    HW224987   6.214   4.879   3.253  1.1196 -0.3552 -0.3425
 7792SOL     OW24988   2.762   6.727   6.131  0.5203  0.4122  0.1125
 7792SOL    HW124989   2.700   6.760   6.065  0.5393 -0.8053 -0.5457
 7792SOL    HW224990   2.749   6.633   6.130  0.0023  0.4066  2.4056
 7793SOL     OW24991   9.338   9.001   4.400  0.0877 -0.0538 -0.2885
 7793SOL    HW124992   9.281   9.077   4.398 -1.6388 -1.1765  1.8542
 7793SOL    HW224993   9.285   8.932   4.439  2.6148 -1.4428  0.9512
 7794SOL     OW24994   0.778   9.805   8.487 -0.5142  0.0731  0.2161
 7794SOL    HW124995   0.723   9.746   8.539  0.4262  0.2187  1.4272
 7794SOL    HW224996   0.824   9.859   8.552  0.0418  0.8697 -0.8045
 7795SOL     OW24997   0.582   8.019   8.680 -0.1774 -0.4003  0.5667
 7795SOL    HW124998   0.577   8.089   8.616 -0.5461  0.4971  1.5552
 7795SOL    HW224999   0.495   8.014   8.718  0.1529 -0.5986  1.3255
 7796SOL     OW25000   0.865   7.269   9.241  0.6136 -0.1815 -0.3787
 7796SOL    HW125001   0.789   7.294   9.189  0.5696  1.0957  0.2798
 7796SOL    HW225002   0.841   7.185   9.280 -0.3814  0.1226 -0.3178
 7797SOL     OW25003   3.842   5.167   6.094 -0.7804 -0.8890 -0.2495
 7797SOL    HW125004   3.920   5.215   6.124 -1.6059  0.0709  0.4280
 7797SOL    HW225005   3.824   5.105   6.164 -0.8435 -0.8403 -0.2224
 7798SOL     OW25006   5.563   6.813   1.482  0.1336 -0.3806 -0.6369
 7798SOL    HW125007   5.621   6.784   1.553  1.0714 -0.4787 -1.4135
 7798SOL    HW225008   5.582   6.753   1.410 -2.0875 -1.3826 -0.4427
 7799SOL     OW25009   6.058   3.283   3.063  0.1370  0.2114 -0.5534
 7799SOL    HW125010   6.034   3.308   3.153  0.2918 -0.3117 -0.3647
 7799SOL    HW225011   5.979   3.242   3.028  0.0555  0.4743 -0.6818
 7800SOL     OW25012   2.611   0.008   0.341 -0.8124  0.7634  0.5595
 7800SOL    HW125013   2.640  -0.009   0.252  1.7152  1.2758  1.2120
 7800SOL    HW225014   2.602  -0.079   0.381 -1.1378  0.5662  0.0673
 7801SOL     OW25015   6.099   0.008   6.905 -0.4287  0.9154 -0.3797
 7801SOL    HW125016   6.011   0.024   6.873 -1.5552  0.0199  2.0474
 7801SOL    HW225017   6.127  -0.072   6.860 -0.4024  1.7386 -1.8949
 7802SOL     OW25018   8.214   0.893   0.328 -0.0584  0.2838  0.2983
 7802SOL    HW125019   8.228   0.799   0.316 -1.2706 -0.3905  3.3146
 7802SOL    HW225020   8.298   0.926   0.361 -0.0848 -0.0463  0.6932
 7803SOL     OW25021   1.519   3.574   4.671  0.7441  0.0994 -0.1127
 7803SOL    HW125022   1.530   3.625   4.751  1.4704 -1.4241  0.8047
 7803SOL    HW225023   1.607   3.561   4.637  0.4946  0.2072 -0.8184
 7804SOL     OW25024   2.440   6.739   1.751 -0.1309  0.3164  0.6872
 7804SOL    HW125025   2.500   6.790   1.805 -0.3369 -0.7089  1.9482
 7804SOL    HW225026   2.448   6.650   1.784 -2.0251  0.0682  0.5914
 7805SOL     OW25027   4.508   7.919   1.162 -0.5105 -0.1900  0.1847
 7805SOL    HW125028   4.494   7.931   1.256 -1.2611  2.5193 -0.1860
 7805SOL    HW225029   4.596   7.883   1.155  0.3786  1.4525  1.9089
 7806SOL     OW25030   7.059   9.240   3.450 -0.0528  0.0826 -0.5089
 7806SOL    HW125031   7.033   9.260   3.360  0.7872  1.0311 -0.5654
 7806SOL    HW225032   7.150   9.209   3.441  0.0564  0.2537  0.0178
 7807SOL     OW25033   1.197   9.398   2.812 -0.6721 -0.7098  0.0974
 7807SOL    HW125034   1.214   9.490   2.829 -1.3711 -0.2300 -1.5739
 7807SOL    HW225035   1.114   9.380   2.856 -0.5891 -0.5085  0.3338
 7808SOL     OW25036   5.136   5.838   1.686  0.0753 -0.4813 -0.1907
 7808SOL    HW125037   5.123   5.778   1.613 -1.3261  0.8422 -1.0858
 7808SOL    HW225038   5.229   5.861   1.682  0.9709 -3.3575  0.8805
 7809SOL     OW25039   3.847   2.101   6.584 -0.1939  0.0639  0.4521
 7809SOL    HW125040   3.930   2.053   6.580 -0.8040 -1.2930  2.5533
 7809SOL    HW225041   3.869   2.188   6.550  1.0486 -1.4462 -3.1817
 7810SOL     OW25042   0.742   1.131   5.034 -0.1521 -0.2113 -0.0268
 7810SOL    HW125043   0.803   1.126   5.108  0.4779 -1.6678 -0.6080
 7810SOL    HW225044   0.751   1.047   4.990 -2.6854 -0.5473 -0.0664
 7811SOL     OW25045   7.808   8.561   3.772 -0.5890  0.5984  0.3488
 7811SOL    HW125046   7.854   8.477   3.774  0.5522  1.1360 -1.3822
 7811SOL    HW225047   7.861   8.619   3.827 -0.1516  0.7472 -0.2191
 7812SOL     OW25048   9.536   4.617   2.509 -0.2775 -0.4513  0.0153
 7812SOL    HW125049   9.534   4.679   2.436  2.4011 -0.1796  0.0574
 7812SOL    HW225050   9.608   4.558   2.487  1.3264  0.2561  2.8564
 7813SOL     OW25051   6.722   2.236   7.668  0.4831  0.3705 -0.7966
 7813SOL    HW125052   6.715   2.296   7.743 -0.3482  0.6909 -1.1221
 7813SOL    HW225053   6.814   2.211   7.666  0.1379 -1.4578  1.7412
 7814SOL     OW25054   7.986   9.092   3.647 -0.0560  0.7336  0.9129
 7814SOL    HW125055   7.989   9.067   3.555 -3.1802 -0.0514  0.9267
 7814SOL    HW225056   8.034   9.175   3.651 -1.5855  1.8774 -1.8579
 7815SOL     OW25057   8.190   0.131   3.689 -0.1012 -0.0154 -0.3411
 7815SOL    HW125058   8.108   0.103   3.649 -0.0675  0.0426 -0.4514
 7815SOL    HW225059   8.221   0.053   3.736 -1.2882  0.5801  1.5110
 7816SOL     OW25060   4.211   7.886   5.644  0.6597  0.0783  0.2949
 7816SOL    HW125061   4.232   7.815   5.583 -0.6841 -0.2385  0.1718
 7816SOL    HW225062   4.296   7.914   5.678  1.4168 -0.0172 -1.3972
 7817SOL     OW25063   8.888   7.176   2.701  0.0715 -0.0752  0.1148
 7817SOL    HW125064   8.832   7.102   2.676  1.2547 -1.4207  1.2596
 7817SOL    HW225065   8.844   7.214   2.777  1.4061 -2.1339  2.0409
 7818SOL     OW25066   8.450   9.347   0.248  0.2065 -0.1999  0.1139
 7818SOL    HW125067   8.499   9.366   0.168 -2.2543  1.1147 -1.1885
 7818SOL    HW225068   8.430   9.253   0.242  0.0732 -0.1228 -0.8149
 7819SOL     OW25069   0.491   7.993   2.747  0.2033 -0.0390  0.4275
 7819SOL    HW125070   0.587   7.997   2.738  0.1750  0.6867  0.4409
 7819SOL    HW225071   0.466   7.917   2.694  0.8324 -0.5226  0.8009
 7820SOL     OW25072   0.801   1.552   4.613 -0.2616 -0.1514 -0.3657
 7820SOL    HW125073   0.785   1.642   4.584 -0.9336  0.1754  0.9602
 7820SOL    HW225074   0.756   1.545   4.697 -1.2864 -2.1159 -1.0248
 7821SOL     OW25075   6.620   3.255   1.056 -1.2621  0.2146  0.3524
 7821SOL    HW125076   6.608   3.163   1.032 -1.4148  0.5542 -0.9583
 7821SOL    HW225077   6.533   3.293   1.047 -0.8887  0.8342 -0.7275
 7822SOL     OW25078   8.846   5.114   4.755  0.1882 -0.3911  0.3137
 7822SOL    HW125079   8.876   5.196   4.714  0.3024 -0.5520  0.0712
 7822SOL    HW225080   8.755   5.131   4.778 -0.1806 -0.6202 -0.9019
 7823SOL     OW25081   9.300   6.918   2.120  0.3977 -0.2845 -0.7835
 7823SOL    HW125082   9.366   6.940   2.186 -1.0268 -0.0107  0.6354
 7823SOL    HW225083   9.329   6.963   2.041  2.0329 -0.3968 -0.2911
 7824SOL     OW25084   9.591   2.868   7.967  0.1819  0.6034 -0.2608
 7824SOL    HW125085   9.637   2.854   7.885  0.2777  1.3028 -0.3355
 7824SOL    HW225086   9.647   2.828   8.034  1.4755  2.3659 -0.2135
 7825SOL     OW25087   9.702   3.247   8.246  0.2066 -0.3509 -0.7139
 7825SOL    HW125088   9.781   3.290   8.278 -1.0600  1.4532  0.1260
 7825SOL    HW225089   9.646   3.318   8.215 -2.6975 -1.0765  2.2840
 7826SOL     OW25090   3.155   5.560   0.915  0.3358  0.0442  0.1356
 7826SOL    HW125091   3.185   5.474   0.946  1.1692  0.8129  1.5620
 7826SOL    HW225092   3.075   5.576   0.964  1.3428  1.0046  1.5521
 7827SOL     OW25093   5.845   3.168   1.560  0.2957 -0.1036 -0.0618
 7827SOL    HW125094   5.935   3.155   1.530  0.6146  2.3794 -0.4475
 7827SOL    HW225095   5.795   3.187   1.480  0.2071  1.9797  0.4152
 7828SOL     OW25096   8.160   1.537   9.436 -0.3623  0.5436  0.0204
 7828SOL    HW125097   8.199   1.584   9.362  1.1637 -1.3567 -0.4738
 7828SOL    HW225098   8.066   1.548   9.424 -0.1037  2.8734 -0.4046
 7829SOL     OW25099   1.285   7.144   1.490  0.1939  0.2453  0.2479
 7829SOL    HW125100   1.216   7.178   1.433  0.5405  2.0159  0.8085
 7829SOL    HW225101   1.356   7.119   1.430  0.8580  2.7780 -0.1709
 7830SOL     OW25102   9.504   1.653   2.149 -0.1297  0.1432 -0.4540
 7830SOL    HW125103   9.554   1.592   2.094 -0.3935  0.9094 -1.5857
 7830SOL    HW225104   9.538   1.739   2.126 -0.3543  0.4954  0.4994
 7831SOL     OW25105   4.594   0.567   2.844  0.0123 -0.4093 -0.4150
 7831SOL    HW125106   4.634   0.631   2.904  0.1681 -1.1199  0.2583
 7831SOL    HW225107   4.501   0.568   2.867 -0.1490  0.2755 -1.0718
 7832SOL     OW25108   9.011   4.016   3.598 -0.0097 -0.4558  0.0584
 7832SOL    HW125109   9.076   3.977   3.540 -0.3803 -0.0814 -0.6251
 7832SOL    HW225110   9.048   4.100   3.624 -1.1673  0.8242 -2.1860
 7833SOL     OW25111   7.741   1.649   4.689  0.4845  0.3665  0.0579
 7833SOL    HW125112   7.735   1.606   4.603 -0.9248  1.3181 -0.3465
 7833SOL    HW225113   7.670   1.713   4.689  1.3718  1.4000  1.3842
 7834SOL     OW25114   0.652   0.232   7.861 -0.0705 -0.3319 -0.4463
 7834SOL    HW125115   0.600   0.305   7.825  0.5637 -0.2344 -1.1794
 7834SOL    HW225116   0.717   0.275   7.917 -0.0504 -0.3688 -0.4415
 7835SOL     OW25117   1.277   4.290   7.315  0.6281 -0.2373  0.2258
 7835SOL    HW125118   1.248   4.315   7.403 -1.3180 -0.3079 -0.3561
 7835SOL    HW225119   1.358   4.242   7.330  0.4077 -0.1449  1.9663
 7836SOL     OW25120   8.958   7.433   3.306  0.0289  0.4139  0.1487
 7836SOL    HW125121   9.041   7.465   3.270  1.2542 -1.0100  1.5016
 7836SOL    HW225122   8.971   7.436   3.401 -0.3575 -2.3901  0.3771
 7837SOL     OW25123   8.783   1.793   6.798 -0.7471 -0.6523  0.5032
 7837SOL    HW125124   8.723   1.838   6.739 -0.9927 -1.1555  0.3648
 7837SOL    HW225125   8.726   1.747   6.859 -0.5402 -2.2999 -0.4962
 7838SOL     OW25126   0.719   3.520   7.437 -0.2941 -0.1622  0.4102
 7838SOL    HW125127   0.661   3.458   7.392  0.3248 -0.7684  0.4383
 7838SOL    HW225128   0.798   3.470   7.457  2.0519  1.6605 -3.2917
 7839SOL     OW25129   8.047   9.751   8.941  0.1125 -0.3699  0.7824
 7839SOL    HW125130   7.993   9.750   8.862 -1.7402  0.1201  1.9957
 7839SOL    HW225131   8.065   9.844   8.957  1.0970 -0.5097  0.5652
 7840SOL     OW25132   9.278   6.476   5.207 -0.3809 -0.4621  0.0651
 7840SOL    HW125133   9.219   6.503   5.136 -0.8772 -0.5856  0.4282
 7840SOL    HW225134   9.364   6.474   5.166 -0.2302  2.0090  0.0705
 7841SOL     OW25135   1.772   6.826   6.576 -0.8169  0.6001  0.2696
 7841SOL    HW125136   1.738   6.912   6.599 -3.1746  0.4039 -2.0554
 7841SOL    HW225137   1.707   6.764   6.609 -2.1941  0.1292 -2.9012
 7842SOL     OW25138   8.573   0.143   1.581  0.3102  1.1098 -1.0386
 7842SOL    HW125139   8.611   0.142   1.669 -0.4989  1.8294 -0.6651
 7842SOL    HW225140   8.569   0.236   1.558  2.1544  0.8855 -2.5927
 7843SOL     OW25141   7.320   4.178   1.613 -0.8724  0.0154 -0.0494
 7843SOL    HW125142   7.329   4.193   1.519 -1.5088 -0.2657 -0.1597
 7843SOL    HW225143   7.295   4.263   1.649 -1.4124 -0.0634 -0.2415
 7844SOL     OW25144   9.790   4.742   1.947 -0.5161 -0.3701  0.3195
 7844SOL    HW125145   9.723   4.700   2.001 -0.5430 -1.8605 -0.7995
 7844SOL    HW225146   9.797   4.685   1.870  1.8275 -0.1188  0.2831
 7845SOL     OW25147   6.058   4.836   8.088  0.0674  0.3425 -0.8489
 7845SOL    HW125148   6.111   4.757   8.098 -0.6836 -0.1718 -0.8674
 7845SOL    HW225149   6.097   4.899   8.147 -0.5087 -0.6604  0.6587
 7846SOL     OW25150   0.488   1.044   5.631 -0.2360  0.1209  0.5514
 7846SOL    HW125151   0.422   0.975   5.638 -0.3508 -0.1088 -1.9413
 7846SOL    HW225152   0.439   1.123   5.607  0.1922  0.4533  0.7318
 7847SOL     OW25153   6.587   8.913   8.391  0.2891  0.3345  0.1772
 7847SOL    HW125154   6.623   8.967   8.321  0.6788  0.0886  0.1817
 7847SOL    HW225155   6.609   8.960   8.471  0.1465  0.4431  0.1533
 7848SOL     OW25156   1.225   2.320   7.588  0.3097 -0.7328  0.8294
 7848SOL    HW125157   1.157   2.374   7.548  0.6951 -1.6096 -1.0888
 7848SOL    HW225158   1.277   2.382   7.639 -1.5162  0.0544  1.8432
 7849SOL     OW25159   9.484   9.785   6.690  0.2228 -0.3187 -0.3133
 7849SOL    HW125160   9.429   9.713   6.661  0.2500  0.2956 -2.0228
 7849SOL    HW225161   9.444   9.816   6.771 -0.5373 -1.3971 -0.2632
 7850SOL     OW25162   8.521   4.314   6.103  0.4106  0.8597  0.8173
 7850SOL    HW125163   8.571   4.273   6.033 -0.8298  1.9176 -0.7542
 7850SOL    HW225164   8.436   4.270   6.100 -0.0631  1.7537  0.8177
 7851SOL     OW25165   2.054   0.375   8.688 -0.7056 -0.0331 -0.1828
 7851SOL    HW125166   2.148   0.359   8.700 -0.3320  0.0644 -2.5152
 7851SOL    HW225167   2.022   0.395   8.776  2.2293  3.9844  0.2711
 7852SOL     OW25168   0.730   2.700   2.756  0.1614  0.2530  0.6268
 7852SOL    HW125169   0.814   2.658   2.774 -0.6940 -1.1918  1.4908
 7852SOL    HW225170   0.730   2.778   2.812  0.9514  0.3116  0.5594
 7853SOL     OW25171   4.919   0.795   7.461 -0.3927 -0.3252  0.2027
 7853SOL    HW125172   4.871   0.729   7.412  0.8416 -0.2089 -1.2355
 7853SOL    HW225173   4.917   0.873   7.405  0.8315 -0.1086  0.4316
 7854SOL     OW25174   4.736   5.143   7.024  0.4992 -0.3765 -0.7969
 7854SOL    HW125175   4.694   5.097   6.951  0.4905 -1.4498 -0.1371
 7854SOL    HW225176   4.689   5.112   7.101  1.1935 -0.0509 -0.2384
 7855SOL     OW25177   9.010   6.703   7.897  0.2761 -0.1451  0.3962
 7855SOL    HW125178   9.043   6.656   7.974  0.9921 -2.0704 -1.0323
 7855SOL    HW225179   9.088   6.743   7.858  0.1028 -0.1569  0.0346
 7856SOL     OW25180   4.584   5.521   3.844  0.4098  0.2074  0.6841
 7856SOL    HW125181   4.670   5.488   3.870  0.3732 -0.2747  0.2054
 7856SOL    HW225182   4.522   5.459   3.882  0.3440 -0.3553 -0.2945
 7857SOL     OW25183   4.900   2.835   5.935  0.0325  0.2533  0.3205
 7857SOL    HW125184   4.830   2.827   5.871  0.6057 -1.2314 -0.1738
 7857SOL    HW225185   4.856   2.835   6.020 -0.6052 -0.0850 -0.0027
 7858SOL     OW25186   7.519   0.265   7.205  0.3773 -0.6162 -0.9946
 7858SOL    HW125187   7.520   0.340   7.146 -0.7455  0.3107  0.1188
 7858SOL    HW225188   7.540   0.301   7.291  0.4781 -1.6899 -0.5579
 7859SOL     OW25189   4.329   0.253   2.133  0.3324 -0.8177 -0.0209
 7859SOL    HW125190   4.295   0.229   2.047 -0.1678  2.6984 -0.9536
 7859SOL    HW225191   4.258   0.234   2.193 -0.4842 -0.4294 -0.8446
 7860SOL     OW25192   0.896   4.356   0.130 -0.5227 -0.0824  0.0835
 7860SOL    HW125193   0.870   4.283   0.074  1.0161 -0.2516 -0.4443
 7860SOL    HW225194   0.934   4.420   0.070 -1.9796  1.2724  0.5110
 7861SOL     OW25195   0.193   2.614   6.305  0.4902 -0.5479  0.2455
 7861SOL    HW125196   0.286   2.597   6.286  0.8681  0.8211  0.8001
 7861SOL    HW225197   0.166   2.677   6.238  0.3609  0.1597  0.9554
 7862SOL     OW25198   8.828   6.658   1.835  0.1957 -0.3792 -0.1233
 7862SOL    HW125199   8.756   6.627   1.890 -0.4554 -1.0893 -1.3302
 7862SOL    HW225200   8.795   6.648   1.745  1.4166  0.2729 -0.6619
 7863SOL     OW25201   5.738   0.896   5.894 -0.2011  0.4658 -0.4693
 7863SOL    HW125202   5.712   0.924   5.981 -0.1674 -1.2591  0.1335
 7863SOL    HW225203   5.834   0.893   5.897 -0.1986  0.4135 -0.5790
 7864SOL     OW25204   8.249   9.739   3.127  0.3107 -0.5804 -0.2056
 7864SOL    HW125205   8.194   9.778   3.059  1.9459 -0.4200 -1.5067
 7864SOL    HW225206   8.187   9.707   3.192 -1.2341  1.4064 -0.5817
 7865SOL     OW25207   9.326   1.568   3.650  0.2832  0.2765 -0.2611
 7865SOL    HW125208   9.247   1.552   3.599  0.4760  0.0712 -0.4981
 7865SOL    HW225209   9.383   1.618   3.590  0.6344 -0.2364 -0.3582
 7866SOL     OW25210   3.700   2.314   0.114 -0.1095 -0.1494 -0.4692
 7866SOL    HW125211   3.694   2.395   0.165 -1.3050  0.3838 -1.4158
 7866SOL    HW225212   3.765   2.333   0.046  1.4662 -0.8524  0.7432
 7867SOL     OW25213   5.514   0.305   4.229  0.1473 -0.2735 -0.6323
 7867SOL    HW125214   5.522   0.339   4.140  0.7644 -1.2597 -0.9814
 7867SOL    HW225215   5.470   0.374   4.278 -0.1519  0.3054 -1.6906
 7868SOL     OW25216   0.322   0.355   7.638  0.3057 -0.5016 -0.0813
 7868SOL    HW125217   0.295   0.317   7.722  2.0408 -0.3467  0.5848
 7868SOL    HW225218   0.276   0.438   7.634  3.1721  1.4586  2.7267
 7869SOL     OW25219   7.503   8.912   9.160 -0.2303  0.0322 -0.1744
 7869SOL    HW125220   7.579   8.941   9.211 -0.7539 -0.7219  1.0704
 7869SOL    HW225221   7.540   8.877   9.079  0.7825 -0.5847  0.5399
 7870SOL     OW25222   2.510   7.802   4.238 -0.1361  0.3154 -0.2356
 7870SOL    HW125223   2.512   7.891   4.202  1.2131  0.4797  0.1943
 7870SOL    HW225224   2.515   7.815   4.333 -0.5015 -0.2164 -0.1419
 7871SOL     OW25225   0.525   7.326   0.508 -0.3879 -0.1621 -0.1973
 7871SOL    HW125226   0.491   7.296   0.424 -3.0356  0.0129  0.7082
 7871SOL    HW225227   0.485   7.412   0.521  1.1787  0.4941  0.5978
 7872SOL     OW25228   8.218   8.616   4.625 -0.1114 -0.1095  0.3324
 7872SOL    HW125229   8.263   8.608   4.541 -0.7727  0.9100 -0.1364
 7872SOL    HW225230   8.127   8.635   4.602 -0.0849  1.2929  1.2673
 7873SOL     OW25231   9.087   3.703   0.143  0.1147 -0.9536 -0.3947
 7873SOL    HW125232   9.045   3.714   0.057 -0.6269 -0.3229  0.0315
 7873SOL    HW225233   9.059   3.780   0.193  2.7536  0.1873 -0.4579
 7874SOL     OW25234   0.275   4.954   1.577 -0.0632  0.3968  0.6821
 7874SOL    HW125235   0.232   4.910   1.504 -0.2681  0.6881  0.6243
 7874SOL    HW225236   0.279   4.888   1.646  1.6531 -0.4311 -0.1402
 7875SOL     OW25237   6.210   8.875   5.007 -0.6075  0.2233 -0.4330
 7875SOL    HW125238   6.177   8.889   5.096  2.5255 -0.1338  0.8840
 7875SOL    HW225239   6.186   8.784   4.987 -0.0829 -0.1599  0.6302
 7876SOL     OW25240   7.532   1.704   8.901  0.3037 -0.5064 -0.1601
 7876SOL    HW125241   7.441   1.674   8.906 -0.2916  1.1380 -0.6299
 7876SOL    HW225242   7.542   1.764   8.974  1.2619 -1.2135  0.3238
 7877SOL     OW25243   4.159   9.374   3.822  0.6171 -0.1290  0.5803
 7877SOL    HW125244   4.143   9.453   3.873 -0.0885  0.8446 -1.0416
 7877SOL    HW225245   4.074   9.330   3.819  0.7970 -0.4906  0.7454
 7878SOL     OW25246   6.753   0.713   8.856  0.4993  0.4597  0.2915
 7878SOL    HW125247   6.833   0.735   8.808  0.3666  1.4053  0.4780
 7878SOL    HW225248   6.716   0.798   8.880 -0.1094  0.0165  0.9536
 7879SOL     OW25249   5.875   2.529   6.278  0.1202 -0.2930 -0.3390
 7879SOL    HW125250   5.902   2.528   6.370 -0.7421 -0.5503 -0.0793
 7879SOL    HW225251   5.841   2.441   6.262  1.1484 -0.5607 -1.1913
 7880SOL     OW25252   1.175   0.767   1.490 -0.1057  0.3527  0.3801
 7880SOL    HW125253   1.200   0.685   1.447  0.0546  0.9729 -0.7555
 7880SOL    HW225254   1.080   0.766   1.491 -0.1009 -0.0086  0.7015
 7881SOL     OW25255   4.912   5.646   6.457 -0.0560 -0.6796  0.1892
 7881SOL    HW125256   4.890   5.599   6.537 -1.0273 -0.0015  0.3312
 7881SOL    HW225257   4.920   5.737   6.484  0.0185 -0.5053 -0.4087
 7882SOL     OW25258   5.206   0.055   6.075  0.3430 -0.4850 -0.1730
 7882SOL    HW125259   5.126   0.057   6.021  0.9606 -2.2676 -1.2577
 7882SOL    HW225260   5.265   0.116   6.032  0.0798 -0.2890 -0.2592
 7883SOL     OW25261   1.639   8.625   2.029 -0.2532  0.2488 -0.2648
 7883SOL    HW125262   1.546   8.639   2.046 -0.7255 -2.1346 -0.5464
 7883SOL    HW225263   1.683   8.652   2.110 -1.5404 -1.6932  1.1571
 7884SOL     OW25264   3.607   7.595   5.753 -0.3463 -0.1025  0.2433
 7884SOL    HW125265   3.604   7.596   5.657  1.8539  0.2555  0.1300
 7884SOL    HW225266   3.535   7.653   5.779 -1.9067 -1.3334 -1.1001
 7885SOL     OW25267   3.519   2.486   4.067 -0.2511 -0.5828 -0.7528
 7885SOL    HW125268   3.506   2.440   4.150  0.7143 -0.8245 -0.7293
 7885SOL    HW225269   3.538   2.577   4.092  2.4677 -1.1280 -0.5454
 7886SOL     OW25270   4.465   5.761   3.776 -0.0045  0.0158 -0.1594
 7886SOL    HW125271   4.506   5.682   3.811  1.0677  0.8536  0.5442
 7886SOL    HW225272   4.444   5.814   3.853 -3.2276 -0.6941 -0.4048
 7887SOL     OW25273   5.087   8.246   7.260 -0.0112 -0.1608 -0.0495
 7887SOL    HW125274   5.177   8.238   7.228 -0.7605 -1.6981 -1.9937
 7887SOL    HW225275   5.067   8.160   7.297 -0.4492  0.4318  1.1525
 7888SOL     OW25276   2.713   2.327   1.880  0.3112  0.0182 -0.1272
 7888SOL    HW125277   2.620   2.347   1.875  0.4603  0.7055 -0.2837
 7888SOL    HW225278   2.749   2.390   1.942  0.1525 -2.3067  2.5574
 7889SOL     OW25279   4.642   9.613   2.426 -0.1239 -0.3298 -0.5416
 7889SOL    HW125280   4.576   9.556   2.466  3.6649 -3.9762  1.2902
 7889SOL    HW225281   4.668   9.566   2.347  2.1735 -0.5694  0.2975
 7890SOL     OW25282   3.227   6.045   8.241  0.5350  0.1716  0.2285
 7890SOL    HW125283   3.219   5.950   8.230  0.9575  0.2196 -0.5529
 7890SOL    HW225284   3.320   6.063   8.227  0.4411  0.7135  0.2799
 7891SOL     OW25285   0.898   4.589   3.053 -0.1746 -0.3172 -0.3367
 7891SOL    HW125286   0.906   4.564   3.145  0.0069  0.7121 -0.0670
 7891SOL    HW225287   0.974   4.549   3.011 -0.6335 -1.3828 -0.1845
 7892SOL     OW25288   3.702   9.615   7.759 -0.0431  0.3645 -0.4052
 7892SOL    HW125289   3.625   9.635   7.705 -1.3055 -0.7990  0.8500
 7892SOL    HW225290   3.705   9.519   7.760  0.6226  0.3824  0.6332
 7893SOL     OW25291   7.031   3.223   9.583 -0.1766 -0.3186 -0.5314
 7893SOL    HW125292   7.019   3.208   9.489  2.8865  3.0213 -1.6667
 7893SOL    HW225293   7.108   3.280   9.589 -0.5227  0.0374  4.0275
 7894SOL     OW25294   0.311   4.597   4.378  0.0954  0.0236  0.5269
 7894SOL    HW125295   0.301   4.517   4.429  0.3542 -1.2452 -1.3297
 7894SOL    HW225296   0.373   4.575   4.309  1.7398  2.4314  1.1037
 7895SOL     OW25297   8.962   3.006   0.896  0.1202 -0.3428 -0.4153
 7895SOL    HW125298   8.964   3.085   0.841  1.4276 -0.6058 -0.7904
 7895SOL    HW225299   8.871   2.976   0.891 -0.2659  0.8078 -0.7373
 7896SOL     OW25300   7.736   0.337   1.509 -0.1147  0.9983 -0.0445
 7896SOL    HW125301   7.789   0.272   1.555 -1.5961 -0.1165  0.1531
 7896SOL    HW225302   7.705   0.396   1.578 -0.5010  0.6488  0.0861
 7897SOL     OW25303   7.377   8.444   3.696  0.2340  0.2359 -0.9316
 7897SOL    HW125304   7.444   8.418   3.632 -2.0332 -1.2962 -2.8367
 7897SOL    HW225305   7.354   8.363   3.741 -1.1428  0.5156 -1.1104
 7898SOL     OW25306   0.538   1.753   7.737 -0.2234  0.0188 -0.4462
 7898SOL    HW125307   0.548   1.759   7.832  0.0059 -0.5137 -0.4337
 7898SOL    HW225308   0.494   1.669   7.723 -2.4728  1.1470 -0.6641
 7899SOL     OW25309   1.946   9.644   3.357  0.0154  0.3111  0.0701
 7899SOL    HW125310   1.960   9.557   3.395  0.3546  0.8969  1.3427
 7899SOL    HW225311   2.017   9.653   3.292 -1.0633 -1.0258 -1.3793
 7900SOL     OW25312   7.373   7.496   8.641 -0.1291 -0.2707 -0.2900
 7900SOL    HW125313   7.464   7.472   8.627 -0.4488 -0.4288 -2.3920
 7900SOL    HW225314   7.333   7.418   8.680  0.5276 -0.3363  0.2699
 7901SOL     OW25315   0.171   5.426   0.656  0.4187  0.1293  0.0850
 7901SOL    HW125316   0.179   5.419   0.751  0.3523  0.5634  0.1254
 7901SOL    HW225317   0.123   5.508   0.642  0.9709  0.3860 -0.3438
 7902SOL     OW25318   2.374   8.477   5.965 -0.0582  0.7566  0.0358
 7902SOL    HW125319   2.324   8.514   6.038  0.2722 -0.3063  0.8341
 7902SOL    HW225320   2.460   8.520   5.970 -0.0233  0.6568  0.2996
 7903SOL     OW25321   7.421   4.560   1.503 -0.4147  0.2516 -0.1699
 7903SOL    HW125322   7.500   4.597   1.543  0.8955 -0.4069 -1.9864
 7903SOL    HW225323   7.357   4.631   1.506  0.5156  1.0874  0.5962
 7904SOL     OW25324   2.740   9.303   8.533 -0.2981 -0.4126  0.0245
 7904SOL    HW125325   2.661   9.336   8.577 -2.7238 -1.8602 -2.9023
 7904SOL    HW225326   2.727   9.208   8.528  2.1575 -0.8356  0.2677
 7905SOL     OW25327   5.044   6.020   9.277  0.0593  0.3772 -0.2107
 7905SOL    HW125328   5.018   5.989   9.191 -0.4193 -1.3995  0.5392
 7905SOL    HW225329   4.977   6.083   9.302 -0.4357  0.0164 -0.6320
 7906SOL     OW25330   8.310   7.603   3.167  0.3077 -0.4440  0.9410
 7906SOL    HW125331   8.291   7.577   3.077 -0.7719 -0.6680  1.2234
 7906SOL    HW225332   8.293   7.525   3.219  0.3924 -0.1604  1.4036
 7907SOL     OW25333   8.392   2.064   9.006 -0.5522  0.3762 -0.6248
 7907SOL    HW125334   8.421   2.074   9.096 -0.9075 -1.9485 -0.1661
 7907SOL    HW225335   8.371   2.152   8.976 -1.7358  1.0913  2.0349
 7908SOL     OW25336   1.731   1.190   6.881 -0.2607 -0.6199  0.0292
 7908SOL    HW125337   1.761   1.280   6.895  0.5118 -0.9557  0.5984
 7908SOL    HW225338   1.717   1.155   6.969 -1.3871 -0.7974 -0.1990
 7909SOL     OW25339   2.608   6.961   0.168  0.6039 -0.2415  0.1957
 7909SOL    HW125340   2.594   6.870   0.144  0.9422  0.1915 -1.7811
 7909SOL    HW225341   2.702   6.975   0.154 -0.0142  1.3883 -3.4620
 7910SOL     OW25342   5.219   5.799   8.906  0.1929  0.0458 -0.1287
 7910SOL    HW125343   5.126   5.814   8.919  0.6100  1.8073  1.0614
 7910SOL    HW225344   5.255   5.885   8.884  1.8836 -0.1416  1.6441
 7911SOL     OW25345   5.781   8.346   4.885 -0.3989 -0.2887  0.4144
 7911SOL    HW125346   5.870   8.379   4.877 -0.9651  1.3558  0.5401
 7911SOL    HW225347   5.771   8.325   4.978  0.5066 -2.5421  0.0637
 7912SOL     OW25348   3.194   8.691   0.523 -0.2477  0.1579 -0.1568
 7912SOL    HW125349   3.171   8.783   0.519  2.1601  0.8051 -1.9794
 7912SOL    HW225350   3.221   8.670   0.433  2.1741 -1.4446  0.8486
 7913SOL     OW25351   0.214   3.179   5.203  0.6238 -0.4237  0.1890
 7913SOL    HW125352   0.262   3.240   5.260  2.7460 -1.3165 -0.5195
 7913SOL    HW225353   0.173   3.117   5.263 -0.7077  1.0641  0.8708
 7914SOL     OW25354   7.728   2.040   2.015 -0.0641  0.2619  0.0807
 7914SOL    HW125355   7.699   1.961   2.062 -1.1202  1.4055  1.4379
 7914SOL    HW225356   7.819   2.051   2.042 -0.7921  1.1817  2.3921
 7915SOL     OW25357   2.120   3.780   3.933  0.1553 -0.5827  0.2712
 7915SOL    HW125358   2.104   3.767   4.027 -1.0911 -0.3723  0.1169
 7915SOL    HW225359   2.168   3.863   3.929 -0.2307 -0.3278  0.7048
 7916SOL     OW25360   7.646   6.999   0.318 -0.3907 -0.1716 -0.0555
 7916SOL    HW125361   7.597   6.949   0.253 -0.3477  0.4514 -0.5755
 7916SOL    HW225362   7.732   6.957   0.321 -0.6269 -0.6507  0.1344
 7917SOL     OW25363   1.546   0.970   6.173  0.1845 -0.3982  0.1921
 7917SOL    HW125364   1.483   0.897   6.174 -1.3257  0.8478  0.9338
 7917SOL    HW225365   1.602   0.954   6.249  0.1465 -1.0029  0.1004
 7918SOL     OW25366   9.506   4.623   5.946 -0.2091 -0.1281  0.3791
 7918SOL    HW125367   9.442   4.603   6.014  1.4315 -0.8950  1.7974
 7918SOL    HW225368   9.541   4.709   5.971 -0.4528  0.1464 -0.2060
 7919SOL     OW25369   9.412   2.636   8.826 -0.0900  0.3653 -0.1684
 7919SOL    HW125370   9.420   2.714   8.881  0.4021  1.6813 -1.9844
 7919SOL    HW225371   9.332   2.652   8.775 -0.1666 -0.4846 -0.3288
 7920SOL     OW25372   3.536   9.093   8.005  0.1002 -0.0911 -0.1983
 7920SOL    HW125373   3.470   9.042   8.053  0.8533 -0.9248 -0.0097
 7920SOL    HW225374   3.530   9.181   8.042  0.8013 -0.7606  1.6077
 7921SOL     OW25375   2.064   1.427   4.807 -0.6681  0.5106 -0.1634
 7921SOL    HW125376   2.104   1.505   4.768 -1.1165 -0.1002 -1.9247
 7921SOL    HW225377   2.138   1.376   4.839 -0.2956  1.1148 -0.0354
 7922SOL     OW25378   2.070   0.529   3.486  0.4285  0.0834 -0.0173
 7922SOL    HW125379   2.121   0.558   3.410  0.4954  0.5742  0.2120
 7922SOL    HW225380   2.134   0.492   3.546  0.3797 -0.2710 -0.1768
 7923SOL     OW25381   7.203   9.514   0.710 -0.3578  0.3266  0.1721
 7923SOL    HW125382   7.237   9.562   0.634  0.1680  0.2692  0.3654
 7923SOL    HW225383   7.232   9.564   0.786 -0.1792 -0.0593  0.3623
 7924SOL     OW25384   8.818   0.990   1.183  0.4365 -0.4375 -0.0361
 7924SOL    HW125385   8.863   1.039   1.252  2.0348 -0.5067 -0.9669
 7924SOL    HW225386   8.759   0.931   1.229 -0.3030  1.1837  1.1736
 7925SOL     OW25387   2.274   1.939   1.711  0.0213 -0.9280  0.2030
 7925SOL    HW125388   2.299   1.978   1.795 -0.2611 -0.7896  0.2233
 7925SOL    HW225389   2.270   1.845   1.729  1.3434 -1.0502 -0.0041
 7926SOL     OW25390   0.233   5.459   3.097  0.3066  0.4522 -0.4023
 7926SOL    HW125391   0.223   5.447   3.192 -2.6212  2.6072 -0.2812
 7926SOL    HW225392   0.305   5.521   3.088  0.5842  0.2685  0.3984
 7927SOL     OW25393   7.180   7.272   1.403  0.3693 -0.4011  0.2595
 7927SOL    HW125394   7.216   7.240   1.321  0.4937  0.6638 -0.1188
 7927SOL    HW225395   7.255   7.283   1.460  0.1216 -2.7785  1.1403
 7928SOL     OW25396   0.804   5.798   5.916  0.2323 -0.4483  0.3466
 7928SOL    HW125397   0.833   5.726   5.860  0.1363 -0.8518  0.8119
 7928SOL    HW225398   0.755   5.755   5.986  0.3199  0.0590  0.7184
 7929SOL     OW25399   5.588   4.820   4.357 -0.1344  0.3757  0.1512
 7929SOL    HW125400   5.558   4.872   4.282 -0.2719  1.4811  0.9425
 7929SOL    HW225401   5.510   4.770   4.383 -0.0302 -0.1790 -0.5522
 7930SOL     OW25402   0.277   6.910   6.023 -0.2787 -0.4177 -0.3284
 7930SOL    HW125403   0.337   6.984   6.030  1.2807 -1.5358 -1.0568
 7930SOL    HW225404   0.307   6.848   6.090 -1.5449 -0.4347  0.2634
 7931SOL     OW25405   9.412   7.871   7.627  0.0544  0.5467 -0.6366
 7931SOL    HW125406   9.326   7.893   7.663 -0.7952 -2.7691 -0.2673
 7931SOL    HW225407   9.394   7.803   7.562  2.3554  0.3004 -1.1000
 7932SOL     OW25408   0.778   4.755   1.188  0.7024 -0.0421  0.2018
 7932SOL    HW125409   0.795   4.847   1.168  0.2263  0.2119  0.9218
 7932SOL    HW225410   0.683   4.750   1.198  0.7313 -0.5959  0.2329
 7933SOL     OW25411   6.850   2.397   7.179 -0.5609  0.0899  0.6107
 7933SOL    HW125412   6.859   2.474   7.235  1.8534  0.5824 -0.3240
 7933SOL    HW225413   6.769   2.411   7.132 -0.1555  2.1339  0.4126
 7934SOL     OW25414   6.700   5.112   0.543 -0.2790 -0.2165  0.0739
 7934SOL    HW125415   6.700   5.073   0.455  1.5313  1.4340 -0.7471
 7934SOL    HW225416   6.607   5.118   0.566 -0.8230 -0.5583 -1.8012
 7935SOL     OW25417   5.080   4.475   6.000  0.2098 -0.6205  0.1307
 7935SOL    HW125418   5.143   4.542   5.973  1.6342 -1.4949  1.1600
 7935SOL    HW225419   5.061   4.426   5.920  1.3331 -0.7142 -0.0971
 7936SOL     OW25420   2.026   4.679   6.985  0.3367  0.3714  0.5233
 7936SOL    HW125421   1.968   4.659   7.059  0.3533 -1.2994  0.1177
 7936SOL    HW225422   2.069   4.760   7.011 -0.8268  0.6702  1.6478
 7937SOL     OW25423   0.819   9.487   8.148 -0.2908  0.1242 -0.0868
 7937SOL    HW125424   0.764   9.556   8.112  0.6557  0.9355 -0.0200
 7937SOL    HW225425   0.803   9.489   8.242 -1.4630 -0.8441 -0.2348
 7938SOL     OW25426   2.252   6.142   8.558  0.3215  0.3700  0.1225
 7938SOL    HW125427   2.158   6.143   8.574  0.3798 -2.0667  1.0581
 7938SOL    HW225428   2.291   6.166   8.643  0.5392 -0.3262  0.2264
 7939SOL     OW25429   7.302   5.166   3.436  0.5206  0.2085  0.6038
 7939SOL    HW125430   7.217   5.128   3.459  0.0669  0.1544 -0.9959
 7939SOL    HW225431   7.312   5.240   3.496 -1.3144  1.0619 -0.0432
 7940SOL     OW25432   4.355   6.745   3.529  0.0408 -0.6157 -0.3040
 7940SOL    HW125433   4.390   6.677   3.586 -0.4922 -0.9985 -0.4280
 7940SOL    HW225434   4.380   6.827   3.571  0.4738 -0.8843 -0.0248
 7941SOL     OW25435   1.659   5.453   9.840  0.1868 -0.1491 -0.4338
 7941SOL    HW125436   1.632   5.475   9.750  1.7790 -0.3260 -0.9880
 7941SOL    HW225437   1.739   5.504   9.854 -0.2939  0.2510  1.0863
 7942SOL     OW25438   9.163   6.704   8.528 -0.0007 -0.2015  0.5216
 7942SOL    HW125439   9.161   6.785   8.578 -1.5335  0.4829 -0.5589
 7942SOL    HW225440   9.205   6.728   8.445 -1.4955 -0.1698 -0.2676
 7943SOL     OW25441   7.887   5.259   3.400 -0.6413  0.2296 -0.0064
 7943SOL    HW125442   7.885   5.180   3.454  0.3846  0.7676  0.8820
 7943SOL    HW225443   7.888   5.331   3.464 -2.6570  1.0137 -0.7990
 7944SOL     OW25444   7.608   7.733   8.315 -0.0434 -0.4142  0.2855
 7944SOL    HW125445   7.655   7.672   8.372  0.6005 -0.5239 -0.3409
 7944SOL    HW225446   7.672   7.801   8.294  0.6269 -1.7348 -2.3957
 7945SOL     OW25447   3.612   2.676   1.168 -0.1220 -0.2741 -0.3286
 7945SOL    HW125448   3.690   2.724   1.194  0.5317 -1.7868  0.6229
 7945SOL    HW225449   3.540   2.737   1.184  0.7303  0.6555  0.0887
 7946SOL     OW25450   4.491   7.900   3.465  0.2425  0.2836  0.0178
 7946SOL    HW125451   4.454   7.979   3.504 -2.4465 -1.3684  1.1073
 7946SOL    HW225452   4.558   7.872   3.527  0.4551  1.1163  0.1735
 7947SOL     OW25453   9.380   2.183   8.010 -0.9421 -0.5780 -0.6937
 7947SOL    HW125454   9.402   2.170   8.102 -1.2666 -1.0227 -0.6750
 7947SOL    HW225455   9.297   2.137   7.998 -0.6877 -0.8907 -1.3141
 7948SOL     OW25456   0.048   0.933   5.895 -0.0941  0.4799  0.3975
 7948SOL    HW125457   0.132   0.908   5.855  0.6118  0.1171  2.0438
 7948SOL    HW225458   0.061   1.025   5.920  0.3061  0.0442  1.8459
 7949SOL     OW25459   7.746   1.577   6.112  0.1170  0.5070 -0.1140
 7949SOL    HW125460   7.677   1.567   6.047 -0.2718 -0.0110  0.3654
 7949SOL    HW225461   7.753   1.671   6.126  0.0076  0.6035 -0.6925
 7950SOL     OW25462   0.608   1.017   0.668 -0.3969  0.4335  0.0311
 7950SOL    HW125463   0.682   1.070   0.640 -0.0396 -0.2561 -0.3548
 7950SOL    HW225464   0.647   0.934   0.696 -1.1027 -0.3741 -1.2602
 7951SOL     OW25465   4.043   8.242   7.952 -0.2580 -0.5882 -0.7939
 7951SOL    HW125466   4.136   8.264   7.963 -0.0338 -1.1136 -1.5592
 7951SOL    HW225467   4.006   8.318   7.909 -0.6725  0.5508  1.4318
 7952SOL     OW25468   6.610   1.367   2.525  0.8935 -0.7253 -0.4660
 7952SOL    HW125469   6.663   1.446   2.536  2.9883 -2.1968  0.7933
 7952SOL    HW225470   6.648   1.322   2.449  0.4799 -1.0888 -0.4664
 7953SOL     OW25471   9.321   5.362   2.472 -0.0749 -0.2808  0.2327
 7953SOL    HW125472   9.276   5.343   2.554  0.7014 -1.5368  0.3876
 7953SOL    HW225473   9.250   5.378   2.409 -0.6961 -0.4273  0.8817
 7954SOL     OW25474   8.319   0.264   2.506 -0.4123 -0.2701  0.9707
 7954SOL    HW125475   8.407   0.252   2.471  0.1677  0.0462  2.2806
 7954SOL    HW225476   8.265   0.202   2.457  0.2525  0.4918 -0.8164
 7955SOL     OW25477   1.041   7.643   3.106  0.3229 -0.2379 -0.1509
 7955SOL    HW125478   0.991   7.644   3.025 -0.7690  0.4626  0.5047
 7955SOL    HW225479   1.079   7.731   3.112  1.1356 -0.5686 -0.3362
 7956SOL     OW25480   7.345   2.088   4.869 -0.1638 -0.3803 -0.4313
 7956SOL    HW125481   7.298   2.165   4.900  1.8083  0.6031  0.2260
 7956SOL    HW225482   7.427   2.121   4.834  0.7067 -2.1668 -0.2063
 7957SOL     OW25483   7.788   6.639   2.430  0.3567  0.3591  0.0562
 7957SOL    HW125484   7.731   6.716   2.431  1.2580  1.0380  0.5874
 7957SOL    HW225485   7.820   6.632   2.520  0.2152 -0.7101  0.0432
 7958SOL     OW25486   3.989   9.826   8.646  0.3272 -0.6404 -0.0121
 7958SOL    HW125487   4.021   9.825   8.736  0.3493 -2.4702  0.0028
 7958SOL    HW225488   4.057   9.871   8.596  0.5902 -0.1299  0.7916
 7959SOL     OW25489   9.543   0.553   8.259  0.3736 -0.1751 -0.2372
 7959SOL    HW125490   9.636   0.558   8.237  1.0010 -0.4412  2.1284
 7959SOL    HW225491   9.539   0.575   8.352 -2.0530  0.7208 -0.4984
 7960SOL     OW25492   2.926   0.346   9.546 -0.2782 -0.2533 -0.4355
 7960SOL    HW125493   2.848   0.325   9.495 -1.8493 -0.4845  1.8973
 7960SOL    HW225494   2.997   0.349   9.482 -1.6933 -2.7949 -2.2935
 7961SOL     OW25495   2.768   3.017   7.334 -0.4685  0.0022  0.4541
 7961SOL    HW125496   2.782   3.110   7.348 -1.6157  0.4945 -1.2833
 7961SOL    HW225497   2.740   2.983   7.419  1.5203  0.8644  1.5309
 7962SOL     OW25498   8.065   9.623   6.926 -0.2642  0.3681  0.1374
 7962SOL    HW125499   8.021   9.543   6.954 -0.7485  1.3428  2.3247
 7962SOL    HW225500   8.005   9.693   6.949  0.4729  1.4513 -1.0702
 7963SOL     OW25501   8.430   0.481   0.449 -0.2674  0.1631 -0.2825
 7963SOL    HW125502   8.452   0.478   0.542  0.5064  0.0330 -0.4684
 7963SOL    HW225503   8.500   0.531   0.409 -0.6965  0.3811 -0.7780
 7964SOL     OW25504   4.989   1.862   6.349 -0.3736  0.1436  0.6080
 7964SOL    HW125505   4.947   1.881   6.434 -0.9409 -1.3404  0.6967
 7964SOL    HW225506   4.971   1.769   6.334  3.9758 -1.0250  1.2389
 7965SOL     OW25507   5.729   9.667   8.538 -0.3708 -0.2845  0.0095
 7965SOL    HW125508   5.688   9.601   8.482  0.8906 -0.4865 -0.7022
 7965SOL    HW225509   5.822   9.658   8.521 -0.0485  0.3951  1.3542
 7966SOL     OW25510   4.794   6.394   1.825 -0.0375  0.2300  0.2491
 7966SOL    HW125511   4.786   6.372   1.918 -0.0521 -0.5664  0.0661
 7966SOL    HW225512   4.735   6.468   1.813  0.3681  0.6940  0.9837
 7967SOL     OW25513   7.489   2.157   3.424  0.3931 -0.5923 -0.5630
 7967SOL    HW125514   7.500   2.165   3.329 -0.5494 -0.5084 -0.6773
 7967SOL    HW225515   7.529   2.074   3.447  2.3091  0.2305 -0.7413
 7968SOL     OW25516   7.629   2.893   2.309  0.1401 -0.0520  0.7408
 7968SOL    HW125517   7.717   2.914   2.341 -1.0524  1.8459  3.1002
 7968SOL    HW225518   7.593   2.978   2.283 -0.9759 -0.8151 -0.2591
 7969SOL     OW25519   7.123   7.654   5.944  0.0762 -0.2577  0.6103
 7969SOL    HW125520   7.153   7.651   6.035  1.9610  0.2827  0.0644
 7969SOL    HW225521   7.158   7.737   5.910 -1.9518  0.3469 -0.1945
 7970SOL     OW25522   5.488   2.934   6.634  0.0451  0.0069  0.4036
 7970SOL    HW125523   5.474   2.995   6.562  0.4873 -0.8389 -0.4180
 7970SOL    HW225524   5.481   2.848   6.594  0.7176 -0.4745  1.2904
 7971SOL     OW25525   6.973   1.045   1.813  0.3275 -0.7217  0.2220
 7971SOL    HW125526   7.052   1.010   1.855  0.3617 -2.4423 -1.1351
 7971SOL    HW225527   6.901   0.995   1.853  0.3551 -2.3295 -1.5917
 7972SOL     OW25528   2.384   8.269   0.415  0.4171  0.3151  0.6841
 7972SOL    HW125529   2.420   8.181   0.410  1.5379  0.7880 -0.0367
 7972SOL    HW225530   2.400   8.298   0.505  0.4720 -0.0361  0.7861
 7973SOL     OW25531   2.262   5.813   0.561  0.4437 -0.2001  0.7318
 7973SOL    HW125532   2.169   5.809   0.537  0.3130 -1.5704  1.3376
 7973SOL    HW225533   2.293   5.896   0.526 -0.6358 -0.4318 -0.8650
 7974SOL     OW25534   9.835   5.099   3.019 -0.2651 -0.2600 -0.4428
 7974SOL    HW125535   9.859   5.024   2.965 -0.0731  0.6757 -1.6788
 7974SOL    HW225536   9.915   5.123   3.065 -0.4161 -1.0134  0.2588
 7975SOL     OW25537   0.679   3.120   6.950 -0.3576 -0.0916  0.1529
 7975SOL    HW125538   0.611   3.092   6.889 -1.1533 -0.8446  1.3495
 7975SOL    HW225539   0.742   3.048   6.950  1.4121  1.3142 -2.2443
 7976SOL     OW25540   6.581   9.177   2.399  0.2829  0.0378 -0.5919
 7976SOL    HW125541   6.580   9.246   2.466  0.8530  1.0334 -1.5737
 7976SOL    HW225542   6.558   9.222   2.318  2.0883 -0.6075 -1.5233
 7977SOL     OW25543   3.562   7.541   6.692  0.0660  0.6131 -0.1894
 7977SOL    HW125544   3.640   7.594   6.710 -0.4396  1.2913  0.0596
 7977SOL    HW225545   3.583   7.495   6.610  0.4708  1.3040 -0.4868
 7978SOL     OW25546   2.399   1.666   8.118 -0.2545  0.6458  0.1021
 7978SOL    HW125547   2.457   1.590   8.128 -0.2055  0.5906 -0.5714
 7978SOL    HW225548   2.396   1.705   8.205  1.5365  1.1961 -0.0389
 7979SOL     OW25549   8.077   3.708   7.925 -0.4760 -0.4654  0.3091
 7979SOL    HW125550   8.142   3.719   7.855 -1.0079 -1.4580 -0.3665
 7979SOL    HW225551   8.044   3.796   7.941  1.0913  0.0774  0.7414
 7980SOL     OW25552   0.880   2.310   2.389 -0.7834  0.6221 -0.6685
 7980SOL    HW125553   0.852   2.397   2.418 -0.3220  0.4272  0.3792
 7980SOL    HW225554   0.802   2.273   2.348 -2.2315  0.0174  2.3550
 7981SOL     OW25555   7.565   4.553   9.118  0.1612  0.1555  0.3594
 7981SOL    HW125556   7.562   4.615   9.045 -1.3269  0.4312  0.6191
 7981SOL    HW225557   7.570   4.467   9.077  1.9784  0.3963 -0.0082
 7982SOL     OW25558   0.814   0.320   5.524 -0.3716  0.4104 -0.3209
 7982SOL    HW125559   0.885   0.306   5.461  0.2275  0.1865  0.3860
 7982SOL    HW225560   0.786   0.231   5.547  0.7645  0.3918  1.2018
 7983SOL     OW25561   0.957   9.545   6.295 -0.2329 -0.0943  0.4211
 7983SOL    HW125562   0.952   9.450   6.307 -0.1648 -0.2867 -0.8909
 7983SOL    HW225563   1.047   9.560   6.264  0.3352  0.6280  2.2885
 7984SOL     OW25564   6.632   8.428   5.141  1.3481  0.3559 -0.2507
 7984SOL    HW125565   6.687   8.407   5.216 -2.2465 -1.7958  2.0434
 7984SOL    HW225566   6.604   8.518   5.157  0.8189  0.0023  0.9027
 7985SOL     OW25567   7.458   9.113   6.719  0.0440  0.0508  0.7298
 7985SOL    HW125568   7.516   9.038   6.702  0.0548  0.4348 -1.0927
 7985SOL    HW225569   7.517   9.184   6.742  0.2682  0.2703 -0.4855
 7986SOL     OW25570   3.876   6.279   1.355 -0.5510 -0.6386 -0.0316
 7986SOL    HW125571   3.806   6.316   1.408 -0.3325  0.8123 -0.6957
 7986SOL    HW225572   3.945   6.345   1.357  0.4564 -1.6645 -0.0922
 7987SOL     OW25573   0.422   3.442   6.991  0.7706 -0.0181  0.4685
 7987SOL    HW125574   0.344   3.496   6.988  0.2938 -0.5703  1.9916
 7987SOL    HW225575   0.451   3.436   6.900  0.4618  2.1989  0.1572
 7988SOL     OW25576   1.651   8.483   6.340 -0.0348 -0.1840 -0.0719
 7988SOL    HW125577   1.717   8.429   6.297  0.0606  0.9841 -1.4860
 7988SOL    HW225578   1.699   8.535   6.405  0.1113 -0.6972  0.2335
 7989SOL     OW25579   5.562   7.387   6.110  0.3067  0.1888 -0.5264
 7989SOL    HW125580   5.467   7.376   6.100  0.2708 -0.9057  0.7793
 7989SOL    HW225581   5.596   7.378   6.020 -0.7093 -0.7621 -0.8434
 7990SOL     OW25582   8.113   1.592   5.070  0.1267  0.0779 -0.2076
 7990SOL    HW125583   8.126   1.564   4.979  0.0224  0.5475 -0.3701
 7990SOL    HW225584   8.172   1.537   5.120 -0.7435 -1.0765 -0.4107
 7991SOL     OW25585   6.132   7.365   8.039 -0.6867  0.1576 -0.0936
 7991SOL    HW125586   6.181   7.319   7.971 -0.5520  1.5081 -0.9335
 7991SOL    HW225587   6.114   7.298   8.105  0.5538 -0.8106 -0.7117
 7992SOL     OW25588   4.112   7.685   1.338  0.0501  0.7005  0.7355
 7992SOL    HW125589   4.056   7.610   1.318 -1.2369  1.7247  0.3137
 7992SOL    HW225590   4.169   7.694   1.262  0.8317 -0.3727  1.1783
 7993SOL     OW25591   7.272   6.198   3.387  0.5817  0.0087  0.3329
 7993SOL    HW125592   7.354   6.224   3.347  0.1808  0.0162 -0.4929
 7993SOL    HW225593   7.289   6.110   3.422  0.9051 -0.0423  0.0483
 7994SOL     OW25594   7.191   2.236   3.664  0.3143  0.0077  0.0085
 7994SOL    HW125595   7.192   2.146   3.630  1.0145  0.4042 -1.0888
 7994SOL    HW225596   7.278   2.270   3.642 -0.1619  1.1535 -0.1656
 7995SOL     OW25597   8.791   4.708   0.070  0.5080 -0.1146  0.0249
 7995SOL    HW125598   8.838   4.664   0.141 -0.2716  0.6315  1.0267
 7995SOL    HW225599   8.776   4.639   0.005 -0.2137 -1.2188  1.3089
 7996SOL     OW25600   7.431   8.634   8.761 -0.0882 -0.2338 -0.1574
 7996SOL    HW125601   7.422   8.609   8.853 -0.7056  2.5113  0.6363
 7996SOL    HW225602   7.523   8.618   8.740  0.8370  1.7538  1.9145
 7997SOL     OW25603   9.528   2.631   9.323 -0.8326  0.1589  0.3994
 7997SOL    HW125604   9.506   2.538   9.336  1.9332 -0.7756 -0.8102
 7997SOL    HW225605   9.463   2.662   9.261  0.0086 -1.9332 -1.6835
 7998SOL     OW25606   5.008   4.887   1.498  0.9805 -0.0226 -0.3336
 7998SOL    HW125607   4.922   4.890   1.540  1.1460 -0.6573  0.0625
 7998SOL    HW225608   5.021   4.975   1.464  1.0566  0.6575  1.3833
 7999SOL     OW25609   0.565   6.515   1.079  0.4740  0.2701 -0.4798
 7999SOL    HW125610   0.597   6.447   1.138 -1.0299  1.0777  1.3460
 7999SOL    HW225611   0.587   6.482   0.991  1.5214 -1.6222  0.4234
 8000SOL     OW25612   3.887   3.369   0.912  0.0271  0.1863  0.6301
 8000SOL    HW125613   3.820   3.334   0.971  0.8491 -1.0874  0.8607
 8000SOL    HW225614   3.926   3.291   0.872  1.4428  0.8795  0.5848
 8001SOL     OW25615   6.003   9.779   9.049  0.1054  0.0470  0.5709
 8001SOL    HW125616   6.086   9.731   9.040  1.0276  1.2750  1.9764
 8001SOL    HW225617   5.959   9.736   9.122 -0.2566 -0.2612  0.1752
 8002SOL     OW25618   0.646   7.221   7.914 -0.4605 -0.6942  0.4632
 8002SOL    HW125619   0.740   7.221   7.932 -0.4801  0.1929  0.5899
 8002SOL    HW225620   0.639   7.192   7.822 -0.1902 -2.4777  0.9672
 8003SOL     OW25621   6.677   1.186   8.457  0.1183 -0.0141  0.1745
 8003SOL    HW125622   6.764   1.151   8.441 -0.4743 -1.5412  0.1911
 8003SOL    HW225623   6.623   1.151   8.386 -0.5180  0.8100  0.2365
 8004SOL     OW25624   4.805   4.837   8.135  0.0618  0.1380 -0.5496
 8004SOL    HW125625   4.885   4.785   8.129  0.8931  1.4171 -0.8036
 8004SOL    HW225626   4.832   4.919   8.176 -0.6341  1.4953 -2.6479
 8005SOL     OW25627   6.554   5.351   2.392  0.4311 -0.4998  0.0649
 8005SOL    HW125628   6.578   5.261   2.416 -0.1676 -0.6464  0.1405
 8005SOL    HW225629   6.527   5.344   2.300 -0.0877 -0.4924  0.2147
 8006SOL     OW25630   5.168   5.862   4.365  0.1350 -0.6722 -0.6398
 8006SOL    HW125631   5.185   5.852   4.459  0.6703  1.1158 -0.5138
 8006SOL    HW225632   5.193   5.778   4.328  1.7544 -0.7925  0.5912
 8007SOL     OW25633   7.687   3.089   9.230  0.3123 -0.3694  0.2731
 8007SOL    HW125634   7.760   3.057   9.178 -0.4260  1.4736 -2.0392
 8007SOL    HW225635   7.660   3.014   9.283  3.0821 -1.4164  0.3400
 8008SOL     OW25636   8.118   4.822   8.977 -0.2045 -0.2289 -0.2615
 8008SOL    HW125637   8.160   4.903   9.008  0.1899 -0.0308 -1.2798
 8008SOL    HW225638   8.168   4.752   9.018 -1.7278  0.0037  2.1966
 8009SOL     OW25639   0.151   5.022   1.008  0.2513  0.5041 -0.2944
 8009SOL    HW125640   0.174   5.112   0.982 -1.2184  1.3079  1.0299
 8009SOL    HW225641   0.191   5.012   1.095 -1.0841  0.5374  0.3381
 8010SOL     OW25642   5.905   0.641   8.177  0.5548 -0.4745  0.0653
 8010SOL    HW125643   5.930   0.698   8.104  1.8117 -0.4161  0.5228
 8010SOL    HW225644   5.986   0.626   8.225 -0.3580  0.0329  1.8464
 8011SOL     OW25645   1.924   5.339   1.863 -0.0695  0.0307  0.6502
 8011SOL    HW125646   1.853   5.330   1.928  0.2286 -1.5086  0.7855
 8011SOL    HW225647   1.922   5.432   1.840 -1.2990  0.2794  1.6016
 8012SOL     OW25648   6.713   4.670   9.837 -0.2560  0.0562  0.1901
 8012SOL    HW125649   6.648   4.656   9.907 -0.5114 -1.4506 -0.3022
 8012SOL    HW225650   6.700   4.596   9.777  0.0127  1.2672 -1.4273
 8013SOL     OW25651   2.678   1.599   2.500  0.5301 -0.2185  0.0424
 8013SOL    HW125652   2.695   1.644   2.583  1.1913  0.0545 -0.2367
 8013SOL    HW225653   2.764   1.565   2.473 -0.0608 -2.3178  0.6226
 8014SOL     OW25654   1.080   6.879   7.275  0.6054  0.6799  0.0738
 8014SOL    HW125655   1.125   6.885   7.359  1.5311  1.1839 -0.4489
 8014SOL    HW225656   1.115   6.800   7.234 -0.9431 -0.4232  0.7703
 8015SOL     OW25657   9.355   2.069   6.619  0.2269  0.0493  0.1693
 8015SOL    HW125658   9.268   2.108   6.627  0.3345 -0.0343  2.2542
 8015SOL    HW225659   9.406   2.109   6.689  1.8719  0.0165 -0.9376
 8016SOL     OW25660   8.974   5.889   8.729  0.2540 -0.2146 -0.2002
 8016SOL    HW125661   9.049   5.940   8.700 -0.2633 -0.1119 -1.4188
 8016SOL    HW225662   8.900   5.950   8.725  0.1499 -0.1904  1.3953
 8017SOL     OW25663   5.054   1.626   4.338 -0.4053  0.2501 -0.4885
 8017SOL    HW125664   5.017   1.695   4.393  0.0811  0.6425 -0.6409
 8017SOL    HW225665   5.141   1.611   4.374 -0.4654 -0.1986 -0.5333
 8018SOL     OW25666   8.630   5.182   9.253 -0.0761  0.0484  0.4055
 8018SOL    HW125667   8.710   5.229   9.232 -0.9214  1.1002 -0.5864
 8018SOL    HW225668   8.598   5.151   9.168 -0.9911  0.1083  0.7195
 8019SOL     OW25669   2.698   5.644   5.798  0.6774  0.4545 -0.3423
 8019SOL    HW125670   2.640   5.606   5.732  1.0710  1.4231 -1.2657
 8019SOL    HW225671   2.784   5.607   5.778  1.0139  1.5987 -1.0896
 8020SOL     OW25672   4.256   9.221   2.068 -0.2649 -0.2598 -0.1419
 8020SOL    HW125673   4.330   9.231   2.009 -1.7148  2.1976 -1.7053
 8020SOL    HW225674   4.283   9.265   2.148 -0.5352  2.1397 -1.2791
 8021SOL     OW25675   0.672   0.887   7.664 -0.2266 -0.4515 -0.8831
 8021SOL    HW125676   0.722   0.955   7.709 -1.4620  0.9902 -1.6164
 8021SOL    HW225677   0.718   0.876   7.580  0.7587 -1.5358 -0.2375
 8022SOL     OW25678   7.224   9.106   2.325 -0.0250 -0.4605 -0.7074
 8022SOL    HW125679   7.219   9.196   2.358 -1.4511 -0.3755 -1.1089
 8022SOL    HW225680   7.288   9.063   2.382  1.7915  1.1626 -1.3954
 8023SOL     OW25681   0.112   6.127   2.301  0.3447  0.1381  0.0543
 8023SOL    HW125682   0.163   6.138   2.381  0.0612 -0.7996  0.3742
 8023SOL    HW225683   0.057   6.051   2.318  1.4131 -1.0692 -1.5959
 8024SOL     OW25684   8.883   5.980   4.156 -0.2723  0.6068 -1.1419
 8024SOL    HW125685   8.928   5.955   4.076 -2.3699  0.2372 -2.2926
 8024SOL    HW225686   8.835   5.901   4.182  0.8794  0.4958  0.9166
 8025SOL     OW25687   7.694   3.785   1.174 -0.2878  0.1309  0.6355
 8025SOL    HW125688   7.631   3.733   1.123  0.6695 -2.2719  1.7428
 8025SOL    HW225689   7.649   3.803   1.256  0.0508 -0.6698  1.0093
 8026SOL     OW25690   5.334   8.103   6.798 -0.3040  0.9872  0.2036
 8026SOL    HW125691   5.310   8.055   6.877 -0.4291  0.3869 -0.1891
 8026SOL    HW225692   5.428   8.090   6.790  0.1725  3.0935  1.5796
 8027SOL     OW25693   0.588   0.792   4.033  0.3127  0.3014 -0.5247
 8027SOL    HW125694   0.564   0.848   3.959 -1.5175 -0.3001 -0.4336
 8027SOL    HW225695   0.578   0.848   4.110  1.0809  0.5821 -0.6118
 8028SOL     OW25696   8.648   9.788   1.103  0.0285 -0.4191 -0.4731
 8028SOL    HW125697   8.740   9.784   1.078  0.1556  2.3918 -0.7579
 8028SOL    HW225698   8.648   9.788   1.198  0.4081  0.6447 -0.4704
 8029SOL     OW25699   4.363   5.915   2.147  0.3383  0.4406 -0.6567
 8029SOL    HW125700   4.299   5.884   2.082  0.8733 -0.6465 -0.6851
 8029SOL    HW225701   4.409   5.986   2.102  0.2843  0.1108 -1.2530
 8030SOL     OW25702   5.582   6.607   3.244 -0.2842 -0.5808 -0.2995
 8030SOL    HW125703   5.653   6.666   3.270  0.7072 -2.0120  0.3448
 8030SOL    HW225704   5.539   6.653   3.171  0.2411  1.0660  0.3677
 8031SOL     OW25705   3.109   1.387   9.210 -0.2771  0.2835  0.5274
 8031SOL    HW125706   3.021   1.350   9.205 -0.6596  0.8474  2.3790
 8031SOL    HW225707   3.095   1.482   9.213  0.3842  0.3683  1.0847
 8032SOL     OW25708   0.006   0.993   1.572  0.4399  0.0597  0.0877
 8032SOL    HW125709   0.057   0.915   1.593 -0.2910 -0.2789  0.6280
 8032SOL    HW225710   0.072   1.060   1.553  1.1087 -1.0999 -2.0683
 8033SOL     OW25711   6.897   3.981   4.937 -0.2648 -0.2815  0.2487
 8033SOL    HW125712   6.935   4.056   4.984  0.5195  0.0695 -0.9077
 8033SOL    HW225713   6.815   4.014   4.901  0.9882  0.6681 -1.9022
 8034SOL     OW25714   8.436   6.784   2.680  0.5415  0.3762  0.3637
 8034SOL    HW125715   8.497   6.712   2.667 -0.2857 -0.7271  2.1596
 8034SOL    HW225716   8.352   6.751   2.647  0.7083  1.6455 -1.5011
 8035SOL     OW25717   2.618   1.947   5.389  0.6952  0.0112 -0.1141
 8035SOL    HW125718   2.585   1.991   5.467 -3.4416 -0.5467 -1.3118
 8035SOL    HW225719   2.615   2.013   5.320  0.0949 -0.5884 -0.6803
 8036SOL     OW25720   0.727   9.726   7.083 -0.4547  0.1824  0.3117
 8036SOL    HW125721   0.672   9.667   7.134 -0.5047 -1.3949 -1.4234
 8036SOL    HW225722   0.671   9.802   7.064 -0.5014  0.6883  2.3138
 8037SOL     OW25723   1.654   7.605   2.517 -0.2897 -0.5402  0.3121
 8037SOL    HW125724   1.644   7.665   2.442 -0.6114  1.4083  1.8397
 8037SOL    HW225725   1.566   7.574   2.535 -0.2020 -1.0691 -0.1223
 8038SOL     OW25726   5.342   0.680   3.935  0.4278 -0.2758 -0.2824
 8038SOL    HW125727   5.391   0.762   3.930 -0.0292 -0.0567 -1.6402
 8038SOL    HW225728   5.329   0.665   4.029  1.4454  0.6327  0.0196
 8039SOL     OW25729   8.365   0.810   2.528 -0.7953  0.2452  0.5447
 8039SOL    HW125730   8.448   0.854   2.548 -0.7312  1.1063 -1.3934
 8039SOL    HW225731   8.374   0.783   2.437 -2.9640  1.1543 -0.0008
 8040SOL     OW25732   3.434   1.050   3.755 -0.3778 -0.3756  0.1656
 8040SOL    HW125733   3.496   1.104   3.706 -0.3974  0.1516  0.7023
 8040SOL    HW225734   3.355   1.049   3.701 -0.3481  0.0723  0.1050
 8041SOL     OW25735   8.813   1.381   3.915  0.4094  0.4289  0.0005
 8041SOL    HW125736   8.890   1.353   3.965  0.9604 -1.0005 -1.5797
 8041SOL    HW225737   8.834   1.362   3.824 -1.5282  0.7128 -0.5600
 8042SOL     OW25738   8.933   6.373   7.811 -0.0584 -0.3218 -0.1783
 8042SOL    HW125739   8.841   6.371   7.838 -0.0583 -1.2006 -0.2189
 8042SOL    HW225740   8.943   6.458   7.768 -0.4659  0.4420  1.1436
 8043SOL     OW25741   2.145   1.943   1.214  0.4230  0.0232 -0.0422
 8043SOL    HW125742   2.095   2.013   1.172  1.6557  0.4482 -0.8540
 8043SOL    HW225743   2.155   1.971   1.305  0.9916  0.9793 -0.3848
 8044SOL     OW25744   0.926   4.453   2.147 -0.3211 -0.1460  0.2996
 8044SOL    HW125745   0.887   4.381   2.098  0.1909 -0.4187  0.2863
 8044SOL    HW225746   0.938   4.523   2.082 -0.0753 -0.3402  0.1337
 8045SOL     OW25747   8.254   0.094   6.848  0.3673  0.1132 -0.3005
 8045SOL    HW125748   8.264   0.075   6.755 -0.8564  0.5458 -0.5366
 8045SOL    HW225749   8.270   0.011   6.892  0.1950 -0.2650 -0.9458
 8046SOL     OW25750   0.832   8.467   0.629  0.2815  0.1235 -0.0539
 8046SOL    HW125751   0.789   8.386   0.603  0.0222  0.2968 -0.1667
 8046SOL    HW225752   0.861   8.452   0.719 -0.8366  0.3404  0.3476
 8047SOL     OW25753   4.127   5.256   7.480 -0.3219  0.6466 -0.4684
 8047SOL    HW125754   4.192   5.301   7.534  0.4065  0.0073 -0.7998
 8047SOL    HW225755   4.168   5.172   7.458 -2.6706 -1.5355  2.4933
 8048SOL     OW25756   5.132   1.748   5.079 -0.0626 -0.2890  0.5877
 8048SOL    HW125757   5.055   1.728   5.026  0.1460  0.2513  0.0756
 8048SOL    HW225758   5.194   1.788   5.018  0.2113  0.2767  1.2240
 8049SOL     OW25759   5.671   6.755   8.741 -0.0768 -0.0884  0.0248
 8049SOL    HW125760   5.651   6.723   8.829  1.3659 -1.2311 -0.0306
 8049SOL    HW225761   5.607   6.711   8.685 -1.4397  1.1507  0.5248
 8050SOL     OW25762   0.656   3.816   5.932  0.2240 -0.0532 -0.0548
 8050SOL    HW125763   0.599   3.813   5.855 -0.2000  2.2259  0.1164
 8050SOL    HW225764   0.613   3.760   5.997 -0.1547 -0.8435 -0.9549
 8051SOL     OW25765   0.775   8.122   2.236 -0.2940 -0.2234  0.0624
 8051SOL    HW125766   0.699   8.174   2.262 -0.4107 -1.0018  1.3344
 8051SOL    HW225767   0.753   8.032   2.260 -0.0472 -0.8923 -2.0180
 8052SOL     OW25768   8.035   2.281   0.327  0.3086  0.1267 -0.0366
 8052SOL    HW125769   8.108   2.333   0.361  0.5621 -0.4348  0.2905
 8052SOL    HW225770   8.059   2.263   0.236  1.0050 -0.7880  0.3116
 8053SOL     OW25771   8.078   4.679   6.157  0.7313 -0.1347  0.0445
 8053SOL    HW125772   8.088   4.588   6.129  1.6849 -0.3709  1.0581
 8053SOL    HW225773   8.016   4.675   6.230  0.0365  0.1723 -0.5116
 8054SOL     OW25774   5.870   7.695   9.465 -0.2575 -0.0368  0.4034
 8054SOL    HW125775   5.875   7.772   9.408  0.3407 -0.6320 -0.3747
 8054SOL    HW225776   5.779   7.693   9.496  0.0991  1.8844  1.7493
 8055SOL     OW25777   9.798   1.416   7.197 -0.2502 -0.2746 -0.5375
 8055SOL    HW125778   9.752   1.339   7.229 -0.7434  0.2170 -0.0431
 8055SOL    HW225779   9.854   1.443   7.270 -1.1371  0.6605 -0.1804
 8056SOL     OW25780   1.748   0.826   2.020  0.3671 -0.6108  0.1327
 8056SOL    HW125781   1.779   0.803   1.933 -1.2430 -0.6340 -0.4781
 8056SOL    HW225782   1.827   0.841   2.072  1.3457 -0.5596 -1.3396
 8057SOL     OW25783   1.757   6.315   9.246 -0.7398  0.4187  0.4203
 8057SOL    HW125784   1.791   6.291   9.160  0.4468  1.3364  0.6052
 8057SOL    HW225785   1.707   6.239   9.274  0.1826 -0.5223 -0.3949
 8058SOL     OW25786   0.362   1.868   6.729  0.1062  0.0041  0.4990
 8058SOL    HW125787   0.268   1.851   6.734 -0.3257  1.6232 -1.0079
 8058SOL    HW225788   0.387   1.889   6.819 -1.0345 -0.1660  0.8767
 8059SOL     OW25789   8.196   0.565   1.158 -0.7115  0.7464  0.2433
 8059SOL    HW125790   8.109   0.604   1.160 -0.9339  0.3478 -0.7849
 8059SOL    HW225791   8.206   0.523   1.243 -0.6302  2.6383  1.2297
 8060SOL     OW25792   2.579   3.259   8.498  0.0627 -0.2883 -0.0879
 8060SOL    HW125793   2.542   3.229   8.580 -2.2659 -1.4705 -1.4699
 8060SOL    HW225794   2.590   3.179   8.446 -0.2629  0.6046 -1.5841
 8061SOL     OW25795   6.060   2.424   8.972  0.5683  0.2291 -0.0042
 8061SOL    HW125796   6.142   2.472   8.959  0.0267  0.8179 -1.4709
 8061SOL    HW225797   6.057   2.361   8.899 -1.0663  1.3881 -1.0031
 8062SOL     OW25798   2.092   3.340   4.535 -0.5164 -0.0414  0.3570
 8062SOL    HW125799   2.182   3.366   4.555 -0.1728  0.7066 -1.9039
 8062SOL    HW225800   2.095   3.245   4.530 -0.3507 -0.1776  2.3454
 8063SOL     OW25801   7.374   0.069   3.179  0.1916 -0.1721 -0.1270
 8063SOL    HW125802   7.316   0.126   3.128 -2.2774 -2.6171 -0.3273
 8063SOL    HW225803   7.461   0.083   3.141 -0.5165  2.4098 -1.0091
 8064SOL     OW25804   2.450   3.541   8.678 -0.7086  0.2794 -0.1636
 8064SOL    HW125805   2.519   3.506   8.622 -0.3209 -0.2464  0.6226
 8064SOL    HW225806   2.392   3.588   8.618  1.1951  2.1862 -0.6636
 8065SOL     OW25807   1.949   5.240   7.923 -0.1639  0.3446 -0.1276
 8065SOL    HW125808   1.965   5.211   8.012 -1.0154 -0.7544 -0.3080
 8065SOL    HW225809   1.999   5.180   7.868 -0.5884  0.2589 -0.4303
 8066SOL     OW25810   3.003   7.385   0.408 -0.7480 -0.2672  0.3204
 8066SOL    HW125811   3.027   7.477   0.421 -0.9066 -0.0484 -0.7946
 8066SOL    HW225812   2.908   7.386   0.397 -0.6257 -0.3927 -0.8977
 8067SOL     OW25813   6.310   2.644   8.083  0.1634  0.2324  0.3833
 8067SOL    HW125814   6.270   2.691   8.010 -0.0043 -1.9129 -1.0175
 8067SOL    HW225815   6.348   2.712   8.139 -1.5409  2.0662 -0.5912
 8068SOL     OW25816   7.511   0.240   3.597 -0.0401  0.6444 -0.6009
 8068SOL    HW125817   7.576   0.241   3.527  1.3160  1.5065  0.6195
 8068SOL    HW225818   7.502   0.148   3.620  0.0304  0.4281 -1.3891
 8069SOL     OW25819   1.775   6.456   3.839 -0.2658  0.0075  0.2089
 8069SOL    HW125820   1.812   6.368   3.831 -0.4643  0.0349 -1.4297
 8069SOL    HW225821   1.839   6.512   3.794 -0.0198  0.7576  1.4409
 8070SOL     OW25822   6.597   7.500   3.854  0.1978 -0.9068 -0.2993
 8070SOL    HW125823   6.608   7.507   3.759 -0.3438 -1.7083 -0.4293
 8070SOL    HW225824   6.667   7.441   3.882  0.0455 -1.0794 -0.2775
 8071SOL     OW25825   0.426   8.010   4.438 -0.3038 -0.2892 -0.7684
 8071SOL    HW125826   0.390   8.090   4.400  1.2959  1.0253  0.3558
 8071SOL    HW225827   0.463   8.038   4.522 -0.5068 -2.4023  0.0767
 8072SOL     OW25828   1.140   4.919   4.681 -0.0060  0.5446  0.4323
 8072SOL    HW125829   1.182   4.999   4.649  2.0011 -0.4318  0.4415
 8072SOL    HW225830   1.169   4.851   4.619 -1.0311 -0.3149  0.8680
 8073SOL     OW25831   1.005   9.709   0.664  0.3745  0.4578 -0.4740
 8073SOL    HW125832   0.951   9.751   0.597 -0.5086  1.8805  1.0378
 8073SOL    HW225833   0.997   9.616   0.646 -2.0441  0.6477 -0.7962
 8074SOL     OW25834   8.242   5.852   7.177  0.4088  0.2775  0.1631
 8074SOL    HW125835   8.335   5.843   7.195  0.4013  0.6033  0.3652
 8074SOL    HW225836   8.231   5.944   7.154  0.2683  0.0715 -0.6247
 8075SOL     OW25837   6.138   2.392   9.787  0.2754 -0.0373  0.0743
 8075SOL    HW125838   6.102   2.303   9.790 -1.1317  0.5327  1.0145
 8075SOL    HW225839   6.080   2.439   9.727  1.3917  0.1173 -0.9245
 8076SOL     OW25840   4.912   2.792   9.614 -0.2245  0.3247 -0.0835
 8076SOL    HW125841   4.825   2.761   9.591  0.2074  0.1276 -1.5950
 8076SOL    HW225842   4.972   2.732   9.569  0.6940  0.5374  0.8092
 8077SOL     OW25843   3.412   4.902   4.885 -0.1861  0.1830 -0.7506
 8077SOL    HW125844   3.389   4.834   4.948 -0.8361  0.3959 -0.7554
 8077SOL    HW225845   3.485   4.949   4.926 -1.8126  1.5453  0.7383
 8078SOL     OW25846   7.377   1.361   0.307  0.3598 -0.2081 -0.3251
 8078SOL    HW125847   7.432   1.420   0.256  0.6849 -1.0679 -0.9865
 8078SOL    HW225848   7.425   1.279   0.311  0.5150 -0.0867  1.6859
 8079SOL     OW25849   4.423   4.619   6.115  0.7600 -0.1360  0.0727
 8079SOL    HW125850   4.411   4.623   6.021  0.0625  0.3700  0.1753
 8079SOL    HW225851   4.398   4.530   6.139 -1.9806  0.5423  0.1365
 8080SOL     OW25852   5.342   4.035   1.766 -0.9416 -0.2452 -0.1305
 8080SOL    HW125853   5.304   4.121   1.749 -0.0046  0.3149  0.4881
 8080SOL    HW225854   5.356   3.998   1.679  0.9129  1.2844 -0.5632
 8081SOL     OW25855   4.142   7.800   5.958  0.0811 -0.3484  0.2045
 8081SOL    HW125856   4.080   7.860   5.918  1.9442  1.7709  0.3277
 8081SOL    HW225857   4.228   7.830   5.928  1.2459 -1.5666  2.0788
 8082SOL     OW25858   0.789   1.295   2.923  0.0164 -0.3572  0.3369
 8082SOL    HW125859   0.751   1.218   2.966  0.9216 -0.5446  0.8386
 8082SOL    HW225860   0.875   1.264   2.892  0.6175  0.5955  1.0124
 8083SOL     OW25861   8.323   7.655   3.507 -0.1642  0.0024 -0.4027
 8083SOL    HW125862   8.250   7.700   3.551 -0.8386 -1.1954 -0.2472
 8083SOL    HW225863   8.280   7.604   3.438  0.2578 -2.2666  0.9131
 8084SOL     OW25864   4.368   1.878   4.639  0.2051 -0.5132 -0.3861
 8084SOL    HW125865   4.332   1.965   4.656 -0.4563 -0.3785 -2.1988
 8084SOL    HW225866   4.440   1.869   4.701 -0.4559  0.8449  0.6306
 8085SOL     OW25867   8.050   8.858   5.067  0.7190  0.0246  0.2848
 8085SOL    HW125868   8.061   8.888   5.157  2.1412  0.3520  0.0354
 8085SOL    HW225869   8.023   8.767   5.075 -0.2424  0.3590  1.0335
 8086SOL     OW25870   8.413   6.688   1.758  0.0161 -0.2748  0.4353
 8086SOL    HW125871   8.320   6.703   1.773  0.0320 -0.7437  1.0107
 8086SOL    HW225872   8.457   6.723   1.835  0.6289  2.9712 -1.1927
 8087SOL     OW25873   1.495   4.046   4.919 -0.2233  0.5561  0.1251
 8087SOL    HW125874   1.443   4.113   4.964 -1.1790  0.5943 -0.9823
 8087SOL    HW225875   1.479   4.062   4.826  0.3558 -0.5670 -0.1834
 8088SOL     OW25876   3.887   8.529   3.555 -0.4794  0.0520  0.5906
 8088SOL    HW125877   3.886   8.616   3.595 -0.9295 -0.2231  1.1975
 8088SOL    HW225878   3.977   8.498   3.567 -0.6087 -0.0305  1.4151
 8089SOL     OW25879   9.646   9.127   9.320 -0.1965  0.0824  0.4880
 8089SOL    HW125880   9.637   9.045   9.271  0.2835  0.4122 -0.1647
 8089SOL    HW225881   9.563   9.135   9.368 -1.3616  0.5746 -1.5244
 8090SOL     OW25882   0.101   7.419   7.136 -0.4043 -0.1730  0.6762
 8090SOL    HW125883   0.022   7.397   7.086 -0.8124  0.6965  0.9336
 8090SOL    HW225884   0.084   7.386   7.224  1.0600 -3.4406 -0.0664
 8091SOL     OW25885   7.802   7.604   6.904  0.3726 -0.0244 -0.6106
 8091SOL    HW125886   7.773   7.694   6.887 -1.1283 -0.4579 -0.4815
 8091SOL    HW225887   7.828   7.570   6.819 -0.2664  0.1360 -0.8774
 8092SOL     OW25888   6.147   6.266   6.275  0.5571 -0.5654  0.5575
 8092SOL    HW125889   6.081   6.210   6.233  1.1916 -0.0278 -1.2417
 8092SOL    HW225890   6.218   6.206   6.298  1.2805 -0.5699 -1.4572
 8093SOL     OW25891   4.239   3.961   9.424 -0.2529  0.1169  0.2933
 8093SOL    HW125892   4.198   3.968   9.337 -1.5285 -0.8422  0.7859
 8093SOL    HW225893   4.325   3.924   9.406 -0.8506 -0.9525 -0.5136
 8094SOL     OW25894   4.288   8.611   8.360 -0.1357  0.1635  0.2420
 8094SOL    HW125895   4.223   8.587   8.294  1.6601 -3.1590 -0.6101
 8094SOL    HW225896   4.371   8.612   8.311  0.8312  1.1675  1.8321
 8095SOL     OW25897   0.786   9.506   9.573  0.2638 -0.3905  0.2345
 8095SOL    HW125898   0.873   9.539   9.598 -0.0397 -0.1066  0.9406
 8095SOL    HW225899   0.730   9.528   9.647 -0.3736 -0.7517 -0.1331
 8096SOL     OW25900   2.249   8.037   2.964 -0.3573 -0.5109  0.2020
 8096SOL    HW125901   2.299   8.089   2.901  0.3467 -0.1316  1.0492
 8096SOL    HW225902   2.158   8.059   2.946 -0.1173  0.2821 -0.0810
 8097SOL     OW25903   9.824   7.923   3.269  0.3028 -0.2337  0.1892
 8097SOL    HW125904   9.735   7.947   3.294 -0.2444 -0.3247 -1.5332
 8097SOL    HW225905   9.871   7.915   3.352 -1.2594 -0.0935  1.1260
 8098SOL     OW25906   1.063   5.649   9.468  0.4885  0.3171  0.2452
 8098SOL    HW125907   0.971   5.639   9.441  0.8126  0.3965 -0.9351
 8098SOL    HW225908   1.071   5.594   9.546 -0.1937 -0.9274 -0.5243
 8099SOL     OW25909   0.558   7.323   6.415 -0.3078 -0.3719 -0.1138
 8099SOL    HW125910   0.572   7.412   6.448  0.1979 -0.7287  0.6765
 8099SOL    HW225911   0.565   7.332   6.320  0.1625  0.3672 -0.0234
 8100SOL     OW25912   7.938   6.344   3.237 -0.5819 -0.0911  0.1116
 8100SOL    HW125913   7.976   6.257   3.226  0.3844  0.4371 -0.8375
 8100SOL    HW225914   7.967   6.372   3.324  0.5528 -0.0233 -0.2736
 8101SOL     OW25915   5.495   2.319   6.320 -0.4225  0.5303  0.3576
 8101SOL    HW125916   5.405   2.325   6.289 -1.1696  1.8669  2.5748
 8101SOL    HW225917   5.500   2.236   6.366 -0.5820  0.5753  0.4533
 8102SOL     OW25918   6.281   6.427   0.330 -0.5662  0.4535 -0.5026
 8102SOL    HW125919   6.353   6.467   0.380  0.0634  1.6402 -2.2476
 8102SOL    HW225920   6.204   6.478   0.354 -0.5430  0.1536  0.2377
 8103SOL     OW25921   6.599   5.393   2.769  0.4591  0.1033  0.1471
 8103SOL    HW125922   6.606   5.349   2.684 -0.1995  0.2376  0.0215
 8103SOL    HW225923   6.684   5.377   2.811  1.6408  1.7826 -1.3982
 8104SOL     OW25924   7.424   6.137   9.612 -0.0739  0.1187 -0.3521
 8104SOL    HW125925   7.371   6.211   9.582  1.1102  0.9592 -0.4558
 8104SOL    HW225926   7.387   6.115   9.698 -0.2487  1.0410 -0.1761
 8105SOL     OW25927   7.788   6.235   4.591 -0.2961  0.1040 -0.2746
 8105SOL    HW125928   7.841   6.306   4.626 -1.3157 -0.3053  2.3045
 8105SOL    HW225929   7.724   6.279   4.535  0.9974  0.8558 -1.2169
 8106SOL     OW25930   8.490   8.981   6.384 -0.0754  0.1107  0.4384
 8106SOL    HW125931   8.487   9.006   6.292 -1.2449  0.0366  0.4403
 8106SOL    HW225932   8.411   9.019   6.422 -0.4739 -1.2461  1.0368
 8107SOL     OW25933   6.361   8.785   8.358 -0.1647 -0.1246 -0.2760
 8107SOL    HW125934   6.305   8.811   8.432 -0.2673  0.0310 -0.4087
 8107SOL    HW225935   6.447   8.820   8.380 -0.3126  0.3712 -0.4785
 8108SOL     OW25936   6.508   9.811   9.506 -0.1596  0.6273 -0.2779
 8108SOL    HW125937   6.473   9.882   9.454 -0.5547  0.5317 -0.1460
 8108SOL    HW225938   6.444   9.740   9.498 -0.5174  0.8073  0.7834
 8109SOL     OW25939   5.432   0.106   5.142 -0.1416  0.8800 -0.6630
 8109SOL    HW125940   5.470   0.165   5.077 -0.4491  0.1484 -1.5262
 8109SOL    HW225941   5.367   0.055   5.094 -0.6523  0.5860  0.3061
 8110SOL     OW25942   0.789   4.150   4.828 -0.1107  0.1713  0.1660
 8110SOL    HW125943   0.857   4.114   4.886 -0.2318 -0.0880  0.1509
 8110SOL    HW225944   0.707   4.116   4.865 -0.3185  1.3187  0.7952
 8111SOL     OW25945   3.599   7.878   7.954 -0.3735 -0.5340  0.5343
 8111SOL    HW125946   3.619   7.786   7.971  0.9257 -0.0635  1.7677
 8111SOL    HW225947   3.680   7.913   7.915 -1.1362 -0.0850 -0.7067
 8112SOL     OW25948   4.376   6.487   5.178  0.5175  0.5943 -0.4238
 8112SOL    HW125949   4.369   6.404   5.130  0.4666  0.2334  0.2038
 8112SOL    HW225950   4.285   6.512   5.193  0.5175 -0.1317  0.9106
 8113SOL     OW25951   1.063   2.362   9.566  0.0318 -0.4952 -0.3890
 8113SOL    HW125952   1.014   2.309   9.503  1.8555 -1.5385 -1.0012
 8113SOL    HW225953   1.008   2.439   9.581 -1.1194 -0.9326 -2.1120
 8114SOL     OW25954   0.395   5.168   7.541 -0.2502 -0.2285 -0.1978
 8114SOL    HW125955   0.389   5.192   7.633 -1.1719 -2.3207  0.3555
 8114SOL    HW225956   0.476   5.117   7.534 -0.0392  0.1531 -0.6137
 8115SOL     OW25957   8.583   9.103   9.833  0.2697 -0.1966  0.3163
 8115SOL    HW125958   8.623   9.079   9.917  1.4849 -0.7749 -0.4065
 8115SOL    HW225959   8.653   9.092   9.769 -0.2632  1.5325 -0.6112
 8116SOL     OW25960   5.915   7.005   0.299  0.1331  0.6552  0.5269
 8116SOL    HW125961   5.833   7.036   0.260 -0.1811  1.6448  1.9036
 8116SOL    HW225962   5.980   7.070   0.272  0.7351 -0.6272 -1.3622
 8117SOL     OW25963   6.393   0.432   7.554 -0.0243 -0.2126  0.0164
 8117SOL    HW125964   6.350   0.365   7.501  0.7793 -0.6733 -0.0800
 8117SOL    HW225965   6.455   0.384   7.609  0.7339  0.4553 -0.2149
 8118SOL     OW25966   1.693   6.676   4.718  0.3377 -0.5037 -0.2703
 8118SOL    HW125967   1.657   6.597   4.678 -0.8371 -0.4304  0.5813
 8118SOL    HW225968   1.729   6.646   4.802  3.7113 -0.8498 -1.6592
 8119SOL     OW25969   0.169   9.751   3.477 -0.4055  0.8479  0.2024
 8119SOL    HW125970   0.237   9.704   3.430  0.1000  1.5209  0.2424
 8119SOL    HW225971   0.159   9.834   3.430  0.5607  1.8204  1.6046
 8120SOL     OW25972   2.156   9.009   1.280 -0.0082  0.0829  0.4450
 8120SOL    HW125973   2.223   8.956   1.324  1.5459  2.7072  1.4468
 8120SOL    HW225974   2.109   9.053   1.351  2.5625  4.4256 -0.1899
 8121SOL     OW25975   3.374   4.720   5.523 -0.0149 -0.1735 -0.1227
 8121SOL    HW125976   3.420   4.651   5.570 -1.7990 -2.1077 -1.0237
 8121SOL    HW225977   3.320   4.673   5.460 -1.5519  2.0684 -0.5830
 8122SOL     OW25978   0.532   8.544   7.977 -0.3067 -0.0198  0.0766
 8122SOL    HW125979   0.467   8.592   7.926  2.1908  1.8881 -1.5766
 8122SOL    HW225980   0.527   8.454   7.944  1.0824  1.1008 -3.6135
 8123SOL     OW25981   1.650   1.413   1.695 -0.0875  0.4805  0.5289
 8123SOL    HW125982   1.567   1.452   1.666 -0.2780 -1.1917 -1.4157
 8123SOL    HW225983   1.716   1.456   1.640 -0.0782 -0.5411 -0.2729
 8124SOL     OW25984   5.016   8.789   9.819 -0.1828 -0.0298 -0.2364
 8124SOL    HW125985   4.950   8.764   9.754 -0.3526 -0.5849  0.1335
 8124SOL    HW225986   5.055   8.869   9.785 -1.4340  0.6277 -0.1905
 8125SOL     OW25987   5.884   5.540   1.754  0.3977  0.3482  0.3064
 8125SOL    HW125988   5.846   5.453   1.744  1.8779 -0.5919  2.1532
 8125SOL    HW225989   5.962   5.539   1.699  0.7043  0.3060  0.7350
 8126SOL     OW25990   5.176   4.448   2.558 -0.1885  0.5557 -0.4152
 8126SOL    HW125991   5.213   4.405   2.635 -3.6281  1.5106  2.0162
 8126SOL    HW225992   5.182   4.383   2.488  1.5473 -0.9941  1.0888
 8127SOL     OW25993   3.441   7.726   6.062 -0.0206  0.3622  0.3761
 8127SOL    HW125994   3.441   7.633   6.043 -1.7702  0.1934  1.0534
 8127SOL    HW225995   3.389   7.765   5.992  0.5664  0.8216  0.1836
 8128SOL     OW25996   3.484   0.106   5.426 -0.5613  0.0208  0.2863
 8128SOL    HW125997   3.467   0.191   5.384 -2.9625 -0.2498  0.5763
 8128SOL    HW225998   3.444   0.042   5.368  2.1733 -1.1150 -0.4929
 8129SOL     OW25999   5.325   6.804   8.713 -0.6927  0.2732  0.1536
 8129SOL    HW126000   5.402   6.777   8.664 -0.7201  1.6310 -0.7149
 8129SOL    HW226001   5.251   6.780   8.657 -0.7384  1.5617 -0.3801
 8130SOL     OW26002   1.896   6.353   1.679 -0.4261  0.0802 -0.1829
 8130SOL    HW126003   1.975   6.301   1.666 -0.2791  0.2887 -0.1278
 8130SOL    HW226004   1.924   6.444   1.664 -0.6245  0.1678 -0.0334
 8131SOL     OW26005   8.643   4.524   9.361 -0.5469 -0.0921  0.1802
 8131SOL    HW126006   8.694   4.587   9.310  0.0261 -2.3983 -2.2890
 8131SOL    HW226007   8.705   4.455   9.384 -1.2035  0.0455  2.6606
 8132SOL     OW26008   5.024   8.041   6.547  0.5063 -0.2459 -0.5047
 8132SOL    HW126009   4.951   8.086   6.504  1.7999  1.2382 -1.2267
 8132SOL    HW226010   5.023   7.953   6.510  0.7126  0.5577 -2.5523
 8133SOL     OW26011   6.542   3.433   5.067 -0.1948 -0.1164 -0.3667
 8133SOL    HW126012   6.500   3.351   5.094 -1.3219  0.1294 -1.2978
 8133SOL    HW226013   6.542   3.430   4.971  1.7715 -0.0068 -0.4247
 8134SOL     OW26014   0.431   4.047   7.045  0.1308  0.3563 -0.1165
 8134SOL    HW126015   0.454   4.137   7.069 -1.7454  0.1748  2.9022
 8134SOL    HW226016   0.355   4.056   6.988 -0.7338  0.7139  1.0623
 8135SOL     OW26017   9.631   0.704   6.533  0.1490  0.2021 -0.2155
 8135SOL    HW126018   9.668   0.627   6.491  0.3685 -0.0404  0.4138
 8135SOL    HW226019   9.673   0.778   6.489 -0.9143  0.0168 -1.6249
 8136SOL     OW26020   4.637   2.678   1.010  0.5185 -0.3212  0.4549
 8136SOL    HW126021   4.549   2.644   1.025  0.4975 -0.9811 -1.0120
 8136SOL    HW226022   4.636   2.765   1.051 -1.7158  0.8856 -1.8664
 8137SOL     OW26023   1.305   6.163   6.838  0.2247  0.3921  0.0830
 8137SOL    HW126024   1.347   6.104   6.776 -2.0604 -1.0419 -0.2183
 8137SOL    HW226025   1.225   6.117   6.864  0.1716  1.7651  2.6839
 8138SOL     OW26026   9.841   1.436   6.652 -0.0480 -0.3394  0.1066
 8138SOL    HW126027   9.809   1.526   6.660  0.4128  0.0325 -1.7137
 8138SOL    HW226028   9.765   1.381   6.671 -1.2216  0.4860 -1.8879
 8139SOL     OW26029   8.126   7.056   6.367 -0.5403 -0.4578 -0.1514
 8139SOL    HW126030   8.032   7.068   6.379 -0.3911  0.6985  0.0224
 8139SOL    HW226031   8.163   7.143   6.382  0.4945 -0.7645 -0.8178
 8140SOL     OW26032   0.878   5.771   3.964  0.5110  0.2477 -0.2401
 8140SOL    HW126033   0.947   5.752   4.028 -1.6243 -0.4637  2.0238
 8140SOL    HW226034   0.826   5.840   4.005 -1.5703 -0.9805 -0.6643
 8141SOL     OW26035   5.915   6.178   0.745  0.1549  0.2463  0.6190
 8141SOL    HW126036   5.836   6.221   0.712  1.9522  2.8853 -0.5994
 8141SOL    HW226037   5.946   6.236   0.815  1.6216 -0.1178  0.3038
 8142SOL     OW26038   1.972   9.537   6.342 -0.2551  0.2562 -0.0665
 8142SOL    HW126039   1.926   9.549   6.260  0.5554  0.1055 -0.5573
 8142SOL    HW226040   1.931   9.599   6.402 -1.0728  0.1295 -0.4857
 8143SOL     OW26041   7.530   6.482   5.048 -0.2949 -0.3068 -0.2577
 8143SOL    HW126042   7.614   6.477   5.002 -1.2091  2.4067 -2.5334
 8143SOL    HW226043   7.554   6.478   5.141  2.4555  0.8810 -0.7986
 8144SOL     OW26044   5.720   5.173   8.864 -0.0341 -0.3323 -0.2525
 8144SOL    HW126045   5.813   5.184   8.880  0.2026 -0.2386 -1.6523
 8144SOL    HW226046   5.714   5.106   8.796 -1.0129 -0.5940  0.0589
 8145SOL     OW26047   5.059   4.216   0.029  0.0638  0.2919  0.2266
 8145SOL    HW126048   4.985   4.188  -0.024 -0.9467  0.1128  1.7023
 8145SOL    HW226049   5.032   4.300   0.067  1.5114  1.3775 -0.9808
 8146SOL     OW26050   5.762   1.926   4.308  0.4786  0.4923  0.7254
 8146SOL    HW126051   5.701   1.873   4.358 -0.2032  1.3110  0.7852
 8146SOL    HW226052   5.842   1.874   4.304 -0.4596 -0.9327 -0.0118
 8147SOL     OW26053   3.802   0.434   9.822 -0.5801 -0.0501  0.0630
 8147SOL    HW126054   3.707   0.432   9.830 -0.7205 -0.5212 -1.4059
 8147SOL    HW226055   3.822   0.370   9.753  0.9109 -0.9020  1.2169
 8148SOL     OW26056   4.731   4.189   2.276 -0.2511 -0.1616 -0.1019
 8148SOL    HW126057   4.741   4.129   2.350 -2.4033 -0.6478 -0.1476
 8148SOL    HW226058   4.755   4.136   2.200 -0.3793 -0.3998  0.0206
 8149SOL     OW26059   2.072   4.230   0.874  0.0655  0.2104  0.2633
 8149SOL    HW126060   2.098   4.289   0.945  1.1606  0.1286 -0.0543
 8149SOL    HW226061   2.106   4.271   0.795  1.4765 -1.1711  0.1046
 8150SOL     OW26062   3.901   2.993   4.612  0.4078 -0.1261 -0.3114
 8150SOL    HW126063   3.867   2.914   4.655  0.5163 -0.0557 -0.0992
 8150SOL    HW226064   3.964   2.960   4.548  0.6298 -0.1987 -0.0581
 8151SOL     OW26065   0.302   5.557   5.601 -0.7957 -1.1313 -0.3900
 8151SOL    HW126066   0.313   5.578   5.508 -0.3923  0.4455 -0.0125
 8151SOL    HW226067   0.213   5.587   5.621 -0.5232 -0.5505 -0.0395
 8152SOL     OW26068   2.818   5.423   6.061 -0.0040  0.4805 -0.4540
 8152SOL    HW126069   2.904   5.387   6.085  0.4741  1.8930  0.0549
 8152SOL    HW226070   2.812   5.407   5.966  1.3276  1.3133 -0.7139
 8153SOL     OW26071   6.120   1.782   4.972 -0.3665  0.2395  0.5280
 8153SOL    HW126072   6.066   1.772   5.051  1.2247 -1.3530  1.4877
 8153SOL    HW226073   6.180   1.853   4.994 -0.8730  0.7981  0.1483
 8154SOL     OW26074   2.106   0.129   2.823  0.0414  0.0869  0.3620
 8154SOL    HW126075   2.124   0.213   2.782  0.1789 -0.7037 -1.2783
 8154SOL    HW226076   2.150   0.134   2.908  3.3329  0.3432 -1.1646
 8155SOL     OW26077   4.290   9.829   7.217 -0.2712  0.5353  0.3116
 8155SOL    HW126078   4.321   9.856   7.131  0.4515 -0.6931  0.1729
 8155SOL    HW226079   4.369   9.816   7.269 -0.6948  2.7538  1.6848
 8156SOL     OW26080   5.871   2.244   0.535 -0.2066  0.3169  0.1231
 8156SOL    HW126081   5.891   2.337   0.538 -0.7764  0.4351  0.4694
 8156SOL    HW226082   5.942   2.202   0.583 -0.8170  0.7370  1.4470
 8157SOL     OW26083   8.320   5.245   9.250  0.3085  0.0176 -0.3191
 8157SOL    HW126084   8.296   5.326   9.296  0.8643  0.4199 -0.7241
 8157SOL    HW226085   8.374   5.197   9.314 -2.2672 -1.3780  0.9966
 8158SOL     OW26086   3.868   5.461   2.327  0.4181  0.1186  0.1568
 8158SOL    HW126087   3.777   5.487   2.322  0.0272 -1.3510 -1.2169
 8158SOL    HW226088   3.898   5.458   2.236  1.8638  0.6215  0.5799
 8159SOL     OW26089   7.438   1.305   0.988 -0.5698 -0.3258  0.0915
 8159SOL    HW126090   7.525   1.343   1.002 -0.3568 -0.6219 -0.3926
 8159SOL    HW226091   7.425   1.246   1.062 -1.0838  0.9813  1.0845
 8160SOL     OW26092   6.478   4.339   7.475  0.3109 -0.3221  0.0669
 8160SOL    HW126093   6.456   4.246   7.471  0.0251 -0.2535  0.0236
 8160SOL    HW226094   6.429   4.378   7.402 -0.8853  0.1280  1.0684
 8161SOL     OW26095   8.980   9.060   4.761  0.6293  0.2045 -0.6656
 8161SOL    HW126096   8.949   9.134   4.814 -0.4855 -0.0025 -0.9893
 8161SOL    HW226097   8.904   9.036   4.708  1.1480 -0.8159 -0.9698
 8162SOL     OW26098   7.735   6.009   8.155  0.3111  0.4754 -0.0594
 8162SOL    HW126099   7.692   6.056   8.226 -1.1381 -1.7462  0.6517
 8162SOL    HW226100   7.694   6.042   8.075 -1.5642 -0.3992  0.4998
 8163SOL     OW26101   9.675   2.060   5.272 -0.2531  0.2999 -0.1040
 8163SOL    HW126102   9.607   1.991   5.276 -2.7276  2.3972 -2.1292
 8163SOL    HW226103   9.640   2.131   5.326 -0.7082  2.1507 -2.6628
 8164SOL     OW26104   3.502   4.311   8.554 -0.2288  0.5179  0.4023
 8164SOL    HW126105   3.560   4.334   8.481  0.6198 -0.1828  0.8350
 8164SOL    HW226106   3.547   4.344   8.632 -1.1003  1.2006  0.6262
 8165SOL     OW26107   9.417   1.032   8.731  0.0056  0.0821  1.0878
 8165SOL    HW126108   9.419   0.959   8.793 -0.2145 -1.0167 -0.1470
 8165SOL    HW226109   9.494   1.018   8.676 -0.2311  0.5774  0.6234
 8166SOL     OW26110   5.309   1.224   1.903  0.2395  0.5161 -0.9924
 8166SOL    HW126111   5.309   1.319   1.906  0.6914  0.4889  0.7722
 8166SOL    HW226112   5.395   1.198   1.938  0.2047 -0.5490 -1.6213
 8167SOL     OW26113   1.499   7.668   3.008 -0.3536  0.2584  0.1344
 8167SOL    HW126114   1.491   7.746   2.954 -2.5055 -1.1065 -1.7416
 8167SOL    HW226115   1.468   7.694   3.095  0.3972  1.8029 -0.0382
 8168SOL     OW26116   5.953   0.225   4.842  0.4092  0.9195  0.0086
 8168SOL    HW126117   5.872   0.175   4.843  0.2591  0.9983 -2.5753
 8168SOL    HW226118   5.945   0.283   4.766  2.8010  1.0214 -0.2422
 8169SOL     OW26119   8.478   9.581   4.593 -0.3848 -0.8090  0.4157
 8169SOL    HW126120   8.488   9.493   4.556  0.7253 -0.4155 -0.2628
 8169SOL    HW226121   8.452   9.566   4.684  0.1087 -1.8480  0.3994
 8170SOL     OW26122   3.100   9.124   3.888 -0.3348 -0.1405  0.4748
 8170SOL    HW126123   3.090   9.052   3.951  0.2212 -1.3735 -0.7756
 8170SOL    HW226124   3.116   9.201   3.942 -0.0417 -1.1183  1.8519
 8171SOL     OW26125   6.406   3.550   8.183  0.1390 -0.5936 -0.0514
 8171SOL    HW126126   6.467   3.476   8.185  1.9209  0.8353  0.7710
 8171SOL    HW226127   6.461   3.625   8.161 -1.2684  0.8014  1.0425
 8172SOL     OW26128   5.985   1.134   5.061 -0.2152 -0.0541 -0.7658
 8172SOL    HW126129   5.971   1.166   5.150 -0.5195 -1.0612 -0.4366
 8172SOL    HW226130   6.010   1.211   5.011 -2.3521  0.9947 -0.3364
 8173SOL     OW26131   9.402   8.293   3.068 -0.0598  0.1422 -0.2826
 8173SOL    HW126132   9.399   8.208   3.111  1.5924 -0.3832 -1.1297
 8173SOL    HW226133   9.487   8.330   3.094  0.7438  0.0392 -2.5967
 8174SOL     OW26134   7.047   7.701   4.487  0.2456 -0.3067  0.5523
 8174SOL    HW126135   7.139   7.704   4.511  0.4169 -1.2280  0.0551
 8174SOL    HW226136   7.046   7.657   4.401 -0.7550 -1.6400  1.2068
 8175SOL     OW26137   9.174   3.235   0.032  0.2776 -0.2255  0.0806
 8175SOL    HW126138   9.166   3.142   0.012  0.8954 -0.1125 -0.7702
 8175SOL    HW226139   9.158   3.241   0.126  1.0849 -1.3108  0.3160
 8176SOL     OW26140   6.952   6.267   4.035 -0.1767  0.0406  0.0901
 8176SOL    HW126141   6.865   6.308   4.032 -1.9087 -3.3067 -0.6360
 8176SOL    HW226142   6.985   6.274   3.945 -1.4896 -1.9820 -0.6078
 8177SOL     OW26143   7.806   7.208   5.183 -0.3327 -0.6746  0.5227
 8177SOL    HW126144   7.756   7.154   5.122  0.8044 -1.5684  0.3718
 8177SOL    HW226145   7.852   7.270   5.127 -2.1428  0.9686  0.7262
 8178SOL     OW26146   9.231   6.761   8.947  0.2481  0.1232  0.5734
 8178SOL    HW126147   9.137   6.776   8.957  0.1582 -0.7985  1.2197
 8178SOL    HW226148   9.271   6.804   9.022  0.2765 -0.1157  0.6959
 8179SOL     OW26149   3.868   6.117   7.469 -0.0674 -0.4560 -0.2074
 8179SOL    HW126150   3.785   6.070   7.482 -0.3700  0.1564  0.1246
 8179SOL    HW226151   3.880   6.118   7.374 -1.7098  1.5399 -0.4748
 8180SOL     OW26152   2.610   3.875   1.580 -0.2958  0.0222 -0.1112
 8180SOL    HW126153   2.561   3.857   1.660 -0.4196 -1.1467 -0.4375
 8180SOL    HW226154   2.677   3.938   1.607 -0.2545 -0.4513  0.9494
 8181SOL     OW26155   5.822   5.038   9.666  0.2976  0.5056  0.5460
 8181SOL    HW126156   5.738   5.023   9.622 -0.2179  2.3614  0.8122
 8181SOL    HW226157   5.854   4.950   9.687 -1.4502 -0.2530  0.2041
 8182SOL     OW26158   2.866   6.024   5.232  0.1371  0.2403  0.5523
 8182SOL    HW126159   2.910   5.946   5.201 -0.6317 -0.1158  0.3366
 8182SOL    HW226160   2.906   6.043   5.317  1.0224  0.2027  0.1476
 8183SOL     OW26161   5.386   4.967   4.226 -0.2717 -0.3907  0.3096
 8183SOL    HW126162   5.346   4.893   4.180  0.2635 -0.5409  0.0777
 8183SOL    HW226163   5.313   5.022   4.250 -0.7936 -1.5179  1.4279
 8184SOL     OW26164   7.967   0.925   4.109 -0.0814  0.2627 -0.0295
 8184SOL    HW126165   7.872   0.915   4.110 -0.0711  0.1782  0.1689
 8184SOL    HW226166   8.000   0.841   4.076  0.1097 -1.2828  3.5954
 8185SOL     OW26167   9.469   0.765   9.344  0.5359 -0.2591  0.1093
 8185SOL    HW126168   9.549   0.817   9.346 -0.1673  0.8313  1.2243
 8185SOL    HW226169   9.398   0.829   9.339 -0.3174 -1.1471  0.3663
 8186SOL     OW26170   0.586   0.903   1.570 -0.0806  0.2702  0.4650
 8186SOL    HW126171   0.620   0.920   1.658  0.1550  1.6437  0.1352
 8186SOL    HW226172   0.631   0.967   1.514  0.1484 -0.9084 -0.7479
 8187SOL     OW26173   8.568   8.823   7.802 -0.0547  0.2416  0.2621
 8187SOL    HW126174   8.595   8.744   7.850 -2.4525  0.0520  1.4994
 8187SOL    HW226175   8.512   8.789   7.732  0.5530  0.7436 -0.4722
 8188SOL     OW26176   3.930   2.671   8.592 -0.3176  0.2334  0.0891
 8188SOL    HW126177   3.964   2.584   8.571 -0.6447  0.2454 -0.5088
 8188SOL    HW226178   3.950   2.724   8.515 -1.5620  0.2694 -0.2298
 8189SOL     OW26179   8.210   6.554   0.174  0.1479  0.2288 -0.1190
 8189SOL    HW126180   8.241   6.642   0.196 -2.0596  1.4805 -1.6767
 8189SOL    HW226181   8.118   6.554   0.200  0.1612 -1.7447  0.0722
 8190SOL     OW26182   7.868   4.292   3.494 -0.0741 -0.1557  0.3467
 8190SOL    HW126183   7.932   4.336   3.550  1.2554 -1.8432  0.2195
 8190SOL    HW226184   7.783   4.317   3.530  0.7013  0.5385  1.7476
 8191SOL     OW26185   3.863   1.330   5.552 -0.3355  0.0743 -0.0490
 8191SOL    HW126186   3.800   1.267   5.516 -0.5357  0.4916 -0.4417
 8191SOL    HW226187   3.829   1.415   5.526  0.7776  0.2821 -0.8968
 8192SOL     OW26188   7.160   6.158   0.471  0.5199 -0.3943 -0.2719
 8192SOL    HW126189   7.079   6.160   0.419 -0.0528 -1.3959  0.5413
 8192SOL    HW226190   7.206   6.080   0.441  0.7932 -0.2682 -0.1772
 8193SOL     OW26191   1.198   5.325   8.333 -0.1270 -0.0374 -0.5982
 8193SOL    HW126192   1.263   5.383   8.293 -0.6689  0.3332 -0.9566
 8193SOL    HW226193   1.230   5.311   8.422  0.2660  0.4221 -0.6593
 8194SOL     OW26194   5.261   9.282   8.011  0.1638  0.2042  0.0512
 8194SOL    HW126195   5.271   9.330   7.929  2.6717 -1.0671 -0.5000
 8194SOL    HW226196   5.303   9.338   8.077  0.8355 -0.0774 -0.1256
 8195SOL     OW26197   2.905   1.977   9.752 -0.2139 -0.0158 -0.2311
 8195SOL    HW126198   2.852   2.035   9.698  0.8649  0.2260 -1.0716
 8195SOL    HW226199   2.885   1.889   9.720 -0.1419  0.0714 -0.5194
 8196SOL     OW26200   6.324   6.394   6.598  0.3057  0.1962 -0.4119
 8196SOL    HW126201   6.295   6.303   6.594 -0.5415  0.4952 -2.3943
 8196SOL    HW226202   6.377   6.406   6.520 -0.1458  1.5728 -0.5381
 8197SOL     OW26203   8.134   3.104   8.419 -0.0221 -0.5754 -0.1535
 8197SOL    HW126204   8.119   3.090   8.326 -1.2143 -1.1944  0.1137
 8197SOL    HW226205   8.206   3.045   8.441 -2.5973 -3.9133  0.1926
 8198SOL     OW26206   2.193   4.372   2.629 -0.1452  0.0769  0.6837
 8198SOL    HW126207   2.237   4.447   2.590  1.5988 -0.5348  1.3744
 8198SOL    HW226208   2.224   4.297   2.578 -2.5234 -0.1649 -0.5577
 8199SOL     OW26209   0.392   5.878   4.444 -0.0852  0.1859  0.4274
 8199SOL    HW126210   0.400   5.783   4.428 -0.6519  0.1673  0.2500
 8199SOL    HW226211   0.481   5.905   4.465 -0.0042 -0.4790  0.9865
 8200SOL     OW26212   2.617   9.496   8.977 -0.2232 -0.0032 -0.2598
 8200SOL    HW126213   2.615   9.418   8.922  0.6747  0.1097 -0.4675
 8200SOL    HW226214   2.541   9.547   8.950 -0.9467 -0.8967  0.0307
 8201SOL     OW26215   0.013   4.202   6.973  0.5078 -1.1507  0.0611
 8201SOL    HW126216   0.084   4.265   6.989  0.4010 -0.9994 -0.0502
 8201SOL    HW226217  -0.060   4.256   6.943  1.0075 -1.5097 -1.9560
 8202SOL     OW26218   3.812   7.805   5.380  0.3874  0.3517 -0.0996
 8202SOL    HW126219   3.724   7.827   5.410 -0.6605 -1.1040 -1.9055
 8202SOL    HW226220   3.850   7.754   5.451 -0.2232  0.9403  0.6728
 8203SOL     OW26221   0.330   1.345   7.277  0.2335  0.4655 -0.5465
 8203SOL    HW126222   0.373   1.262   7.295  1.2014  1.2521  0.9166
 8203SOL    HW226223   0.279   1.364   7.355 -1.5234  0.3485 -1.6167
 8204SOL     OW26224   5.207   0.263   9.367 -0.3372  0.2408 -0.2487
 8204SOL    HW126225   5.113   0.283   9.373 -0.5388 -0.4464 -0.8888
 8204SOL    HW226226   5.237   0.260   9.458 -0.8012  1.0811 -0.0653
 8205SOL     OW26227   1.893   5.989   3.738 -0.0611 -0.0869 -0.4141
 8205SOL    HW126228   1.921   5.907   3.780  3.6164  0.2885 -1.7322
 8205SOL    HW226229   1.829   5.962   3.673  0.1250 -1.7635  0.0512
 8206SOL     OW26230   1.529   5.335   2.574  0.6305 -0.8859  0.3169
 8206SOL    HW126231   1.493   5.392   2.642 -0.4317 -0.3376 -0.6664
 8206SOL    HW226232   1.506   5.246   2.601  0.5993 -0.7044  0.8829
 8207SOL     OW26233   4.032   0.077   4.092 -0.4539  0.3512 -0.0061
 8207SOL    HW126234   4.051   0.132   4.016 -1.0708  0.5958  0.0159
 8207SOL    HW226235   3.937   0.083   4.103 -0.2623  1.1927  1.4475
 8208SOL     OW26236   7.022   7.023   7.399  0.2307  0.6429 -0.6861
 8208SOL    HW126237   6.961   6.982   7.461 -0.3739  1.9089 -0.4015
 8208SOL    HW226238   6.981   7.106   7.377  1.2355  0.9361 -1.5404
 8209SOL     OW26239   0.747   8.232   9.200  0.1690 -0.4605  0.4058
 8209SOL    HW126240   0.757   8.138   9.184 -0.1613 -0.1440 -1.9036
 8209SOL    HW226241   0.834   8.269   9.182  0.1515 -0.2434  0.7511
 8210SOL     OW26242   5.968   5.151   8.962 -0.4884 -0.6066  0.1068
 8210SOL    HW126243   6.009   5.073   8.999  2.2162 -1.2631 -3.6967
 8210SOL    HW226244   6.034   5.219   8.972 -1.3620  0.2538  0.1376
 8211SOL     OW26245   3.216   8.997   6.607 -0.1417  0.0071 -0.4558
 8211SOL    HW126246   3.166   9.074   6.635  0.2056  0.4010 -0.9052
 8211SOL    HW226247   3.149   8.938   6.572 -0.3916  0.1737 -0.2719
 8212SOL     OW26248   7.084   0.648   2.774  0.3006  0.5017 -1.0415
 8212SOL    HW126249   7.093   0.741   2.794  0.2543 -0.0649  2.0741
 8212SOL    HW226250   7.136   0.603   2.841 -2.4331 -1.7913 -0.2250
 8213SOL     OW26251   0.890   5.739   4.425  0.7061 -0.2754  0.0098
 8213SOL    HW126252   0.933   5.714   4.344 -0.7300  1.1657 -1.2628
 8213SOL    HW226253   0.814   5.681   4.430 -0.5905  1.2608 -1.0307
 8214SOL     OW26254   4.308   2.667   5.451 -0.2918 -0.0242 -0.3501
 8214SOL    HW126255   4.235   2.616   5.486 -0.0236  0.0688  0.3753
 8214SOL    HW226256   4.335   2.621   5.372  0.5454 -1.5496  0.7727
 8215SOL     OW26257   5.088   8.144   7.628 -0.6641 -0.4924  0.2437
 8215SOL    HW126258   5.175   8.183   7.626 -0.4528 -0.9858 -0.3530
 8215SOL    HW226259   5.102   8.055   7.662 -0.8224 -0.8306 -0.5521
 8216SOL     OW26260   1.324   2.415   3.017  0.1928  0.0309 -0.3851
 8216SOL    HW126261   1.321   2.320   3.005 -1.1025 -0.0594  0.5035
 8216SOL    HW226262   1.288   2.429   3.104 -0.3497  1.4051 -0.8114
 8217SOL     OW26263   7.225   8.317   2.075 -0.0665 -0.4444  0.2378
 8217SOL    HW126264   7.226   8.339   2.168 -0.0728  1.9484 -0.2620
 8217SOL    HW226265   7.162   8.245   2.068 -2.0265  1.0022  1.7938
 8218SOL     OW26266   0.613   6.943   2.884 -0.1657  0.2853  0.1062
 8218SOL    HW126267   0.669   6.949   2.807  1.0858  1.6185  1.0767
 8218SOL    HW226268   0.549   6.875   2.861  0.0146  0.7898 -2.1775
 8219SOL     OW26269   2.035   6.031   2.327  0.0124 -0.3139 -0.7585
 8219SOL    HW126270   2.004   6.032   2.237 -2.2503  0.8649 -0.0389
 8219SOL    HW226271   1.980   5.966   2.371  2.4529 -2.4502 -0.5495
 8220SOL     OW26272   3.662   2.180   3.515 -0.4703 -0.0432 -0.2126
 8220SOL    HW126273   3.701   2.198   3.430 -1.7141  0.6620 -0.6690
 8220SOL    HW226274   3.568   2.187   3.500 -0.7369 -0.4999  1.0939
 8221SOL     OW26275   8.079   9.367   7.625  0.3723 -0.0614 -0.4844
 8221SOL    HW126276   8.174   9.368   7.638  0.4684 -0.5398 -1.1044
 8221SOL    HW226277   8.048   9.448   7.666  1.1934  0.6878 -1.3009
 8222SOL     OW26278   2.357   8.755   8.248 -0.4406  0.1988  0.1216
 8222SOL    HW126279   2.357   8.685   8.183 -1.4993 -0.5038  0.8358
 8222SOL    HW226280   2.448   8.763   8.276 -0.3604 -1.1629  0.3008
 8223SOL     OW26281   6.801   1.454   0.355 -0.3484 -0.0016 -0.0058
 8223SOL    HW126282   6.756   1.405   0.287  2.2038 -1.4173 -0.7982
 8223SOL    HW226283   6.832   1.534   0.312  0.5397 -0.5040 -0.3297
 8224SOL     OW26284   0.497   7.545   4.442  0.0046  0.1261  0.0737
 8224SOL    HW126285   0.543   7.498   4.512  0.1574  0.9609  0.5416
 8224SOL    HW226286   0.543   7.629   4.435 -1.6517  1.1307  0.8017
 8225SOL     OW26287   2.236   1.133   3.734 -0.6429 -0.6334 -0.3263
 8225SOL    HW126288   2.185   1.115   3.655 -1.8066 -1.8691  0.6553
 8225SOL    HW226289   2.178   1.108   3.806 -0.3127  2.1490  1.0307
 8226SOL     OW26290   6.580   1.487   3.196 -0.3407  0.3187  0.2778
 8226SOL    HW126291   6.516   1.419   3.216  0.5183 -0.9386 -1.1211
 8226SOL    HW226292   6.560   1.513   3.106 -0.7476  2.0722  0.8211
 8227SOL     OW26293   5.576   8.864   0.601 -0.1966  0.1046  0.2879
 8227SOL    HW126294   5.579   8.933   0.535  1.5136  0.7922  1.0539
 8227SOL    HW226295   5.547   8.786   0.552 -0.3509  0.9184 -0.9599
 8228SOL     OW26296   9.031   4.073   2.779  0.1600  0.1431  0.2523
 8228SOL    HW126297   9.049   4.152   2.829 -0.7385  1.0976 -0.8705
 8228SOL    HW226298   8.951   4.092   2.731  1.4289 -0.3321 -2.2466
 8229SOL     OW26299   1.521   0.503   2.975  0.3819 -0.1317 -0.1950
 8229SOL    HW126300   1.560   0.567   2.915 -1.5160 -0.5667 -2.0261
 8229SOL    HW226301   1.595   0.450   3.005  1.3359 -0.6319 -3.1065
 8230SOL     OW26302   9.801   4.972   2.266 -0.0066 -0.7648 -0.0901
 8230SOL    HW126303   9.776   5.004   2.180 -0.7493  2.5091  1.1705
 8230SOL    HW226304   9.885   5.015   2.284 -0.0540 -1.0739  0.9694
 8231SOL     OW26305   7.397   3.555   2.210 -0.2577  0.1254 -0.2229
 8231SOL    HW126306   7.340   3.492   2.255 -0.0885  0.4001  0.3976
 8231SOL    HW226307   7.459   3.501   2.161 -0.6198 -0.1819 -0.3424
 8232SOL     OW26308   9.816   5.982   1.272  0.0510 -0.1068  1.0438
 8232SOL    HW126309   9.742   5.972   1.211  1.3966  1.0906 -0.9233
 8232SOL    HW226310   9.844   5.893   1.291 -0.8165 -0.5310  0.4386
 8233SOL     OW26311   6.102   1.580   9.095 -0.7301  0.4367 -0.0005
 8233SOL    HW126312   6.174   1.624   9.141 -0.5553  0.4127 -0.2473
 8233SOL    HW226313   6.035   1.647   9.085 -0.4302  0.6743 -0.4565
 8234SOL     OW26314   2.833   7.642   3.157  0.6066  0.1788  0.4950
 8234SOL    HW126315   2.788   7.629   3.241 -0.6633  1.4157  0.0520
 8234SOL    HW226316   2.866   7.555   3.133 -0.8954 -0.6296  1.2332
 8235SOL     OW26317   5.866   5.541   6.920  0.7434  0.2557  0.4181
 8235SOL    HW126318   5.803   5.516   6.988 -0.0125 -0.5057 -0.5501
 8235SOL    HW226319   5.817   5.536   6.838  1.4579  1.8435 -0.1375
 8236SOL     OW26320   6.884   2.555   7.397 -0.3302 -0.0016 -0.0409
 8236SOL    HW126321   6.814   2.620   7.402 -0.2949  0.0182  0.1962
 8236SOL    HW226322   6.906   2.536   7.488 -1.1948 -1.2829 -0.0872
 8237SOL     OW26323   2.398   0.888   9.057  0.0234  0.0512  0.2265
 8237SOL    HW126324   2.442   0.846   9.131  0.6556 -0.4207 -0.4059
 8237SOL    HW226325   2.331   0.943   9.097 -0.2651 -0.9186  1.1144
 8238SOL     OW26326   3.916   9.060   4.944  0.0250 -0.4782  0.1537
 8238SOL    HW126327   3.910   9.143   4.992  1.3579 -1.4673  2.1689
 8238SOL    HW226328   3.875   8.996   5.002 -0.9937 -1.2565 -1.3830
 8239SOL     OW26329   3.044   5.876   5.943  0.6595  0.1404 -0.2076
 8239SOL    HW126330   3.043   5.792   5.897  0.8611  0.7798 -1.4221
 8239SOL    HW226331   3.098   5.861   6.020  2.7621 -0.2295 -1.6786
 8240SOL     OW26332   6.665   5.438   0.028  0.5524  0.2841 -0.0324
 8240SOL    HW126333   6.695   5.365   0.081  1.5622  0.4315 -0.3863
 8240SOL    HW226334   6.745   5.479  -0.005  0.1302  2.8907  1.9073
 8241SOL     OW26335   7.071   1.932   6.989 -0.0426  0.5307 -0.3615
 8241SOL    HW126336   7.051   1.853   7.039 -0.2007  0.1889 -0.9594
 8241SOL    HW226337   7.151   1.966   7.028  0.0560  0.0416 -0.1389
 8242SOL     OW26338   4.655   1.584   8.594 -0.2660  0.0311 -0.1300
 8242SOL    HW126339   4.626   1.495   8.575 -0.9537 -0.1319  1.5374
 8242SOL    HW226340   4.750   1.577   8.600 -0.3923 -0.8442  1.1491
 8243SOL     OW26341   6.085   9.444   1.586 -0.2199 -0.4219 -0.5638
 8243SOL    HW126342   6.135   9.370   1.621  0.8313 -0.9529 -2.9819
 8243SOL    HW226343   6.144   9.519   1.598 -0.7532 -0.1736  0.6901
 8244SOL     OW26344   1.851   9.529   3.122  0.1831  0.0885  0.1347
 8244SOL    HW126345   1.912   9.600   3.105  0.1449  0.1103  0.0862
 8244SOL    HW226346   1.862   9.508   3.215  0.9999 -0.5941 -0.1058
 8245SOL     OW26347   7.846   9.472   9.819 -0.0269  0.3284 -0.0513
 8245SOL    HW126348   7.868   9.552   9.867 -0.0383  1.2735 -1.5456
 8245SOL    HW226349   7.875   9.490   9.729 -0.5169 -1.1500 -0.5292
 8246SOL     OW26350   6.465   9.058   3.536 -0.8801  0.3821  0.3731
 8246SOL    HW126351   6.443   9.110   3.613 -0.7031 -1.3516  1.6699
 8246SOL    HW226352   6.551   9.089   3.509 -0.4407  0.2765  1.5900
 8247SOL     OW26353   1.366   6.555   4.702  0.0449  0.0375 -0.5063
 8247SOL    HW126354   1.348   6.631   4.647  0.8101 -0.9112 -2.1200
 8247SOL    HW226355   1.441   6.512   4.661 -0.2451 -1.4990  0.4796
 8248SOL     OW26356   2.864   2.255   3.651  0.1240  0.2077  0.6142
 8248SOL    HW126357   2.953   2.219   3.658 -0.0194 -0.2172  0.2823
 8248SOL    HW226358   2.809   2.189   3.694 -0.8849 -2.8076 -4.5209
 8249SOL     OW26359   2.117   3.298   2.172 -0.1563  0.1871 -0.3017
 8249SOL    HW126360   2.128   3.392   2.153 -0.0530  0.0368 -1.0451
 8249SOL    HW226361   2.024   3.288   2.189 -0.0625  0.5358  0.4708
 8250SOL     OW26362   3.833   7.276   8.878 -0.4661 -0.1680 -0.2776
 8250SOL    HW126363   3.911   7.330   8.865  0.6208 -1.9724 -1.7310
 8250SOL    HW226364   3.867   7.191   8.906 -2.0979 -0.3292  1.4103
 8251SOL     OW26365   2.202   6.773   7.338 -0.6697 -0.1296 -0.1503
 8251SOL    HW126366   2.270   6.812   7.282  0.2519 -1.4517 -0.0052
 8251SOL    HW226367   2.176   6.694   7.291  1.9352 -2.6897  2.3175
 8252SOL     OW26368   0.892   2.562   2.491  0.5087  0.3938 -0.7402
 8252SOL    HW126369   0.862   2.536   2.578  0.4541 -1.7460 -1.3473
 8252SOL    HW226370   0.884   2.658   2.491 -0.9230  0.3375  1.0601
 8253SOL     OW26371   7.661   0.062   8.125  0.8903 -0.2045 -0.3306
 8253SOL    HW126372   7.645   0.097   8.212  1.2957  0.0032 -0.3339
 8253SOL    HW226373   7.616  -0.022   8.123  0.5080 -0.0039 -0.0740
 8254SOL     OW26374   8.506   2.119   8.437  0.0102  0.6228  0.2509
 8254SOL    HW126375   8.468   2.074   8.513  1.4661 -1.0682  0.0280
 8254SOL    HW226376   8.434   2.123   8.374 -0.6840  0.3383  0.9966
 8255SOL     OW26377   7.817   0.577   8.360 -0.6179  0.5682  0.6948
 8255SOL    HW126378   7.723   0.592   8.345 -1.0666 -2.2371  0.2135
 8255SOL    HW226379   7.820   0.513   8.431  0.8892 -0.1139  0.0606
 8256SOL     OW26380   0.219   4.382   0.031  0.3734  0.0284 -0.2293
 8256SOL    HW126381   0.210   4.308  -0.028 -1.0918  0.8087 -1.0409
 8256SOL    HW226382   0.166   4.451  -0.009  1.2753  1.3557  0.7650
 8257SOL     OW26383   1.552   5.494   6.833 -0.3854 -0.0483 -0.4665
 8257SOL    HW126384   1.588   5.569   6.786 -2.0564  0.4949 -0.9419
 8257SOL    HW226385   1.458   5.497   6.814 -0.6858 -1.4326  0.6762
 8258SOL     OW26386   2.884   0.056   7.789  0.0134 -1.0808 -0.7300
 8258SOL    HW126387   2.974   0.076   7.814 -0.3152 -1.2937  0.7603
 8258SOL    HW226388   2.840   0.141   7.786 -0.0590 -1.0896 -0.0452
 8259SOL     OW26389   3.136   0.762   2.604  0.6676  0.2463  0.3466
 8259SOL    HW126390   3.058   0.765   2.660  1.8631 -1.0580  2.1655
 8259SOL    HW226391   3.207   0.738   2.662  2.4287  1.1447 -1.3320
 8260SOL     OW26392   4.655   6.925   8.018 -0.3130 -0.1294  0.4634
 8260SOL    HW126393   4.713   6.948   8.091 -0.6308  0.7465  0.4511
 8260SOL    HW226394   4.573   6.970   8.038 -0.7411 -0.7281  0.0866
 8261SOL     OW26395   0.776   7.032   0.429  0.2879  0.1278 -0.3185
 8261SOL    HW126396   0.763   7.024   0.335 -1.1597  1.5847 -0.3117
 8261SOL    HW226397   0.691   7.006   0.467  0.3136  1.0943  0.4520
 8262SOL     OW26398   5.620   1.766   4.774  0.3543  0.0068 -0.1536
 8262SOL    HW126399   5.707   1.805   4.765  0.0778  0.8131  0.4479
 8262SOL    HW226400   5.603   1.768   4.869  0.0177 -0.9106 -0.1851
 8263SOL     OW26401   3.869   7.886   1.110  0.1235 -0.3813 -0.0122
 8263SOL    HW126402   3.945   7.910   1.163  0.4256 -2.4083  0.5818
 8263SOL    HW226403   3.906   7.853   1.028 -0.2069  0.1933 -0.3958
 8264SOL     OW26404   8.147   6.041   2.504  0.3519 -0.0670  0.4030
 8264SOL    HW126405   8.216   6.026   2.440  0.2626 -1.0967  0.5305
 8264SOL    HW226406   8.067   6.007   2.464  0.3791 -1.1523  1.2248
 8265SOL     OW26407   5.431   5.357   1.766 -0.5192 -0.2943 -0.3576
 8265SOL    HW126408   5.494   5.400   1.824 -0.0313 -1.0413 -0.3145
 8265SOL    HW226409   5.357   5.335   1.824 -0.0646 -0.9719 -0.0209
 8266SOL     OW26410   3.534   1.509   4.402  0.5057 -0.2328  0.8504
 8266SOL    HW126411   3.539   1.482   4.311  2.1014 -0.7611  1.0669
 8266SOL    HW226412   3.625   1.515   4.431  0.1418  2.3433  1.7341
 8267SOL     OW26413   3.326   9.021   3.736 -0.0355 -0.2704 -0.9018
 8267SOL    HW126414   3.247   9.056   3.777 -0.0210  0.2826 -1.3321
 8267SOL    HW226415   3.397   9.044   3.796 -0.2052 -0.7957 -0.4995
 8268SOL     OW26416   2.145   0.087   1.450  0.8800 -0.0272  0.3438
 8268SOL    HW126417   2.100   0.004   1.465  0.4293  0.3946  1.3869
 8268SOL    HW226418   2.183   0.078   1.363  0.0170 -0.9547  0.0503
 8269SOL     OW26419   2.729   6.455   3.583  0.1868  0.3453 -0.2887
 8269SOL    HW126420   2.675   6.416   3.514 -0.9995  0.4442  0.5476
 8269SOL    HW226421   2.819   6.447   3.551 -0.2423 -0.6882 -1.3002
 8270SOL     OW26422   9.630   9.594   7.216 -0.4355  0.6615 -0.8808
 8270SOL    HW126423   9.547   9.561   7.251  0.2850 -0.8508 -0.4950
 8270SOL    HW226424   9.616   9.598   7.122 -1.1245  0.9361 -0.7697
 8271SOL     OW26425   2.336   7.543   0.411  0.1176 -0.3245 -0.1990
 8271SOL    HW126426   2.337   7.483   0.336 -1.5369 -0.2111 -0.3395
 8271SOL    HW226427   2.418   7.593   0.402  0.4581 -1.0443 -1.3193
 8272SOL     OW26428   4.333   9.770   6.640  0.2997  0.3088 -0.9497
 8272SOL    HW126429   4.398   9.745   6.706 -1.0515  1.5312  0.9309
 8272SOL    HW226430   4.381   9.825   6.578  1.6808 -1.1491 -1.2405
 8273SOL     OW26431   3.524   8.842   9.354 -0.2728 -0.9209  0.0646
 8273SOL    HW126432   3.586   8.803   9.415  0.3646 -1.3949 -0.8610
 8273SOL    HW226433   3.516   8.777   9.284 -0.4594 -0.0878 -0.6960
 8274SOL     OW26434   1.593   0.330   9.210 -0.0280 -0.5146  0.0077
 8274SOL    HW126435   1.537   0.262   9.248 -1.5712  1.0008  0.5823
 8274SOL    HW226436   1.538   0.371   9.142  1.2879 -0.5927 -1.1430
 8275SOL     OW26437   5.267   2.406   5.670  0.5862 -0.1760  0.4588
 8275SOL    HW126438   5.351   2.449   5.685 -0.1096  0.9105  1.3969
 8275SOL    HW226439   5.282   2.315   5.697  1.5204 -0.0606  0.3722
 8276SOL     OW26440   0.131   4.110   8.301 -0.4190 -0.3707 -0.4118
 8276SOL    HW126441   0.201   4.047   8.317 -0.6000 -0.4874 -0.0578
 8276SOL    HW226442   0.152   4.185   8.356 -0.4383 -0.3023 -0.4969
 8277SOL     OW26443   5.112   1.942   2.166  0.2934 -0.5015  0.4449
 8277SOL    HW126444   5.193   1.985   2.190  1.2911 -1.5184 -0.9570
 8277SOL    HW226445   5.129   1.848   2.179 -0.7257 -0.7214  0.3241
 8278SOL     OW26446   8.240   4.435   7.820  0.7477  0.4577 -0.3172
 8278SOL    HW126447   8.245   4.523   7.858  1.0813  1.0449 -1.6320
 8278SOL    HW226448   8.147   4.425   7.796 -0.0741 -0.9890  2.9226
 8279SOL     OW26449   9.503   5.935   7.336 -0.1589  0.4399 -0.2291
 8279SOL    HW126450   9.496   5.958   7.244  1.2039 -2.2158 -1.1002
 8279SOL    HW226451   9.595   5.946   7.358 -0.0383 -0.9824  0.1372
 8280SOL     OW26452   0.072   9.694   2.011  0.2676  0.4501 -0.2196
 8280SOL    HW126453   0.127   9.617   2.025  0.1925  0.3132 -0.6696
 8280SOL    HW226454   0.008   9.690   2.083 -0.7477 -0.8145 -1.1495
 8281SOL     OW26455   1.576   5.053   7.777 -0.2381 -0.1453  0.1348
 8281SOL    HW126456   1.614   5.018   7.857  0.3618  0.2517  0.0311
 8281SOL    HW226457   1.650   5.087   7.728 -0.4759 -1.1803 -1.0034
 8282SOL     OW26458   5.403   2.620   2.382 -0.1771 -0.1200 -0.0751
 8282SOL    HW126459   5.448   2.703   2.366 -2.9747  1.1051 -2.4862
 8282SOL    HW226460   5.330   2.643   2.439 -0.4659 -1.1308 -0.0171
 8283SOL     OW26461   1.978   5.045   8.458 -0.2521 -0.5094 -0.4399
 8283SOL    HW126462   1.995   5.136   8.433  0.5763 -0.4632  0.2498
 8283SOL    HW226463   2.007   5.040   8.550  1.9030 -2.0532 -1.1385
 8284SOL     OW26464   9.600   0.949   6.856 -0.3234 -0.1507 -0.6696
 8284SOL    HW126465   9.543   0.873   6.848 -0.9415  0.3582 -1.2187
 8284SOL    HW226466   9.614   0.979   6.767 -0.0071  0.3218 -0.4689
 8285SOL     OW26467   6.891   5.530   9.776 -0.3264  0.1297  0.3341
 8285SOL    HW126468   6.907   5.623   9.793 -1.5102  0.5886 -0.8034
 8285SOL    HW226469   6.975   5.487   9.792  0.5298  1.5545 -0.1277
 8286SOL     OW26470   0.385   6.790   6.271  0.5513 -0.0257 -0.5787
 8286SOL    HW126471   0.466   6.740   6.280  0.2849 -0.3333  0.1740
 8286SOL    HW226472   0.315   6.728   6.294  0.2847  0.9585  1.5116
 8287SOL     OW26473   7.888   3.193   6.739 -0.0655  0.2299  0.3499
 8287SOL    HW126474   7.911   3.281   6.709  0.7332  0.2325  0.9339
 8287SOL    HW226475   7.811   3.169   6.688  1.1949  0.2468 -1.6680
 8288SOL     OW26476   1.838   7.156   5.544 -0.1333 -0.2711 -0.4766
 8288SOL    HW126477   1.845   7.246   5.514  2.0258 -1.2301 -3.3203
 8288SOL    HW226478   1.785   7.112   5.478  0.2485 -1.4197 -0.0629
 8289SOL     OW26479   9.452   8.158   5.510 -0.2181 -0.0731  0.3826
 8289SOL    HW126480   9.442   8.203   5.426  1.4406 -1.4230 -0.5982
 8289SOL    HW226481   9.414   8.071   5.496 -0.9839  0.0678  1.4256
 8290SOL     OW26482   4.486   5.151   7.850 -0.4208  0.2234 -0.3659
 8290SOL    HW126483   4.458   5.076   7.902 -2.4405  1.3361  0.2397
 8290SOL    HW226484   4.506   5.219   7.915  0.6581  0.4840 -0.9409
 8291SOL     OW26485   9.241   8.721   6.222 -0.4270 -0.5282  0.0985
 8291SOL    HW126486   9.327   8.694   6.188 -0.9484 -2.8651  0.4645
 8291SOL    HW226487   9.202   8.640   6.255 -2.0720  0.7791  1.5466
 8292SOL     OW26488   7.759   9.278   2.650  0.7577 -0.1465 -0.4489
 8292SOL    HW126489   7.755   9.247   2.559 -0.2077 -0.6321 -0.2597
 8292SOL    HW226490   7.727   9.203   2.702  3.4273 -0.7248  0.5139
 8293SOL     OW26491   6.824   5.096   3.064 -0.1009 -0.1627 -0.2155
 8293SOL    HW126492   6.817   5.185   3.030  1.4903  0.5255  1.0910
 8293SOL    HW226493   6.868   5.047   2.995  3.5737  1.3289  0.8290
 8294SOL     OW26494   9.713   4.143   8.273 -0.1399 -0.0836 -0.2700
 8294SOL    HW126495   9.807   4.135   8.256  0.1810 -0.0942  1.3628
 8294SOL    HW226496   9.696   4.083   8.346 -0.8859  1.8095  1.2070
 8295SOL     OW26497   6.224   7.056   7.385  0.2965  0.0667 -0.1117
 8295SOL    HW126498   6.285   7.125   7.357 -0.6255  1.4636  1.1800
 8295SOL    HW226499   6.239   6.985   7.323  1.4724  1.3179 -1.3428
 8296SOL     OW26500   8.216   1.531   0.123  0.2031 -0.4680  0.1763
 8296SOL    HW126501   8.246   1.553   0.212 -1.3845 -0.3745  0.7139
 8296SOL    HW226502   8.123   1.552   0.123  0.0632 -0.9712 -1.3633
 8297SOL     OW26503   2.017   2.596   9.239  0.0836  0.2476  0.6840
 8297SOL    HW126504   2.104   2.600   9.277 -0.2194  1.8519  1.2974
 8297SOL    HW226505   1.985   2.686   9.244 -1.6452 -0.3260  0.5630
 8298SOL     OW26506   7.621   0.564   3.303  0.0798  0.1891 -0.1411
 8298SOL    HW126507   7.614   0.558   3.398  1.2624  1.3928  0.0511
 8298SOL    HW226508   7.537   0.600   3.274 -0.2182 -0.0210  0.4470
 8299SOL     OW26509   4.176   1.340   7.539  0.4354  0.0679 -0.4167
 8299SOL    HW126510   4.144   1.389   7.463 -0.7868  2.4868  1.4973
 8299SOL    HW226511   4.263   1.378   7.556 -0.0280  0.8222  0.3782
 8300SOL     OW26512   0.472   1.518   4.407 -0.1096  0.4552 -0.4154
 8300SOL    HW126513   0.514   1.604   4.402  1.1207 -0.0735  0.1895
 8300SOL    HW226514   0.532   1.460   4.359 -0.5540 -0.1841 -0.2074
 8301SOL     OW26515   8.559   4.520   7.366 -0.1543  0.1611 -0.5170
 8301SOL    HW126516   8.538   4.580   7.437  2.1232 -0.8892  1.1746
 8301SOL    HW226517   8.651   4.498   7.380 -0.0299 -1.2188 -2.9817
 8302SOL     OW26518   0.212   8.853   8.010  0.6102 -0.7651 -0.2281
 8302SOL    HW126519   0.216   8.769   8.055  0.7376  0.0514  1.3690
 8302SOL    HW226520   0.231   8.918   8.078  1.0834  0.5287 -1.5360
 8303SOL     OW26521   4.163   8.753   2.344 -0.3835  0.2466  0.0036
 8303SOL    HW126522   4.156   8.826   2.282 -0.0700  0.7581  0.5535
 8303SOL    HW226523   4.201   8.793   2.423  3.4019 -1.1851 -0.8735
 8304SOL     OW26524   4.405   8.612   7.354  0.1207 -0.0055  0.0307
 8304SOL    HW126525   4.475   8.551   7.332  0.9601  0.2852  1.7629
 8304SOL    HW226526   4.449   8.697   7.360 -0.9503  0.7307 -1.8979
 8305SOL     OW26527   9.611   3.290   6.235  0.3232  0.4050  0.2604
 8305SOL    HW126528   9.588   3.284   6.328 -1.6621  2.7540  0.0188
 8305SOL    HW226529   9.590   3.380   6.211  0.3051 -0.2788 -2.6171
 8306SOL     OW26530   5.974   7.884   5.661 -0.1603  0.6237 -0.0323
 8306SOL    HW126531   5.908   7.890   5.730 -0.7855 -0.9907 -0.4420
 8306SOL    HW226532   6.002   7.792   5.663  1.5045  1.0880 -0.4122
 8307SOL     OW26533   7.895   4.134   0.988 -0.9266  0.5407  0.4023
 8307SOL    HW126534   7.936   4.068   1.043 -1.3958  0.6239  0.8632
 8307SOL    HW226535   7.960   4.153   0.920  0.0937  1.2322  1.5448
 8308SOL     OW26536   8.534   6.563   3.752 -0.2366 -0.4740 -0.2874
 8308SOL    HW126537   8.555   6.512   3.831  0.8952 -0.1440 -0.3599
 8308SOL    HW226538   8.440   6.582   3.761 -0.6634 -2.3657 -0.1450
 8309SOL     OW26539   2.526   2.911   5.529  0.3622 -1.0639  0.2994
 8309SOL    HW126540   2.497   2.825   5.498 -0.2149 -1.6517  2.3354
 8309SOL    HW226541   2.571   2.893   5.611 -1.2809  0.7282  1.6644
 8310SOL     OW26542   2.739   5.799   1.335  0.0861  0.0359 -0.3114
 8310SOL    HW126543   2.833   5.803   1.315  0.7708  2.4733  2.5110
 8310SOL    HW226544   2.718   5.706   1.334  2.5462 -0.5836 -1.0465
 8311SOL     OW26545   0.057   7.082   9.128  0.3100 -0.4802  0.5560
 8311SOL    HW126546   0.043   7.123   9.043  0.2716  1.0296  1.2619
 8311SOL    HW226547  -0.028   7.045   9.151  0.2345 -0.5990  0.1070
 8312SOL     OW26548   9.127   3.236   0.305  0.0036 -0.0719  0.5052
 8312SOL    HW126549   9.111   3.329   0.323 -0.0684  0.4440 -1.8418
 8312SOL    HW226550   9.215   3.220   0.339  0.5977  1.2822 -0.2762
 8313SOL     OW26551   6.291   4.539   5.164  0.3897  0.1040 -0.3051
 8313SOL    HW126552   6.235   4.470   5.128  0.4248 -0.0521 -0.0636
 8313SOL    HW226553   6.359   4.551   5.098  1.2457 -1.1410  0.3094
 8314SOL     OW26554   0.623   0.290   4.676 -0.1310 -0.2817 -0.1595
 8314SOL    HW126555   0.587   0.295   4.765  0.8764 -1.0312  0.2937
 8314SOL    HW226556   0.569   0.224   4.632 -0.0853 -0.5215  0.1450
 8315SOL     OW26557   9.754   5.439   5.243 -0.0250 -0.4544  0.0303
 8315SOL    HW126558   9.845   5.414   5.259  0.2952  1.1387  0.9669
 8315SOL    HW226559   9.759   5.510   5.180 -0.7957 -1.6532 -1.4421
 8316SOL     OW26560   7.002   7.026   0.731 -0.0885  0.5317  0.3094
 8316SOL    HW126561   6.929   7.025   0.669 -1.7084 -1.9803  2.0935
 8316SOL    HW226562   6.961   7.037   0.817  1.8623  1.2151  1.2232
 8317SOL     OW26563   7.931   8.816   2.002  0.4256  0.0071  0.4051
 8317SOL    HW126564   7.938   8.744   2.065  0.3182 -0.1407  0.2490
 8317SOL    HW226565   7.989   8.790   1.930 -0.9703 -0.7825 -0.4799
 8318SOL     OW26566   3.630   1.788   3.166 -0.0697 -0.1777  0.5729
 8318SOL    HW126567   3.701   1.730   3.139 -0.2505 -0.5579  0.8893
 8318SOL    HW226568   3.673   1.859   3.213  0.0871 -0.5113  0.9396
 8319SOL     OW26569   2.749   5.334   3.135  0.1568  0.2627  0.3769
 8319SOL    HW126570   2.735   5.369   3.047  1.5399 -0.2307 -0.0729
 8319SOL    HW226571   2.841   5.353   3.153 -0.2503  0.8759  1.9694
 8320SOL     OW26572   4.615   3.500   5.860 -0.0873  0.0627 -0.2704
 8320SOL    HW126573   4.571   3.572   5.817 -0.3821 -0.3425 -0.6562
 8320SOL    HW226574   4.661   3.540   5.934 -0.3060  0.6267 -0.4385
 8321SOL     OW26575   1.054   0.122   7.197 -0.3949  0.1005  0.0945
 8321SOL    HW126576   1.091   0.067   7.128 -0.6725  1.5255 -1.2478
 8321SOL    HW226577   1.117   0.193   7.207 -0.5900  0.1552  0.9945
 8322SOL     OW26578   6.554   3.536   0.822  0.3357 -0.1155  0.2818
 8322SOL    HW126579   6.592   3.459   0.779  0.6837  1.3104 -2.1289
 8322SOL    HW226580   6.484   3.500   0.876  0.4528 -2.1242 -0.7890
 8323SOL     OW26581   8.537   4.500   2.479  0.0399 -0.0916 -0.2545
 8323SOL    HW126582   8.470   4.449   2.432 -0.9388  0.4058  0.5570
 8323SOL    HW226583   8.599   4.526   2.411  1.1153 -3.1135 -0.5803
 8324SOL     OW26584   5.152   3.148   3.646  0.6574 -0.1781  0.1549
 8324SOL    HW126585   5.187   3.068   3.605 -0.1419 -0.3711 -0.1657
 8324SOL    HW226586   5.152   3.213   3.576 -1.2644 -0.6691 -0.3663
 8325SOL     OW26587   2.310   2.074   7.114 -0.0982 -0.3648  0.2792
 8325SOL    HW126588   2.249   2.078   7.188 -0.4602 -0.0197 -0.0358
 8325SOL    HW226589   2.396   2.062   7.155 -0.0829  1.3786  0.8670
 8326SOL     OW26590   8.342   6.926   3.130  0.1997 -0.2879 -0.4860
 8326SOL    HW126591   8.253   6.936   3.162  0.1933 -2.9841  0.5550
 8326SOL    HW226592   8.397   6.963   3.199  0.0129 -2.6962  1.0637
 8327SOL     OW26593   5.474   6.046   7.683  0.0608  0.4675  0.1609
 8327SOL    HW126594   5.566   6.071   7.689 -0.0315  0.8255  0.0624
 8327SOL    HW226595   5.432   6.090   7.756  0.0297  0.0016  0.4339
 8328SOL     OW26596   2.064   0.405   3.986  0.4326  0.5992  0.5928
 8328SOL    HW126597   2.043   0.497   3.967  0.7561  0.5282 -0.1504
 8328SOL    HW226598   2.017   0.355   3.920 -1.5854  0.0461  2.3571
 8329SOL     OW26599   6.941   1.054   8.081  0.1528  0.1267  0.6592
 8329SOL    HW126600   6.938   1.079   7.989  0.5381  2.4151  1.1922
 8329SOL    HW226601   7.019   1.000   8.089 -1.0300 -1.9282 -0.6834
 8330SOL     OW26602   8.026   7.329   6.958 -0.2626 -0.2395  0.4325
 8330SOL    HW126603   7.938   7.360   6.977 -0.3675  1.1693 -1.9796
 8330SOL    HW226604   8.067   7.401   6.910  1.0352 -2.1343 -1.4845
 8331SOL     OW26605   1.037   6.325   9.324  0.1315  0.3366 -0.0336
 8331SOL    HW126606   0.990   6.326   9.241 -0.5638  0.3036  0.3465
 8331SOL    HW226607   0.985   6.266   9.379  0.4362  0.5667  0.5033
 8332SOL     OW26608   6.776   4.558   6.578  0.3703 -0.7196 -0.3568
 8332SOL    HW126609   6.864   4.520   6.585  0.8142  0.3036 -0.0559
 8332SOL    HW226610   6.790   4.643   6.536 -0.8030 -1.5535 -2.5720
 8333SOL     OW26611   5.648   1.222   9.194 -0.0987 -0.1470  0.4573
 8333SOL    HW126612   5.708   1.246   9.123 -0.8759  1.6868  0.3758
 8333SOL    HW226613   5.576   1.176   9.150  0.2187 -0.4911  0.2887
 8334SOL     OW26614   4.614   0.451   0.980  0.9230  1.0110 -0.6479
 8334SOL    HW126615   4.603   0.357   0.969  1.4394  0.6286  1.5855
 8334SOL    HW226616   4.696   0.472   0.934  1.4098  0.1463 -0.1897
 8335SOL     OW26617   7.615   9.691   0.201 -0.7363  0.1824 -0.0451
 8335SOL    HW126618   7.651   9.726   0.283  0.1415 -0.4310 -0.1544
 8335SOL    HW226619   7.594   9.768   0.149  2.5239  0.6735 -0.8733
 8336SOL     OW26620   1.166   6.177   8.244 -0.0330  0.0376 -0.0330
 8336SOL    HW126621   1.085   6.152   8.200  0.2470  1.0726 -1.1969
 8336SOL    HW226622   1.147   6.262   8.284  0.5865  0.5089 -0.6979
 8337SOL     OW26623   8.853   0.670   1.184 -0.2764  0.2643 -0.1263
 8337SOL    HW126624   8.916   0.707   1.121  0.2819 -0.7818 -0.1984
 8337SOL    HW226625   8.872   0.716   1.266 -0.2341  0.8166 -0.4417
 8338SOL     OW26626   6.486   0.955   1.629  0.4206  0.4866 -0.1016
 8338SOL    HW126627   6.434   0.904   1.567  1.0143 -1.6193  1.0335
 8338SOL    HW226628   6.422   0.996   1.687 -0.0839  1.4186 -1.2931
 8339SOL     OW26629   8.949   8.817   9.039  0.4084  1.3178  0.0936
 8339SOL    HW126630   8.863   8.859   9.042  0.0411  0.6669 -0.8161
 8339SOL    HW226631   9.002   8.876   8.985  0.4367  1.5456  0.3682
 8340SOL     OW26632   2.448   9.510   4.729 -0.1196  0.0195  0.2535
 8340SOL    HW126633   2.460   9.552   4.814  0.3215 -0.9659  0.6985
 8340SOL    HW226634   2.491   9.569   4.667  0.2624  0.3599  0.8258
 8341SOL     OW26635   0.039   3.216   5.002  0.1514 -0.1422  0.4353
 8341SOL    HW126636   0.115   3.222   5.060  1.3103 -1.1516 -0.8954
 8341SOL    HW226637  -0.015   3.147   5.041  0.0612  0.3599  1.2203
 8342SOL     OW26638   2.237   5.811   4.582  0.5482  0.3054 -0.1703
 8342SOL    HW126639   2.328   5.813   4.611  0.9546 -1.0617 -1.2752
 8342SOL    HW226640   2.229   5.888   4.525  1.3464 -0.2253 -1.0134
 8343SOL     OW26641   5.454   2.302   5.921 -0.0412  0.5577 -0.5738
 8343SOL    HW126642   5.359   2.297   5.931  0.0670  1.4000  1.3179
 8343SOL    HW226643   5.488   2.242   5.988  0.7515  0.4783 -1.0418
 8344SOL     OW26644   2.037   4.229   9.439  0.0718  0.9195  0.0452
 8344SOL    HW126645   1.977   4.155   9.427  1.6924 -0.4505  0.0601
 8344SOL    HW226646   2.048   4.265   9.351 -0.2801  0.7759 -0.0606
 8345SOL     OW26647   6.841   4.039   1.127  0.0719 -0.2401  0.2324
 8345SOL    HW126648   6.882   4.038   1.214  0.3575  1.0901  0.1440
 8345SOL    HW226649   6.842   3.948   1.098 -1.5859 -1.0102  2.3403
 8346SOL     OW26650   3.640   7.999   2.868 -0.1045 -0.7691  0.1225
 8346SOL    HW126651   3.650   7.908   2.894  0.8015 -1.3738 -2.1529
 8346SOL    HW226652   3.729   8.027   2.846 -0.5444  0.2950 -0.3579
 8347SOL     OW26653   1.022   5.303   7.090  0.0043  0.0074  0.0910
 8347SOL    HW126654   1.019   5.362   7.014  0.3658  0.7511  0.6374
 8347SOL    HW226655   1.087   5.237   7.066  0.1154  0.2347 -0.2509
 8348SOL     OW26656   4.104   8.330   8.410  0.2042 -0.3292 -0.5251
 8348SOL    HW126657   4.119   8.404   8.351  0.7375 -0.2438 -0.2950
 8348SOL    HW226658   4.060   8.265   8.356 -0.2223  0.1342 -0.7449
 8349SOL     OW26659   5.797   1.986   9.545 -0.3087 -0.0528  0.3837
 8349SOL    HW126660   5.851   2.046   9.494  0.6390 -1.1799  0.0006
 8349SOL    HW226661   5.794   2.024   9.633  0.7990  0.2278  0.3107
 8350SOL     OW26662   1.329   9.531   3.765  0.3438  0.5203 -0.0297
 8350SOL    HW126663   1.301   9.615   3.800  0.8511  0.4778  0.5011
 8350SOL    HW226664   1.379   9.491   3.837 -0.4757 -0.5327 -0.0219
 8351SOL     OW26665   2.912   6.437   1.884 -0.3869 -0.2093 -0.2229
 8351SOL    HW126666   2.866   6.518   1.906 -2.1677 -1.2577  0.1148
 8351SOL    HW226667   2.884   6.417   1.795  0.8526  0.0448 -0.6951
 8352SOL     OW26668   5.357   1.888   7.925  0.2021 -0.5561 -0.1554
 8352SOL    HW126669   5.355   1.857   7.835 -1.6223 -1.7106  0.2352
 8352SOL    HW226670   5.293   1.960   7.927  0.7252 -0.0882  0.0826
 8353SOL     OW26671   3.880   9.466   7.549  0.1481  0.3954  0.1468
 8353SOL    HW126672   3.929   9.413   7.612  0.1953  3.3436  2.8541
 8353SOL    HW226673   3.791   9.466   7.583 -0.1545  0.8256 -0.6415
 8354SOL     OW26674   0.966   1.394   4.047  0.2217  0.6231  0.2060
 8354SOL    HW126675   0.921   1.435   4.121  0.0203 -0.3601  0.6430
 8354SOL    HW226676   1.003   1.314   4.082  0.2087  0.1851 -0.7377
 8355SOL     OW26677   1.445   3.751   5.502 -0.2835  0.1062 -0.6443
 8355SOL    HW126678   1.529   3.709   5.483 -0.7513 -0.7783 -0.8572
 8355SOL    HW226679   1.430   3.731   5.595 -0.9233 -1.0158 -0.9627
 8356SOL     OW26680   1.006   3.485   5.129  0.6879  0.1937  0.0626
 8356SOL    HW126681   0.977   3.471   5.220  0.5412  0.4042  0.0485
 8356SOL    HW226682   1.091   3.442   5.124  0.6497  0.0936  0.2738
 8357SOL     OW26683   2.893   6.546   6.373 -0.1527  0.6364 -0.1903
 8357SOL    HW126684   2.958   6.476   6.363 -0.4932  0.6609 -3.4722
 8357SOL    HW226685   2.815   6.502   6.406  0.3796 -0.0500  0.1963
 8358SOL     OW26686   7.900   5.847   7.713 -0.1055 -0.2998  0.0811
 8358SOL    HW126687   7.847   5.805   7.781  0.6758  0.3594  1.1434
 8358SOL    HW226688   7.990   5.823   7.735  0.2836  1.0985  0.1509
 8359SOL     OW26689   2.071   1.104   3.525  0.7176  0.5093 -0.0313
 8359SOL    HW126690   2.020   1.029   3.495 -0.1046  0.9787  0.1516
 8359SOL    HW226691   2.017   1.180   3.503  2.0508  1.1514 -1.2987
 8360SOL     OW26692   6.721   1.175   4.460 -0.1345 -0.4474 -0.2997
 8360SOL    HW126693   6.699   1.103   4.520  0.3237 -0.4752 -0.1590
 8360SOL    HW226694   6.785   1.137   4.399 -0.5244 -0.3910 -0.7495
 8361SOL     OW26695   5.376   1.523   5.016 -0.2641  0.0723 -0.2675
 8361SOL    HW126696   5.440   1.474   4.964 -0.6289 -0.5809 -0.1090
 8361SOL    HW226697   5.426   1.597   5.053  0.2686 -0.1298 -0.5802
 8362SOL     OW26698   8.832   2.074   4.846 -0.0130 -0.1411  0.4758
 8362SOL    HW126699   8.886   1.997   4.865  0.2650  0.4236  2.0810
 8362SOL    HW226700   8.749   2.056   4.890 -0.4250 -0.0927 -0.2635
 8363SOL     OW26701   7.920   7.492   2.426  0.3433 -0.3810  0.0523
 8363SOL    HW126702   7.998   7.441   2.402 -0.5767 -0.9558 -1.9429
 8363SOL    HW226703   7.940   7.580   2.394  0.6146 -0.2647  0.5381
 8364SOL     OW26704   3.914   8.004   5.059  0.2088  0.5110 -0.5221
 8364SOL    HW126705   4.006   7.979   5.055 -0.4271 -1.9846 -1.8443
 8364SOL    HW226706   3.867   7.921   5.056 -2.1087  1.7215  0.1028
 8365SOL     OW26707   1.887   6.904   0.118  0.2636 -0.1930 -0.2048
 8365SOL    HW126708   1.937   6.826   0.142 -1.3244 -1.0538  0.5228
 8365SOL    HW226709   1.859   6.888   0.028 -1.0135 -1.0409  0.3140
 8366SOL     OW26710   9.681   2.025   3.017  0.3827 -0.3228 -0.1666
 8366SOL    HW126711   9.632   2.033   2.935 -0.3114  0.9587  0.3386
 8366SOL    HW226712   9.773   2.027   2.990  0.2279 -2.7292 -1.1257
 8367SOL     OW26713   4.764   0.600   9.554  0.0976 -0.0239 -0.2414
 8367SOL    HW126714   4.746   0.692   9.572  0.9277 -0.1831  1.5617
 8367SOL    HW226715   4.837   0.601   9.492 -1.2925  0.5064 -1.9699
 8368SOL     OW26716   0.415   4.410   0.475 -0.4250  0.0134 -0.3938
 8368SOL    HW126717   0.352   4.438   0.409 -0.1263 -1.3469 -1.2878
 8368SOL    HW226718   0.361   4.387   0.551 -1.0095 -0.8959 -1.0641
 8369SOL     OW26719   2.512   2.366   8.030  0.0248  0.3022  0.5928
 8369SOL    HW126720   2.537   2.415   8.109 -0.1812  1.5861 -0.1012
 8369SOL    HW226721   2.431   2.408   8.001 -0.1237 -0.4357 -0.0675
 8370SOL     OW26722   6.766   9.694   1.094  0.1034 -0.2532  0.1048
 8370SOL    HW126723   6.695   9.643   1.054  0.7339 -0.3436 -0.9229
 8370SOL    HW226724   6.808   9.739   1.020  1.6907 -0.8976  0.5762
 8371SOL     OW26725   7.643   9.611   2.739 -0.1048 -0.0523 -0.8546
 8371SOL    HW126726   7.662   9.689   2.687 -0.8381  0.4242 -0.4160
 8371SOL    HW226727   7.725   9.561   2.738  0.1688  0.3952 -1.6912
 8372SOL     OW26728   3.156   6.913   1.826 -0.0426  0.0183 -0.2110
 8372SOL    HW126729   3.204   6.839   1.788  0.4256  1.1423 -1.8986
 8372SOL    HW226730   3.221   6.983   1.833 -0.2998  0.1118  2.0517
 8373SOL     OW26731   1.289   4.114   8.341 -0.0710 -0.2088  0.0537
 8373SOL    HW126732   1.212   4.141   8.391  0.3398  1.1091  0.0085
 8373SOL    HW226733   1.278   4.156   8.255  0.3229 -0.6241 -0.2040
 8374SOL     OW26734   7.518   6.341   1.923 -0.5027 -0.1184  0.4103
 8374SOL    HW126735   7.572   6.263   1.911 -0.0911  0.3617 -1.1567
 8374SOL    HW226736   7.578   6.414   1.908 -1.2096  0.4576  0.3306
 8375SOL     OW26737   0.051   7.790   2.844 -0.0651 -0.4096 -0.2108
 8375SOL    HW126738   0.057   7.696   2.860  0.2691 -0.1685  1.2616
 8375SOL    HW226739  -0.042   7.809   2.845 -0.1101 -0.6405  0.0298
 8376SOL     OW26740   5.588   8.427   2.609  0.4359  0.3176  0.0844
 8376SOL    HW126741   5.550   8.391   2.689  0.9816 -1.2262 -0.3167
 8376SOL    HW226742   5.657   8.486   2.640 -0.1820  0.7013  0.7566
 8377SOL     OW26743   6.917   0.686   5.894  0.1381 -1.3068 -0.1256
 8377SOL    HW126744   6.834   0.679   5.943  0.1931  0.7642  0.3709
 8377SOL    HW226745   6.970   0.614   5.927  0.0035 -0.2913  2.6246
 8378SOL     OW26746   5.258   4.181   8.016  0.4452 -0.0509 -0.4334
 8378SOL    HW126747   5.280   4.111   7.955 -0.0593 -0.7047  0.1262
 8378SOL    HW226748   5.179   4.151   8.060 -0.5478  1.4412 -1.1063
 8379SOL     OW26749   6.289   8.104   6.219 -0.3011  0.5405  0.2437
 8379SOL    HW126750   6.301   8.180   6.277 -0.4195  1.1264 -0.4817
 8379SOL    HW226751   6.366   8.105   6.162 -0.5484  0.4094 -0.0962
 8380SOL     OW26752   4.111   8.275   4.594  0.1402  0.2846 -0.6057
 8380SOL    HW126753   4.023   8.276   4.632  0.4460 -0.1491  0.1337
 8380SOL    HW226754   4.124   8.184   4.566  0.0147  0.5470 -1.5258
 8381SOL     OW26755   5.030   7.811   5.774 -0.0454 -0.1831 -0.4296
 8381SOL    HW126756   5.043   7.717   5.789 -0.8524 -0.3140 -0.4803
 8381SOL    HW226757   5.073   7.828   5.691  0.2296 -0.4797 -0.3503
 8382SOL     OW26758   2.903   6.569   7.974  0.6275  0.4876  0.4262
 8382SOL    HW126759   2.955   6.539   7.899 -0.4014 -0.6157  0.1104
 8382SOL    HW226760   2.822   6.601   7.936 -0.0343 -0.3676  1.0616
 8383SOL     OW26761   6.894   1.953   3.527  0.1083 -0.1288 -0.1982
 8383SOL    HW126762   6.945   2.006   3.589 -1.0934 -0.0337  0.7247
 8383SOL    HW226763   6.826   2.012   3.496 -1.8173 -1.3338  1.5249
 8384SOL     OW26764   9.017   9.176   7.086 -0.1950  0.5381  0.1618
 8384SOL    HW126765   8.946   9.240   7.092 -0.1510  0.5591  0.4995
 8384SOL    HW226766   9.055   9.190   7.000  0.6044  1.8206  0.6991
 8385SOL     OW26767   5.949   6.251   3.202 -0.1936 -0.2674  0.0752
 8385SOL    HW126768   5.871   6.307   3.202 -1.2082 -1.4332  3.4594
 8385SOL    HW226769   5.916   6.164   3.182  0.6340 -0.4458 -0.5860
 8386SOL     OW26770   5.455   1.362   0.574 -0.6990  0.4894 -0.2646
 8386SOL    HW126771   5.369   1.377   0.533 -0.4975  1.0487 -0.4900
 8386SOL    HW226772   5.452   1.412   0.655 -0.8732 -0.1326  0.1237
 8387SOL     OW26773   4.753   1.642   4.632 -0.1544 -0.3965 -0.1319
 8387SOL    HW126774   4.795   1.556   4.633 -0.1643 -0.4277 -1.2076
 8387SOL    HW226775   4.805   1.694   4.571  0.2839  0.6014  1.0626
 8388SOL     OW26776   5.277   2.826   3.261 -0.1806 -0.3593 -0.1253
 8388SOL    HW126777   5.307   2.740   3.230 -0.7974 -0.8217  0.5292
 8388SOL    HW226778   5.186   2.832   3.229  0.0517  0.3161 -0.6821
 8389SOL     OW26779   5.265   0.700   0.990 -0.0088 -0.2270  0.0676
 8389SOL    HW126780   5.287   0.784   0.952 -1.1790  0.1453  0.1801
 8389SOL    HW226781   5.337   0.681   1.050 -0.2650  1.2345  0.8865
 8390SOL     OW26782   6.097   4.740   7.370  0.0952  0.0248  0.0072
 8390SOL    HW126783   6.126   4.755   7.460  0.0334 -1.5571  0.3315
 8390SOL    HW226784   6.008   4.775   7.367  0.2365  0.4287  0.4598
 8391SOL     OW26785   4.289   3.711   4.358  0.3373  0.6567 -0.3658
 8391SOL    HW126786   4.196   3.728   4.371  0.7579  2.7139  0.2075
 8391SOL    HW226787   4.324   3.790   4.317  2.5127  1.5736  2.8770
 8392SOL     OW26788   3.265   8.911   4.482 -0.3728  0.3291 -0.1364
 8392SOL    HW126789   3.282   8.915   4.388  1.5226  1.7173  0.2013
 8392SOL    HW226790   3.346   8.879   4.520 -1.3392 -0.8750  1.0081
 8393SOL     OW26791   8.841   3.978   3.387  0.0047 -0.5052  0.0305
 8393SOL    HW126792   8.747   3.973   3.403 -0.0026  0.1774  0.2256
 8393SOL    HW226793   8.879   4.001   3.472  0.3228 -0.5059 -0.1085
 8394SOL     OW26794   1.255   6.474   3.805  0.8669  0.5026  0.3646
 8394SOL    HW126795   1.321   6.460   3.872 -0.0928  1.6245  1.5897
 8394SOL    HW226796   1.257   6.568   3.787  0.1557  0.4337 -0.1482
 8395SOL     OW26797   6.055   4.923   4.809 -0.0339 -0.5552 -0.0847
 8395SOL    HW126798   6.050   4.942   4.715 -0.7385 -0.3214 -0.0112
 8395SOL    HW226799   6.062   4.828   4.814  0.7574 -0.5165 -0.3914
 8396SOL     OW26800   5.161   3.122   3.269  0.1325  0.2001 -0.1185
 8396SOL    HW126801   5.083   3.074   3.240  1.1143  0.5407 -3.8147
 8396SOL    HW226802   5.208   3.061   3.324 -1.3357 -1.0602 -0.2007
 8397SOL     OW26803   6.669   4.649   8.835  0.2146  0.2801  0.3316
 8397SOL    HW126804   6.593   4.602   8.870 -1.5144  3.1220  0.6935
 8397SOL    HW226805   6.670   4.731   8.884  2.3883  1.1431 -1.0522
 8398SOL     OW26806   8.188   1.979   5.517  0.1090 -0.0442 -0.2739
 8398SOL    HW126807   8.170   2.073   5.505 -3.4443 -0.6174 -0.5026
 8398SOL    HW226808   8.129   1.953   5.587 -0.4231 -2.4709 -1.5297
 8399SOL     OW26809   7.645   8.784   8.124 -0.0733 -0.1737  0.1674
 8399SOL    HW126810   7.682   8.850   8.183 -1.5043 -0.3202  1.2795
 8399SOL    HW226811   7.560   8.820   8.098  0.0523 -0.6322 -0.9389
 8400SOL     OW26812   6.484   7.108   6.091  0.0441  0.9202 -0.1676
 8400SOL    HW126813   6.578   7.122   6.080 -0.2961  1.2146 -3.4520
 8400SOL    HW226814   6.446   7.196   6.089 -0.4211  0.7311  0.0981
 8401SOL     OW26815   8.565   9.448   1.646 -0.2923 -0.0537  0.1625
 8401SOL    HW126816   8.561   9.492   1.732 -1.7824  0.7253 -0.2732
 8401SOL    HW226817   8.523   9.364   1.660  0.9150 -0.6185  0.5556
 8402SOL     OW26818   5.899   8.249   2.678  0.0609 -0.1426 -0.3374
 8402SOL    HW126819   5.824   8.196   2.703 -0.2957  0.2338 -0.5987
 8402SOL    HW226820   5.885   8.270   2.586  0.3263  0.1866 -0.3065
 8403SOL     OW26821   9.585   2.774   1.893  0.4142  0.8244  0.4216
 8403SOL    HW126822   9.633   2.703   1.851  1.4134  1.3794  0.6008
 8403SOL    HW226823   9.496   2.740   1.901  0.9693 -0.6041  0.9552
 8404SOL     OW26824   5.478   1.497   7.253 -0.0792 -0.0188 -0.9077
 8404SOL    HW126825   5.456   1.416   7.207  0.0307 -0.3536 -0.3767
 8404SOL    HW226826   5.394   1.537   7.273 -0.1747 -0.5716 -0.1664
 8405SOL     OW26827   7.658   0.492   1.715  0.5872  0.1848  0.1523
 8405SOL    HW126828   7.605   0.570   1.703  0.2049 -0.1966 -0.6833
 8405SOL    HW226829   7.651   0.473   1.809 -3.0730 -1.4143 -0.2586
 8406SOL     OW26830   9.406   3.941   2.926 -0.7184  0.3856  0.2906
 8406SOL    HW126831   9.443   3.873   2.869  1.5177 -1.0495  3.1515
 8406SOL    HW226832   9.446   4.022   2.894  1.9216 -0.6123  0.7620
 8407SOL     OW26833   8.899   9.289   4.224 -0.2880  1.0080  0.4856
 8407SOL    HW126834   8.892   9.383   4.209 -1.2942  1.0352  1.0400
 8407SOL    HW226835   8.810   9.261   4.248 -0.5512 -0.4899 -1.8596
 8408SOL     OW26836   5.003   2.014   3.417 -0.1565 -0.0159  0.2428
 8408SOL    HW126837   5.000   1.964   3.335  0.7256  2.0228 -1.1163
 8408SOL    HW226838   4.938   1.971   3.473  1.0235 -3.0669 -0.5125
 8409SOL     OW26839   5.670   9.568   9.022  0.4767  0.3386 -0.2933
 8409SOL    HW126840   5.715   9.560   8.938  0.0546 -0.7930 -0.4265
 8409SOL    HW226841   5.686   9.485   9.067 -0.7819  0.2208 -0.0073
 8410SOL     OW26842   6.776   4.917   3.445 -0.0252 -0.5885  0.6314
 8410SOL    HW126843   6.782   4.882   3.534 -2.0858  0.1110  1.0946
 8410SOL    HW226844   6.864   4.903   3.408 -0.0676 -4.2565  1.4749
 8411SOL     OW26845   2.815   1.321   8.198 -0.6488 -0.0840  0.0356
 8411SOL    HW126846   2.840   1.334   8.107 -1.1620 -1.0457 -0.2644
 8411SOL    HW226847   2.860   1.240   8.224 -1.3055 -0.3757  0.3036
 8412SOL     OW26848   0.612   6.801   9.128  0.2247  0.2952  0.1047
 8412SOL    HW126849   0.649   6.768   9.046 -0.4908 -0.7843  0.2079
 8412SOL    HW226850   0.576   6.887   9.104  1.4282  0.7091 -0.3284
 8413SOL     OW26851   9.535   0.504   5.141  0.0360  0.8194  0.0280
 8413SOL    HW126852   9.495   0.581   5.180 -0.3506 -0.5227  2.4513
 8413SOL    HW226853   9.472   0.433   5.154  1.8669 -0.6968  1.2613
 8414SOL     OW26854   2.317   6.673   8.970 -0.3418 -0.1814 -0.1507
 8414SOL    HW126855   2.386   6.649   8.907  0.6179 -2.6064  1.6398
 8414SOL    HW226856   2.351   6.750   9.014  0.8037 -0.7516  0.0098
 8415SOL     OW26857   4.365   5.028   3.156 -0.2011  0.2801 -0.3622
 8415SOL    HW126858   4.337   5.118   3.175 -0.5644  0.0306  0.3104
 8415SOL    HW226859   4.444   5.038   3.103 -0.5726  0.9986 -0.7958
 8416SOL     OW26860   1.990   5.027   7.548  0.4316  0.3093 -0.6181
 8416SOL    HW126861   1.987   5.045   7.454  1.9698 -0.1095 -0.7720
 8416SOL    HW226862   1.971   4.934   7.555 -0.6863  0.5349 -0.4015
 8417SOL     OW26863   6.369   3.509   2.517  0.2509 -0.0664 -0.1082
 8417SOL    HW126864   6.433   3.479   2.582 -0.3837  0.0814  0.5901
 8417SOL    HW226865   6.350   3.599   2.543  0.7929  0.3603 -1.1371
 8418SOL     OW26866   9.612   6.159   4.861 -0.4328 -0.5177  0.7233
 8418SOL    HW126867   9.547   6.126   4.798 -1.2641 -0.4103  1.5056
 8418SOL    HW226868   9.695   6.153   4.814 -1.0716 -0.1059 -0.5201
 8419SOL     OW26869   7.694   9.056   9.312 -0.3854 -0.5789  0.2365
 8419SOL    HW126870   7.691   9.030   9.404  1.4248  1.7558  1.0630
 8419SOL    HW226871   7.666   9.148   9.313 -3.3319 -1.3498 -2.0249
 8420SOL     OW26872   2.748   7.521   9.229  0.0870  0.6686 -0.4504
 8420SOL    HW126873   2.662   7.522   9.270  0.6910 -0.9054  1.0051
 8420SOL    HW226874   2.766   7.612   9.208 -1.5125  1.1524  0.1192
 8421SOL     OW26875   9.192   8.726   2.060 -0.0078 -0.3389 -0.4682
 8421SOL    HW126876   9.135   8.802   2.068  1.0135  0.5191 -1.0379
 8421SOL    HW226877   9.139   8.661   2.014 -0.5875  0.3699 -0.8274
 8422SOL     OW26878   5.969   8.760   8.246  0.3230  0.2857 -0.4185
 8422SOL    HW126879   5.930   8.681   8.286  2.5605  0.1162  1.6859
 8422SOL    HW226880   5.986   8.818   8.320 -0.2385  2.3385 -1.8084
 8423SOL     OW26881   4.103   0.385   8.633 -0.1521 -0.3471  0.1653
 8423SOL    HW126882   4.150   0.388   8.717  0.6148  0.1447 -0.2625
 8423SOL    HW226883   4.126   0.300   8.596  0.4092 -0.1121 -0.0379
 8424SOL     OW26884   8.275   5.735   2.924 -0.0580  0.1370 -0.1163
 8424SOL    HW126885   8.368   5.752   2.937 -0.1102 -0.3110  0.9364
 8424SOL    HW226886   8.268   5.711   2.832  0.7162  1.1269 -0.4458
 8425SOL     OW26887   5.130   8.961   9.031 -0.4090 -0.2309  0.1080
 8425SOL    HW126888   5.053   8.931   8.982  0.3352 -1.0686 -0.5968
 8425SOL    HW226889   5.166   9.031   8.976 -0.7547  0.2743  0.5203
 8426SOL     OW26890   4.048   6.178   4.878 -0.3601 -0.0487  0.3546
 8426SOL    HW126891   3.953   6.190   4.875 -0.4072 -0.4424  0.1867
 8426SOL    HW226892   4.060   6.095   4.924 -0.1295 -0.4125 -0.3629
 8427SOL     OW26893   7.552   0.001   6.380  0.0318  0.2237 -0.1143
 8427SOL    HW126894   7.538   0.093   6.403 -2.8504 -0.2717  0.5391
 8427SOL    HW226895   7.505  -0.011   6.298 -2.9974 -1.3708  1.6449
 8428SOL     OW26896   5.529   0.213   2.290 -0.6360  0.1822 -0.3350
 8428SOL    HW126897   5.449   0.228   2.240 -1.0139  0.9621  0.4641
 8428SOL    HW226898   5.500   0.164   2.367 -0.7540  2.2324  1.0159
 8429SOL     OW26899   3.068   1.855   6.898  0.4748  0.0880  0.1599
 8429SOL    HW126900   3.100   1.797   6.967 -0.7198  1.1759  1.6827
 8429SOL    HW226901   3.026   1.927   6.944  0.8186  1.5567 -1.6992
 8430SOL     OW26902   2.309   0.372   4.672  0.3599 -0.0691 -0.5028
 8430SOL    HW126903   2.372   0.303   4.655  0.2381 -0.5135  0.7718
 8430SOL    HW226904   2.284   0.404   4.585  1.9228 -0.2414 -1.0355
 8431SOL     OW26905   8.563   3.854   1.503 -0.4967  0.8761 -0.4419
 8431SOL    HW126906   8.535   3.895   1.585  0.9123  0.7470  0.1335
 8431SOL    HW226907   8.512   3.773   1.498  1.6342 -0.7724  2.0088
 8432SOL     OW26908   2.491   6.729   4.957  0.2247 -0.0403 -0.2450
 8432SOL    HW126909   2.486   6.634   4.942  1.1501  0.1128 -1.7703
 8432SOL    HW226910   2.460   6.741   5.047  0.4595 -1.8353  0.1175
 8433SOL     OW26911   8.998   8.315   9.356  0.3750 -0.1295  0.4316
 8433SOL    HW126912   8.961   8.328   9.269  2.4180  0.0714 -0.4724
 8433SOL    HW226913   9.009   8.220   9.364 -0.5964 -0.2158  0.8360
 8434SOL     OW26914   4.260   3.484   1.434 -0.2360 -0.1420 -0.2413
 8434SOL    HW126915   4.312   3.416   1.478 -0.7768  0.5991  1.6641
 8434SOL    HW226916   4.309   3.565   1.448 -0.1569  0.0464 -1.5158
 8435SOL     OW26917   2.414   5.060   5.962  0.1261 -0.0957 -0.1496
 8435SOL    HW126918   2.468   4.989   5.929 -0.6039  0.2556 -2.2847
 8435SOL    HW226919   2.333   5.018   5.990  1.2132 -0.5619  2.6186
 8436SOL     OW26920   4.284   1.880   8.003  0.2079  0.1382  0.6342
 8436SOL    HW126921   4.373   1.910   7.986 -0.4749  1.4046 -1.0786
 8436SOL    HW226922   4.241   1.884   7.917 -1.3055 -1.1392  1.2768
 8437SOL     OW26923   4.529   0.518   5.336 -0.5139  0.1526  0.0392
 8437SOL    HW126924   4.451   0.566   5.311 -1.5993 -1.1667  0.7456
 8437SOL    HW226925   4.531   0.524   5.432 -0.8076 -1.3466  0.1637
 8438SOL     OW26926   8.423   0.360   7.695 -0.1833  0.8213  0.1081
 8438SOL    HW126927   8.376   0.402   7.622 -0.0183  0.0654 -0.4479
 8438SOL    HW226928   8.423   0.426   7.765 -0.6587  1.4277 -0.4494
 8439SOL     OW26929   0.567   6.619   1.943 -0.6572 -0.7864 -0.2994
 8439SOL    HW126930   0.538   6.570   1.867 -1.6501 -2.1215  0.8876
 8439SOL    HW226931   0.662   6.612   1.941 -0.7444 -2.2562 -0.5117
 8440SOL     OW26932   8.717   0.530   9.230  0.2745  0.0642 -0.2978
 8440SOL    HW126933   8.636   0.479   9.223 -0.3521  0.9151  0.5420
 8440SOL    HW226934   8.713   0.593   9.158 -1.3112  2.1017  1.4265
 8441SOL     OW26935   5.800   8.108   2.431 -0.7495 -0.1628  0.1823
 8441SOL    HW126936   5.770   8.156   2.354  0.2296  2.8938  1.5671
 8441SOL    HW226937   5.731   8.122   2.496 -1.2527 -2.1756  0.1750
 8442SOL     OW26938   5.378   8.450   2.208 -0.1023 -0.6626  0.2341
 8442SOL    HW126939   5.379   8.389   2.134 -0.2993 -0.4727  0.0712
 8442SOL    HW226940   5.430   8.407   2.275  2.7589  0.4894 -1.0811
 8443SOL     OW26941   7.553   3.349   0.282 -0.2948 -0.4139  0.4086
 8443SOL    HW126942   7.580   3.429   0.328  0.4272  0.1818 -0.9659
 8443SOL    HW226943   7.621   3.285   0.304  0.3756  0.0418 -0.2479
 8444SOL     OW26944   0.750   8.438   2.068 -0.0800  0.2862 -0.2532
 8444SOL    HW126945   0.675   8.392   2.106 -0.5394  0.6785 -0.6637
 8444SOL    HW226946   0.717   8.472   1.985  0.9074 -0.5703 -1.0152
 8445SOL     OW26947   0.579   0.130   9.175  0.1216 -0.0882 -0.0671
 8445SOL    HW126948   0.519   0.082   9.233  1.3116 -0.9877  0.4548
 8445SOL    HW226949   0.562   0.222   9.193 -2.1442 -0.2558 -0.9999
 8446SOL     OW26950   3.951   5.678   7.199 -0.6806 -0.2050  0.1860
 8446SOL    HW126951   3.970   5.608   7.261 -1.6158 -0.4336  0.2305
 8446SOL    HW226952   3.861   5.705   7.220 -0.5332  0.6214 -0.1989
 8447SOL     OW26953   2.585   2.374   2.692  0.0768 -0.3878  0.2656
 8447SOL    HW126954   2.542   2.460   2.700  0.6988 -0.1288  0.8946
 8447SOL    HW226955   2.512   2.312   2.693 -0.4986  0.1783 -1.5891
 8448SOL     OW26956   1.264   5.550   5.557 -0.5712 -0.6489 -0.7410
 8448SOL    HW126957   1.334   5.596   5.510 -1.3035  0.3477 -0.8940
 8448SOL    HW226958   1.309   5.489   5.615  0.3673 -1.6985 -2.5154
 8449SOL     OW26959   9.234   7.388   7.763 -0.4318 -0.0421 -0.0288
 8449SOL    HW126960   9.179   7.463   7.786  0.3916  0.5178  0.1408
 8449SOL    HW226961   9.287   7.419   7.690  0.1488 -0.3528  0.2565
 8450SOL     OW26962   5.333   6.673   6.722 -0.3233  0.1804 -0.2292
 8450SOL    HW126963   5.361   6.676   6.814  1.4541 -1.6418 -0.6179
 8450SOL    HW226964   5.300   6.760   6.704  0.3209  0.9233  1.8432
 8451SOL     OW26965   8.929   0.465   7.114  0.2654 -0.2717 -0.0982
 8451SOL    HW126966   8.976   0.540   7.150  0.1671  0.1713 -0.8822
 8451SOL    HW226967   8.995   0.420   7.061  0.9559 -1.9794  2.0545
 8452SOL     OW26968   4.714   1.556   3.612 -0.7440 -0.0848 -0.5119
 8452SOL    HW126969   4.656   1.485   3.639 -1.6721  0.7937 -0.1473
 8452SOL    HW226970   4.780   1.560   3.682 -0.9456 -0.2952 -0.3054
 8453SOL     OW26971   3.326   9.203   3.141  0.4325 -0.5435 -0.5722
 8453SOL    HW126972   3.316   9.161   3.056  0.0554 -1.6167 -0.0175
 8453SOL    HW226973   3.326   9.131   3.204  1.5892  0.1606  0.2797
 8454SOL     OW26974   9.096   0.621   9.288  0.6094 -0.2225 -0.0612
 8454SOL    HW126975   9.153   0.547   9.309 -1.0361 -1.4857  0.0602
 8454SOL    HW226976   9.041   0.590   9.216  1.2082  1.5814 -1.3860
 8455SOL     OW26977   3.730   0.145   1.452  0.4173  0.0458 -0.0125
 8455SOL    HW126978   3.746   0.122   1.543 -1.0923 -1.5810 -0.1102
 8455SOL    HW226979   3.817   0.157   1.414  1.0550  1.1360  1.7024
 8456SOL     OW26980   1.591   6.297   7.934 -0.6572 -0.2314 -0.2442
 8456SOL    HW126981   1.573   6.221   7.879 -1.0707 -0.3597  0.0565
 8456SOL    HW226982   1.639   6.261   8.009  1.0935  0.1475 -1.1535
 8457SOL     OW26983   7.829   4.471   3.028 -0.5623 -0.2913 -0.0464
 8457SOL    HW126984   7.849   4.501   2.939  0.0535  1.5075  0.6671
 8457SOL    HW226985   7.886   4.395   3.041  0.8392  0.6596 -0.4749
 8458SOL     OW26986   5.981   6.394   6.986  0.1539 -0.3429 -0.0221
 8458SOL    HW126987   6.012   6.305   6.966 -1.0778 -0.6379 -0.7437
 8458SOL    HW226988   6.022   6.449   6.920  1.1360 -0.3290  0.5922
 8459SOL     OW26989   8.693   3.034   5.115  0.1931  0.1315 -0.2746
 8459SOL    HW126990   8.764   3.002   5.171 -1.1058 -0.5187  1.0766
 8459SOL    HW226991   8.625   3.061   5.176 -2.6645 -3.6807 -1.3634
 8460SOL     OW26992   9.817   7.198   8.757 -0.5513 -0.1249  0.7611
 8460SOL    HW126993   9.747   7.239   8.707  0.7525  0.4424 -0.6715
 8460SOL    HW226994   9.838   7.119   8.708 -0.2001 -0.2964  1.1894
 8461SOL     OW26995   4.159   0.253   9.196 -0.0712  0.7704 -0.4495
 8461SOL    HW126996   4.240   0.249   9.145 -0.7082  0.7663 -1.5106
 8461SOL    HW226997   4.090   0.255   9.129 -0.8953  2.2230  0.3964
 8462SOL     OW26998   1.742   4.029   3.741 -0.4273  0.5989 -0.1932
 8462SOL    HW126999   1.658   4.033   3.785 -0.5651  1.0280 -0.4908
 8462SOL    HW227000   1.726   4.064   3.653 -0.2222 -0.5013 -0.6911
 8463SOL     OW27001   5.243   4.176   4.168 -0.9149 -0.0405  0.1921
 8463SOL    HW127002   5.152   4.150   4.152 -1.3857  0.9999  1.0670
 8463SOL    HW227003   5.246   4.198   4.261  0.2830 -0.2380  0.2154
 8464SOL     OW27004   7.437   7.692   3.440 -0.3828  0.2772  0.4770
 8464SOL    HW127005   7.516   7.740   3.463  0.2718 -0.5392  0.0108
 8464SOL    HW227006   7.423   7.632   3.513  1.3559 -1.8958 -0.8277
 8465SOL     OW27007   8.875   2.642   4.088 -0.2516  0.1662  0.6851
 8465SOL    HW127008   8.945   2.636   4.023 -0.0853 -0.9137  0.9440
 8465SOL    HW227009   8.895   2.721   4.138 -1.2933  2.0069 -1.5754
 8466SOL     OW27010   1.842   4.907   3.616 -0.5555  0.1789  0.1512
 8466SOL    HW127011   1.930   4.883   3.587  0.7473  2.5749  1.7526
 8466SOL    HW227012   1.788   4.901   3.537  1.4031  0.2997 -1.2643
 8467SOL     OW27013   8.334   4.229   6.379  0.3512 -0.0479 -0.0322
 8467SOL    HW127014   8.356   4.321   6.388  0.2057  0.0598 -0.6729
 8467SOL    HW227015   8.335   4.214   6.284  1.0694 -0.8755  0.0949
 8468SOL     OW27016   5.733   0.433   7.802  0.3019  0.3373  0.1380
 8468SOL    HW127017   5.715   0.523   7.829 -0.8014  0.9704 -2.4653
 8468SOL    HW227018   5.659   0.382   7.835 -0.3821  0.8640 -0.5546
 8469SOL     OW27019   3.694   6.353   0.736 -0.1883  0.4206  0.6834
 8469SOL    HW127020   3.651   6.334   0.653 -0.9293 -0.4091  1.2380
 8469SOL    HW227021   3.788   6.343   0.718 -0.3501  0.1657 -0.0261
 8470SOL     OW27022   5.727   4.873   7.007 -0.1888 -0.1586 -0.0175
 8470SOL    HW127023   5.701   4.781   7.009 -0.0836 -0.1844  0.1309
 8470SOL    HW227024   5.769   4.884   6.922  0.0462 -0.3157  0.0779
 8471SOL     OW27025   4.480   5.319   5.879 -0.0653 -0.8504 -0.1342
 8471SOL    HW127026   4.451   5.245   5.825  0.4408 -1.4734  0.4372
 8471SOL    HW227027   4.575   5.314   5.877 -0.0238 -0.1561 -0.1518
 8472SOL     OW27028   9.213   3.600   2.961  0.2537  0.6364 -0.2408
 8472SOL    HW127029   9.235   3.551   2.882  1.6502 -0.5343  0.8112
 8472SOL    HW227030   9.141   3.551   3.000  1.0001 -0.0603  0.3015
 8473SOL     OW27031   5.593   6.987   7.794  0.5151  0.5319  0.0446
 8473SOL    HW127032   5.640   7.036   7.727  1.6935 -0.7433 -0.1105
 8473SOL    HW227033   5.650   6.913   7.814 -1.5756 -1.3200 -0.4139
 8474SOL     OW27034   5.464   7.302   7.531 -0.0272  0.2086 -0.0793
 8474SOL    HW127035   5.400   7.232   7.518  0.0753  0.1089 -0.0545
 8474SOL    HW227036   5.542   7.257   7.564 -0.2014  0.4246  0.6525
 8475SOL     OW27037   1.657   4.467   2.662  0.4764 -0.3774  0.4519
 8475SOL    HW127038   1.752   4.463   2.647  0.5944 -0.4267  1.1894
 8475SOL    HW227039   1.622   4.507   2.582  1.4288  2.4704  1.3673
 8476SOL     OW27040   3.326   6.503   8.922  0.0431 -0.4453  0.4544
 8476SOL    HW127041   3.347   6.584   8.875  0.3171  0.9486  2.8129
 8476SOL    HW227042   3.238   6.480   8.892 -0.1573  0.8948 -0.0627
 8477SOL     OW27043   0.930   5.341   9.420  0.4143 -0.5539  0.1955
 8477SOL    HW127044   0.893   5.429   9.421 -0.9102 -1.0450 -1.0008
 8477SOL    HW227045   0.882   5.294   9.488  0.5803 -0.5513  0.3142
 8478SOL     OW27046   4.523   6.398   3.529  0.0251 -0.0023  0.2325
 8478SOL    HW127047   4.582   6.337   3.572  2.5438  0.7934 -1.7914
 8478SOL    HW227048   4.473   6.439   3.600  0.4106 -2.1926  1.8532
 8479SOL     OW27049   0.936   2.317   8.294 -0.2951 -0.0206 -0.5410
 8479SOL    HW127050   0.955   2.372   8.218  1.0769  0.8525  0.3924
 8479SOL    HW227051   0.939   2.228   8.260 -1.0412  0.3845 -1.7676
 8480SOL     OW27052   6.511   5.680   4.919 -0.2310  0.1400 -0.1821
 8480SOL    HW127053   6.463   5.603   4.949  0.7303  0.1038  1.3693
 8480SOL    HW227054   6.454   5.753   4.939  0.5948  0.1692  2.3944
 8481SOL     OW27055   3.653   9.246   7.018 -0.3743 -0.7518  0.3270
 8481SOL    HW127056   3.676   9.163   7.058  0.5339 -0.3777  0.6016
 8481SOL    HW227057   3.726   9.304   7.037 -0.7658 -0.0240 -0.2815
 8482SOL     OW27058   5.771   9.263   6.015  0.2956  0.7214 -0.2856
 8482SOL    HW127059   5.697   9.243   6.072  0.6108 -0.6604 -0.3220
 8482SOL    HW227060   5.843   9.281   6.076  0.7424 -1.1756 -0.1938
 8483SOL     OW27061   2.364   7.728   1.767  0.0641  0.2945  0.1312
 8483SOL    HW127062   2.287   7.671   1.769  0.5286 -0.3984 -0.8076
 8483SOL    HW227063   2.367   7.768   1.854 -1.3795  0.3807  0.1668
 8484SOL     OW27064   5.962   5.381   5.924 -0.4385 -0.5902 -0.1371
 8484SOL    HW127065   5.975   5.463   5.875 -0.7744 -1.1551 -1.2091
 8484SOL    HW227066   6.016   5.392   6.002  2.6013 -0.8341 -2.0251
 8485SOL     OW27067   2.508   1.942   7.287 -0.7995  0.4209  0.5437
 8485SOL    HW127068   2.535   1.851   7.276 -0.3355  0.6707 -0.5544
 8485SOL    HW227069   2.451   1.941   7.363  0.2527 -0.5650  1.3614
 8486SOL     OW27070   8.836   4.897   4.557 -0.2020  0.2032  0.2863
 8486SOL    HW127071   8.741   4.902   4.546 -0.2561 -0.5304  0.3943
 8486SOL    HW227072   8.857   4.972   4.612 -0.5834  0.9536 -0.5601
 8487SOL     OW27073   0.296   7.409   3.683 -0.5997 -0.0520  0.5322
 8487SOL    HW127074   0.351   7.395   3.606 -0.0779 -2.2117  1.2205
 8487SOL    HW227075   0.236   7.480   3.658  1.4877  1.3467 -0.7589
 8488SOL     OW27076   9.083   5.920   3.225 -0.2047  0.3498 -0.1352
 8488SOL    HW127077   9.009   5.869   3.192  0.2738  0.6171 -1.6631
 8488SOL    HW227078   9.149   5.916   3.156  0.3982  1.8555  0.3004
 8489SOL     OW27079   2.520   7.771   0.608 -0.1225 -0.5848 -0.5428
 8489SOL    HW127080   2.460   7.705   0.643 -4.2452  2.1769 -1.6404
 8489SOL    HW227081   2.530   7.748   0.516  1.3450 -1.5121 -0.1848
 8490SOL     OW27082   8.491   8.651   5.465 -0.1731  0.1591  0.2843
 8490SOL    HW127083   8.491   8.747   5.461  0.6134  0.2004  0.9674
 8490SOL    HW227084   8.401   8.627   5.445 -0.3857  1.0435  0.1057
 8491SOL     OW27085   7.086   6.935   7.680  0.1235  0.3114 -0.4155
 8491SOL    HW127086   7.000   6.915   7.643 -0.2420  1.9657 -0.5783
 8491SOL    HW227087   7.106   6.860   7.736 -0.2413 -1.2875 -2.3202
 8492SOL     OW27088   0.019   2.565   6.828  0.2520 -0.1560  0.1246
 8492SOL    HW127089   0.030   2.600   6.739 -1.7560  1.4770  0.4561
 8492SOL    HW227090  -0.076   2.558   6.840  0.4368  0.5432  2.4738
 8493SOL     OW27091   9.346   4.599   4.652 -0.0833  0.2176  0.2958
 8493SOL    HW127092   9.351   4.548   4.571 -1.4326  1.7140 -0.7855
 8493SOL    HW227093   9.437   4.604   4.682  0.2453 -1.6842 -0.2439
 8494SOL     OW27094   7.325   2.076   5.952 -0.0587 -1.0023 -0.1675
 8494SOL    HW127095   7.304   2.151   5.896  2.2069  0.9373  1.3663
 8494SOL    HW227096   7.346   2.114   6.037  1.8323 -3.2827  0.5191
 8495SOL     OW27097   1.476   8.274   2.498  0.1927 -0.2595  0.1386
 8495SOL    HW127098   1.508   8.321   2.421  0.4090 -0.7609 -0.0805
 8495SOL    HW227099   1.555   8.239   2.540 -0.0595 -1.8316 -0.6167
 8496SOL     OW27100   0.939   2.304   6.347 -0.7218  0.3512  0.2812
 8496SOL    HW127101   0.922   2.215   6.318 -0.1050  0.3084  0.0262
 8496SOL    HW227102   0.995   2.341   6.279 -1.0476  0.9637  0.3386
 8497SOL     OW27103   0.296   4.121   7.660  0.1880  0.2606  0.1354
 8497SOL    HW127104   0.234   4.179   7.704  0.1119 -0.4388  0.9778
 8497SOL    HW227105   0.381   4.162   7.673 -0.0915  1.4555 -1.3953
 8498SOL     OW27106   5.250   5.803   5.398  0.0246 -0.3977 -0.0961
 8498SOL    HW127107   5.293   5.854   5.467  3.0760 -1.8830 -0.7028
 8498SOL    HW227108   5.232   5.718   5.439 -2.1711  0.0945  0.0403
 8499SOL     OW27109   8.510   3.761   9.245  0.0978 -0.7107 -0.6476
 8499SOL    HW127110   8.457   3.786   9.169 -1.6109 -1.6616  0.1836
 8499SOL    HW227111   8.540   3.672   9.226 -3.0077 -2.2772  1.0452
 8500SOL     OW27112   4.882   1.230   8.321  0.1074  0.0167  0.4115
 8500SOL    HW127113   4.940   1.177   8.267 -0.1563 -1.8316  1.8686
 8500SOL    HW227114   4.934   1.253   8.398 -1.0297 -1.7492  1.7899
 8501SOL     OW27115   6.406   7.818   1.921  0.3873 -0.2059  0.5301
 8501SOL    HW127116   6.318   7.835   1.954  0.3043  1.6052 -0.4842
 8501SOL    HW227117   6.394   7.764   1.844 -0.1481  2.0858 -1.1157
 8502SOL     OW27118   8.321   5.269   9.627 -0.2196 -0.3654 -0.4400
 8502SOL    HW127119   8.389   5.209   9.596 -1.3584 -1.4983 -0.8554
 8502SOL    HW227120   8.307   5.245   9.718 -0.1411 -0.2126 -0.3875
 8503SOL     OW27121   8.498   0.547   4.756 -0.0822 -0.8207  0.1475
 8503SOL    HW127122   8.483   0.465   4.804  1.0682 -2.1131 -1.5574
 8503SOL    HW227123   8.567   0.591   4.806 -0.5888 -0.9445  0.9860
 8504SOL     OW27124   3.976   5.010   3.458 -0.0483  0.3574  0.6177
 8504SOL    HW127125   4.056   5.062   3.463  0.0059  0.1990  1.4178
 8504SOL    HW227126   3.955   4.988   3.548 -0.6927 -0.0721  0.3728
 8505SOL     OW27127   7.617   2.259   9.391 -0.0368  0.8179  0.0509
 8505SOL    HW127128   7.632   2.293   9.479  2.3568  0.3810 -0.1337
 8505SOL    HW227129   7.674   2.311   9.334  1.0335 -1.1029 -0.7272
 8506SOL     OW27130   9.827   8.729   0.948  0.3468  0.0421 -0.7318
 8506SOL    HW127131   9.790   8.802   0.899 -0.6044  0.1990  0.1816
 8506SOL    HW227132   9.751   8.689   0.991  1.1476 -0.1124  0.5679
 8507SOL     OW27133   9.159   4.135   5.369 -0.2036  0.0689  0.4898
 8507SOL    HW127134   9.192   4.060   5.418 -0.7265 -0.5556 -0.0975
 8507SOL    HW227135   9.096   4.098   5.307 -0.3832  0.9764  0.1100
 8508SOL     OW27136   7.636   6.264   6.906 -0.0024 -0.5381 -0.1280
 8508SOL    HW127137   7.582   6.322   6.852  0.4183  1.3354  1.3381
 8508SOL    HW227138   7.584   6.251   6.986  0.9347 -0.1681  0.5550
 8509SOL     OW27139   8.313   0.825   4.613  0.1781 -0.5888  0.6783
 8509SOL    HW127140   8.317   0.850   4.520 -1.7717 -1.0905  0.4048
 8509SOL    HW227141   8.320   0.730   4.613 -2.3554 -0.8531  0.7365
 8510SOL     OW27142   9.728   0.971   4.872  0.7342  0.0683 -0.3038
 8510SOL    HW127143   9.696   1.024   4.799 -0.9770  0.2265  0.5227
 8510SOL    HW227144   9.819   1.000   4.884  0.3258  1.7093 -0.8675
 8511SOL     OW27145   2.802   6.518   9.763 -0.1774  0.1989 -0.4176
 8511SOL    HW127146   2.751   6.437   9.760 -0.4647  0.3355  0.4286
 8511SOL    HW227147   2.819   6.539   9.671 -1.2181 -0.1229 -0.7026
 8512SOL     OW27148   1.025   3.928   7.093 -0.0346  0.4372  0.4699
 8512SOL    HW127149   1.031   3.852   7.150 -0.7014  1.4218  1.9301
 8512SOL    HW227150   0.934   3.929   7.064 -0.2784  1.1671  1.2116
 8513SOL     OW27151   5.302   7.129   7.745 -0.0834  0.2662 -0.6457
 8513SOL    HW127152   5.292   7.035   7.729 -1.0447  0.0196  1.1530
 8513SOL    HW227153   5.367   7.135   7.814  0.7649  1.0093 -1.4935
 8514SOL     OW27154   1.288   9.363   1.981 -0.3331 -0.2131  0.3643
 8514SOL    HW127155   1.377   9.397   1.979 -0.7688  1.0277 -1.8032
 8514SOL    HW227156   1.263   9.355   1.889 -2.6225 -0.0688  0.9026
 8515SOL     OW27157   3.830   4.854   8.081 -0.0594 -0.0518 -0.0103
 8515SOL    HW127158   3.778   4.778   8.107  0.0741  0.4283  1.8209
 8515SOL    HW227159   3.901   4.818   8.028 -0.4709 -1.1091  0.1381
 8516SOL     OW27160   9.603   8.971   4.361 -0.3134  0.4651  0.3455
 8516SOL    HW127161   9.513   8.985   4.389  0.5168  0.5969  3.2268
 8516SOL    HW227162   9.653   9.041   4.402  1.2418 -0.0341 -0.5822
 8517SOL     OW27163   1.026   2.909   8.614  0.7676 -0.1523  0.2362
 8517SOL    HW127164   1.031   2.973   8.543  1.2256 -0.4002  0.0439
 8517SOL    HW227165   0.962   2.946   8.675 -0.9985 -0.7710 -1.1481
 8518SOL     OW27166   3.069   5.866   3.950  0.1923 -0.1934 -0.2878
 8518SOL    HW127167   3.058   5.782   3.905 -1.3776 -0.0057 -0.3029
 8518SOL    HW227168   3.061   5.845   4.043  0.7823 -0.1925 -0.2332
 8519SOL     OW27169   4.463   2.896   9.750 -0.7696 -0.3564  0.4499
 8519SOL    HW127170   4.477   2.833   9.679 -0.8199  1.6831 -1.4856
 8519SOL    HW227171   4.382   2.866   9.792 -0.1157 -2.2735  0.4345
 8520SOL     OW27172   9.449   2.521   2.212  0.1691  0.1244  0.2922
 8520SOL    HW127173   9.530   2.528   2.263  0.9933 -0.1905 -0.9228
 8520SOL    HW227174   9.428   2.611   2.190  0.2326  0.2030  0.5438
 8521SOL     OW27175   6.921   3.817   2.153 -0.4012  0.5214  0.3038
 8521SOL    HW127176   6.919   3.899   2.104  1.0493 -0.0404 -0.8095
 8521SOL    HW227177   6.882   3.753   2.093  0.1724  0.0753  0.3922
 8522SOL     OW27178   3.387   6.375   5.446 -0.3001 -0.2023  0.2295
 8522SOL    HW127179   3.465   6.361   5.391  0.0130 -1.0323  0.8674
 8522SOL    HW227180   3.379   6.295   5.497 -1.3318  0.0548  0.4903
 8523SOL     OW27181   4.823   8.229   7.576  0.0278 -0.1647  0.1589
 8523SOL    HW127182   4.850   8.302   7.522 -0.4868  1.3724  1.8696
 8523SOL    HW227183   4.904   8.186   7.602  0.2450 -1.7803 -2.8136
 8524SOL     OW27184   5.497   0.648   0.799  0.5000 -0.4494  0.0635
 8524SOL    HW127185   5.455   0.563   0.809  1.3896 -1.0326 -0.9297
 8524SOL    HW227186   5.445   0.693   0.732  1.7857 -1.4526 -1.7071
 8525SOL     OW27187   8.077   6.697   3.993 -0.0244  0.0735  0.4599
 8525SOL    HW127188   8.007   6.751   3.955  1.0010  2.7756  2.0752
 8525SOL    HW227189   8.031   6.631   4.044 -1.3700  0.2240 -0.4898
 8526SOL     OW27190   1.413   6.140   4.993  0.0550  0.0315 -0.5300
 8526SOL    HW127191   1.433   6.206   5.060 -1.7159 -0.1343  0.2062
 8526SOL    HW227192   1.399   6.191   4.913  2.1452  0.2328 -0.8279
 8527SOL     OW27193   8.219   2.368   9.669 -0.1491 -0.1101 -0.9138
 8527SOL    HW127194   8.190   2.347   9.758 -2.0691  0.9121 -1.2377
 8527SOL    HW227195   8.271   2.448   9.679  1.8752 -1.3999 -0.4516
 8528SOL     OW27196   1.401   5.309   9.155 -0.3207 -0.2977  0.7902
 8528SOL    HW127197   1.466   5.302   9.086  0.4228  0.0085  1.4511
 8528SOL    HW227198   1.372   5.400   9.153 -0.6441 -0.4013  0.5848
 8529SOL     OW27199   8.482   2.894   0.229 -0.5494 -0.6467  0.7683
 8529SOL    HW127200   8.431   2.816   0.206 -1.1954  0.1548 -0.5799
 8529SOL    HW227201   8.557   2.892   0.169 -1.7322  0.9250 -0.8776
 8530SOL     OW27202   4.724   0.499   8.910 -0.0285 -0.0563  0.4853
 8530SOL    HW127203   4.751   0.487   9.001 -1.6196  0.9178  1.1429
 8530SOL    HW227204   4.747   0.590   8.890  3.5766 -1.1857 -1.3598
 8531SOL     OW27205   1.827   6.971   9.249 -0.3947 -0.3653  0.2261
 8531SOL    HW127206   1.869   6.905   9.303  0.1232  0.1982  0.5191
 8531SOL    HW227207   1.895   7.000   9.188 -0.5810 -0.0125  0.1798
 8532SOL     OW27208   0.722   1.130   6.049 -0.6429  0.2975  0.3381
 8532SOL    HW127209   0.720   1.112   6.143 -0.3451 -1.9717 -0.0192
 8532SOL    HW227210   0.810   1.165   6.034 -0.0104 -1.0600  0.6808
 8533SOL     OW27211   4.053   9.506   2.906 -0.0998  0.0276 -0.7719
 8533SOL    HW127212   3.978   9.447   2.915 -0.9891  1.3051  0.6201
 8533SOL    HW227213   4.103   9.492   2.986  1.7031 -1.4677 -2.0732
 8534SOL     OW27214   9.414   3.828   2.199  0.4777  0.0481 -0.5932
 8534SOL    HW127215   9.431   3.900   2.139 -1.8950 -0.0352 -1.4718
 8534SOL    HW227216   9.319   3.812   2.192  0.7354 -2.4309  0.3827
 8535SOL     OW27217   3.065   8.155   4.584  0.2954  0.4697 -0.8142
 8535SOL    HW127218   3.017   8.169   4.502 -1.5327  0.2739  0.1602
 8535SOL    HW227219   2.997   8.129   4.647  1.7644 -0.2062  0.5610
 8536SOL     OW27220   3.650   7.711   0.253 -0.2148  0.2778  0.4853
 8536SOL    HW127221   3.702   7.638   0.221  0.2605  1.0417 -0.5689
 8536SOL    HW227222   3.565   7.700   0.212  0.2035  0.9083 -0.6163
 8537SOL     OW27223   1.497   1.135   9.259 -0.1330  0.2506  0.5784
 8537SOL    HW127224   1.432   1.064   9.261 -0.9503  0.9946  1.0523
 8537SOL    HW227225   1.580   1.092   9.281 -0.2019 -0.9618 -1.3057
 8538SOL     OW27226   4.770   5.706   3.042 -0.8607 -0.2340  0.0767
 8538SOL    HW127227   4.682   5.711   3.078 -0.6342 -1.4607  0.8586
 8538SOL    HW227228   4.803   5.621   3.071 -0.6485 -1.3510 -3.0571
 8539SOL     OW27229   6.614   8.049   3.617  0.3024 -0.6478  0.0729
 8539SOL    HW127230   6.660   8.063   3.534 -1.6132  0.7133 -0.8376
 8539SOL    HW227231   6.528   8.017   3.591  0.1534 -1.6124  1.6383
 8540SOL     OW27232   6.430   3.009   1.151 -0.0074 -0.2388  0.2990
 8540SOL    HW127233   6.486   3.001   1.074 -0.4371  1.5385 -0.2596
 8540SOL    HW227234   6.341   3.000   1.116 -0.2472  1.4295  0.4055
 8541SOL     OW27235   2.731   4.935   6.248 -0.0218 -0.2854  0.2990
 8541SOL    HW127236   2.725   4.904   6.339  1.3377 -3.0862 -0.4627
 8541SOL    HW227237   2.659   4.890   6.203 -1.2926  1.8283  0.0944
 8542SOL     OW27238   5.050   5.508   4.706 -0.2623  0.4516 -0.0404
 8542SOL    HW127239   4.981   5.562   4.744  0.7255  1.3360  0.5637
 8542SOL    HW227240   5.072   5.445   4.775  0.4319  1.0224  0.2663
 8543SOL     OW27241   7.352   2.380   4.377 -0.0656  0.2645  0.2308
 8543SOL    HW127242   7.297   2.302   4.371  0.6063 -0.1226 -3.0575
 8543SOL    HW227243   7.442   2.346   4.384  0.1029  0.7893  0.7158
 8544SOL     OW27244   4.547   0.974   5.989  0.0111  0.5152 -0.0140
 8544SOL    HW127245   4.564   1.014   6.075 -0.1088 -2.2501  1.3846
 8544SOL    HW227246   4.457   0.943   5.995  1.1013 -2.9191  0.3152
 8545SOL     OW27247   8.067   3.629   9.767  0.2583 -0.0661 -0.1497
 8545SOL    HW127248   8.095   3.720   9.765  1.6574 -0.4687 -0.0786
 8545SOL    HW227249   7.976   3.632   9.795  0.8096  1.2001  1.6386
 8546SOL     OW27250   0.019   1.831   3.700 -0.0165  0.1258 -0.1320
 8546SOL    HW127251   0.096   1.825   3.643  0.5351  0.1634  0.5934
 8546SOL    HW227252   0.014   1.747   3.744  1.0839  0.9358  1.6499
 8547SOL     OW27253   5.252   4.241   2.360 -0.6207 -0.4745 -0.0445
 8547SOL    HW127254   5.303   4.174   2.315 -0.7711  0.0980 -1.1082
 8547SOL    HW227255   5.205   4.286   2.289 -0.6003  0.6742  0.6547
 8548SOL     OW27256   7.541   9.752   4.894 -0.1457  0.2692 -0.5600
 8548SOL    HW127257   7.637   9.744   4.897  0.0098  2.0905  0.4753
 8548SOL    HW227258   7.524   9.816   4.826 -0.5702  0.6359 -0.1178
 8549SOL     OW27259   9.465   9.058   4.691  0.5450  0.6375  0.0849
 8549SOL    HW127260   9.419   9.119   4.633 -0.0020  0.2960  0.1513
 8549SOL    HW227261   9.497   9.113   4.763 -1.6483  0.5859  1.1730
 8550SOL     OW27262   7.213   9.798   2.446 -0.2501  0.0740 -0.1059
 8550SOL    HW127263   7.218   9.884   2.487  2.1907  0.0181 -0.1614
 8550SOL    HW227264   7.222   9.816   2.352 -0.7059 -0.1697 -0.1959
 8551SOL     OW27265   4.266   6.827   6.656  0.2168  0.1103 -0.6305
 8551SOL    HW127266   4.306   6.744   6.681  0.9633  0.5849 -0.1998
 8551SOL    HW227267   4.338   6.891   6.662  0.3531  0.3630 -3.5306
 8552SOL     OW27268   7.626   3.621   7.812  0.4915 -0.1312  0.3409
 8552SOL    HW127269   7.711   3.580   7.823  0.9365  0.7021  0.0739
 8552SOL    HW227270   7.619   3.638   7.718  0.8521  1.4978  0.5772
 8553SOL     OW27271   6.887   1.879   1.463 -0.0074 -0.3870 -0.0219
 8553SOL    HW127272   6.834   1.819   1.411 -0.2683 -0.0160 -0.1922
 8553SOL    HW227273   6.956   1.908   1.402 -1.5808  1.7632 -0.9116
 8554SOL     OW27274   6.312   6.616   4.822  0.2122 -0.4437 -0.2925
 8554SOL    HW127275   6.257   6.545   4.789  1.6164 -1.0267 -1.5293
 8554SOL    HW227276   6.313   6.603   4.917 -0.5405 -1.3280 -0.3865
 8555SOL     OW27277   4.468   5.190   0.862 -0.3790  0.4807 -0.2119
 8555SOL    HW127278   4.500   5.216   0.949  0.2061 -2.1168  0.4472
 8555SOL    HW227279   4.374   5.208   0.865  0.3155  5.7954 -1.2362
 8556SOL     OW27280   6.675   0.369   8.013 -0.0557  0.8525 -0.0617
 8556SOL    HW127281   6.763   0.395   7.984  0.7379 -1.1751  0.3174
 8556SOL    HW227282   6.668   0.403   8.102  1.3096 -0.8785  0.7639
 8557SOL     OW27283   4.435   8.360   9.297  0.3276  0.2032 -0.2601
 8557SOL    HW127284   4.460   8.452   9.295 -1.0371  0.6443  1.0649
 8557SOL    HW227285   4.353   8.357   9.248  0.0858 -0.2059  0.1645
 8558SOL     OW27286   6.945   0.940   4.821 -0.3769 -0.1640 -0.1300
 8558SOL    HW127287   6.974   1.009   4.761  0.1583  1.0520  1.4830
 8558SOL    HW227288   6.851   0.954   4.830 -0.8551 -1.5436 -2.0976
 8559SOL     OW27289   0.743   0.500   6.028 -0.4368 -0.4086 -0.8353
 8559SOL    HW127290   0.678   0.552   5.981  0.2877  0.5839 -0.7771
 8559SOL    HW227291   0.692   0.434   6.075 -1.5978  1.4405  0.6602
 8560SOL     OW27292   6.640   5.551   0.972  0.7074  0.2688  0.0267
 8560SOL    HW127293   6.693   5.525   0.897 -2.2297 -2.2667 -1.4019
 8560SOL    HW227294   6.588   5.625   0.940  0.9363  0.5710  0.3293
 8561SOL     OW27295   1.507   1.705   8.613 -0.1189 -0.4884  0.1452
 8561SOL    HW127296   1.554   1.785   8.636 -1.0374 -0.1196  0.8401
 8561SOL    HW227297   1.415   1.731   8.614 -0.3438 -1.1601 -1.2930
 8562SOL     OW27298   4.119   3.958   0.101  0.3270 -0.1987  0.0985
 8562SOL    HW127299   4.171   3.933   0.025 -2.7976  1.5141 -2.9443
 8562SOL    HW227300   4.068   3.880   0.122  0.2586 -0.3205 -0.4910
 8563SOL     OW27301   7.573   7.267   5.794 -0.1517 -0.0370  0.6112
 8563SOL    HW127302   7.527   7.214   5.858 -1.2131  0.2362  0.0845
 8563SOL    HW227303   7.581   7.211   5.716 -1.0603  0.4622  0.1391
 8564SOL     OW27304   7.313   0.359   3.478 -0.7251  0.1629  0.0116
 8564SOL    HW127305   7.390   0.327   3.524 -0.6626 -0.1555 -0.3050
 8564SOL    HW227306   7.272   0.280   3.442  0.3787  0.5541 -2.2774
 8565SOL     OW27307   8.009   5.596   9.513  0.3874  0.2522  0.6356
 8565SOL    HW127308   7.918   5.570   9.501  0.1250  0.6525  1.6492
 8565SOL    HW227309   8.004   5.687   9.542  1.2305  1.1453 -1.7978
 8566SOL     OW27310   6.719   1.735   1.842  0.4466 -0.1110 -0.1428
 8566SOL    HW127311   6.711   1.812   1.899  1.4999 -0.6147  0.7217
 8566SOL    HW227312   6.693   1.767   1.755 -1.1736  0.6768  0.5881
 8567SOL     OW27313   2.643   4.113   6.017 -0.0983  0.5614 -0.7791
 8567SOL    HW127314   2.685   4.118   6.103  1.0338 -1.3885 -1.1538
 8567SOL    HW227315   2.644   4.202   5.983  1.2123  1.0184  0.4177
 8568SOL     OW27316   6.145   6.815   8.994 -0.2602  0.1231 -0.5611
 8568SOL    HW127317   6.181   6.726   9.000 -0.9991 -0.1968 -0.8218
 8568SOL    HW227318   6.216   6.866   8.955  0.7250 -0.0196  0.9393
 8569SOL     OW27319   5.802   9.278   7.746  0.0162  0.0636 -0.2862
 8569SOL    HW127320   5.873   9.303   7.804 -0.7250 -0.3863  0.8686
 8569SOL    HW227321   5.814   9.184   7.732  0.1211  0.1474 -0.7543
 8570SOL     OW27322   1.980   2.797   8.106  0.2863  0.2462  0.0786
 8570SOL    HW127323   2.053   2.859   8.099  0.4430  0.0212 -0.3405
 8570SOL    HW227324   2.022   2.711   8.100  0.1534  0.0792  1.4026
 8571SOL     OW27325   9.789   3.343   3.171 -0.2983  0.1197 -0.1154
 8571SOL    HW127326   9.754   3.409   3.230  0.2952 -0.4553  0.8999
 8571SOL    HW227327   9.764   3.374   3.084 -1.4497  0.8248  0.4375
 8572SOL     OW27328   1.586   0.754   0.147  0.2676  0.1403  0.4533
 8572SOL    HW127329   1.619   0.683   0.091  1.0918  0.9481 -0.1077
 8572SOL    HW227330   1.562   0.710   0.228 -0.1292 -0.9311 -0.2149
 8573SOL     OW27331   8.839   6.148   3.485 -0.1546  0.8466  0.0775
 8573SOL    HW127332   8.852   6.132   3.578  1.0252 -1.1095 -0.3747
 8573SOL    HW227333   8.746   6.165   3.476 -0.9209 -2.1692  1.2324
 8574SOL     OW27334   8.295   2.729   0.410  0.1938 -0.1837 -0.3232
 8574SOL    HW127335   8.316   2.700   0.321  0.0683 -0.1558 -0.3615
 8574SOL    HW227336   8.364   2.691   0.464  0.2444 -0.2392 -0.4264
 8575SOL     OW27337   1.736   0.819   4.273  0.4592  0.1474  0.7742
 8575SOL    HW127338   1.746   0.912   4.253  0.8365  0.1979  1.1809
 8575SOL    HW227339   1.825   0.784   4.273  0.3416 -0.1588  0.8992
 8576SOL     OW27340   7.017   1.500   0.784  0.5425 -0.2208  0.1340
 8576SOL    HW127341   6.937   1.455   0.756  0.1087 -0.0593  1.0648
 8576SOL    HW227342   7.086   1.436   0.771 -0.2180 -1.7011  2.5650
 8577SOL     OW27343   1.427   6.336   7.034 -0.4738  0.1576  0.4409
 8577SOL    HW127344   1.357   6.363   7.095 -1.0520  0.0965 -0.1830
 8577SOL    HW227345   1.385   6.271   6.978 -0.3741  1.3036 -0.9930
 8578SOL     OW27346   9.228   5.805   9.509 -0.8533 -0.0002  0.6057
 8578SOL    HW127347   9.311   5.757   9.509 -0.1944  1.0884 -0.1312
 8578SOL    HW227348   9.207   5.816   9.602  0.4200  0.6582  0.8478
 8579SOL     OW27349   5.401   9.157   1.063 -0.5960 -0.2641 -0.2663
 8579SOL    HW127350   5.494   9.149   1.084 -0.5302  1.7604  0.4698
 8579SOL    HW227351   5.398   9.192   0.974 -0.5154  2.0813  0.5818
 8580SOL     OW27352   0.417   9.479   2.224  0.3835  0.4332  0.6521
 8580SOL    HW127353   0.474   9.408   2.193  0.0625  0.1470  0.7077
 8580SOL    HW227354   0.468   9.523   2.291  0.7242  0.4728  0.3694
 8581SOL     OW27355   8.423   1.244   1.172 -0.0472 -0.3403  0.7677
 8581SOL    HW127356   8.496   1.302   1.193 -0.1204 -0.4267  1.2865
 8581SOL    HW227357   8.464   1.161   1.149  0.0727 -0.0152 -0.2604
 8582SOL     OW27358   4.402   6.596   5.469 -0.0874 -0.5760 -0.1858
 8582SOL    HW127359   4.392   6.680   5.425 -0.9631 -0.9646 -0.7532
 8582SOL    HW227360   4.455   6.544   5.408  0.4936 -0.4292  0.1857
 8583SOL     OW27361   7.863   1.086   4.865  0.0015 -0.2892 -0.0336
 8583SOL    HW127362   7.929   1.052   4.806  1.8007 -0.1950  1.7943
 8583SOL    HW227363   7.864   1.181   4.850  0.4908 -0.2604  0.1477
 8584SOL     OW27364   2.099   3.239   6.371  0.0603  0.6498 -0.5191
 8584SOL    HW127365   2.117   3.319   6.323 -2.3202  1.5443 -0.0435
 8584SOL    HW227366   2.015   3.254   6.414 -0.0939 -1.8102  0.2362
 8585SOL     OW27367   8.422   8.555   6.959 -0.6043 -0.2081  0.3423
 8585SOL    HW127368   8.406   8.533   6.867 -1.3167 -0.7857  0.5916
 8585SOL    HW227369   8.476   8.634   6.956 -2.0969  0.8337 -0.5710
 8586SOL     OW27370   2.195   6.864   8.275  0.0734  0.1885  0.5612
 8586SOL    HW127371   2.213   6.838   8.184 -0.9872  1.1750  0.0528
 8586SOL    HW227372   2.208   6.783   8.325 -1.7201 -1.0303 -0.7967
 8587SOL     OW27373   8.527   9.622   8.324 -0.1764 -0.2853  0.4434
 8587SOL    HW127374   8.622   9.611   8.311 -0.2540 -1.7919  0.8824
 8587SOL    HW227375   8.518   9.702   8.374  1.0866 -1.3862  2.5786
 8588SOL     OW27376   0.337   7.163   1.153  0.5275  0.2712  0.4919
 8588SOL    HW127377   0.315   7.072   1.134 -3.8164  1.5113 -1.8625
 8588SOL    HW227378   0.372   7.198   1.071  0.1110  1.1944  0.6884
 8589SOL     OW27379   1.194   4.991   5.781 -0.0150  0.0947  0.1125
 8589SOL    HW127380   1.285   5.004   5.805 -0.3044  0.4001  1.0746
 8589SOL    HW227381   1.156   5.078   5.783 -0.2513  0.0213 -0.6608
 8590SOL     OW27382   5.589   7.457   9.144 -0.1292 -0.3671  0.3533
 8590SOL    HW127383   5.650   7.508   9.090 -0.3992  1.0803  1.3394
 8590SOL    HW227384   5.512   7.446   9.089 -0.2880  0.8286  0.2973
 8591SOL     OW27385   1.987   5.497   4.450  0.1551 -0.4063 -0.1916
 8591SOL    HW127386   2.026   5.458   4.371  1.5637  0.3762  0.0752
 8591SOL    HW227387   1.963   5.423   4.505  0.2966 -0.9337 -0.8275
 8592SOL     OW27388   2.800   0.769   5.092  0.1450  0.6015 -0.0234
 8592SOL    HW127389   2.805   0.695   5.152  1.3315 -0.3031 -1.1861
 8592SOL    HW227390   2.722   0.753   5.040  0.5510  0.0082 -0.4589
 8593SOL     OW27391   3.085   6.672   3.571 -0.5901  0.1025  0.1010
 8593SOL    HW127392   3.014   6.704   3.627  0.6005  1.0382  1.1288
 8593SOL    HW227393   3.159   6.728   3.593  0.0240  0.2478 -2.1699
 8594SOL     OW27394   8.595   8.446   1.418 -0.2214  0.1865  0.1869
 8594SOL    HW127395   8.535   8.424   1.347  0.8218  2.1796 -1.4103
 8594SOL    HW227396   8.599   8.542   1.418  1.8723  0.1554  1.1628
 8595SOL     OW27397   9.057   6.330   4.043 -0.0801  0.2627  0.1738
 8595SOL    HW127398   9.052   6.377   4.126 -0.0096  1.0449 -0.2501
 8595SOL    HW227399   9.147   6.344   4.013  0.0735 -0.5332  0.2604
 8596SOL     OW27400   1.530   9.653   2.572 -0.1603  0.3319 -0.3710
 8596SOL    HW127401   1.505   9.617   2.657  2.6156  0.1851  0.4774
 8596SOL    HW227402   1.603   9.597   2.543  0.6598  1.9659 -1.5970
 8597SOL     OW27403   5.178   9.023   8.725  0.9364  0.4332  0.2247
 8597SOL    HW127404   5.189   9.105   8.676 -0.7075  0.6008  0.0738
 8597SOL    HW227405   5.143   8.961   8.661 -0.3343  0.3831  0.9386
 8598SOL     OW27406   9.253   3.348   7.148 -0.3722  0.1029  0.4592
 8598SOL    HW127407   9.326   3.409   7.142 -0.2297 -0.1286 -0.2306
 8598SOL    HW227408   9.219   3.360   7.237 -1.2846  2.2600 -0.1060
 8599SOL     OW27409   4.085   3.008   3.674  0.3901  0.2264 -0.0658
 8599SOL    HW127410   4.149   2.968   3.614 -1.0915 -0.1797 -1.4272
 8599SOL    HW227411   4.130   3.085   3.708  2.3322 -1.0999  0.5611
 8600SOL     OW27412   3.200   9.018   1.928  0.3882  0.3060 -0.4438
 8600SOL    HW127413   3.159   9.085   1.982  0.7305  1.0302 -1.0638
 8600SOL    HW227414   3.162   8.936   1.958 -0.9266  0.8878 -0.4759
 8601SOL     OW27415   7.593   2.413   6.336  0.7038  0.4998  0.4199
 8601SOL    HW127416   7.614   2.320   6.335  1.8386  0.7405  0.4051
 8601SOL    HW227417   7.643   2.450   6.263 -2.2069  0.6488 -1.6845
 8602SOL     OW27418   9.232   2.582   7.097  0.5407  0.2754 -0.2087
 8602SOL    HW127419   9.170   2.598   7.026 -1.3035  0.1723  1.3012
 8602SOL    HW227420   9.230   2.663   7.149  1.2922  0.0759  0.1442
 8603SOL     OW27421   3.730   2.220   9.200 -0.1202  0.1561 -0.0885
 8603SOL    HW127422   3.769   2.188   9.118  0.3334  0.0464  0.1655
 8603SOL    HW227423   3.791   2.288   9.230 -0.2834  0.1941  0.1601
 8604SOL     OW27424   0.395   8.364   9.800 -0.2142  0.6446 -0.1252
 8604SOL    HW127425   0.359   8.378   9.713  1.0103 -0.5941 -0.8801
 8604SOL    HW227426   0.321   8.376   9.859 -1.8089 -1.3813 -1.5708
 8605SOL     OW27427   8.588   1.548   2.735 -0.2375 -0.7087  0.1486
 8605SOL    HW127428   8.507   1.507   2.766  0.1504 -1.5623  0.0815
 8605SOL    HW227429   8.578   1.641   2.756 -0.7260 -0.9884  1.2580
 8606SOL     OW27430   1.081   2.869   9.388  0.0036  0.0312  0.4244
 8606SOL    HW127431   1.027   2.948   9.377 -0.8643 -0.5583  0.3934
 8606SOL    HW227432   1.130   2.863   9.306  0.3471  0.7383  0.5716
 8607SOL     OW27433   9.542   4.695   7.237 -0.2330 -0.1931 -0.0944
 8607SOL    HW127434   9.485   4.704   7.314  1.2362 -1.4087  1.2233
 8607SOL    HW227435   9.630   4.692   7.274  0.4550 -2.0834 -1.6926
 8608SOL     OW27436   9.389   6.587   8.792  0.8032 -0.2869  0.0206
 8608SOL    HW127437   9.327   6.565   8.723  1.4110  2.3116 -1.4641
 8608SOL    HW227438   9.341   6.644   8.852  1.3086  0.5479 -0.3466
 8609SOL     OW27439   2.335   7.228   4.118  0.1943  0.3333 -0.0369
 8609SOL    HW127440   2.346   7.243   4.211  0.2671 -0.2475  0.0537
 8609SOL    HW227441   2.391   7.153   4.099 -0.7808 -0.3528 -0.2892
 8610SOL     OW27442   8.979   4.887   1.441  0.4836  0.5221  0.5969
 8610SOL    HW127443   8.902   4.894   1.497 -0.0387 -0.5080  0.0545
 8610SOL    HW227444   9.006   4.977   1.424 -1.0293  0.9208  0.2207
 8611SOL     OW27445   2.117   3.466   4.152  0.1199  0.2198 -0.1251
 8611SOL    HW127446   2.184   3.453   4.084  0.2440  0.3405 -0.0247
 8611SOL    HW227447   2.145   3.544   4.199 -0.2015  0.3905 -0.2130
 8612SOL     OW27448   0.042   8.145   1.286  0.2106 -0.2708 -0.3103
 8612SOL    HW127449   0.010   8.157   1.375  0.0835  0.3845 -0.4332
 8612SOL    HW227450   0.121   8.092   1.295  0.0153 -0.4843  0.1595
 8613SOL     OW27451   7.845   5.972   2.980  0.1667 -0.1729  0.5530
 8613SOL    HW127452   7.921   5.964   2.922  1.6021  0.7119  2.2219
 8613SOL    HW227453   7.858   5.905   3.047 -0.1372  0.4469  1.2532
 8614SOL     OW27454   6.140   8.686   9.600  0.1507 -0.1035 -0.2696
 8614SOL    HW127455   6.123   8.593   9.613 -0.1561  0.1204  1.0184
 8614SOL    HW227456   6.065   8.718   9.550  0.3424 -0.5803 -0.8640
 8615SOL     OW27457   8.443   6.405   8.759 -0.1983  0.0069  0.5345
 8615SOL    HW127458   8.501   6.419   8.684 -2.0042  1.8444 -0.6224
 8615SOL    HW227459   8.440   6.310   8.769  0.8058 -0.2481 -1.1518
 8616SOL     OW27460   3.470   3.710   6.180  0.4859  0.5593  0.0768
 8616SOL    HW127461   3.412   3.758   6.121 -1.5857 -1.7352  0.0878
 8616SOL    HW227462   3.511   3.777   6.233 -0.9736  2.4064 -1.0003
 8617SOL     OW27463   1.858   6.052   4.356 -0.2144 -0.4341  0.3464
 8617SOL    HW127464   1.804   6.127   4.330 -1.1999 -0.4151  2.2457
 8617SOL    HW227465   1.799   5.996   4.407  1.0980 -1.3433  0.9425
 8618SOL     OW27466   1.408   6.782   5.175 -0.2575 -0.2449  0.4043
 8618SOL    HW127467   1.356   6.721   5.228 -0.7855 -0.2934 -0.1542
 8618SOL    HW227468   1.393   6.754   5.085  0.6153 -0.1471  0.2241
 8619SOL     OW27469   8.440   5.367   5.834 -0.0518 -0.1504  0.9792
 8619SOL    HW127470   8.529   5.331   5.837 -0.4201 -1.1057  0.8013
 8619SOL    HW227471   8.383   5.292   5.852 -0.8657  0.2512  0.1735
 8620SOL     OW27472   1.586   5.935   5.040  0.0356 -0.1278  0.1884
 8620SOL    HW127473   1.522   6.003   5.017  2.2885  2.1705  0.3254
 8620SOL    HW227474   1.642   5.927   4.963 -0.2510 -2.0130  0.1158
 8621SOL     OW27475   0.735   4.012   5.182  0.5372 -0.5613  0.0902
 8621SOL    HW127476   0.827   4.006   5.156  1.4376 -1.3109  3.0534
 8621SOL    HW227477   0.736   4.070   5.259 -0.9925 -2.8313  1.9347
 8622SOL     OW27478   8.015   8.823   0.710  0.3785  0.0314 -0.0968
 8622SOL    HW127479   7.954   8.888   0.674  0.3584 -0.2076 -0.4995
 8622SOL    HW227480   7.959   8.760   0.754  0.2535 -0.6145 -1.1318
 8623SOL     OW27481   1.756   7.112   3.031 -0.1017  0.5563 -0.3024
 8623SOL    HW127482   1.746   7.129   2.937 -1.6956 -1.5254 -0.5505
 8623SOL    HW227483   1.667   7.099   3.063  0.5813 -1.0376  1.0397
 8624SOL     OW27484   0.069   1.522   9.159  0.5217 -0.5711  0.0807
 8624SOL    HW127485   0.020   1.452   9.115  1.1061 -2.6730  2.5054
 8624SOL    HW227486   0.004   1.590   9.176 -0.4413 -1.1796 -1.0154
 8625SOL     OW27487   6.326   9.234   5.852 -0.0092 -0.0953 -0.8567
 8625SOL    HW127488   6.367   9.181   5.784 -1.9711 -1.8841 -0.7516
 8625SOL    HW227489   6.277   9.171   5.905 -1.7352  1.6991 -0.1831
 8626SOL     OW27490   5.013   0.102   5.075 -0.2186 -0.2459 -0.2360
 8626SOL    HW127491   5.037   0.024   5.125 -2.9234  0.0919  1.8358
 8626SOL    HW227492   5.064   0.096   4.995  2.3132 -2.2748  1.3680
 8627SOL     OW27493   6.588   1.002   6.196 -0.0588 -0.1403  0.2081
 8627SOL    HW127494   6.655   0.980   6.261  2.1912  0.7101 -1.6840
 8627SOL    HW227495   6.550   1.085   6.227  0.5869 -0.0392  0.7435
 8628SOL     OW27496   9.057   8.230   7.122  0.4100 -0.5818 -0.2730
 8628SOL    HW127497   9.057   8.216   7.027 -1.9189  2.9525 -0.9716
 8628SOL    HW227498   9.053   8.325   7.133  1.9157 -0.7711  3.4661
 8629SOL     OW27499   1.457   5.778   9.274 -0.0966 -0.3012  0.5791
 8629SOL    HW127500   1.473   5.710   9.340 -1.2463 -0.4366  0.7310
 8629SOL    HW227501   1.409   5.846   9.321 -0.7351 -0.3006 -0.0538
 8630SOL     OW27502   1.869   7.235   4.203 -0.0552  0.3186 -0.6096
 8630SOL    HW127503   1.930   7.166   4.230 -1.3115  0.0245  1.8514
 8630SOL    HW227504   1.919   7.289   4.142  2.0985 -0.8299  0.0144
 8631SOL     OW27505   3.120   0.874   4.988  0.1139 -0.2557 -0.4368
 8631SOL    HW127506   3.131   0.969   4.986 -2.2145  0.0574 -0.7859
 8631SOL    HW227507   3.098   0.854   5.079 -3.2189  0.1379 -1.0279
 8632SOL     OW27508   8.345   5.280   0.765  0.2826 -0.2093 -0.6755
 8632SOL    HW127509   8.405   5.240   0.701 -0.6204 -0.3882 -1.4443
 8632SOL    HW227510   8.261   5.281   0.720 -0.1448  0.6874  0.1201
 8633SOL     OW27511   5.767   3.512   3.650  0.1385  0.1945 -0.1573
 8633SOL    HW127512   5.817   3.458   3.711  0.6476  0.7509 -0.0672
 8633SOL    HW227513   5.755   3.596   3.695 -2.0852 -0.3591  0.3809
 8634SOL     OW27514   4.957   1.169   2.340  0.2606 -0.0318 -0.1632
 8634SOL    HW127515   4.909   1.159   2.423  0.7231  0.9689  0.2311
 8634SOL    HW227516   4.909   1.237   2.293  0.3650 -0.1627 -0.4589
 8635SOL     OW27517   2.460   5.146   9.503 -0.1892  0.2120  0.3294
 8635SOL    HW127518   2.420   5.063   9.528 -0.6825  0.6813  1.1453
 8635SOL    HW227519   2.462   5.143   9.407  0.4001 -1.0014  0.3618
 8636SOL     OW27520   4.995   6.022   7.778  0.0914  0.2455 -0.5427
 8636SOL    HW127521   4.960   6.109   7.797  1.3198  0.6498 -0.0125
 8636SOL    HW227522   4.959   5.966   7.847 -0.6533  0.3369 -0.8497
 8637SOL     OW27523   9.772   9.608   3.056 -0.0606  0.2858  0.0862
 8637SOL    HW127524   9.814   9.557   2.986 -0.2122  3.0100 -2.1831
 8637SOL    HW227525   9.845   9.645   3.105  0.0655 -0.5362  0.5341
 8638SOL     OW27526   9.491   2.586   5.409  0.8256 -0.1254  0.1523
 8638SOL    HW127527   9.547   2.509   5.419 -0.0605 -0.8815 -0.4302
 8638SOL    HW227528   9.518   2.645   5.478 -0.3101 -2.1089  2.4622
 8639SOL     OW27529   4.198   9.154   7.418 -0.2228  0.2921 -0.1085
 8639SOL    HW127530   4.192   9.119   7.329  1.2918  0.8890 -0.4701
 8639SOL    HW227531   4.108   9.150   7.451 -0.5729 -1.3050 -1.1197
 8640SOL     OW27532   6.807   3.857   8.250 -0.4947  0.3382  0.1115
 8640SOL    HW127533   6.884   3.853   8.306 -0.8644  0.2549  0.6191
 8640SOL    HW227534   6.776   3.766   8.246  1.4146 -0.3354 -2.9293
 8641SOL     OW27535   6.028   6.272   5.277  0.1531  0.2273 -0.4261
 8641SOL    HW127536   6.032   6.203   5.211 -0.8165 -1.6441  1.3770
 8641SOL    HW227537   6.034   6.226   5.361  2.8665  2.6244  0.8623
 8642SOL     OW27538   4.907   7.751   3.072 -0.2219  0.2400 -0.2779
 8642SOL    HW127539   4.906   7.728   3.165 -0.3600  0.2184 -0.2849
 8642SOL    HW227540   4.894   7.667   3.027  1.0247  0.0629 -0.3497
 8643SOL     OW27541   4.145   6.331   8.583  0.5686  0.0220  0.3972
 8643SOL    HW127542   4.194   6.250   8.600  1.3215  0.3652 -0.0690
 8643SOL    HW227543   4.161   6.348   8.490  1.0204  1.0945  0.6647
 8644SOL     OW27544   9.505   1.618   0.011 -0.8622 -0.1009  0.0954
 8644SOL    HW127545   9.544   1.644   0.094 -0.7408 -0.7667  0.2456
 8644SOL    HW227546   9.427   1.674   0.003  0.1540  1.3071 -0.2662
 8645SOL     OW27547   5.030   6.420   4.925 -0.2139 -0.4335  0.3709
 8645SOL    HW127548   5.104   6.360   4.923 -1.0498 -1.4903 -1.5004
 8645SOL    HW227549   5.037   6.469   4.842  0.0392  1.5815  1.5179
 8646SOL     OW27550   2.124   2.537   6.055 -0.5591 -0.1465  0.0178
 8646SOL    HW127551   2.116   2.530   5.959  1.1720 -2.1830 -0.0484
 8646SOL    HW227552   2.105   2.449   6.087 -0.8829  0.4616  1.5645
 8647SOL     OW27553   7.224   5.508   7.780 -0.0130 -0.7056  0.5967
 8647SOL    HW127554   7.130   5.498   7.763  0.4517 -0.7054 -2.6048
 8647SOL    HW227555   7.255   5.419   7.795 -0.3096 -0.8564  0.3275
 8648SOL     OW27556   8.312   5.857   7.969  0.2530 -0.0913  0.1048
 8648SOL    HW127557   8.227   5.817   7.948  0.7466 -1.4610  0.5636
 8648SOL    HW227558   8.296   5.951   7.964 -1.1864 -0.3210 -0.2340
 8649SOL     OW27559   2.158   1.975   3.224 -0.3760  0.2605  0.3151
 8649SOL    HW127560   2.156   2.024   3.142  1.4958 -0.3057 -0.1190
 8649SOL    HW227561   2.232   2.011   3.273  0.5596 -1.5224  0.3241
 8650SOL     OW27562   1.435   1.409   2.730 -0.4738 -0.5731 -0.5206
 8650SOL    HW127563   1.525   1.401   2.699 -0.6084 -0.8181 -0.8520
 8650SOL    HW227564   1.384   1.350   2.673 -0.7302 -0.9939  0.1370
 8651SOL     OW27565   8.355   1.749   2.649  0.6813  0.1372 -0.4036
 8651SOL    HW127566   8.435   1.786   2.687 -0.8904  2.1595  1.1794
 8651SOL    HW227567   8.334   1.808   2.576 -0.0195  0.3651 -0.0238
 8652SOL     OW27568   6.119   4.741   5.264  0.0079 -0.0053 -0.3569
 8652SOL    HW127569   6.186   4.805   5.242 -0.3800 -0.6096 -3.8494
 8652SOL    HW227570   6.160   4.656   5.246 -1.1169 -0.4615 -0.9028
 8653SOL     OW27571   2.307   1.418   6.775 -0.2087  0.4819 -0.6334
 8653SOL    HW127572   2.220   1.441   6.741 -0.3232 -0.7609 -1.2613
 8653SOL    HW227573   2.324   1.483   6.843 -1.9939  0.2792  0.0805
 8654SOL     OW27574   4.594   2.434   4.788  0.5326  0.1569 -0.1973
 8654SOL    HW127575   4.647   2.356   4.769  2.7669  1.2129  1.2949
 8654SOL    HW227576   4.656   2.507   4.785 -1.4021  1.8864 -1.1212
 8655SOL     OW27577   4.105   9.362   7.758 -0.4569 -0.3128 -0.2740
 8655SOL    HW127578   4.096   9.414   7.838  0.4032  0.7670 -0.8445
 8655SOL    HW227579   4.132   9.275   7.789  1.5917  0.5600  0.5685
 8656SOL     OW27580   0.827   3.343   3.132 -0.5002 -0.0953  0.1106
 8656SOL    HW127581   0.827   3.299   3.047 -1.6761  0.7437 -0.3486
 8656SOL    HW227582   0.806   3.274   3.195 -1.9243 -0.2840 -0.5473
 8657SOL     OW27583   1.246   7.667   5.077  0.2470  0.2788  0.7434
 8657SOL    HW127584   1.227   7.750   5.033  1.9118  0.4835  0.3448
 8657SOL    HW227585   1.184   7.605   5.040 -0.2387  1.0871  0.1799
 8658SOL     OW27586   9.426   2.244   5.006  0.0922  0.0453 -0.8233
 8658SOL    HW127587   9.364   2.237   5.079  1.3510  0.0324  0.2900
 8658SOL    HW227588   9.439   2.153   4.977 -3.2148  0.3007 -3.5990
 8659SOL     OW27589   9.737   9.302   1.164  0.2809 -0.1779 -0.2662
 8659SOL    HW127590   9.803   9.238   1.193  0.1447  0.3379  1.2358
 8659SOL    HW227591   9.778   9.347   1.091  0.5662 -1.6557 -1.0536
 8660SOL     OW27592   6.339   2.459   3.756  0.7884  0.7472  0.1244
 8660SOL    HW127593   6.272   2.391   3.767  0.9805  0.6735  0.9798
 8660SOL    HW227594   6.402   2.421   3.695 -0.4259  1.2043 -1.4838
 8661SOL     OW27595   0.918   1.826   0.647 -0.1214  0.3931 -0.2217
 8661SOL    HW127596   0.891   1.917   0.637  0.9370  0.5500 -1.9790
 8661SOL    HW227597   0.977   1.827   0.722  0.2815  1.2573 -0.5372
 8662SOL     OW27598   0.080   1.329   3.427 -0.3834  0.4717 -0.0205
 8662SOL    HW127599   0.138   1.300   3.498  0.3401  1.1051 -0.3426
 8662SOL    HW227600  -0.009   1.317   3.462 -0.0480  0.0045  0.6818
 8663SOL     OW27601   7.694   8.041   7.472  0.4616 -0.1163 -0.0228
 8663SOL    HW127602   7.748   8.015   7.398  1.6311  0.2296  0.6883
 8663SOL    HW227603   7.614   7.990   7.462  0.3502  0.3360 -1.8285
 8664SOL     OW27604   0.320   1.456   2.481 -0.3305 -0.0346 -0.2614
 8664SOL    HW127605   0.351   1.459   2.572 -2.7706 -0.2122  0.6557
 8664SOL    HW227606   0.335   1.544   2.447 -0.9178  0.5396  0.9067
 8665SOL     OW27607   9.449   6.395   7.309  0.2418  0.1058  0.1785
 8665SOL    HW127608   9.453   6.488   7.331  0.1764  0.0839  0.2897
 8665SOL    HW227609   9.356   6.379   7.290  0.3147  0.1439 -0.2125
 8666SOL     OW27610   9.020   0.049   5.924  0.2655  0.4278  0.4544
 8666SOL    HW127611   8.981   0.135   5.907  1.1437  0.4535 -1.7670
 8666SOL    HW227612   9.004  -0.001   5.844  1.1339 -0.9708  1.1079
 8667SOL     OW27613   0.083   8.553   1.269  0.4287  0.0038 -0.7116
 8667SOL    HW127614   0.163   8.522   1.311  1.6223 -1.0225 -3.4872
 8667SOL    HW227615   0.026   8.580   1.341  2.1364 -1.9682  1.5157
 8668SOL     OW27616   7.218   0.991   1.951  0.1979  0.2114  0.1322
 8668SOL    HW127617   7.171   1.002   2.034  0.8920 -2.1704  0.9182
 8668SOL    HW227618   7.303   1.034   1.966 -0.1667  0.9418  0.1549
 8669SOL     OW27619   3.415   6.357   7.897  0.4919  0.4459  0.7474
 8669SOL    HW127620   3.324   6.350   7.926  0.3422 -1.3844 -0.0631
 8669SOL    HW227621   3.464   6.302   7.958  0.4595 -1.7480 -1.0948
 8670SOL     OW27622   3.821   3.394   1.758 -0.5444 -0.2740  0.1409
 8670SOL    HW127623   3.872   3.432   1.829 -0.7298  0.7884 -0.2667
 8670SOL    HW227624   3.885   3.348   1.704  0.2233  1.8973 -0.9317
 8671SOL     OW27625   2.414   1.149   0.001  0.4311 -0.1219  0.7518
 8671SOL    HW127626   2.479   1.096  -0.045 -0.8676 -1.2410  0.1414
 8671SOL    HW227627   2.410   1.231  -0.048  1.1555 -0.1668  0.6180
 8672SOL     OW27628   9.603   3.260   0.696 -0.1868 -0.4380 -0.0925
 8672SOL    HW127629   9.621   3.304   0.779  0.5616 -1.2203  0.1837
 8672SOL    HW227630   9.555   3.324   0.644 -1.7347 -0.3340  1.3820
 8673SOL     OW27631   8.117   9.356   4.118 -0.1363  0.2916 -0.1326
 8673SOL    HW127632   8.030   9.376   4.084 -0.2691 -0.4531 -0.2424
 8673SOL    HW227633   8.146   9.280   4.067  0.2190 -0.0069  0.5067
 8674SOL     OW27634   0.966   6.251   3.459 -0.4448 -0.3548 -0.0227
 8674SOL    HW127635   1.011   6.222   3.538 -0.3490 -1.1610 -0.3621
 8674SOL    HW227636   0.893   6.190   3.448 -2.0503  1.3047  0.8644
 8675SOL     OW27637   6.641   3.078   5.582  0.7500  0.2643 -0.3347
 8675SOL    HW127638   6.565   3.019   5.574  0.3990  0.5814  0.5161
 8675SOL    HW227639   6.604   3.165   5.571  1.2731  0.3357 -1.6093
 8676SOL     OW27640   2.490   7.207   2.048 -0.2705 -0.4655  0.5048
 8676SOL    HW127641   2.577   7.230   2.014 -0.6128 -1.2540 -0.9826
 8676SOL    HW227642   2.507   7.173   2.136  0.9309 -0.6018  0.2355
 8677SOL     OW27643   4.778   1.180   5.054 -0.1306  0.6155 -0.1266
 8677SOL    HW127644   4.790   1.149   4.965  1.8490 -0.1563  0.3500
 8677SOL    HW227645   4.793   1.274   5.050 -2.7033  1.0632 -0.9978
 8678SOL     OW27646   9.677   8.414   9.413 -0.7428  0.1456 -0.0516
 8678SOL    HW127647   9.678   8.452   9.325 -1.9927  0.2401 -0.0520
 8678SOL    HW227648   9.715   8.327   9.401  1.0608  0.9217 -0.2665
 8679SOL     OW27649   6.506   5.102   5.045  0.4060 -0.1422 -0.1443
 8679SOL    HW127650   6.549   5.016   5.044  1.3777  0.3251  0.0194
 8679SOL    HW227651   6.565   5.158   5.096 -0.6829  0.3930  0.5725
 8680SOL     OW27652   7.788   3.892   3.425  0.4310 -0.0585  0.2285
 8680SOL    HW127653   7.838   3.909   3.505 -0.0943 -0.2467  0.6026
 8680SOL    HW227654   7.853   3.857   3.363  0.9955  0.8211  0.3029
 8681SOL     OW27655   3.012   3.307   4.565 -0.0636  0.6035 -0.6528
 8681SOL    HW127656   2.922   3.337   4.574 -0.6029 -1.2445  0.7425
 8681SOL    HW227657   3.008   3.214   4.587  2.1522  0.4306 -0.8116
 8682SOL     OW27658   5.615   2.100   5.570 -0.0220 -0.3956 -0.0480
 8682SOL    HW127659   5.616   2.149   5.488  0.4591 -0.4194 -0.0566
 8682SOL    HW227660   5.535   2.130   5.614 -0.2122 -0.2866 -0.4628
 8683SOL     OW27661   1.494   8.513   1.571 -0.3815 -0.4831  1.0138
 8683SOL    HW127662   1.489   8.421   1.545  2.0385 -0.2899 -0.4347
 8683SOL    HW227663   1.550   8.513   1.648  1.0041 -0.1072  0.0334
 8684SOL     OW27664   2.804   0.313   0.157  0.7188  0.6014 -0.4956
 8684SOL    HW127665   2.729   0.347   0.108 -1.9597 -1.7178  1.6297
 8684SOL    HW227666   2.840   0.244   0.101 -0.4414 -0.0425 -0.4730
 8685SOL     OW27667   7.269   6.945   7.974 -0.2495 -0.3516  0.0368
 8685SOL    HW127668   7.330   6.955   8.047  0.0557 -1.5928 -0.0221
 8685SOL    HW227669   7.220   6.865   7.995  0.3722 -1.1606 -1.4677
 8686SOL     OW27670   0.290   7.271   5.864  0.1988  0.0369 -0.2711
 8686SOL    HW127671   0.369   7.234   5.903  1.0960  2.1802  0.0933
 8686SOL    HW227672   0.322   7.330   5.796 -1.1731 -0.0431 -1.0248
 8687SOL     OW27673   6.526   7.426   7.865  0.2838  0.3534  0.1590
 8687SOL    HW127674   6.562   7.499   7.815 -2.2918  1.7071  0.0837
 8687SOL    HW227675   6.493   7.465   7.946  2.1982 -1.4115  1.9231
 8688SOL     OW27676   5.537   2.502   4.438 -0.2705 -0.1024 -0.1963
 8688SOL    HW127677   5.560   2.410   4.442  0.0653  0.0101  2.1126
 8688SOL    HW227678   5.442   2.503   4.423 -0.1244 -0.7798 -1.2132
 8689SOL     OW27679   8.991   1.284   0.121 -0.1629  0.0967  0.4951
 8689SOL    HW127680   9.083   1.263   0.107 -0.5391 -1.9644  0.8201
 8689SOL    HW227681   8.960   1.315   0.035  0.0738 -2.4095 -0.5857
 8690SOL     OW27682   0.637   5.460   0.943 -0.2947  0.0853 -0.5965
 8690SOL    HW127683   0.649   5.555   0.950  1.1006  0.1333 -2.5885
 8690SOL    HW227684   0.722   5.428   0.911 -1.4305 -1.5222 -2.1745
 8691SOL     OW27685   0.260   1.491   5.659  0.9600 -0.6164  0.4448
 8691SOL    HW127686   0.312   1.541   5.597  1.1171 -1.6938 -0.3152
 8691SOL    HW227687   0.171   1.527   5.652  0.9952 -0.6772 -0.3580
 8692SOL     OW27688   4.793   3.944   6.278  0.1661 -0.1479  0.2471
 8692SOL    HW127689   4.793   4.032   6.318  1.2266  0.1957 -0.4739
 8692SOL    HW227690   4.700   3.922   6.270 -0.0989  0.4463  1.4373
 8693SOL     OW27691   9.360   3.811   3.168 -0.1920  0.0249 -0.5214
 8693SOL    HW127692   9.310   3.734   3.140 -0.1041 -0.0820 -0.3882
 8693SOL    HW227693   9.378   3.858   3.087  0.7724 -0.7032 -0.7530
 8694SOL     OW27694   8.371   9.128   2.225 -0.6484  0.7310 -0.1612
 8694SOL    HW127695   8.439   9.191   2.205  0.3073 -1.0190 -3.1477
 8694SOL    HW227696   8.406   9.076   2.297  1.0029  0.2615 -1.2316
 8695SOL     OW27697   3.733   9.280   9.332  0.3292 -0.0624 -0.2715
 8695SOL    HW127698   3.708   9.207   9.274 -0.1633  0.1717 -0.3561
 8695SOL    HW227699   3.791   9.240   9.396  1.1972 -0.2501 -1.1552
 8696SOL     OW27700   3.726   6.273   6.067  0.1488 -0.2273 -0.3368
 8696SOL    HW127701   3.677   6.266   6.149  0.4735 -1.0502 -0.1991
 8696SOL    HW227702   3.659   6.287   6.000 -0.1379  0.2038  0.0328
 8697SOL     OW27703   2.151   0.096   3.110 -0.5283  0.0202  0.1805
 8697SOL    HW127704   2.185   0.155   3.178 -0.7675  0.9773 -0.5148
 8697SOL    HW227705   2.160   0.008   3.149  1.7720  0.2880  0.4399
 8698SOL     OW27706   3.771   0.863   9.134  0.8325  0.0468 -0.3793
 8698SOL    HW127707   3.716   0.800   9.181 -0.5120  1.7320  0.4224
 8698SOL    HW227708   3.714   0.898   9.065  1.1175  1.2957 -0.0084
 8699SOL     OW27709   6.775   2.852   5.420 -0.4226  0.4605  0.0172
 8699SOL    HW127710   6.723   2.832   5.498  0.8554 -0.3974  0.6889
 8699SOL    HW227711   6.719   2.909   5.368 -0.8486  2.1121  2.1340
 8700SOL     OW27712   1.459   4.888   9.616  0.5195 -0.1455 -0.6829
 8700SOL    HW127713   1.437   4.887   9.709  0.4820  0.1526 -0.6870
 8700SOL    HW227714   1.398   4.950   9.577  0.3876 -0.4376 -0.9440
 8701SOL     OW27715   6.524   6.845   4.873  0.0506  0.5877 -0.0290
 8701SOL    HW127716   6.489   6.756   4.883 -0.4154  0.1914 -3.7542
 8701SOL    HW227717   6.461   6.901   4.918 -0.5738 -0.8065  0.9174
 8702SOL     OW27718   7.296   9.034   5.239  0.0957 -0.1213 -0.0325
 8702SOL    HW127719   7.266   9.108   5.292 -1.0957 -0.1764 -0.5947
 8702SOL    HW227720   7.269   8.956   5.288 -0.5275 -0.1727 -0.4462
 8703SOL     OW27721   4.761   8.084   2.100  0.2158  0.1707 -0.0737
 8703SOL    HW127722   4.704   8.119   2.168 -0.1791 -0.9501  0.1982
 8703SOL    HW227723   4.821   8.155   2.080 -0.6181  1.0168  0.3802
 8704SOL     OW27724   5.191   7.408   4.266  0.3233  0.0431  0.5971
 8704SOL    HW127725   5.112   7.364   4.237 -1.3351  2.5924  0.9771
 8704SOL    HW227726   5.224   7.454   4.189  1.5114 -1.0092  0.4331
 8705SOL     OW27727   1.101   8.214   5.514  0.0480 -0.0328 -0.4491
 8705SOL    HW127728   1.044   8.290   5.507 -0.3539 -0.2645  0.2277
 8705SOL    HW227729   1.042   8.141   5.533  0.3527 -0.6440 -1.7285
 8706SOL     OW27730   5.200   0.489   5.959 -0.2652  0.5636 -0.1926
 8706SOL    HW127731   5.158   0.513   6.042  0.1239  1.2799 -0.1881
 8706SOL    HW227732   5.247   0.569   5.933 -0.6510  0.4573 -1.2671
 8707SOL     OW27733   7.297   2.366   0.049 -0.0177  0.8966 -0.3894
 8707SOL    HW127734   7.337   2.452   0.051  1.1461  0.3563  0.5140
 8707SOL    HW227735   7.362   2.310   0.007  0.1567  0.0327  0.9701
 8708SOL     OW27736   0.606   6.644   0.257  0.5775  0.1143 -0.0735
 8708SOL    HW127737   0.677   6.659   0.194  0.2250 -0.7890 -0.7049
 8708SOL    HW227738   0.579   6.732   0.284  1.4695  0.4860 -0.3490
 8709SOL     OW27739   4.176   8.158   5.236 -0.1958 -0.0509  0.1804
 8709SOL    HW127740   4.169   8.064   5.221 -0.1575 -0.1006  0.4672
 8709SOL    HW227741   4.229   8.190   5.163 -2.8597  0.2636 -1.7412
 8710SOL     OW27742   2.736   0.272   5.386  0.3321 -0.1480  0.1634
 8710SOL    HW127743   2.666   0.270   5.450  0.1471 -1.1095 -0.0444
 8710SOL    HW227744   2.693   0.253   5.302  0.7840 -0.4249 -0.0139
 8711SOL     OW27745   1.079   9.029   8.044  0.1405 -0.5782 -0.6455
 8711SOL    HW127746   1.048   8.985   8.123  2.4410 -1.5691 -0.2105
 8711SOL    HW227747   1.042   9.117   8.049  0.8038 -0.3838  1.9349
 8712SOL     OW27748   0.333   0.312   8.286 -0.5324  0.4718  0.1240
 8712SOL    HW127749   0.403   0.377   8.283  0.1466 -0.2318  0.7287
 8712SOL    HW227750   0.329   0.277   8.197 -0.0084  0.4053  0.1224
 8713SOL     OW27751   0.956   1.477   6.826  0.0896  0.1092  0.1938
 8713SOL    HW127752   0.949   1.391   6.783  0.3430 -0.7200  1.7296
 8713SOL    HW227753   0.908   1.466   6.908 -2.3370  2.3477 -0.8054
 8714SOL     OW27754   1.555   4.881   5.689  0.4165  0.0479  0.0448
 8714SOL    HW127755   1.578   4.957   5.635  0.3838  0.0665  0.0571
 8714SOL    HW227756   1.632   4.824   5.683  0.6592  0.3293  0.4803
 8715SOL     OW27757   3.438   9.216   3.547  0.7033 -0.5497  0.1492
 8715SOL    HW127758   3.403   9.135   3.584  0.5960 -0.2629  0.6870
 8715SOL    HW227759   3.366   9.278   3.554  0.3592 -0.7500 -1.4446
 8716SOL     OW27760   9.474   2.079   6.906 -0.5130  0.6755 -0.0615
 8716SOL    HW127761   9.501   1.988   6.918  1.2387  1.1162 -0.2920
 8716SOL    HW227762   9.387   2.084   6.946  0.2678 -0.5807  1.9779
 8717SOL     OW27763   1.631   4.423   6.432 -0.0220 -0.4306 -0.8797
 8717SOL    HW127764   1.548   4.466   6.411 -1.4406 -0.9053  2.9760
 8717SOL    HW227765   1.684   4.491   6.474 -0.5967 -1.2783  1.3641
 8718SOL     OW27766   3.212   3.546   1.815 -0.5980 -0.1412  0.4567
 8718SOL    HW127767   3.236   3.555   1.907  0.6052 -0.2407  0.1768
 8718SOL    HW227768   3.118   3.562   1.812 -0.2361  2.7021  1.3367
 8719SOL     OW27769   5.974   7.111   4.233  0.2704 -0.2235  0.5145
 8719SOL    HW127770   5.900   7.155   4.192  1.7870 -0.2307 -2.5643
 8719SOL    HW227771   5.980   7.027   4.188  2.2178 -0.1420  0.5122
 8720SOL     OW27772   2.351   4.299   7.593  0.6229  0.1358 -0.0448
 8720SOL    HW127773   2.364   4.208   7.622 -0.3315  0.7703  2.7299
 8720SOL    HW227774   2.437   4.327   7.562  0.9587 -1.6611 -0.8462
 8721SOL     OW27775   8.391   3.676   6.241  0.3378 -0.4691 -0.5466
 8721SOL    HW127776   8.477   3.688   6.281  0.2701 -1.5554 -0.0496
 8721SOL    HW227777   8.405   3.611   6.173 -0.4609 -2.3235  0.9597
 8722SOL     OW27778   9.219   1.934   4.125 -0.7520 -0.0236 -0.1497
 8722SOL    HW127779   9.246   1.916   4.215  0.1325 -0.3032 -0.4537
 8722SOL    HW227780   9.276   1.879   4.072 -0.6441  0.8079 -0.9202
 8723SOL     OW27781   4.413   0.597   7.678 -0.5442  0.7085  0.0030
 8723SOL    HW127782   4.491   0.644   7.707  0.4053 -1.3203  0.8705
 8723SOL    HW227783   4.349   0.614   7.747  0.2841 -0.4665  1.0953
 8724SOL     OW27784   2.323   8.960   3.674  0.3655  0.5134  0.7101
 8724SOL    HW127785   2.241   8.942   3.720  0.7497 -0.2739  1.1018
 8724SOL    HW227786   2.378   9.002   3.740 -0.2337  2.5067  0.0315
 8725SOL     OW27787   0.667   4.395   4.821  0.2886 -0.2151 -0.1307
 8725SOL    HW127788   0.670   4.431   4.732  1.4996  0.0256 -0.0092
 8725SOL    HW227789   0.712   4.311   4.814  1.6628  0.4460  0.5232
 8726SOL     OW27790   4.906   0.549   0.479  0.5416 -0.8948  0.2613
 8726SOL    HW127791   4.860   0.632   0.466 -1.0922 -1.6136  1.1957
 8726SOL    HW227792   4.998   0.573   0.480  0.0914  1.0069  1.1381
 8727SOL     OW27793   9.180   0.415   0.356  1.0605  0.4939  0.3329
 8727SOL    HW127794   9.210   0.433   0.445 -0.9677 -0.8580  1.3847
 8727SOL    HW227795   9.170   0.320   0.353  1.5298  0.4760 -1.5080
 8728SOL     OW27796   6.495   6.466   5.498 -0.6811  0.4149 -0.0841
 8728SOL    HW127797   6.510   6.381   5.457 -1.3303  0.3673 -0.2251
 8728SOL    HW227798   6.582   6.494   5.526 -0.4964 -0.4090  0.1974
 8729SOL     OW27799   0.298   4.231   8.920 -0.1089  0.5063 -0.1571
 8729SOL    HW127800   0.277   4.293   8.990  1.1831  1.1422 -0.3154
 8729SOL    HW227801   0.212   4.202   8.888 -0.7195  0.5947  1.3299
 8730SOL     OW27802   8.552   5.499   3.430 -0.3726  0.0861 -0.1939
 8730SOL    HW127803   8.461   5.481   3.454 -0.4427  0.4594 -0.1746
 8730SOL    HW227804   8.555   5.593   3.415 -0.0135  0.0600 -0.3069
 8731SOL     OW27805   6.267   2.146   8.488  0.1237 -0.3364  0.5524
 8731SOL    HW127806   6.247   2.188   8.405  1.7106  0.9920  0.7809
 8731SOL    HW227807   6.326   2.074   8.465 -0.6306 -0.9186  0.4032
 8732SOL     OW27808   1.697   5.629   0.835 -0.0425  0.5888  0.1322
 8732SOL    HW127809   1.760   5.559   0.846 -1.2963 -0.3678  1.7925
 8732SOL    HW227810   1.715   5.690   0.907 -0.3526  0.8448 -0.0016
 8733SOL     OW27811   7.398   4.279   3.680 -0.5258  0.5081  0.6433
 8733SOL    HW127812   7.326   4.343   3.682 -1.3556 -0.4073  1.8039
 8733SOL    HW227813   7.476   4.331   3.659 -1.3461  1.7089  0.4666
 8734SOL     OW27814   5.555   8.194   5.639  0.1267  0.1626 -0.5078
 8734SOL    HW127815   5.533   8.254   5.567  0.1795  3.1231  1.7236
 8734SOL    HW227816   5.641   8.158   5.615  0.0313  0.8649 -2.0178
 8735SOL     OW27817   3.360   0.247   2.173  0.3339  0.1428 -0.3382
 8735SOL    HW127818   3.347   0.206   2.087 -0.4943  0.6418 -0.4589
 8735SOL    HW227819   3.447   0.288   2.167  0.5933 -0.4414 -0.6774
 8736SOL     OW27820   5.399   5.811   9.336  0.0597 -0.4935 -0.4655
 8736SOL    HW127821   5.434   5.831   9.249  2.8366  0.0282  0.6469
 8736SOL    HW227822   5.408   5.715   9.343  0.4000 -0.4724 -0.5587
 8737SOL     OW27823   3.441   1.801   9.004 -0.1083  0.1696  0.2653
 8737SOL    HW127824   3.398   1.794   9.089 -0.6423  0.7772  0.0490
 8737SOL    HW227825   3.381   1.759   8.943  0.1241  0.0270  0.1305
 8738SOL     OW27826   4.935   7.685   8.130  0.2256  0.7384  0.2821
 8738SOL    HW127827   4.859   7.642   8.091 -0.1290  1.4055  0.2071
 8738SOL    HW227828   4.922   7.675   8.224  1.2622 -1.1765  0.2540
 8739SOL     OW27829   2.373   5.721   2.372 -0.3009  0.5188  0.1869
 8739SOL    HW127830   2.403   5.804   2.333  1.5662 -0.4247 -0.5204
 8739SOL    HW227831   2.378   5.736   2.466 -0.9628  1.5211  0.0803
 8740SOL     OW27832   5.208   3.705   4.231 -0.3709 -0.2912 -0.1279
 8740SOL    HW127833   5.281   3.684   4.172 -1.1558 -2.2414 -0.4851
 8740SOL    HW227834   5.245   3.700   4.319 -0.1291 -1.6256 -0.2901
 8741SOL     OW27835   3.753   4.396   8.078 -0.2087  0.7155  0.6591
 8741SOL    HW127836   3.839   4.437   8.091 -0.5420  1.8840 -0.5851
 8741SOL    HW227837   3.698   4.466   8.043 -1.7934  0.0830  1.7684
 8742SOL     OW27838   9.094   1.699   4.317 -0.0381 -0.5971 -0.2948
 8742SOL    HW127839   9.094   1.618   4.367  0.0355  1.4058  3.2470
 8742SOL    HW227840   9.186   1.723   4.309 -0.1434  1.5161  3.1610
 8743SOL     OW27841   4.039   0.603   1.284  0.5223  0.2442  0.2530
 8743SOL    HW127842   4.102   0.669   1.256  0.0388  1.0498  1.0351
 8743SOL    HW227843   4.029   0.547   1.207 -0.3795  2.0928 -1.0523
 8744SOL     OW27844   5.341   7.724   3.664 -0.4166  0.3143  0.4980
 8744SOL    HW127845   5.310   7.813   3.643 -1.3774 -0.1180  0.0415
 8744SOL    HW227846   5.380   7.693   3.582 -0.0455  0.3286  0.6698
 8745SOL     OW27847   0.994   7.497   6.820 -0.2211  0.2031  0.2996
 8745SOL    HW127848   1.032   7.447   6.892 -0.3845 -0.4212 -0.0402
 8745SOL    HW227849   0.899   7.485   6.830 -0.2239 -1.3691 -1.0140
 8746SOL     OW27850   9.039   0.686   1.824  0.2399 -0.0910  0.1463
 8746SOL    HW127851   9.083   0.771   1.821 -0.9475  0.5849  0.9305
 8746SOL    HW227852   9.065   0.642   1.743  1.3680  0.7547  0.0210
 8747SOL     OW27853   9.418   0.469   4.252  0.1339 -0.1426  0.0121
 8747SOL    HW127854   9.435   0.519   4.333 -0.2283 -0.3874  0.2389
 8747SOL    HW227855   9.478   0.508   4.188  1.5008 -0.9050  0.7706
 8748SOL     OW27856   8.300   5.752   6.909 -0.6719  0.5108 -0.2938
 8748SOL    HW127857   8.325   5.679   6.852 -0.1313  0.6881 -0.2895
 8748SOL    HW227858   8.218   5.723   6.950  0.7374 -1.1793  1.5675
 8749SOL     OW27859   8.951   8.828   7.379 -0.3152  0.1851 -0.1363
 8749SOL    HW127860   8.923   8.897   7.440 -0.5373 -0.1512  0.1443
 8749SOL    HW227861   9.021   8.782   7.425 -0.7882 -0.3525  0.0475
 8750SOL     OW27862   7.746   6.568   6.484  0.0120  0.4538  0.0626
 8750SOL    HW127863   7.698   6.650   6.474 -1.0697 -0.0802  0.7048
 8750SOL    HW227864   7.704   6.523   6.557  1.1556 -0.2865  0.3092
 8751SOL     OW27865   0.038   8.533   9.628  0.4890 -0.4362  0.3089
 8751SOL    HW127866   0.115   8.590   9.629  1.1403 -1.2681 -0.5614
 8751SOL    HW227867  -0.026   8.579   9.574  0.0736  0.6083  1.6434
 8752SOL     OW27868   1.596   4.216   5.629  0.2812  0.2225 -0.2833
 8752SOL    HW127869   1.544   4.293   5.649  0.2764  0.0273  0.5032
 8752SOL    HW227870   1.590   4.162   5.708  2.8781  0.8541  0.4253
 8753SOL     OW27871   8.201   9.079   6.957  0.0908  0.1226 -0.1348
 8753SOL    HW127872   8.239   9.004   6.912  0.7488  0.4474 -0.1427
 8753SOL    HW227873   8.148   9.122   6.890  0.6724  0.3282 -0.4774
 8754SOL     OW27874   3.653   7.357   4.250 -0.1089 -0.5762 -0.0731
 8754SOL    HW127875   3.565   7.370   4.284  0.1785 -0.2036  0.5562
 8754SOL    HW227876   3.677   7.441   4.212  0.0146 -0.6464 -0.1524
 8755SOL     OW27877   2.715   8.072   6.065 -0.1341 -0.1669 -0.1825
 8755SOL    HW127878   2.705   8.154   6.114 -2.0199 -0.4200 -0.0608
 8755SOL    HW227879   2.788   8.088   6.006  1.3050  0.6441  1.6984
 8756SOL     OW27880   9.600   3.426   1.360  0.4803  0.0688  0.3266
 8756SOL    HW127881   9.652   3.346   1.350 -0.5586 -0.4940 -0.9278
 8756SOL    HW227882   9.655   3.495   1.323  0.7976 -0.3161  0.0655
 8757SOL     OW27883   7.271   7.326   3.631  0.2896 -0.2141 -0.8047
 8757SOL    HW127884   7.338   7.259   3.620  0.4131 -0.2043 -0.1661
 8757SOL    HW227885   7.230   7.334   3.545 -0.2300 -1.6398 -0.7061
 8758SOL     OW27886   8.569   7.889   3.696  0.3810 -0.0214 -0.3422
 8758SOL    HW127887   8.503   7.941   3.650 -0.3113 -0.8199 -0.2827
 8758SOL    HW227888   8.638   7.876   3.632 -1.2745 -2.4835 -1.7772
 8759SOL     OW27889   7.321   8.762   3.339 -1.0507 -0.2637 -0.2379
 8759SOL    HW127890   7.328   8.846   3.294  2.4003  0.1937  0.8541
 8759SOL    HW227891   7.331   8.697   3.270  1.6237  0.3903 -0.5829
 8760SOL     OW27892   0.151   8.252   1.622  0.0329  0.0565  0.8447
 8760SOL    HW127893   0.085   8.259   1.690 -1.1103  0.5260 -0.2661
 8760SOL    HW227894   0.142   8.163   1.588 -1.0751  0.5631 -0.2814
 8761SOL     OW27895   2.419   3.768   2.976  0.1340 -0.0383 -1.0072
 8761SOL    HW127896   2.411   3.820   2.896 -1.7338 -0.6416 -1.2604
 8761SOL    HW227897   2.330   3.766   3.013  0.9795  0.4246  1.2421
 8762SOL     OW27898   1.755   7.831   9.122  0.5177 -0.1211 -0.4739
 8762SOL    HW127899   1.754   7.737   9.101  1.7556 -0.1615 -0.4379
 8762SOL    HW227900   1.811   7.869   9.055  0.5677  0.4938 -0.0859
 8763SOL     OW27901   4.957   1.912   3.115 -0.0286  0.1750  0.1319
 8763SOL    HW127902   5.013   1.969   3.063  1.2359 -0.3392  0.8725
 8763SOL    HW227903   4.871   1.920   3.075  1.0179 -0.8606 -2.5763
 8764SOL     OW27904   7.049   6.041   4.262 -0.4811  0.3919  0.0785
 8764SOL    HW127905   7.070   6.098   4.188  1.4220  1.4646  1.3759
 8764SOL    HW227906   6.963   6.004   4.240 -0.3024  1.2222 -2.3057
 8765SOL     OW27907   7.066   7.694   6.870  0.0733  0.2434 -0.2652
 8765SOL    HW127908   7.082   7.603   6.845 -0.5250  0.7964 -3.0270
 8765SOL    HW227909   6.979   7.694   6.909  0.5441 -0.4981  0.8379
 8766SOL     OW27910   9.012   0.840   2.716  0.2703 -0.3858  0.0686
 8766SOL    HW127911   9.008   0.873   2.626  0.1391 -1.5247 -0.3670
 8766SOL    HW227912   8.922   0.814   2.735  0.4321 -0.7944  0.2727
 8767SOL     OW27913   4.897   4.051   4.927 -0.1805  0.2911 -0.2324
 8767SOL    HW127914   4.908   4.140   4.959 -0.0101  0.0436  0.4137
 8767SOL    HW227915   4.901   3.996   5.005  1.3343 -0.4236 -0.7583
 8768SOL     OW27916   0.913   1.285   9.368 -0.0718  0.4241 -0.3663
 8768SOL    HW127917   0.902   1.203   9.319 -0.3511 -0.1697  0.6701
 8768SOL    HW227918   0.865   1.350   9.316 -2.8134 -0.7376  0.5124
 8769SOL     OW27919   5.121   8.749   4.399 -0.0280 -0.0156 -0.3411
 8769SOL    HW127920   5.216   8.760   4.407 -0.1806 -0.0936  2.4068
 8769SOL    HW227921   5.084   8.823   4.448 -1.3936 -0.2794 -0.9268
 8770SOL     OW27922   0.026   6.924   6.708 -0.0439  0.0406  0.4232
 8770SOL    HW127923   0.017   7.010   6.749  0.9049  0.4416 -0.1713
 8770SOL    HW227924  -0.064   6.896   6.690 -0.3984  0.5161  1.4085
 8771SOL     OW27925   3.661   7.339   7.453  0.0053 -0.5425  0.2671
 8771SOL    HW127926   3.651   7.254   7.495 -1.5494 -0.0218  1.0290
 8771SOL    HW227927   3.620   7.328   7.367 -0.5272 -0.4790  0.5072
 8772SOL     OW27928   4.622   2.394   1.026  0.6116 -0.5177 -0.3021
 8772SOL    HW127929   4.613   2.357   0.938  0.8475  0.3295 -0.6935
 8772SOL    HW227930   4.580   2.480   1.020  1.3173 -0.1312  0.2040
 8773SOL     OW27931   4.831   3.779   3.741 -0.1973  0.4325  0.0557
 8773SOL    HW127932   4.868   3.847   3.684 -0.0494  0.5080  0.2420
 8773SOL    HW227933   4.897   3.710   3.741 -0.7916 -0.1580 -0.9495
 8774SOL     OW27934   0.122   6.783   8.954 -0.1244  0.2651  0.0439
 8774SOL    HW127935   0.123   6.696   8.993 -1.1199  0.1573 -0.1412
 8774SOL    HW227936   0.160   6.840   9.022 -1.0089 -0.0598  0.8336
 8775SOL     OW27937   6.982   4.828   4.397  0.1708 -0.1671 -0.5720
 8775SOL    HW127938   7.013   4.754   4.449  0.6117 -0.6331 -1.4627
 8775SOL    HW227939   7.038   4.828   4.319  1.8442  2.6092  0.4869
 8776SOL     OW27940   3.830   0.735   1.390 -0.4275 -0.2291  0.2358
 8776SOL    HW127941   3.791   0.747   1.303 -0.8000 -1.0924  0.2720
 8776SOL    HW227942   3.909   0.683   1.374  0.1664  0.6214  0.2889
 8777SOL     OW27943   8.420   2.195   3.662  0.0683  0.0059 -0.1539
 8777SOL    HW127944   8.392   2.104   3.665 -0.9727  0.3383  0.7957
 8777SOL    HW227945   8.501   2.194   3.610 -1.7411 -0.9833 -3.2157
 8778SOL     OW27946   0.322   9.182   5.351  0.0855 -0.1557 -0.1783
 8778SOL    HW127947   0.301   9.090   5.368  2.4781 -0.9537 -0.9987
 8778SOL    HW227948   0.293   9.197   5.261  0.3827 -0.3568 -0.3097
 8779SOL     OW27949   1.036   9.377   2.122 -0.3888 -0.4371 -1.5382
 8779SOL    HW127950   1.122   9.372   2.080  0.3127 -0.8103 -0.1126
 8779SOL    HW227951   1.008   9.285   2.128  0.3560 -0.5812  0.4112
 8780SOL     OW27952   2.180   7.890   5.062  0.2386 -0.5283  0.1014
 8780SOL    HW127953   2.235   7.839   5.122  2.5807  1.4298 -0.2215
 8780SOL    HW227954   2.127   7.946   5.120 -1.4140 -2.2858  0.4063
 8781SOL     OW27955   3.859   0.681   9.715  0.0847  0.0748 -0.3317
 8781SOL    HW127956   3.793   0.703   9.649  0.7826  0.4147 -0.9244
 8781SOL    HW227957   3.827   0.599   9.755 -0.2376 -0.2417 -1.2267
 8782SOL     OW27958   6.461   2.119   9.447 -0.1338  0.0710 -0.0984
 8782SOL    HW127959   6.423   2.038   9.483 -0.4286 -0.4054 -1.4086
 8782SOL    HW227960   6.471   2.100   9.353  1.8363  0.7702 -0.0771
 8783SOL     OW27961   2.336   3.480   9.270 -0.1848 -0.0347  0.1159
 8783SOL    HW127962   2.414   3.522   9.233 -0.0192  0.0347  0.5352
 8783SOL    HW227963   2.315   3.532   9.348  0.1214 -0.8113  0.7339
 8784SOL     OW27964   1.741   1.024   6.655  0.0490 -0.4407 -0.2409
 8784SOL    HW127965   1.738   1.089   6.724  0.6557 -1.2948  0.6156
 8784SOL    HW227966   1.770   0.944   6.698 -2.8275 -1.9103 -0.7702
 8785SOL     OW27967   9.360   9.552   7.309 -0.2853 -0.2302 -0.1034
 8785SOL    HW127968   9.266   9.574   7.307 -0.3571 -0.5581 -1.3876
 8785SOL    HW227969   9.362   9.456   7.317 -0.1036 -0.3690 -1.6032
 8786SOL     OW27970   0.063   1.380   2.478 -0.3198 -0.6205 -0.6541
 8786SOL    HW127971   0.005   1.445   2.439 -1.6023 -1.6502 -0.5357
 8786SOL    HW227972   0.148   1.423   2.482 -0.6044  0.2308 -2.6763
 8787SOL     OW27973   1.783   6.170   1.496  0.6571 -0.3224 -0.9498
 8787SOL    HW127974   1.785   6.230   1.421  0.5018  1.8253  0.6759
 8787SOL    HW227975   1.817   6.221   1.569 -0.2583 -1.9748  0.7265
 8788SOL     OW27976   8.982   4.905   8.159 -0.1579  0.0968 -0.1517
 8788SOL    HW127977   8.918   4.934   8.224 -0.7317  1.0736 -1.1148
 8788SOL    HW227978   9.035   4.983   8.142  1.2402 -0.6691  0.5484
 8789SOL     OW27979   7.542   6.987   3.387  0.2543 -0.3354 -0.4706
 8789SOL    HW127980   7.487   6.909   3.398  0.0049 -0.0263  0.6289
 8789SOL    HW227981   7.604   6.964   3.318  1.7458 -2.4064  1.4365
 8790SOL     OW27982   5.416   6.377   3.745 -0.1274 -0.2307  0.0259
 8790SOL    HW127983   5.326   6.408   3.731  0.9365  2.7142 -1.0969
 8790SOL    HW227984   5.471   6.441   3.700  2.6073 -1.5075  1.2950
 8791SOL     OW27985   9.421   9.091   1.952  0.0979 -0.0406 -0.1593
 8791SOL    HW127986   9.433   9.014   2.008  1.0635 -0.9035 -1.4660
 8791SOL    HW227987   9.474   9.072   1.875 -1.0732  1.1496 -1.3154
 8792SOL     OW27988   2.936   2.459   2.159 -0.2116  0.2334 -0.0190
 8792SOL    HW127989   2.861   2.513   2.134 -0.6966 -0.0260  0.8198
 8792SOL    HW227990   2.935   2.460   2.255  0.3176 -0.5159  0.0022
 8793SOL     OW27991   4.024   9.441   0.416  0.0000 -0.1063 -0.3643
 8793SOL    HW127992   4.056   9.351   0.425  2.5030  0.5957 -1.2845
 8793SOL    HW227993   3.987   9.444   0.328  0.2468 -0.1630 -0.4725
 8794SOL     OW27994   3.448   8.385   2.003 -0.0901  0.0839  0.3214
 8794SOL    HW127995   3.394   8.423   2.073  0.9683 -2.5944  2.7738
 8794SOL    HW227996   3.385   8.361   1.935 -1.4114  1.0950  1.1235
 8795SOL     OW27997   8.239   1.133   8.907  0.4981  0.3961  0.3206
 8795SOL    HW127998   8.282   1.058   8.865 -1.4657 -0.5087 -0.2018
 8795SOL    HW227999   8.265   1.128   8.999  0.2661 -1.0488  0.3262
 8796SOL     OW28000   3.717   8.038   4.451  0.6116  0.0188 -0.0898
 8796SOL    HW128001   3.680   8.125   4.436 -1.6919 -0.9685 -0.5410
 8796SOL    HW228002   3.781   8.052   4.521 -0.3827  1.9270  0.5374
 8797SOL     OW28003   5.955   7.224   1.168  0.3057  0.3007 -0.3235
 8797SOL    HW128004   5.890   7.155   1.175  0.7922 -0.1254  0.1390
 8797SOL    HW228005   5.965   7.238   1.074 -0.7966  0.7153 -0.3915
 8798SOL     OW28006   0.591   8.491   4.411 -0.1994  0.2683  0.1135
 8798SOL    HW128007   0.497   8.480   4.401 -0.0460 -0.0118 -1.1718
 8798SOL    HW228008   0.624   8.403   4.432 -0.2063  0.3526  0.4906
 8799SOL     OW28009   2.184   6.870   3.106  0.5873 -0.2239 -0.2382
 8799SOL    HW128010   2.264   6.836   3.146  0.4555 -2.2883 -1.5830
 8799SOL    HW228011   2.126   6.795   3.101 -0.5005  0.6551 -1.5325
 8800SOL     OW28012   9.204   1.244   6.595 -0.0582 -0.5579 -0.0434
 8800SOL    HW128013   9.150   1.170   6.567  0.4747 -1.1834  0.5620
 8800SOL    HW228014   9.262   1.260   6.520 -0.4353 -0.4892 -0.3273
 8801SOL     OW28015   0.294   8.822   7.165  0.1758 -0.0184  0.5272
 8801SOL    HW128016   0.252   8.831   7.080 -0.1932  0.5019  0.7622
 8801SOL    HW228017   0.330   8.733   7.165  0.2517  0.0080 -0.2021
 8802SOL     OW28018   1.072   1.273   1.533  0.6644 -0.0121 -0.6550
 8802SOL    HW128019   1.038   1.209   1.595  0.9508  0.8942  0.4743
 8802SOL    HW228020   1.002   1.285   1.469  0.3802 -0.9906 -0.5393
 8803SOL     OW28021   8.604   6.580   4.817  0.6157  0.0920 -0.1707
 8803SOL    HW128022   8.597   6.485   4.817 -0.9212  0.1137 -3.2265
 8803SOL    HW228023   8.520   6.611   4.851  0.9162  0.3997  0.3209
 8804SOL     OW28024   5.081   9.475   8.699 -0.4854  0.3069  0.2384
 8804SOL    HW128025   5.102   9.468   8.792  2.2926 -0.4033 -0.3545
 8804SOL    HW228026   5.104   9.565   8.676  1.6123 -0.3183 -0.2995
 8805SOL     OW28027   6.437   4.299   1.161  0.1961  0.2507  0.4923
 8805SOL    HW128028   6.517   4.285   1.111 -1.0033  1.9064 -2.0849
 8805SOL    HW228029   6.453   4.379   1.211  0.8150 -0.5217  1.5736
 8806SOL     OW28030   4.282   8.010   6.550  0.7262 -0.5151  0.6762
 8806SOL    HW128031   4.319   8.078   6.606 -0.0793  0.0607  0.5170
 8806SOL    HW228032   4.351   7.994   6.485  1.1873 -0.3339  1.1117
 8807SOL     OW28033   2.361   8.836   1.348 -0.3939  0.3568  0.2329
 8807SOL    HW128034   2.448   8.851   1.386 -1.1742  1.8808  1.4910
 8807SOL    HW228035   2.374   8.760   1.291  2.2000  1.6682 -1.1128
 8808SOL     OW28036   0.517   9.786   0.615 -0.0870 -0.2520  0.1946
 8808SOL    HW128037   0.454   9.718   0.640  1.1029 -1.6028 -0.3623
 8808SOL    HW228038   0.517   9.785   0.519  0.7722 -0.2587  0.1905
 8809SOL     OW28039   6.293   2.061   1.600  0.0683 -0.5100  0.5140
 8809SOL    HW128040   6.256   2.075   1.513  0.1249  0.5564  0.6424
 8809SOL    HW228041   6.315   2.149   1.631  0.0081 -0.8691  1.6284
 8810SOL     OW28042   3.369   5.683   1.791 -0.1858 -0.2896  0.3215
 8810SOL    HW128043   3.310   5.627   1.842 -0.6897  0.4776  0.6107
 8810SOL    HW228044   3.314   5.717   1.721 -0.1021  0.4532  0.6060
 8811SOL     OW28045   2.259   1.738   2.852  0.7558  0.1138 -0.2325
 8811SOL    HW128046   2.352   1.723   2.870  0.7431 -1.0391 -1.0616
 8811SOL    HW228047   2.220   1.752   2.939  1.5452 -0.2809  0.1940
 8812SOL     OW28048   7.916   9.140   0.239  0.0010 -0.3176 -0.5917
 8812SOL    HW128049   7.963   9.068   0.197  0.4645  0.3277 -1.1935
 8812SOL    HW228050   7.825   9.110   0.241  0.3237 -1.3480  0.0987
 8813SOL     OW28051   1.770   2.469   3.300 -0.5569 -0.2808 -0.4314
 8813SOL    HW128052   1.725   2.418   3.232  0.4725 -1.2968 -0.3903
 8813SOL    HW228053   1.863   2.453   3.283 -0.2132  1.3540 -0.2024
 8814SOL     OW28054   9.812   9.794   5.063  0.4264  1.0552 -0.1828
 8814SOL    HW128055   9.827   9.764   4.973  0.4092  1.3744 -0.2933
 8814SOL    HW228056   9.891   9.843   5.086  1.1070 -0.3172  0.5351
 8815SOL     OW28057   3.764   5.832   6.878 -0.1285 -0.1326  0.2866
 8815SOL    HW128058   3.824   5.782   6.823 -0.8671 -2.5717  1.5384
 8815SOL    HW228059   3.677   5.810   6.846 -0.4570  1.1603  0.2523
 8816SOL     OW28060   4.705   9.713   0.003  0.0294  0.3634  0.1807
 8816SOL    HW128061   4.788   9.676  -0.028  0.0701  1.1041 -0.6255
 8816SOL    HW228062   4.648   9.711  -0.074 -0.9142 -0.6788  0.8646
 8817SOL     OW28063   4.186   3.409   0.155  0.2630  0.6656 -0.3116
 8817SOL    HW128064   4.253   3.362   0.106 -0.1257  0.5411 -0.7367
 8817SOL    HW228065   4.232   3.484   0.193  0.6845  0.4649 -0.4182
 8818SOL     OW28066   2.513   0.534   8.585  0.2643  0.2121 -0.0319
 8818SOL    HW128067   2.605   0.509   8.576  0.2844  0.8996 -2.3989
 8818SOL    HW228068   2.514   0.629   8.593 -0.2630  0.4493 -2.0925
 8819SOL     OW28069   9.062   2.537   8.725 -0.0044  0.1846  0.0778
 8819SOL    HW128070   9.112   2.476   8.780 -0.3634  0.2265  0.4562
 8819SOL    HW228071   9.072   2.502   8.636 -0.6125 -0.7202  0.3442
 8820SOL     OW28072   4.557   8.640   4.354 -0.9368  0.5281 -0.4085
 8820SOL    HW128073   4.561   8.546   4.339  1.4340  0.3649  0.7726
 8820SOL    HW228074   4.565   8.679   4.267 -1.2555 -0.3536 -0.8413
 8821SOL     OW28075   6.291   9.778   8.672  0.1305 -0.3999 -0.2454
 8821SOL    HW128076   6.275   9.872   8.681 -1.0545 -0.6593  0.5097
 8821SOL    HW228077   6.321   9.768   8.581 -4.0723  0.2023 -1.9306
 8822SOL     OW28078   9.673   8.596   2.903 -0.5756  0.6852  0.4774
 8822SOL    HW128079   9.760   8.570   2.933 -1.0269 -1.6693 -0.0407
 8822SOL    HW228080   9.664   8.556   2.817 -1.5121  2.4332 -0.2970
 8823SOL     OW28081   4.735   8.803   6.949  0.6159 -0.1530  0.2955
 8823SOL    HW128082   4.778   8.819   7.033  1.1799  4.4967 -0.5567
 8823SOL    HW228083   4.800   8.828   6.884 -0.7383 -0.8356 -1.3996
 8824SOL     OW28084   3.870   1.335   2.538 -0.3383  0.1441 -0.3186
 8824SOL    HW128085   3.894   1.376   2.621  1.8369 -1.4556 -0.0639
 8824SOL    HW228086   3.938   1.364   2.477  1.3386 -2.9376 -0.1128
 8825SOL     OW28087   6.289   2.140   4.725 -0.3445  0.3297  0.5812
 8825SOL    HW128088   6.301   2.046   4.730  1.3859  0.5577  1.5896
 8825SOL    HW228089   6.195   2.153   4.738 -0.7052 -1.2634 -0.2241
 8826SOL     OW28090   6.958   5.129   0.383 -0.5206  0.3215  0.0995
 8826SOL    HW128091   7.037   5.099   0.428 -1.2915 -1.1738  0.5215
 8826SOL    HW228092   6.890   5.127   0.450 -0.9068  1.7788 -0.2128
 8827SOL     OW28093   4.696   5.770   0.340  0.2515 -0.3734  0.5701
 8827SOL    HW128094   4.749   5.690   0.341 -1.0197 -1.2556  0.8256
 8827SOL    HW228095   4.607   5.740   0.361 -0.1934  1.1684  1.0590
 8828SOL     OW28096   7.773   3.471   2.302 -0.2069  0.0090  0.1321
 8828SOL    HW128097   7.781   3.566   2.296  1.8791 -0.1989 -1.9689
 8828SOL    HW228098   7.745   3.444   2.214 -0.2157 -1.3560  0.5298
 8829SOL     OW28099   2.464   3.804   4.192  0.5613  0.0484  0.4512
 8829SOL    HW128100   2.504   3.743   4.130 -0.0068 -0.1939  0.3205
 8829SOL    HW228101   2.437   3.749   4.265  1.3470  0.3522  0.9882
 8830SOL     OW28102   3.903   5.933   4.527  0.2529 -1.0373  0.1463
 8830SOL    HW128103   3.822   5.919   4.577 -0.4828  1.5734 -0.1641
 8830SOL    HW228104   3.873   5.974   4.446  1.9896  1.6750  0.7903
 8831SOL     OW28105   7.366   3.542   4.392 -0.1325 -0.1190 -0.5022
 8831SOL    HW128106   7.285   3.555   4.441  0.0495 -1.1375  0.1028
 8831SOL    HW228107   7.338   3.517   4.304 -0.6403 -3.7614  0.4948
 8832SOL     OW28108   4.263   8.343   2.962 -0.3752  0.0835  0.0998
 8832SOL    HW128109   4.274   8.269   3.021 -0.5786 -0.1195 -0.1123
 8832SOL    HW228110   4.275   8.420   3.017  2.5637 -0.0598 -0.1493
 8833SOL     OW28111   4.954   0.562   9.766 -0.1937 -0.3019 -0.1314
 8833SOL    HW128112   4.900   0.582   9.842 -1.0643  1.7452 -1.2255
 8833SOL    HW228113   4.897   0.576   9.691  1.7057  1.6853 -1.3281
 8834SOL     OW28114   2.610   8.925   1.406 -0.0335  0.4356  0.2602
 8834SOL    HW128115   2.701   8.896   1.410  0.5158  1.8628 -0.8857
 8834SOL    HW228116   2.615   9.020   1.418 -1.1630  0.7607 -1.4791
 8835SOL     OW28117   1.892   0.299   3.504  0.1056 -0.0612  0.0811
 8835SOL    HW128118   1.951   0.360   3.548  0.1558 -0.8019  1.0778
 8835SOL    HW228119   1.838   0.354   3.448  0.7264  0.7991  0.3006
 8836SOL     OW28120   3.303   4.120   8.569 -0.0363 -0.2992  0.2517
 8836SOL    HW128121   3.383   4.171   8.560 -0.2406  0.1725  1.0825
 8836SOL    HW228122   3.322   4.058   8.640 -0.4799 -0.0410  0.5974
 8837SOL     OW28123   4.296   3.794   7.059 -0.2259 -0.0417  0.4920
 8837SOL    HW128124   4.361   3.820   6.994 -0.5544 -0.5539 -0.0532
 8837SOL    HW228125   4.337   3.814   7.143 -0.3058  1.8812  0.1381
 8838SOL     OW28126   7.776   6.193   7.626  0.7233 -0.7708  0.4898
 8838SOL    HW128127   7.713   6.165   7.559 -0.7545  2.0671  0.5068
 8838SOL    HW228128   7.856   6.213   7.576  0.2549 -0.4876 -0.1680
 8839SOL     OW28129   3.543   1.121   1.075 -0.1357 -0.0818 -0.3147
 8839SOL    HW128130   3.476   1.054   1.086  0.4107 -0.6679 -0.5180
 8839SOL    HW228131   3.623   1.081   1.108  0.1870  0.4963 -0.3779
 8840SOL     OW28132   7.676   6.049   9.159  0.3731 -0.7435  0.3653
 8840SOL    HW128133   7.657   6.047   9.253  0.5888 -0.1336  0.4304
 8840SOL    HW228134   7.590   6.056   9.117  0.0324 -3.9107  0.3522
 8841SOL     OW28135   0.009   3.973   3.709 -0.2756 -0.1326  0.1815
 8841SOL    HW128136  -0.058   3.924   3.756  0.4395 -0.2579  1.1104
 8841SOL    HW228137   0.066   4.007   3.778 -0.0467  0.9562 -0.5273
 8842SOL     OW28138   0.051   0.961   2.198  0.3184  0.3290 -0.0029
 8842SOL    HW128139   0.035   0.882   2.250  0.6749 -0.0879 -0.5082
 8842SOL    HW228140   0.067   1.030   2.262  0.8187 -0.1938  0.4437
 8843SOL     OW28141   0.214   5.424   2.541 -0.1444 -0.2699  0.7561
 8843SOL    HW128142   0.158   5.437   2.617  0.0484  1.1040  0.6879
 8843SOL    HW228143   0.225   5.512   2.504  0.8692 -0.7232 -0.0644
 8844SOL     OW28144   5.778   8.398   8.817 -0.6104 -0.1688  0.0308
 8844SOL    HW128145   5.821   8.319   8.851 -1.2445 -0.1078  1.0401
 8844SOL    HW228146   5.838   8.469   8.839  0.6242 -0.4615 -2.0953
 8845SOL     OW28147   7.034   4.901   5.291  0.2038 -0.1343  0.4329
 8845SOL    HW128148   6.985   4.875   5.369  1.0419  0.0851  1.0575
 8845SOL    HW228149   7.097   4.830   5.278  1.0231  0.5023  0.8203
 8846SOL     OW28150   5.939   3.806   6.607  0.1099  0.4426 -0.7840
 8846SOL    HW128151   5.945   3.852   6.524 -0.7148  0.7644 -0.6756
 8846SOL    HW228152   5.900   3.721   6.585  0.7079  0.1792 -0.8439
 8847SOL     OW28153   4.328   0.021   2.781  1.1484  0.6073 -0.1373
 8847SOL    HW128154   4.288   0.064   2.856  0.5970 -1.9030  1.1087
 8847SOL    HW228155   4.422   0.026   2.797  1.1323  1.8173 -0.3345
 8848SOL     OW28156   7.362   7.847   8.424 -0.2149 -0.2563 -0.5973
 8848SOL    HW128157   7.393   7.936   8.443 -0.0463 -0.3002 -0.6715
 8848SOL    HW228158   7.422   7.814   8.357  1.0250 -1.2159  0.9458
 8849SOL     OW28159   6.497   4.528   6.529 -0.0056 -0.6688  0.7448
 8849SOL    HW128160   6.470   4.445   6.490  0.3451  0.1800 -1.4098
 8849SOL    HW228161   6.589   4.517   6.549  0.4515 -0.3267 -1.0056
 8850SOL     OW28162   4.859   9.563   4.951 -0.2740  0.2165 -0.3241
 8850SOL    HW128163   4.899   9.633   4.900  0.5142  1.0508  1.3731
 8850SOL    HW228164   4.856   9.488   4.891  1.1858  0.9759 -1.3860
 8851SOL     OW28165   7.761   1.182   0.658 -0.2355 -0.2874  0.1085
 8851SOL    HW128166   7.814   1.157   0.582 -2.0624 -1.5808 -0.8296
 8851SOL    HW228167   7.796   1.130   0.730  1.8043  1.2749  0.3269
 8852SOL     OW28168   4.572   7.702   3.298  0.7362  0.0582  0.5001
 8852SOL    HW128169   4.545   7.770   3.360  0.2026 -1.3121  1.8235
 8852SOL    HW228170   4.537   7.731   3.214  0.6414  1.4867  1.0064
 8853SOL     OW28171   7.919   5.556   4.991  0.1487 -0.5826  0.2732
 8853SOL    HW128172   7.921   5.477   4.937 -0.2535 -0.6167  0.3061
 8853SOL    HW228173   7.847   5.542   5.052 -0.6063  0.2562 -0.3990
 8854SOL     OW28174   1.439   3.898   6.380  0.1173 -0.0053 -1.0703
 8854SOL    HW128175   1.482   3.854   6.307  1.9424  1.0088 -0.6901
 8854SOL    HW228176   1.471   3.852   6.458  1.7536  1.5968 -0.6920
 8855SOL     OW28177   5.800   5.531   9.262  0.5688 -0.4448 -0.1702
 8855SOL    HW128178   5.878   5.586   9.257 -0.1257  0.5599 -0.1791
 8855SOL    HW228179   5.729   5.587   9.234 -0.0561 -1.5993 -1.0007
 8856SOL     OW28180   4.750   7.183   2.623 -0.6977 -0.4461  0.3037
 8856SOL    HW128181   4.801   7.226   2.554 -1.9085  0.4526 -0.0594
 8856SOL    HW228182   4.701   7.115   2.578  0.9915 -2.1138  0.8334
 8857SOL     OW28183   5.152   3.186   9.176  0.1020  0.2252  0.1383
 8857SOL    HW128184   5.083   3.125   9.202  0.2135  0.2389  0.4683
 8857SOL    HW228185   5.106   3.252   9.124 -0.1269  0.2063  0.3132
 8858SOL     OW28186   8.568   3.750   5.238  0.3482 -0.2100  0.0880
 8858SOL    HW128187   8.491   3.776   5.288 -0.4736 -0.2357 -1.1328
 8858SOL    HW228188   8.566   3.655   5.239  1.5389 -0.2614  1.7861
 8859SOL     OW28189   5.768   1.176   3.922 -0.4122 -0.2924  0.1657
 8859SOL    HW128190   5.775   1.151   3.830 -0.0958 -0.0366  0.1171
 8859SOL    HW228191   5.859   1.171   3.954 -0.4652  0.0130  0.3606
 8860SOL     OW28192   9.809   3.266   3.643  0.3283 -0.2924 -0.0687
 8860SOL    HW128193   9.738   3.235   3.586  0.2447  0.7959 -0.5814
 8860SOL    HW228194   9.817   3.360   3.623  0.7252 -0.0194  1.2596
 8861SOL     OW28195   8.612   8.017   0.957 -0.4161  0.3846 -0.2569
 8861SOL    HW128196   8.582   7.969   0.880  0.0517  1.7448 -1.3378
 8861SOL    HW228197   8.601   8.109   0.934 -0.6140  0.8346  1.4586
 8862SOL     OW28198   6.044   9.152   5.818  0.3984 -0.8374  0.3468
 8862SOL    HW128199   5.961   9.106   5.805 -1.5937  2.1625  1.3086
 8862SOL    HW228200   6.096   9.094   5.874 -1.4663 -2.4067  0.5232
 8863SOL     OW28201   2.268   4.312   0.205 -0.1079 -0.2560 -0.1214
 8863SOL    HW128202   2.271   4.254   0.129 -1.2891 -1.2136  0.5202
 8863SOL    HW228203   2.359   4.333   0.223  0.1934 -0.0916 -1.7298
 8864SOL     OW28204   3.979   7.725   7.617 -0.0205  0.1985 -0.1912
 8864SOL    HW128205   4.064   7.705   7.577 -0.5227  0.3829 -1.4056
 8864SOL    HW228206   3.948   7.640   7.650  1.2637  0.3679  1.6089
 8865SOL     OW28207   9.021   3.810   7.894  0.3345  0.0461 -0.0664
 8865SOL    HW128208   8.992   3.822   7.803 -0.6895 -2.7379 -0.2049
 8865SOL    HW228209   8.941   3.819   7.945  1.0266  2.3732  0.7334
 8866SOL     OW28210   2.967   3.731   6.739  0.5629  0.8542 -0.0298
 8866SOL    HW128211   2.935   3.821   6.734 -1.6654  0.1156 -0.1202
 8866SOL    HW228212   2.982   3.716   6.832  0.7660  1.2655  0.0046
 8867SOL     OW28213   8.809   6.619   0.717 -0.2150  0.3051  0.4058
 8867SOL    HW128214   8.760   6.701   0.715 -0.1099  0.3699  0.4561
 8867SOL    HW228215   8.883   6.635   0.657 -0.1646  0.2668  0.4585
 8868SOL     OW28216   7.983   1.359   0.343 -0.2796 -0.3102  0.5732
 8868SOL    HW128217   7.897   1.340   0.380 -0.6493  0.3078  0.0627
 8868SOL    HW228218   7.983   1.317   0.257  0.4168 -1.3815  1.0775
 8869SOL     OW28219   9.525   2.382   4.150 -0.1024  0.3310  0.3025
 8869SOL    HW128220   9.481   2.305   4.115  0.8455 -0.5266  0.9257
 8869SOL    HW228221   9.455   2.446   4.165 -0.6210  0.5926 -2.6562
 8870SOL     OW28222   7.617   9.598   3.424 -0.0228  0.1204 -0.2311
 8870SOL    HW128223   7.596   9.578   3.333 -2.0582 -0.6260  0.3572
 8870SOL    HW228224   7.674   9.527   3.452 -0.6065 -0.4694 -0.5099
 8871SOL     OW28225   9.205   0.753   3.532  0.2345  0.3147  0.2404
 8871SOL    HW128226   9.260   0.751   3.454  1.4273  3.2736  0.8796
 8871SOL    HW228227   9.117   0.731   3.500  1.2076 -1.6202 -1.3217
 8872SOL     OW28228   1.036   6.795   7.815  0.4222 -0.2617  0.1676
 8872SOL    HW128229   1.009   6.861   7.879  0.9472 -0.1981  0.3289
 8872SOL    HW228230   0.953   6.761   7.779  0.0359 -1.3964  1.9721
 8873SOL     OW28231   5.885   9.456   2.167 -0.2644  0.1522 -0.2579
 8873SOL    HW128232   5.915   9.443   2.077  1.4653  0.3375  0.2482
 8873SOL    HW228233   5.790   9.446   2.163 -0.3125  0.9931 -2.2541
 8874SOL     OW28234   0.628   3.000   4.766 -0.3613  0.3033 -0.6025
 8874SOL    HW128235   0.722   2.986   4.771 -0.2689  0.8502 -0.7792
 8874SOL    HW228236   0.599   3.004   4.857 -0.2608 -0.1483 -0.5477
 8875SOL     OW28237   1.748   8.731   3.451 -0.4935  0.2755  0.4819
 8875SOL    HW128238   1.655   8.751   3.438 -1.0019 -1.9277  0.4676
 8875SOL    HW228239   1.749   8.658   3.512  1.0282 -1.8988 -1.9523
 8876SOL     OW28240   5.687   8.535   0.611  0.3968  0.2136  0.7896
 8876SOL    HW128241   5.679   8.530   0.707  1.0409 -1.0200  0.7935
 8876SOL    HW228242   5.597   8.530   0.579  0.2227 -0.0450  1.3031
 8877SOL     OW28243   1.237   1.353   4.403  0.4177  0.3493  0.2177
 8877SOL    HW128244   1.211   1.440   4.434 -0.9720  0.0391  0.0172
 8877SOL    HW228245   1.194   1.293   4.464 -0.0779 -0.2132 -0.6611
 8878SOL     OW28246   4.472   9.185   3.611  0.1962 -0.2334  0.1815
 8878SOL    HW128247   4.513   9.270   3.622  2.3649 -1.3280  1.3458
 8878SOL    HW228248   4.440   9.161   3.698 -0.3561 -0.6238 -0.1189
 8879SOL     OW28249   0.751   8.593   0.141 -0.2148  0.3779  0.2332
 8879SOL    HW128250   0.758   8.685   0.115 -1.8394  0.6904  0.7489
 8879SOL    HW228251   0.749   8.596   0.237  0.0002 -0.2324  0.2599
 8880SOL     OW28252   3.046   5.084   0.370 -0.2224 -0.5775  0.2054
 8880SOL    HW128253   3.071   5.163   0.323  0.7603 -0.9508  0.0736
 8880SOL    HW228254   3.088   5.013   0.321 -0.3609 -1.0920  0.8260
 8881SOL     OW28255   5.243   5.662   4.189 -0.0269  0.1155  0.2328
 8881SOL    HW128256   5.163   5.624   4.224 -0.4337  1.2640  0.5820
 8881SOL    HW228257   5.288   5.589   4.146 -0.0730 -1.0883  2.1142
 8882SOL     OW28258   6.027   4.860   3.035 -0.1913  0.6194 -0.6437
 8882SOL    HW128259   6.027   4.767   3.054  0.8070  0.6513 -0.4516
 8882SOL    HW228260   6.034   4.865   2.939 -2.9954  0.4897 -0.9305
 8883SOL     OW28261   4.573   4.682   6.843 -0.7323 -0.1394  0.3141
 8883SOL    HW128262   4.649   4.711   6.793 -0.5693  0.0612  0.6809
 8883SOL    HW228263   4.605   4.609   6.896 -1.1175 -0.9543 -0.5388
 8884SOL     OW28264   1.522   0.874   1.737  0.5985  0.1512 -0.0158
 8884SOL    HW128265   1.514   0.962   1.774 -2.2713  0.0707 -0.2091
 8884SOL    HW228266   1.433   0.839   1.740  1.5109 -2.4327 -0.7663
 8885SOL     OW28267   5.212   7.519   2.511 -0.2534  0.0036  0.0212
 8885SOL    HW128268   5.180   7.459   2.444 -3.2441 -1.0562  2.1628
 8885SOL    HW228269   5.167   7.602   2.493 -1.1416 -0.3121  0.7012
 8886SOL     OW28270   0.625   3.215   5.817  0.1730 -0.1376 -0.4032
 8886SOL    HW128271   0.676   3.253   5.889  0.5250 -0.0551 -0.6957
 8886SOL    HW228272   0.689   3.162   5.768 -0.2111 -0.7402 -0.2633
 8887SOL     OW28273   6.288   3.777   3.597  0.4321 -0.1642  0.0657
 8887SOL    HW128274   6.232   3.783   3.674  0.6852  0.1977  0.2277
 8887SOL    HW228275   6.262   3.852   3.543 -0.2084 -0.7965 -0.5206
 8888SOL     OW28276   7.127   7.121   4.119 -0.4890  0.1521  0.4101
 8888SOL    HW128277   7.136   7.054   4.052  0.7926  1.6548 -1.0090
 8888SOL    HW228278   7.164   7.082   4.198  0.3285 -0.7760 -0.4125
 8889SOL     OW28279   4.389   6.421   1.183 -1.1087 -0.3502  0.0999
 8889SOL    HW128280   4.366   6.430   1.090  0.4757  0.8225 -0.2120
 8889SOL    HW228281   4.451   6.491   1.199 -0.8940 -0.9147  1.9225
 8890SOL     OW28282   6.165   1.921   5.717  0.1156 -0.1502  0.4417
 8890SOL    HW128283   6.201   2.009   5.706 -0.6642  0.0877 -0.3372
 8890SOL    HW228284   6.241   1.864   5.717  0.5587  0.4055 -0.4564
 8891SOL     OW28285   7.779   3.874   9.737  0.5060 -0.2121  0.1630
 8891SOL    HW128286   7.722   3.943   9.772 -0.1644 -0.3066 -0.6819
 8891SOL    HW228287   7.796   3.816   9.811  0.8506  0.7142  0.8140
 8892SOL     OW28288   8.791   7.892   3.125 -0.2082  0.0774  0.5261
 8892SOL    HW128289   8.695   7.892   3.133 -0.3621  2.2528 -0.6077
 8892SOL    HW228290   8.814   7.983   3.110  1.7957 -0.7049 -1.9242
 8893SOL     OW28291   5.367   7.741   4.291  0.7049  0.3161 -0.1723
 8893SOL    HW128292   5.293   7.793   4.260  0.7528  0.6309  0.2206
 8893SOL    HW228293   5.401   7.697   4.213 -0.1528 -0.1649 -0.2953
 8894SOL     OW28294   8.553   7.730   3.146  0.0919 -0.1148 -0.3197
 8894SOL    HW128295   8.637   7.698   3.179  0.0406  1.0121  1.0180
 8894SOL    HW228296   8.488   7.671   3.185  0.2507 -1.4570 -1.9571
 8895SOL     OW28297   7.538   1.564   7.130  0.2275  0.0288 -0.6337
 8895SOL    HW128298   7.489   1.484   7.116 -0.4172  0.3129 -0.0179
 8895SOL    HW228299   7.547   1.572   7.225 -0.6630  1.2362 -0.6206
 8896SOL     OW28300   8.660   8.194   4.590  0.6637 -0.3522  0.1370
 8896SOL    HW128301   8.595   8.264   4.581  0.0080 -1.0453 -0.5703
 8896SOL    HW228302   8.731   8.235   4.640 -0.4784  0.2943  1.2921
 8897SOL     OW28303   1.141   7.641   8.932  0.2169  0.4126  0.2940
 8897SOL    HW128304   1.077   7.632   9.003  0.7062  0.2936  0.7317
 8897SOL    HW228305   1.190   7.720   8.954 -0.2517  0.9151 -0.4322
 8898SOL     OW28306   8.500   5.060   4.818  0.2074  0.1409  0.4103
 8898SOL    HW128307   8.516   5.137   4.764  0.8787 -1.1985 -1.4107
 8898SOL    HW228308   8.453   5.093   4.894 -1.2653  2.0666 -1.2404
 8899SOL     OW28309   6.441   9.698   6.323  0.2147  0.7189 -0.3228
 8899SOL    HW128310   6.461   9.621   6.377  2.1410 -0.1766 -2.1742
 8899SOL    HW228311   6.348   9.689   6.301 -0.0749  0.0077  1.0977
 8900SOL     OW28312   7.098   9.539   6.514  0.1584  0.7286  0.0009
 8900SOL    HW128313   7.192   9.536   6.533  0.3081  0.4303 -0.7261
 8900SOL    HW228314   7.056   9.536   6.599  0.7664 -1.3470  0.2943
 8901SOL     OW28315   2.478   1.226   3.926 -0.4789  0.1115  0.3440
 8901SOL    HW128316   2.434   1.241   3.842  0.1691  1.2704  0.1825
 8901SOL    HW228317   2.461   1.307   3.976  0.8810  0.2939  0.5317
 8902SOL     OW28318   6.012   6.444   1.789  0.2425  0.4521 -0.4389
 8902SOL    HW128319   6.091   6.418   1.837  0.7258 -0.6363 -1.7518
 8902SOL    HW228320   6.029   6.417   1.699 -0.4038  2.8957 -1.3734
 8903SOL     OW28321   1.819   8.695   1.820  0.4969  0.3279 -0.2480
 8903SOL    HW128322   1.869   8.614   1.810 -0.3619 -0.4535  1.3898
 8903SOL    HW228323   1.745   8.671   1.876 -1.1753  1.6784 -1.7336
 8904SOL     OW28324   4.057   2.085   2.002  0.2422  0.0706  0.5254
 8904SOL    HW128325   4.034   2.178   2.010 -1.1565 -0.2284  0.3083
 8904SOL    HW228326   4.018   2.057   1.920  0.9744 -0.6310  0.4003
 8905SOL     OW28327   5.536   4.030   2.658  0.8877 -0.1404  0.0556
 8905SOL    HW128328   5.488   3.949   2.639 -0.4246  0.7991 -0.7522
 8905SOL    HW228329   5.478   4.079   2.716  1.2577  0.6386 -0.2284
 8906SOL     OW28330   4.140   5.776   6.976  0.2915 -0.3304 -0.2738
 8906SOL    HW128331   4.151   5.871   6.983  1.0609 -0.3343 -1.1687
 8906SOL    HW228332   4.082   5.753   7.048  3.9109  0.1541  3.0866
 8907SOL     OW28333   1.833   9.614   4.075  0.3365  0.1872 -0.2104
 8907SOL    HW128334   1.844   9.636   4.167 -0.4393  0.6472 -0.2136
 8907SOL    HW228335   1.825   9.519   4.073 -0.1883  0.2127  0.2688
 8908SOL     OW28336   3.122   0.526   2.354 -0.2957 -0.1540 -0.6609
 8908SOL    HW128337   3.151   0.589   2.421  0.1528  0.6691 -1.5945
 8908SOL    HW228338   3.027   0.522   2.365 -0.4634  1.5005 -1.2372
 8909SOL     OW28339   7.525   4.115   7.006  0.1305  0.8092 -0.0006
 8909SOL    HW128340   7.481   4.064   7.073 -1.0485 -0.1516 -1.4422
 8909SOL    HW228341   7.618   4.093   7.015 -0.4257 -2.8375 -1.4591
 8910SOL     OW28342   5.049   4.117   0.858 -0.0359 -0.1095  0.0357
 8910SOL    HW128343   5.016   4.121   0.948  0.3361  1.3322  0.1327
 8910SOL    HW228344   5.092   4.032   0.852 -2.8118 -1.6548  0.2152
 8911SOL     OW28345   3.848   9.674   2.777 -0.3537  0.5040  0.0848
 8911SOL    HW128346   3.934   9.716   2.776 -0.2626  0.3106 -1.2235
 8911SOL    HW228347   3.861   9.595   2.829  0.0797  0.8234  0.4745
 8912SOL     OW28348   8.982   5.346   4.195 -0.0256 -0.3295  0.2113
 8912SOL    HW128349   8.991   5.438   4.170  0.0715 -0.4931 -0.3668
 8912SOL    HW228350   9.041   5.300   4.136  0.8080 -0.6514  1.2534
 8913SOL     OW28351   7.733   5.043   7.982  0.0183 -0.5274 -0.3097
 8913SOL    HW128352   7.726   4.976   7.915  1.4677 -0.6650 -0.3635
 8913SOL    HW228353   7.694   5.004   8.060 -1.0550 -0.6195 -0.8820
 8914SOL     OW28354   6.317   4.438   3.494  0.1147  0.4280  0.1103
 8914SOL    HW128355   6.369   4.358   3.489 -2.0751 -0.9937 -2.1759
 8914SOL    HW228356   6.380   4.509   3.479  1.7046 -1.0366 -0.4514
 8915SOL     OW28357   2.499   5.800   7.090  0.3729  0.7326  0.8420
 8915SOL    HW128358   2.512   5.732   7.155 -1.4034 -1.2813 -0.7684
 8915SOL    HW228359   2.479   5.879   7.140 -0.8278 -0.7124  2.7320
 8916SOL     OW28360   3.829   5.638   7.739 -0.6426 -0.2425  0.4877
 8916SOL    HW128361   3.870   5.720   7.711 -1.7432  0.0395 -0.3761
 8916SOL    HW228362   3.766   5.665   7.806 -0.1482 -0.5470  1.0840
 8917SOL     OW28363   7.170   4.205   4.335 -0.0598 -0.0906  0.1674
 8917SOL    HW128364   7.138   4.292   4.360  0.2637  0.1263 -0.1651
 8917SOL    HW228365   7.204   4.217   4.246 -0.3060 -0.6315  0.0017
 8918SOL     OW28366   9.546   0.022   4.266 -0.6629 -0.1244 -0.2263
 8918SOL    HW128367   9.494   0.084   4.216 -0.4246  0.3810  0.1418
 8918SOL    HW228368   9.573   0.070   4.344  0.4756 -0.3164 -0.4760
 8919SOL     OW28369   7.244   3.661   8.165  0.0905  0.1935 -0.0592
 8919SOL    HW128370   7.273   3.644   8.255 -1.2596 -1.7310  0.0683
 8919SOL    HW228371   7.323   3.692   8.120  2.0423 -3.2049  0.6735
 8920SOL     OW28372   6.937   0.086   2.429 -0.0397 -0.3037  0.5793
 8920SOL    HW128373   7.018   0.036   2.418  0.1871 -0.3263  2.1327
 8920SOL    HW228374   6.872   0.039   2.376  0.8842 -0.4691 -0.4245
 8921SOL     OW28375   5.743   5.718   8.472 -0.0575 -0.3560 -0.1825
 8921SOL    HW128376   5.781   5.696   8.557 -2.7889 -3.0115  0.5547
 8921SOL    HW228377   5.688   5.795   8.489  0.7156  0.1585  0.0218
 8922SOL     OW28378   7.840   5.891   0.658 -0.1777 -0.5121  0.0929
 8922SOL    HW128379   7.828   5.911   0.751  1.1971  1.0888 -0.0290
 8922SOL    HW228380   7.815   5.799   0.650 -1.1741 -0.4412  1.8675
 8923SOL     OW28381   3.782   1.990   3.258 -0.2739 -0.1221 -1.0539
 8923SOL    HW128382   3.713   2.057   3.258 -0.5483 -0.3602  0.7383
 8923SOL    HW228383   3.857   2.034   3.298 -0.2530 -0.6874 -0.4662
 8924SOL     OW28384   9.149   1.750   0.033 -0.4393  0.0152  0.0505
 8924SOL    HW128385   9.169   1.831  -0.014 -0.1008  1.6143  2.7491
 8924SOL    HW228386   9.202   1.754   0.113 -0.8757 -2.5987  0.5636
 8925SOL     OW28387   2.110   2.933   5.970 -0.2362  0.1155 -0.8035
 8925SOL    HW128388   2.070   2.897   5.891  1.0392 -2.6991 -0.2996
 8925SOL    HW228389   2.196   2.964   5.942 -0.1892  0.0756 -0.7043
 8926SOL     OW28390   4.696   5.192   4.448 -0.1510 -0.1804  0.1605
 8926SOL    HW128391   4.694   5.109   4.495 -4.0083 -0.4846 -0.2671
 8926SOL    HW228392   4.685   5.259   4.515  2.6055  0.0909  0.4626
 8927SOL     OW28393   2.325   7.520   3.731  0.4719  0.2559 -0.4412
 8927SOL    HW128394   2.347   7.464   3.656  0.6186 -0.0084 -0.2012
 8927SOL    HW228395   2.367   7.477   3.806 -1.5261 -0.7255  0.1853
 8928SOL     OW28396   5.707   8.323   0.940 -0.0593  0.1392 -0.7355
 8928SOL    HW128397   5.635   8.309   0.878  1.2157  1.2304 -2.5592
 8928SOL    HW228398   5.718   8.418   0.942 -0.7750  0.2449  2.0863
 8929SOL     OW28399   2.243   5.583   3.086  0.1259 -0.2579  0.2310
 8929SOL    HW128400   2.295   5.556   3.162 -0.9561 -1.5980  0.5454
 8929SOL    HW228401   2.217   5.500   3.045  0.9874  0.4410 -1.8442
 8930SOL     OW28402   7.024   2.693   4.069  0.0796  0.3948 -0.2269
 8930SOL    HW128403   7.103   2.638   4.070  0.5847  1.1042 -0.2751
 8930SOL    HW228404   6.965   2.652   4.132  0.0426 -0.7700 -0.9845
 8931SOL     OW28405   6.727   2.695   7.155 -0.8553 -0.1630  0.3579
 8931SOL    HW128406   6.712   2.746   7.235 -2.2801  0.0573 -0.0154
 8931SOL    HW228407   6.639   2.681   7.118 -0.1517  1.1218 -2.0237
 8932SOL     OW28408   6.964   0.864   5.687 -0.4149  0.6775  0.4844
 8932SOL    HW128409   7.040   0.922   5.691  0.8568 -0.9111  0.3823
 8932SOL    HW228410   6.983   0.795   5.751 -0.9734 -0.6629 -0.7506
 8933SOL     OW28411   1.212   6.344   2.820 -0.3549 -0.0809 -0.1701
 8933SOL    HW128412   1.158   6.421   2.832  0.7038  0.7102 -0.3580
 8933SOL    HW228413   1.231   6.313   2.909 -1.0467 -0.3278 -0.1031
 8934SOL     OW28414   8.702   3.664   2.370  0.1558  0.5122 -0.6647
 8934SOL    HW128415   8.734   3.730   2.308  1.3659  1.6066  1.0505
 8934SOL    HW228416   8.658   3.714   2.438 -1.5487 -0.7058 -0.8109
 8935SOL     OW28417   5.382   3.549   1.795 -0.1201 -0.0842  0.1560
 8935SOL    HW128418   5.433   3.492   1.851 -0.1458 -1.7914 -1.4604
 8935SOL    HW228419   5.351   3.619   1.853  2.4337 -0.0212  1.5763
 8936SOL     OW28420   8.680   9.388   5.493 -0.0628  0.2979  0.1890
 8936SOL    HW128421   8.760   9.441   5.488  1.0302 -1.2726  0.4081
 8936SOL    HW228422   8.618   9.443   5.542  0.5660  1.8901 -0.7296
 8937SOL     OW28423   2.061   2.106   4.014  0.0599  0.3446 -0.4360
 8937SOL    HW128424   1.965   2.100   4.013  0.1211 -2.1099  0.0049
 8937SOL    HW228425   2.087   2.067   3.931  0.6747 -0.1605 -0.0149
 8938SOL     OW28426   1.348   5.719   2.966  0.0615 -0.0456  0.0019
 8938SOL    HW128427   1.361   5.706   3.060  0.8622  0.7060  0.0027
 8938SOL    HW228428   1.341   5.814   2.956 -2.0891 -0.1940 -0.4460
 8939SOL     OW28429   0.955   0.240   7.761 -0.0306  0.4072  0.3661
 8939SOL    HW128430   0.909   0.324   7.755 -1.4870 -0.3963 -0.5956
 8939SOL    HW228431   0.886   0.175   7.748  0.7992 -1.0243  2.5782
 8940SOL     OW28432   6.964   3.107   1.642  0.3063  0.0317  0.2818
 8940SOL    HW128433   7.033   3.159   1.600  0.2596  1.5080  1.9443
 8940SOL    HW228434   7.011   3.036   1.686  0.6088  0.0701  0.0232
 8941SOL     OW28435   3.126   5.938   0.647  0.1304 -0.1546  0.0472
 8941SOL    HW128436   3.145   6.017   0.697  0.2895 -0.4536  0.4619
 8941SOL    HW228437   3.133   5.966   0.555  2.5460 -0.2313  0.1532
 8942SOL     OW28438   8.413   8.705   9.217  0.1846  0.0578  0.7680
 8942SOL    HW128439   8.433   8.622   9.261  0.4457  0.6826  1.8736
 8942SOL    HW228440   8.354   8.680   9.145 -0.8395 -0.9417  1.8831
 8943SOL     OW28441   9.061   0.612   6.813 -0.0051 -0.2711 -0.1946
 8943SOL    HW128442   9.133   0.618   6.875 -0.9136  0.0335  0.8693
 8943SOL    HW228443   9.028   0.523   6.822  0.7108 -0.6617 -1.2527
 8944SOL     OW28444   8.241   4.165   0.483 -0.7991 -0.0713  0.3847
 8944SOL    HW128445   8.181   4.105   0.439 -1.3879  0.2667  0.7064
 8944SOL    HW228446   8.203   4.177   0.570  0.0258 -0.2657  0.7801
 8945SOL     OW28447   2.475   5.803   3.487 -0.4618  0.2164  0.0613
 8945SOL    HW128448   2.562   5.765   3.503  0.2913  1.1281 -1.5575
 8945SOL    HW228449   2.433   5.740   3.428 -0.3436  0.4759 -0.2992
 8946SOL     OW28450   1.172   9.112   0.807 -0.7228 -0.2003 -0.7439
 8946SOL    HW128451   1.158   9.180   0.741  1.3201  0.8135 -0.2112
 8946SOL    HW228452   1.231   9.050   0.765 -0.0493  0.0319 -0.1464
 8947SOL     OW28453   4.321   0.346   4.533 -0.5368 -0.3740  0.3101
 8947SOL    HW128454   4.334   0.308   4.620 -0.4655  2.3992  1.6349
 8947SOL    HW228455   4.281   0.431   4.550 -0.0566  0.4857 -2.3729
 8948SOL     OW28456   6.359   8.865   0.956 -0.0589 -0.0767  0.4799
 8948SOL    HW128457   6.437   8.915   0.980 -0.6212  0.9729  0.2063
 8948SOL    HW228458   6.386   8.812   0.882  0.2735  0.6877  0.0357
 8949SOL     OW28459   4.608   4.346   8.010 -0.2688 -0.4093 -0.0052
 8949SOL    HW128460   4.682   4.401   8.035 -0.6117  0.2484 -0.3843
 8949SOL    HW228461   4.598   4.361   7.916 -0.3453 -1.1576 -0.1218
 8950SOL     OW28462   8.368   1.084   5.766  0.0794 -0.2772  0.5876
 8950SOL    HW128463   8.359   1.139   5.688 -0.2702 -0.6012  0.3952
 8950SOL    HW228464   8.279   1.077   5.800  0.0954 -0.8654  0.5116
 8951SOL     OW28465   9.050   5.768   1.420  0.7315  0.3012  0.5048
 8951SOL    HW128466   8.989   5.776   1.347  2.8016 -1.0555 -1.5148
 8951SOL    HW228467   9.104   5.847   1.415  0.2880  0.6557  1.1823
 8952SOL     OW28468   7.410   4.200   5.508  0.1213  0.5987 -0.0140
 8952SOL    HW128469   7.362   4.144   5.568 -0.7281 -2.0831 -2.9383
 8952SOL    HW228470   7.355   4.278   5.499 -0.5267  0.3370  1.3356
 8953SOL     OW28471   6.123   0.896   8.699  0.0486  0.2077 -0.4851
 8953SOL    HW128472   6.155   0.840   8.770  2.8676  1.0462 -0.9733
 8953SOL    HW228473   6.201   0.941   8.667 -1.1502  0.0555 -3.9968
 8954SOL     OW28474   5.127   5.234   5.475 -0.6180 -0.1731 -0.5826
 8954SOL    HW128475   5.207   5.286   5.466 -0.3398 -0.4325  0.2880
 8954SOL    HW228476   5.142   5.180   5.553 -1.1650 -1.0824 -1.0891
 8955SOL     OW28477   7.071   9.026   9.294 -0.2391  0.0886  0.3145
 8955SOL    HW128478   6.992   8.977   9.321  0.1085 -0.3246  0.5943
 8955SOL    HW228479   7.094   8.988   9.210 -0.2590  0.1179  0.2958
 8956SOL     OW28480   7.071   0.007   8.490 -0.1546  0.0215 -0.5689
 8956SOL    HW128481   7.082  -0.088   8.499  1.1926  0.2576  0.5359
 8956SOL    HW228482   6.996   0.017   8.430 -0.4740 -1.7243 -0.5022
 8957SOL     OW28483   2.704   0.329   1.430 -0.7680 -0.0447 -0.6532
 8957SOL    HW128484   2.634   0.386   1.461 -0.9092 -0.4917 -0.1260
 8957SOL    HW228485   2.739   0.288   1.509 -2.6335 -2.9327 -1.1421
 8958SOL     OW28486   7.305   6.307   9.302 -0.0033 -0.2896  0.1511
 8958SOL    HW128487   7.392   6.347   9.293 -0.7503  1.5214  0.5754
 8958SOL    HW228488   7.258   6.333   9.223 -0.1454 -1.3720 -0.1404
 8959SOL     OW28489   6.953   0.498   8.652  0.1599  0.5117  0.1729
 8959SOL    HW128490   6.923   0.492   8.743 -0.0299  0.5797  0.1146
 8959SOL    HW228491   6.921   0.418   8.611 -1.2996  1.2971 -0.2916
 8960SOL     OW28492   1.103   0.165   5.668  0.6295  0.4364 -0.1943
 8960SOL    HW128493   1.057   0.097   5.717  0.3865  1.5588  1.2009
 8960SOL    HW228494   1.081   0.247   5.713  1.8443  1.3149 -1.1169
 8961SOL     OW28495   4.092   2.914   1.565 -0.0152 -0.0045  0.2198
 8961SOL    HW128496   4.016   2.891   1.619 -0.9003 -0.7111 -1.2638
 8961SOL    HW228497   4.142   2.833   1.558 -0.3224 -0.1347 -0.6298
 8962SOL     OW28498   6.949   5.588   2.974  0.6063  0.3583 -0.5185
 8962SOL    HW128499   6.900   5.641   2.911 -1.6345 -0.1635  0.6446
 8962SOL    HW228500   6.937   5.634   3.057 -0.2580 -1.2090  0.2763
 8963SOL     OW28501   1.625   6.276   3.197 -0.4352  0.4264  0.0519
 8963SOL    HW128502   1.556   6.233   3.147 -0.0785 -0.4800  0.3240
 8963SOL    HW228503   1.583   6.299   3.280  0.0173 -1.7247  0.9387
 8964SOL     OW28504   3.095   0.173   3.049 -0.1235  0.0919 -0.1492
 8964SOL    HW128505   3.184   0.207   3.063 -0.1491  0.7206 -1.3715
 8964SOL    HW228506   3.102   0.079   3.066  0.7156  0.1709 -0.0076
 8965SOL     OW28507   8.944   0.884   6.871 -0.8052  0.0939 -0.0338
 8965SOL    HW128508   8.986   0.800   6.887 -1.3789 -0.0100  1.0498
 8965SOL    HW228509   8.956   0.933   6.953 -1.8270  0.4549 -0.0748
 8966SOL     OW28510   7.046   7.639   8.224 -0.1304 -0.0982 -0.5275
 8966SOL    HW128511   6.997   7.701   8.279  0.7417  0.7008 -0.6314
 8966SOL    HW228512   7.083   7.576   8.285 -0.4056 -0.0816 -0.3429
 8967SOL     OW28513   1.915   6.119   7.163  0.3409  0.4751  0.1998
 8967SOL    HW128514   1.821   6.102   7.161  0.4096  0.1279 -1.9942
 8967SOL    HW228515   1.955   6.033   7.149  0.9537  0.7873  0.0125
 8968SOL     OW28516   5.920   4.409   1.171 -0.1038  0.4695  0.3049
 8968SOL    HW128517   5.939   4.495   1.132 -0.3325 -0.7490 -2.8369
 8968SOL    HW228518   5.999   4.357   1.154 -0.9351 -0.6588 -0.2757
 8969SOL     OW28519   6.061   9.671   8.756 -0.0286 -0.3801  0.2419
 8969SOL    HW128520   6.042   9.737   8.823  2.2717 -1.5723  2.2416
 8969SOL    HW228521   6.150   9.691   8.727  0.2113 -1.8042 -0.0732
 8970SOL     OW28522   3.949   4.076   9.367  0.5003 -0.0275  0.5386
 8970SOL    HW128523   4.019   4.033   9.416  0.3520  0.7754  1.4896
 8970SOL    HW228524   3.974   4.168   9.365  0.4563 -0.0344 -0.8510
 8971SOL     OW28525   0.693   0.551   7.492 -0.1119  0.0130 -0.6245
 8971SOL    HW128526   0.614   0.604   7.503  0.7902  1.3221 -0.2629
 8971SOL    HW228527   0.732   0.582   7.410  1.1110  0.8546  0.2464
 8972SOL     OW28528   5.226   8.700   6.206  0.2777  0.0236 -0.4642
 8972SOL    HW128529   5.315   8.716   6.174  0.0634  0.8425 -0.6807
 8972SOL    HW228530   5.223   8.606   6.222  1.7286  0.2223  1.2221
 8973SOL     OW28531   5.648   1.177   7.063  0.5771 -0.0929 -0.1861
 8973SOL    HW128532   5.714   1.246   7.053 -0.2551  0.8956  0.8026
 8973SOL    HW228533   5.689   1.112   7.119  0.5273  0.8355  0.9805
 8974SOL     OW28534   6.123   6.126   3.863  0.7638 -0.5190  0.0474
 8974SOL    HW128535   6.152   6.190   3.929  2.1344 -1.7917  0.7421
 8974SOL    HW228536   6.029   6.140   3.857  0.7383  0.2723  1.6007
 8975SOL     OW28537   4.041   8.260   0.331  0.5140 -0.6004  0.3185
 8975SOL    HW128538   4.091   8.215   0.264 -0.5398 -1.3248  0.0004
 8975SOL    HW228539   4.056   8.353   0.314 -1.4125 -0.6635 -2.2944
 8976SOL     OW28540   4.610   2.340   2.786  0.4323 -0.0266  0.1543
 8976SOL    HW128541   4.612   2.425   2.741 -0.6677 -0.5134 -0.8623
 8976SOL    HW228542   4.618   2.363   2.879 -0.6957  1.2734 -0.0290
 8977SOL     OW28543   0.825   9.742   0.150  0.1159  0.2957  0.1247
 8977SOL    HW128544   0.772   9.803   0.097  0.5430 -0.4409 -1.1869
 8977SOL    HW228545   0.839   9.667   0.093 -2.1538 -2.0424  2.3965
 8978SOL     OW28546   2.757   2.608   4.688 -0.2040 -0.6840 -0.0847
 8978SOL    HW128547   2.732   2.528   4.735  0.6743 -0.9788 -0.0953
 8978SOL    HW228548   2.725   2.594   4.599  0.3526 -1.2266 -0.2005
 8979SOL     OW28549   8.866   1.829   2.532  0.2816  0.6008  0.4239
 8979SOL    HW128550   8.802   1.757   2.527 -0.5183  1.2801  0.6759
 8979SOL    HW228551   8.900   1.824   2.621  1.0188 -0.1152  0.1164
 8980SOL     OW28552   9.584   0.278   0.962  0.1634 -0.2264 -0.1177
 8980SOL    HW128553   9.561   0.195   0.920 -2.6224 -0.6826  1.9980
 8980SOL    HW228554   9.630   0.252   1.042 -0.9588  0.1729  0.6939
 8981SOL     OW28555   0.321   3.436   6.481  0.3944 -0.2504  0.1190
 8981SOL    HW128556   0.317   3.377   6.556 -0.2596  1.1829  1.2659
 8981SOL    HW228557   0.230   3.466   6.469  0.4908 -0.4409 -1.2478
 8982SOL     OW28558   7.729   6.849   7.931 -0.3584  0.2452  0.3317
 8982SOL    HW128559   7.681   6.840   7.849 -0.0582 -0.4004  0.2278
 8982SOL    HW228560   7.820   6.833   7.908 -0.1199  1.1246  0.5946
 8983SOL     OW28561   6.994   0.234   6.894 -0.0424 -0.0635 -0.0670
 8983SOL    HW128562   6.915   0.234   6.839 -2.0632 -1.8425  2.5842
 8983SOL    HW228563   7.042   0.155   6.868 -0.4387 -0.3268 -0.0014
 8984SOL     OW28564   4.839   8.207   5.726 -0.3236  0.1841  0.0331
 8984SOL    HW128565   4.802   8.284   5.682 -1.8103 -0.6063 -0.1767
 8984SOL    HW228566   4.933   8.213   5.710 -0.3413  2.1864  0.4112
 8985SOL     OW28567   6.810   3.415   0.220 -0.1705 -0.2665 -0.2429
 8985SOL    HW128568   6.821   3.429   0.126 -0.9136  0.0385 -0.2911
 8985SOL    HW228569   6.777   3.498   0.254  0.2878 -0.3076  0.3276
 8986SOL     OW28570   3.658   3.010   3.824  0.5017 -0.3636  0.0748
 8986SOL    HW128571   3.632   2.967   3.742 -0.5484 -0.2551  0.3446
 8986SOL    HW228572   3.746   2.975   3.842  0.3946 -1.0367 -0.6436
 8987SOL     OW28573   9.214   9.442   9.177  0.1442  0.1293 -0.3243
 8987SOL    HW128574   9.266   9.423   9.098  0.6680 -0.7301  0.2170
 8987SOL    HW228575   9.156   9.513   9.150  1.3807  0.9178 -1.0513
 8988SOL     OW28576   2.877   8.388   6.499  0.6846 -0.3833 -0.0568
 8988SOL    HW128577   2.966   8.410   6.473  0.3142  0.3745 -0.7568
 8988SOL    HW228578   2.823   8.418   6.425 -0.3934  1.5982  1.4469
 8989SOL     OW28579   0.777   0.710   5.471  0.4863  0.1149  0.0891
 8989SOL    HW128580   0.864   0.696   5.433  0.2324 -1.9564  0.1759
 8989SOL    HW228581   0.721   0.646   5.428 -1.1144  1.6290 -0.1979
 8990SOL     OW28582   5.532   9.109   9.237 -0.9281  0.0325 -0.6065
 8990SOL    HW128583   5.570   9.084   9.153 -0.6064  2.7249 -1.3442
 8990SOL    HW228584   5.598   9.086   9.302 -0.3222 -0.2228 -1.3096
 8991SOL     OW28585   2.765   9.157   2.560 -0.1937 -0.2096  0.0212
 8991SOL    HW128586   2.857   9.139   2.575 -0.1884  0.7631  1.3032
 8991SOL    HW228587   2.753   9.145   2.466  1.2608 -0.2526 -0.1727
 8992SOL     OW28588   4.742   5.951   6.731 -0.3847  0.0308  0.0252
 8992SOL    HW128589   4.653   5.987   6.731  0.3584  1.9626  0.4029
 8992SOL    HW228590   4.798   6.025   6.755  1.4693 -0.8004 -1.4563
 8993SOL     OW28591   6.743   2.246   3.724 -0.0839 -0.3999 -0.1555
 8993SOL    HW128592   6.714   2.335   3.742 -0.6824 -0.5982 -0.1145
 8993SOL    HW228593   6.800   2.223   3.798 -1.0153 -0.5352  0.5332
 8994SOL     OW28594   6.581   9.683   9.756 -0.3268  0.3962  0.4559
 8994SOL    HW128595   6.625   9.762   9.786 -0.1727  0.1441  0.9025
 8994SOL    HW228596   6.566   9.698   9.663  0.3408  0.6537  0.3833
 8995SOL     OW28597   3.434   8.835   1.247  0.3515 -0.2911 -0.8564
 8995SOL    HW128598   3.471   8.876   1.326 -0.4635 -0.3682 -0.4253
 8995SOL    HW228599   3.444   8.902   1.179 -0.2809  0.3507 -0.3349
 8996SOL     OW28600   6.650   5.275   7.366  0.4838  0.6036 -0.0530
 8996SOL    HW128601   6.612   5.342   7.310  1.1409  0.6947 -0.4102
 8996SOL    HW228602   6.577   5.242   7.418  0.0007  1.0280 -0.4493
 8997SOL     OW28603   8.125   9.377   4.469 -0.0909  0.0927  0.1181
 8997SOL    HW128604   8.105   9.362   4.562  0.5858 -0.0530  0.2466
 8997SOL    HW228605   8.043   9.357   4.424 -0.6100  0.7707  0.7346
 8998SOL     OW28606   5.957   9.283   8.807  0.0866 -0.2177 -0.6094
 8998SOL    HW128607   5.891   9.220   8.835  0.8219 -0.4654  0.6352
 8998SOL    HW228608   5.980   9.256   8.718 -1.0278 -0.4985 -0.8304
 8999SOL     OW28609   8.918   9.388   1.371 -0.2407 -0.9287  0.1349
 8999SOL    HW128610   8.899   9.449   1.300  0.8417 -0.9901 -0.2350
 8999SOL    HW228611   8.978   9.435   1.428  1.6565 -2.0322 -0.8372
 9000SOL     OW28612   8.704   9.779   9.668 -0.9638  0.5772 -0.4527
 9000SOL    HW128613   8.794   9.781   9.635  0.0347  2.0064  2.1017
 9000SOL    HW228614   8.650   9.790   9.589  1.1719  1.9015 -1.8546
 9001SOL     OW28615   7.853   8.995   0.602 -0.3321  0.1313 -0.5336
 9001SOL    HW128616   7.911   9.061   0.565  0.0319 -0.0654 -0.3190
 9001SOL    HW228617   7.772   9.004   0.552  0.7113 -1.2885 -2.6580
 9002SOL     OW28618   2.007   1.654   7.669 -0.3214  0.1239  0.0139
 9002SOL    HW128619   1.982   1.744   7.691  0.6944  0.1838  1.0082
 9002SOL    HW228620   1.928   1.603   7.684 -1.8069  1.1864 -3.2608
 9003SOL     OW28621   3.169   9.757   1.661 -0.3450  0.6603  0.2179
 9003SOL    HW128622   3.120   9.831   1.699 -0.4790  1.5373 -1.5439
 9003SOL    HW228623   3.110   9.722   1.594  0.4679  0.1243 -0.2246
 9004SOL     OW28624   1.820   2.067   8.333 -0.5996 -0.2768 -0.4520
 9004SOL    HW128625   1.727   2.070   8.357 -0.3959 -0.2647  0.3867
 9004SOL    HW228626   1.835   1.976   8.306 -0.5959 -0.6009  0.5790
 9005SOL     OW28627   2.992   2.396   6.825  0.4572 -0.8117  0.4701
 9005SOL    HW128628   2.958   2.350   6.901 -1.6641 -2.9158 -1.5656
 9005SOL    HW228629   2.920   2.453   6.796  0.8267 -0.8203 -0.5245
 9006SOL     OW28630   2.250   5.080   4.560 -0.0078 -0.0453  0.2541
 9006SOL    HW128631   2.168   5.103   4.516  0.4517  0.7179 -0.2440
 9006SOL    HW228632   2.305   5.158   4.549  1.0327 -0.7955 -0.0436
 9007SOL     OW28633   4.809   5.302   7.247 -0.4679  0.0535  0.5898
 9007SOL    HW128634   4.809   5.254   7.164  0.5867  0.9155  0.0734
 9007SOL    HW228635   4.717   5.303   7.274 -0.6960 -1.0746 -0.0654
 9008SOL     OW28636   9.390   4.967   6.273 -0.2813 -0.2385  0.0651
 9008SOL    HW128637   9.425   4.890   6.317  1.2574  0.6115  0.3853
 9008SOL    HW228638   9.310   4.987   6.322  0.5667 -0.2346  1.5189
 9009SOL     OW28639   2.939   9.412   7.773  0.3283  0.1512 -0.4414
 9009SOL    HW128640   2.900   9.412   7.685  1.9756  0.1128 -1.2163
 9009SOL    HW228641   2.900   9.488   7.817 -0.0048  0.5866 -1.4571
 9010SOL     OW28642   4.626   7.062   1.733  0.2293 -0.0729  0.4855
 9010SOL    HW128643   4.595   7.096   1.648  0.1470 -2.2380 -0.4244
 9010SOL    HW228644   4.719   7.084   1.735  0.4964 -0.9535 -0.7286
 9011SOL     OW28645   4.941   4.693   1.014  0.0411  0.2782  0.3607
 9011SOL    HW128646   4.918   4.628   0.948  0.8603 -1.4642  1.7162
 9011SOL    HW228647   4.939   4.776   0.967  0.0530 -0.8320 -1.7227
 9012SOL     OW28648   7.871   6.718   9.244 -0.2489 -0.1183  0.2872
 9012SOL    HW128649   7.875   6.787   9.309 -1.2361 -0.4064  0.6768
 9012SOL    HW228650   7.897   6.639   9.290 -3.0456 -0.7410  1.0056
 9013SOL     OW28651   3.319   5.948   0.302  0.5657 -0.0820  0.2629
 9013SOL    HW128652   3.353   5.903   0.379 -2.1522 -0.6733  1.2417
 9013SOL    HW228653   3.350   6.038   0.310  0.3173 -0.1233  2.0964
 9014SOL     OW28654   2.467   6.639   6.928 -0.5415  0.3163 -0.8039
 9014SOL    HW128655   2.554   6.647   6.889 -0.1963  0.5217 -0.0110
 9014SOL    HW228656   2.424   6.723   6.909  0.1557  1.0067  0.4910
 9015SOL     OW28657   4.757   1.705   8.997  0.2638 -0.1915  0.9415
 9015SOL    HW128658   4.733   1.616   9.025 -0.0404 -0.4747 -0.1787
 9015SOL    HW228659   4.852   1.702   8.986  0.1079 -0.8086 -0.4688
 9016SOL     OW28660   3.419   5.209   0.842 -0.1122 -0.1220  0.2918
 9016SOL    HW128661   3.335   5.179   0.806  1.8527 -3.8974 -1.7285
 9016SOL    HW228662   3.467   5.243   0.767  1.1135 -0.4506  0.8963
 9017SOL     OW28663   9.701   3.500   4.090 -0.3626  0.1624 -0.0317
 9017SOL    HW128664   9.690   3.412   4.055 -1.3673 -0.6163  2.0877
 9017SOL    HW228665   9.624   3.515   4.144 -0.0975  2.2738 -0.1284
 9018SOL     OW28666   4.071   1.136   0.686  0.8347 -0.2669 -0.5638
 9018SOL    HW128667   4.139   1.097   0.631  0.4438 -1.4880 -0.2181
 9018SOL    HW228668   4.119   1.187   0.751  1.4189 -0.8433 -0.5277
 9019SOL     OW28669   5.711   8.060   9.030  0.2515 -0.1155 -0.3471
 9019SOL    HW128670   5.720   8.113   9.109 -1.3819 -1.3734  0.7532
 9019SOL    HW228671   5.801   8.038   9.005  0.8356  1.0920  0.5817
 9020SOL     OW28672   2.376   2.168   5.372 -0.0021 -0.1302 -0.0698
 9020SOL    HW128673   2.439   2.139   5.439  1.4543  0.7573 -1.0059
 9020SOL    HW228674   2.416   2.247   5.335 -0.5785 -0.8036 -2.2435
 9021SOL     OW28675   7.873   3.809   9.119  0.2781 -0.6958 -0.5647
 9021SOL    HW128676   7.845   3.722   9.146 -0.3219 -0.2602  0.2397
 9021SOL    HW228677   7.927   3.841   9.192 -1.4296  0.5213  0.2240
 9022SOL     OW28678   9.003   5.143   0.897  0.2985  0.3468  0.6848
 9022SOL    HW128679   9.076   5.185   0.943  1.4260  0.7370 -1.3277
 9022SOL    HW228680   9.037   5.127   0.809 -1.2734 -1.6782  0.3768
 9023SOL     OW28681   3.256   2.191   6.296  0.0029  0.1533 -0.3760
 9023SOL    HW128682   3.246   2.096   6.305  1.1027 -0.0039 -0.6918
 9023SOL    HW228683   3.350   2.205   6.298  0.2707  0.7310 -4.9349
 9024SOL     OW28684   0.190   8.000   6.695 -0.0070  0.4335  0.1826
 9024SOL    HW128685   0.256   7.943   6.735  0.3067  0.5996 -0.0934
 9024SOL    HW228686   0.232   8.033   6.616 -0.6636  0.0053 -0.3616
 9025SOL     OW28687   0.819   3.945   1.558 -0.5325  0.0286  0.4810
 9025SOL    HW128688   0.830   3.856   1.592 -0.3593 -0.3215 -0.4776
 9025SOL    HW228689   0.825   4.001   1.636 -0.3459 -0.7707  1.0521
 9026SOL     OW28690   1.106   5.495   0.711  0.2267 -0.0798 -0.5126
 9026SOL    HW128691   1.195   5.490   0.676 -0.6691 -0.7116 -2.8672
 9026SOL    HW228692   1.050   5.472   0.637 -1.8820 -0.2969  1.0802
 9027SOL     OW28693   9.695   8.878   4.110  0.3449  0.0795  0.0360
 9027SOL    HW128694   9.643   8.887   4.190 -0.1489  0.3070 -0.3048
 9027SOL    HW228695   9.771   8.934   4.124  1.3112 -1.4589  1.1856
 9028SOL     OW28696   0.576   4.175   3.520 -0.0575  0.0379  0.1444
 9028SOL    HW128697   0.496   4.144   3.563  0.7025  0.3959  1.9037
 9028SOL    HW228698   0.550   4.254   3.473 -0.5354  0.7561  1.5772
 9029SOL     OW28699   5.295   6.392   6.048 -0.0809 -0.4503  0.4887
 9029SOL    HW128700   5.308   6.404   6.142 -0.4422 -1.2478  0.6598
 9029SOL    HW228701   5.383   6.382   6.012  0.0286 -0.9552  0.8770
 9030SOL     OW28702   8.666   3.696   3.516  0.3965 -0.0054 -0.3884
 9030SOL    HW128703   8.675   3.623   3.577 -0.3613  1.5220  1.6607
 9030SOL    HW228704   8.751   3.739   3.518  1.3170 -1.5323 -2.6796
 9031SOL     OW28705   3.029   7.915   2.484 -0.3233 -0.8445  0.4967
 9031SOL    HW128706   2.974   7.966   2.424  1.5848  1.0561  0.2161
 9031SOL    HW228707   2.985   7.922   2.568 -0.8982  0.0265  0.1427
 9032SOL     OW28708   4.729   1.808   9.661 -0.6274  0.0820  0.9327
 9032SOL    HW128709   4.747   1.885   9.715  2.5503 -0.8622  1.4285
 9032SOL    HW228710   4.782   1.821   9.582  1.1722 -2.1737  1.6765
 9033SOL     OW28711   5.279   5.404   2.017  0.1061 -0.4766  0.3396
 9033SOL    HW128712   5.209   5.460   1.984 -0.1402 -1.0893 -0.1796
 9033SOL    HW228713   5.353   5.464   2.028 -0.5691  0.2442  1.2002
 9034SOL     OW28714   9.109   9.198   3.334  0.1696  0.1732 -0.3338
 9034SOL    HW128715   9.120   9.284   3.375  0.0940  0.4269 -0.8328
 9034SOL    HW228716   9.199   9.166   3.323  0.2267  0.4185 -0.6140
 9035SOL     OW28717   2.773   7.053   1.008 -0.0717  0.0946  0.2257
 9035SOL    HW128718   2.728   6.979   1.047 -0.2596 -0.4267 -0.9429
 9035SOL    HW228719   2.736   7.130   1.052 -0.3096 -0.4642  1.0144
 9036SOL     OW28720   8.184   0.670   9.369  0.4594 -0.6334 -0.3094
 9036SOL    HW128721   8.093   0.642   9.362 -0.3213  1.3951  0.9008
 9036SOL    HW228722   8.209   0.695   9.281 -0.2187 -0.9648 -0.6003
 9037SOL     OW28723   0.960   1.339   1.086 -0.1521  0.3601  0.0565
 9037SOL    HW128724   0.877   1.385   1.071 -0.9800 -1.6248 -1.9790
 9037SOL    HW228725   1.027   1.399   1.053 -1.0684  0.7326 -1.2056
 9038SOL     OW28726   0.241   1.135   1.568 -0.4363 -0.0814  0.2312
 9038SOL    HW128727   0.272   1.113   1.656  0.3406 -1.6466 -0.3872
 9038SOL    HW228728   0.293   1.079   1.510  0.3430  2.1667 -1.3795
 9039SOL     OW28729   5.452   8.321   0.826  0.2709 -0.4468  0.0808
 9039SOL    HW128730   5.424   8.349   0.913  0.6385  2.0294 -0.5073
 9039SOL    HW228731   5.380   8.347   0.769  0.6537 -0.6880 -0.5195
 9040SOL     OW28732   1.809   4.620   9.256  0.0978 -0.4459  0.4994
 9040SOL    HW128733   1.747   4.675   9.208  0.8128 -0.4473 -0.4528
 9040SOL    HW228734   1.802   4.534   9.214 -0.8318 -1.0624  1.8140
 9041SOL     OW28735   4.641   8.793   4.703 -0.2265 -0.4337  0.4924
 9041SOL    HW128736   4.607   8.705   4.685 -2.0737  0.0689  1.3204
 9041SOL    HW228737   4.565   8.850   4.694  0.4794  0.8095  2.0671
 9042SOL     OW28738   3.217   7.947   3.780  0.2120  0.2693 -0.0598
 9042SOL    HW128739   3.288   8.010   3.790 -0.2554  0.6800  0.7941
 9042SOL    HW228740   3.182   7.936   3.868  0.2271 -1.1397 -0.2027
 9043SOL     OW28741   7.969   1.272   8.305  0.2783  0.1300  0.3438
 9043SOL    HW128742   8.059   1.285   8.335  1.0000 -0.1409 -1.5501
 9043SOL    HW228743   7.968   1.184   8.268 -0.8038  0.0710  0.4684
 9044SOL     OW28744   0.206   7.290   9.251  0.3356  0.1971  0.1253
 9044SOL    HW128745   0.154   7.226   9.201 -2.0311  0.5003  2.0130
 9044SOL    HW228746   0.165   7.374   9.232  1.0339  0.6474  0.5861
 9045SOL     OW28747   0.325   9.371   6.800 -0.4916 -0.4093 -0.4152
 9045SOL    HW128748   0.403   9.410   6.762  0.5630 -0.9077  1.1432
 9045SOL    HW228749   0.294   9.435   6.864  0.5678 -1.5510  1.3080
 9046SOL     OW28750   9.352   3.588   5.209  0.1408  0.0280 -0.9297
 9046SOL    HW128751   9.261   3.610   5.227 -0.1840 -2.9401  1.9909
 9046SOL    HW228752   9.402   3.638   5.273  0.2759 -0.5682 -0.5658
 9047SOL     OW28753   8.443   6.651   6.799  0.0243 -0.3082 -0.4056
 9047SOL    HW128754   8.496   6.636   6.877 -2.1878  0.4409  1.3486
 9047SOL    HW228755   8.353   6.631   6.827 -0.9265  0.6855 -2.5433
 9048SOL     OW28756   6.062   4.381   0.165  0.7172 -0.1450 -0.8641
 9048SOL    HW128757   5.989   4.404   0.223  1.1302  1.1279 -0.8304
 9048SOL    HW228758   6.139   4.381   0.222  0.7105 -2.0009 -0.7881
 9049SOL     OW28759   2.012   4.774   9.128 -0.0569 -0.1704  0.1364
 9049SOL    HW128760   1.988   4.765   9.221 -0.6726  0.0640  0.0018
 9049SOL    HW228761   1.931   4.753   9.081  0.5884 -1.5603 -0.3870
 9050SOL     OW28762   7.203   9.330   6.065 -0.3382 -0.0317  0.1333
 9050SOL    HW128763   7.122   9.364   6.027 -0.4339  0.6924  0.9519
 9050SOL    HW228764   7.237   9.402   6.118  0.2853 -0.6935  0.6535
 9051SOL     OW28765   4.269   7.091   1.604 -0.3245  0.4730 -0.5709
 9051SOL    HW128766   4.230   7.172   1.572 -0.1960 -0.1709 -2.4807
 9051SOL    HW228767   4.202   7.025   1.591  0.6329 -0.2694 -2.0000
 9052SOL     OW28768   3.257   5.121   7.305  0.4444  0.6841 -0.1008
 9052SOL    HW128769   3.285   5.197   7.357  0.3009  0.2894  0.5744
 9052SOL    HW228770   3.336   5.066   7.299  0.5238  0.8389 -0.5106
 9053SOL     OW28771   4.283   1.015   6.537  0.2785 -0.0741 -0.1163
 9053SOL    HW128772   4.369   1.029   6.497  0.5662 -0.3890  0.3816
 9053SOL    HW228773   4.288   1.061   6.620  0.3408 -0.9605  0.3847
 9054SOL     OW28774   6.307   0.203   4.456  0.5452 -0.0314 -0.3100
 9054SOL    HW128775   6.227   0.244   4.422  0.8947  0.9447  0.0169
 9054SOL    HW228776   6.367   0.203   4.382  0.8494  0.8860 -0.0801
 9055SOL     OW28777   2.468   4.811   3.943 -0.1929 -0.1453 -0.0429
 9055SOL    HW128778   2.528   4.738   3.955 -1.6444 -1.2654  0.8284
 9055SOL    HW228779   2.384   4.770   3.921 -0.9853  1.2640  0.1869
 9056SOL     OW28780   3.727   8.379   2.814 -0.0075 -0.1846  0.6203
 9056SOL    HW128781   3.669   8.450   2.786  0.3513  0.1146  0.6209
 9056SOL    HW228782   3.724   8.381   2.909 -1.3329 -1.2900  0.6295
 9057SOL     OW28783   6.228   6.019   0.121 -0.3001 -0.3413 -0.1480
 9057SOL    HW128784   6.139   6.002   0.089  0.1072 -0.7065 -1.1118
 9057SOL    HW228785   6.274   6.055   0.045  0.0937  0.8673  0.6289
 9058SOL     OW28786   3.744   2.094   7.742  0.5001  0.8391  0.3409
 9058SOL    HW128787   3.708   2.178   7.713  1.1990  0.5558 -1.4646
 9058SOL    HW228788   3.811   2.073   7.677 -0.7883 -1.9129 -0.2166
 9059SOL     OW28789   6.633   3.225   4.462 -0.0434 -0.4935 -0.5870
 9059SOL    HW128790   6.641   3.316   4.434  0.7645 -0.4724 -0.3350
 9059SOL    HW228791   6.709   3.181   4.422  1.7206 -0.2711  2.2176
 9060SOL     OW28792   2.822   6.400   4.363 -0.0037 -0.2575 -0.4183
 9060SOL    HW128793   2.826   6.430   4.272  1.8036 -1.0665 -0.6485
 9060SOL    HW228794   2.865   6.469   4.413 -0.9841  0.1806 -0.1533
 9061SOL     OW28795   0.351   4.714   7.188 -0.0149  0.0449 -0.0044
 9061SOL    HW128796   0.344   4.801   7.149  0.7627 -0.6189 -1.7609
 9061SOL    HW228797   0.424   4.720   7.249  0.9470  0.3361 -1.1279
 9062SOL     OW28798   2.960   0.081   3.599 -0.1729  0.2886  0.7682
 9062SOL    HW128799   2.866   0.096   3.598  0.0239  1.6734 -0.4807
 9062SOL    HW228800   2.979   0.051   3.688 -1.8397 -0.4508  0.9021
 9063SOL     OW28801   5.262   5.531   4.515 -0.2081  0.3245  0.1393
 9063SOL    HW128802   5.327   5.601   4.518 -0.7195  0.7857  0.9167
 9063SOL    HW228803   5.188   5.565   4.566 -0.3768 -0.8805  0.7243
 9064SOL     OW28804   4.241   3.640   7.485  0.2378 -0.0722 -0.1720
 9064SOL    HW128805   4.207   3.627   7.397 -0.7584 -1.3657  0.3669
 9064SOL    HW228806   4.272   3.553   7.512 -2.9309 -0.6673  2.1077
 9065SOL     OW28807   3.135   8.818   1.213 -0.4011  0.6659 -0.0490
 9065SOL    HW128808   3.227   8.793   1.208 -0.4473  0.3101  0.7272
 9065SOL    HW228809   3.088   8.750   1.165 -0.2511  0.9304 -0.5769
 9066SOL     OW28810   9.314   1.141   4.291 -0.0972 -0.1696  0.3679
 9066SOL    HW128811   9.347   1.075   4.230 -2.5598  0.2221 -1.5311
 9066SOL    HW228812   9.393   1.183   4.326  1.5147  0.7554 -3.8482
 9067SOL     OW28813   4.285   6.150   3.681 -0.0486 -0.3358  0.1064
 9067SOL    HW128814   4.378   6.129   3.675  0.1716  0.8705 -1.8286
 9067SOL    HW228815   4.240   6.072   3.649  0.4601 -0.0626 -1.3470
 9068SOL     OW28816   4.527   8.390   5.164 -0.1811  0.1826 -0.5027
 9068SOL    HW128817   4.505   8.301   5.137  1.4222  0.0469 -1.5262
 9068SOL    HW228818   4.457   8.444   5.129 -1.6662 -0.7237  0.9062
 9069SOL     OW28819   0.989   1.816   6.597 -0.2404  0.0659 -0.1975
 9069SOL    HW128820   1.045   1.782   6.667  0.1283 -0.4444 -0.7294
 9069SOL    HW228821   0.930   1.877   6.641 -0.6435 -0.9503  0.7239
 9070SOL     OW28822   7.454   5.453   7.030  0.1720  0.1183 -0.5127
 9070SOL    HW128823   7.369   5.438   6.990 -0.2078  0.8186  0.0222
 9070SOL    HW228824   7.495   5.521   6.977 -0.3740  1.1216  0.3203
 9071SOL     OW28825   8.108   4.125   2.303 -0.3083  0.4509 -0.3193
 9071SOL    HW128826   8.046   4.156   2.237 -0.0113 -1.1746 -1.4176
 9071SOL    HW228827   8.194   4.145   2.266 -0.1456 -0.3035 -0.3731
 9072SOL     OW28828   8.648   2.694   1.518 -0.2580  0.8872  0.2291
 9072SOL    HW128829   8.612   2.764   1.572 -0.3013  1.6489 -0.7539
 9072SOL    HW228830   8.577   2.669   1.460 -0.2668 -0.0463  0.6249
 9073SOL     OW28831   2.020   4.691   3.228 -0.4930 -0.1009 -0.8897
 9073SOL    HW128832   2.043   4.754   3.159  0.2836  0.5973 -0.0320
 9073SOL    HW228833   1.928   4.709   3.246 -0.3522  0.6346 -0.8390
 9074SOL     OW28834   9.327   2.515   3.401 -0.1397 -0.3421  0.4411
 9074SOL    HW128835   9.355   2.574   3.471 -0.7922  0.4358  0.0544
 9074SOL    HW228836   9.317   2.571   3.324 -0.1929 -1.0552 -0.0799
 9075SOL     OW28837   9.615   1.897   2.125 -0.4373  0.2637 -0.2784
 9075SOL    HW128838   9.692   1.903   2.182 -1.7408  1.1794  1.4770
 9075SOL    HW228839   9.651   1.897   2.037  1.5779  0.7252  0.4860
 9076SOL     OW28840   9.564   9.033   1.207 -0.0584  0.0202  0.1132
 9076SOL    HW128841   9.650   9.046   1.247  0.1895  1.1226 -0.7229
 9076SOL    HW228842   9.509   9.000   1.278  1.2021 -1.3576  0.4936
 9077SOL     OW28843   4.902   3.335   2.596  0.5850 -0.1926  0.1574
 9077SOL    HW128844   4.808   3.317   2.589  0.9901 -2.6803  0.4329
 9077SOL    HW228845   4.929   3.356   2.507 -0.4138  1.8992  0.2728
 9078SOL     OW28846   8.484   3.811   8.254 -0.1657  0.4515 -0.4479
 9078SOL    HW128847   8.460   3.840   8.165  1.1106 -0.5364 -1.1382
 9078SOL    HW228848   8.509   3.719   8.243 -1.6218 -0.2000  1.2521
 9079SOL     OW28849   3.575   8.809   7.717 -0.4423 -0.1225  0.1083
 9079SOL    HW128850   3.620   8.766   7.644  1.1350 -0.3337  1.1597
 9079SOL    HW228851   3.488   8.831   7.682 -0.0681 -1.0711 -1.5160
 9080SOL     OW28852   7.988   7.021   2.122 -0.5971 -0.0261  1.1102
 9080SOL    HW128853   7.917   7.076   2.088 -0.1574  1.1107  1.9500
 9080SOL    HW228854   7.998   7.048   2.213  1.5023  0.5032  0.7787
 9081SOL     OW28855   3.580   2.148   0.654 -0.1512 -0.5869  0.3834
 9081SOL    HW128856   3.623   2.142   0.569 -1.8570 -0.4639 -0.5302
 9081SOL    HW228857   3.573   2.242   0.672 -1.5844 -0.5414 -0.3200
 9082SOL     OW28858   2.745   6.540   0.739 -0.2042  0.0045  0.2890
 9082SOL    HW128859   2.711   6.476   0.802  0.8760  1.8420  2.8786
 9082SOL    HW228860   2.667   6.583   0.704 -0.9282 -2.3458 -1.2047
 9083SOL     OW28861   5.169   0.751   4.391  0.3348 -0.3033 -0.0420
 9083SOL    HW128862   5.106   0.822   4.385  1.2796  0.4915 -1.2155
 9083SOL    HW228863   5.119   0.672   4.371 -0.2454  0.3484 -1.2634
 9084SOL     OW28864   5.895   9.831   0.844 -0.2092  0.3374 -0.2855
 9084SOL    HW128865   5.969   9.772   0.857 -2.4721 -2.5487  0.5524
 9084SOL    HW228866   5.879   9.829   0.750 -1.3860 -1.9902 -0.0884
 9085SOL     OW28867   3.421   6.094   1.155  0.1958 -1.1054 -0.1735
 9085SOL    HW128868   3.359   6.159   1.123  1.7549  0.4491 -0.2039
 9085SOL    HW228869   3.444   6.124   1.243  1.4269 -1.2177 -0.4366
 9086SOL     OW28870   4.657   8.170   0.034  0.5882  0.4276  0.0323
 9086SOL    HW128871   4.582   8.205  -0.015  0.4769  1.3926  0.8621
 9086SOL    HW228872   4.691   8.245   0.083 -0.3598 -0.7945  2.7921
 9087SOL     OW28873   2.680   3.903   8.043  0.0551 -0.2554 -0.1330
 9087SOL    HW128874   2.713   3.895   8.132 -1.4067 -1.9662  0.3092
 9087SOL    HW228875   2.719   3.985   8.010  0.6181  0.4175  2.0451
 9088SOL     OW28876   3.340   8.114   7.762  0.2130 -0.1892 -0.4425
 9088SOL    HW128877   3.361   8.184   7.823 -0.4892 -0.4373  0.0949
 9088SOL    HW228878   3.375   8.035   7.802 -1.1866 -0.5181  0.1922
 9089SOL     OW28879   9.270   6.417   3.095  0.4485 -0.5068  0.1419
 9089SOL    HW128880   9.282   6.456   3.181  0.2026  1.1606 -0.5201
 9089SOL    HW228881   9.178   6.389   3.094  0.3346 -0.1433  0.2852
 9090SOL     OW28882   8.025   2.907   3.084  0.1463  0.3702 -0.2191
 9090SOL    HW128883   8.004   2.832   3.029  0.1610  1.4983 -1.8273
 9090SOL    HW228884   7.946   2.961   3.081 -0.3902 -0.1698  2.0403
 9091SOL     OW28885   9.600   6.144   8.998 -0.4232 -0.2668 -0.5613
 9091SOL    HW128886   9.639   6.062   8.968 -0.8860 -1.6335  2.1944
 9091SOL    HW228887   9.663   6.211   8.974  0.7649 -1.6547 -1.4625
 9092SOL     OW28888   6.994   4.632   0.081  0.1293 -0.2068 -0.0595
 9092SOL    HW128889   6.903   4.647   0.056  0.7937  1.5830 -1.7716
 9092SOL    HW228890   7.018   4.552   0.036 -0.1325  0.2870 -1.1219
 9093SOL     OW28891   2.199   3.253   9.380  0.1640  0.0752  0.6334
 9093SOL    HW128892   2.245   3.320   9.329 -0.5085  0.3143  0.3357
 9093SOL    HW228893   2.194   3.290   9.468  0.8499 -0.1056  0.7550
 9094SOL     OW28894   6.752   8.186   4.345 -0.2950  0.5235  0.2343
 9094SOL    HW128895   6.823   8.132   4.381  1.9082  1.2553 -2.6075
 9094SOL    HW228896   6.779   8.276   4.364 -0.7956  0.7910 -0.2832
 9095SOL     OW28897   0.161   6.435   7.051  0.0584  0.4270 -0.0512
 9095SOL    HW128898   0.173   6.344   7.080  1.9327  0.5410 -0.3214
 9095SOL    HW228899   0.073   6.458   7.081 -0.3172 -1.3448  0.3595
 9096SOL     OW28900   5.269   5.986   6.122  0.3832  0.0831  0.4001
 9096SOL    HW128901   5.347   6.024   6.082  0.7517 -1.2316 -0.1636
 9096SOL    HW228902   5.294   5.971   6.213  1.0510 -0.9855  0.0568
 9097SOL     OW28903   0.665   1.276   7.397 -0.0271 -0.2455  0.0711
 9097SOL    HW128904   0.586   1.234   7.363 -0.8217  0.9672  0.3640
 9097SOL    HW228905   0.653   1.369   7.379  0.0095  0.3244  2.6475
 9098SOL     OW28906   0.210   2.474   2.892 -0.0353 -0.2005 -0.2843
 9098SOL    HW128907   0.295   2.510   2.865 -0.1747  0.3329 -0.0301
 9098SOL    HW228908   0.207   2.487   2.987 -0.2349 -0.5816 -0.2357
 9099SOL     OW28909   3.363   7.573   7.776 -0.4981 -0.1796 -0.2105
 9099SOL    HW128910   3.306   7.624   7.833  0.3259 -0.4015  0.8350
 9099SOL    HW228911   3.441   7.557   7.828  0.3074 -0.3426 -1.4328
 9100SOL     OW28912   1.713   0.535   0.026 -0.6102 -0.4448 -0.3005
 9100SOL    HW128913   1.694   0.455   0.075  2.3637 -1.2828 -0.3340
 9100SOL    HW228914   1.739   0.504  -0.061 -0.5857  0.6395 -0.6948
 9101SOL     OW28915   5.630   1.048   1.693 -0.7372 -0.0315 -0.8279
 9101SOL    HW128916   5.554   1.095   1.726 -0.8657 -0.8459  0.0905
 9101SOL    HW228917   5.613   1.036   1.600 -1.3154  0.5613 -0.8049
 9102SOL     OW28918   3.873   1.565   2.138 -0.2697  0.2571  0.0199
 9102SOL    HW128919   3.900   1.564   2.046 -0.0522  0.4308  0.0810
 9102SOL    HW228920   3.844   1.655   2.153 -0.3452  0.2179  0.1104
 9103SOL     OW28921   8.435   2.773   5.236 -0.6570  0.4353 -0.3837
 9103SOL    HW128922   8.400   2.693   5.196 -2.7059  0.8228  0.4771
 9103SOL    HW228923   8.448   2.833   5.163  1.1039 -0.7014 -1.0718
 9104SOL     OW28924   9.002   8.472   7.385 -0.4277 -0.2868  0.8894
 9104SOL    HW128925   9.004   8.494   7.478 -1.9095 -0.0241  0.8851
 9104SOL    HW228926   9.090   8.494   7.353 -0.1323  0.3068  2.0731
 9105SOL     OW28927   3.079   4.670   7.345 -0.2628 -0.3231 -0.0209
 9105SOL    HW128928   3.142   4.722   7.394 -0.9026 -0.5772  1.1065
 9105SOL    HW228929   3.120   4.656   7.260  1.7827 -1.5896  1.1081
 9106SOL     OW28930   4.021   4.250   9.675 -0.3129  0.2797  0.3769
 9106SOL    HW128931   3.956   4.239   9.745 -0.8312  0.3285 -0.0924
 9106SOL    HW228932   3.986   4.320   9.621 -0.4814 -0.5083 -0.5675
 9107SOL     OW28933   2.483   4.719   2.088  0.3298 -0.3746 -0.1400
 9107SOL    HW128934   2.395   4.747   2.116  0.7507  0.1903  0.6571
 9107SOL    HW228935   2.493   4.632   2.126 -0.1706 -0.7571 -0.8626
 9108SOL     OW28936   4.290   7.797   0.063 -0.1903  0.2338  0.3286
 9108SOL    HW128937   4.334   7.746  -0.005 -1.6733  1.2939 -1.4981
 9108SOL    HW228938   4.214   7.744   0.086  0.3900 -0.1967  1.3346
 9109SOL     OW28939   8.613   1.548   3.055 -0.2549 -0.8084 -0.0044
 9109SOL    HW128940   8.567   1.490   2.994  0.1516 -0.4511 -0.6616
 9109SOL    HW228941   8.543   1.590   3.106 -0.6039 -0.9578 -0.3554
 9110SOL     OW28942   6.709   7.800   1.482  0.0725 -0.0278 -0.0565
 9110SOL    HW128943   6.616   7.778   1.486  0.2156 -0.5732  0.5057
 9110SOL    HW228944   6.728   7.810   1.388 -0.1586 -1.6829 -0.3020
 9111SOL     OW28945   5.577   1.012   5.566  0.1295 -0.0086 -0.0099
 9111SOL    HW128946   5.493   0.972   5.545  0.5035 -0.7954 -0.0306
 9111SOL    HW228947   5.636   0.938   5.581  0.1078  0.4384  3.0133
 9112SOL     OW28948   0.739   6.028   5.155  0.4437  0.3537  0.5949
 9112SOL    HW128949   0.793   5.993   5.226  0.3735  0.2356  0.5910
 9112SOL    HW228950   0.767   6.119   5.145  2.6747 -0.4275 -1.2794
 9113SOL     OW28951   6.627   3.866   9.269 -0.2458  0.3527  0.2756
 9113SOL    HW128952   6.719   3.871   9.246  0.2572 -1.4136  1.7389
 9113SOL    HW228953   6.598   3.958   9.271  1.7508  1.0141  0.8884
 9114SOL     OW28954   0.595   6.816   9.725  0.2376 -0.7357 -0.8231
 9114SOL    HW128955   0.511   6.812   9.680 -1.0169  0.0424  1.3088
 9114SOL    HW228956   0.625   6.906   9.711 -0.3328 -0.3812  0.1344
 9115SOL     OW28957   7.172   9.437   2.785  0.3144 -0.7186 -0.0493
 9115SOL    HW128958   7.149   9.492   2.710  0.9472 -2.1878 -1.3814
 9115SOL    HW228959   7.265   9.454   2.799  0.1692 -0.3508  0.5221
 9116SOL     OW28960   3.313   1.194   7.061 -0.4275  0.4471  0.3012
 9116SOL    HW128961   3.374   1.152   7.001 -0.7818  1.7753 -1.0370
 9116SOL    HW228962   3.355   1.186   7.147  2.4846  2.6101 -0.7325
 9117SOL     OW28963   7.015   1.805   2.036  0.1857 -0.1996  0.0485
 9117SOL    HW128964   6.928   1.845   2.038 -0.0025 -0.6132  1.6169
 9117SOL    HW228965   7.067   1.858   2.098  0.2884 -1.5518  1.1647
 9118SOL     OW28966   9.681   6.458   3.145 -0.1178  0.1579  0.1629
 9118SOL    HW128967   9.713   6.432   3.059  1.5647  0.0568  0.7787
 9118SOL    HW228968   9.692   6.379   3.199  0.1619  0.6299  0.8009
 9119SOL     OW28969   7.924   5.734   2.821 -0.4332 -0.1711  0.7943
 9119SOL    HW128970   7.981   5.717   2.896  0.5373 -0.9137 -0.0769
 9119SOL    HW228971   7.849   5.676   2.835 -0.7036  0.3699  1.6462
 9120SOL     OW28972   5.430   3.930   4.641 -0.3527 -0.2700 -0.7835
 9120SOL    HW128973   5.338   3.925   4.618 -0.3405 -1.3915 -0.6634
 9120SOL    HW228974   5.443   3.858   4.703  0.2838  0.7792  0.3344
 9121SOL     OW28975   2.396   0.169   9.557 -0.4389 -0.2392 -0.5734
 9121SOL    HW128976   2.466   0.128   9.506 -0.6688 -2.1948  0.5666
 9121SOL    HW228977   2.443   0.224   9.620  0.1070 -1.4312  0.0985
 9122SOL     OW28978   0.881   7.030   9.792  0.1516  0.1918 -0.7453
 9122SOL    HW128979   0.925   7.042   9.707  0.8322  1.6153 -0.2220
 9122SOL    HW228980   0.897   6.938   9.814  1.9660  0.3945 -1.0803
 9123SOL     OW28981   1.009   2.839   2.449 -0.9535  1.2766 -0.3044
 9123SOL    HW128982   1.049   2.880   2.526  0.4216  0.3637 -0.5081
 9123SOL    HW228983   1.035   2.895   2.376 -0.0943  0.7263 -0.4266
 9124SOL     OW28984   0.220   0.765   9.446  0.0334 -0.4560  0.0959
 9124SOL    HW128985   0.292   0.810   9.400 -0.0230 -1.0324 -0.5824
 9124SOL    HW228986   0.255   0.748   9.534 -0.2124  1.5419  0.6134
 9125SOL     OW28987   9.104   4.141   7.605  0.0908 -0.6191 -0.0144
 9125SOL    HW128988   9.123   4.052   7.574 -0.0882 -0.2401 -1.2643
 9125SOL    HW228989   9.157   4.197   7.549 -0.8300  0.1424 -0.1318
 9126SOL     OW28990   3.659   6.472   0.308 -0.0639 -0.0971  0.4751
 9126SOL    HW128991   3.610   6.549   0.337 -1.1417 -0.1116 -1.2054
 9126SOL    HW228992   3.713   6.504   0.235  2.3370 -0.1419  2.0905
 9127SOL     OW28993   1.602   8.439   9.615  0.2593 -0.8283  0.3369
 9127SOL    HW128994   1.598   8.345   9.598  1.0030 -1.1117  1.6602
 9127SOL    HW228995   1.510   8.466   9.620  0.0229 -1.2318 -1.2299
 9128SOL     OW28996   4.004   7.184   3.621 -0.3161  0.1517 -0.3524
 9128SOL    HW128997   3.957   7.135   3.554 -0.2146 -0.7625  0.2268
 9128SOL    HW228998   4.089   7.204   3.582  0.3518 -1.7254  0.0067
 9129SOL     OW28999   6.914   1.455   5.286 -0.0670 -0.4501 -0.1869
 9129SOL    HW129000   6.925   1.513   5.361 -1.5222 -0.0746 -0.2343
 9129SOL    HW229001   6.949   1.504   5.212  1.6157 -0.9266  0.2695
 9130SOL     OW29002   4.676   3.780   7.162  0.3603  0.1565  0.4482
 9130SOL    HW129003   4.740   3.767   7.232 -0.0345 -1.1385  0.5996
 9130SOL    HW229004   4.709   3.730   7.088 -0.1611 -0.0251  0.3289
 9131SOL     OW29005   7.936   1.738   7.579  0.4620 -0.5038  0.2171
 9131SOL    HW129006   7.851   1.713   7.613 -0.6397 -0.6252 -2.4081
 9131SOL    HW229007   7.929   1.832   7.562  0.3007 -0.7760 -1.3579
 9132SOL     OW29008   9.622   3.586   3.783  0.3009 -0.0852 -0.0125
 9132SOL    HW129009   9.588   3.509   3.827  2.9430 -0.3919  1.7645
 9132SOL    HW229010   9.634   3.650   3.853  0.1931  1.1634 -1.0889
 9133SOL     OW29011   5.694   8.202   1.275  1.0089  0.2122 -0.4082
 9133SOL    HW129012   5.699   8.112   1.307  2.9016  0.9704  1.6538
 9133SOL    HW229013   5.601   8.222   1.272  0.6303 -1.2702  0.7435
 9134SOL     OW29014   2.491   9.487   6.574 -0.0858  0.3264 -0.1192
 9134SOL    HW129015   2.474   9.541   6.652  2.1074 -0.1352  0.7300
 9134SOL    HW229016   2.407   9.487   6.528 -0.5784  3.3590  0.5033
 9135SOL     OW29017   3.714   0.067   6.683  0.0989  0.2430 -0.0187
 9135SOL    HW129018   3.655   0.117   6.627  0.5815 -0.1772 -0.9281
 9135SOL    HW229019   3.790   0.050   6.627  0.6706 -0.0287  0.8320
 9136SOL     OW29020   5.477   3.233   0.919 -0.6480 -0.0065  0.6551
 9136SOL    HW129021   5.572   3.233   0.907 -0.6488  3.0527 -0.2389
 9136SOL    HW229022   5.463   3.190   1.003  1.6058  0.1369  1.1678
 9137SOL     OW29023   8.416   8.346   3.202  0.3777  0.3364  0.1394
 9137SOL    HW129024   8.420   8.293   3.123  0.4245 -2.7410  2.0522
 9137SOL    HW229025   8.358   8.419   3.179 -0.3274 -0.9286 -2.4583
 9138SOL     OW29026   4.440   6.794   2.949 -0.1080  0.3881 -0.6058
 9138SOL    HW129027   4.417   6.870   2.896 -0.6973  0.5907 -0.0822
 9138SOL    HW229028   4.372   6.791   3.017 -0.1157 -0.6307 -0.6377
 9139SOL     OW29029   8.628   4.283   2.964 -0.2296  0.0765  0.2736
 9139SOL    HW129030   8.571   4.335   3.021 -1.7300 -0.0144 -1.0649
 9139SOL    HW229031   8.637   4.335   2.885 -0.5806 -1.0368 -0.5318
 9140SOL     OW29032   2.422   6.794   2.262  0.0612  0.2800  0.0977
 9140SOL    HW129033   2.465   6.866   2.309 -0.3697  0.4674  0.2092
 9140SOL    HW229034   2.400   6.731   2.330 -0.3192  0.4278  0.1128
 9141SOL     OW29035   1.036   9.620   9.676 -0.1459  0.5039  0.0284
 9141SOL    HW129036   1.050   9.686   9.608  1.5803  0.2633  0.1026
 9141SOL    HW229037   1.085   9.653   9.751 -0.8435  0.0619  0.6879
 9142SOL     OW29038   1.296   1.063   5.359  0.3936  0.0854  0.3682
 9142SOL    HW129039   1.317   1.003   5.431 -0.9153  0.1406  0.8229
 9142SOL    HW229040   1.255   1.139   5.402 -0.0399  0.2949 -0.3993
 9143SOL     OW29041   6.670   8.266   4.888 -0.1181 -0.2961 -0.0148
 9143SOL    HW129042   6.678   8.321   4.965  0.1670 -0.6566  0.2122
 9143SOL    HW229043   6.649   8.179   4.922 -1.9195 -0.0682 -0.4268
 9144SOL     OW29044   1.657   2.690   6.307 -0.1467  0.5415 -0.2017
 9144SOL    HW129045   1.574   2.665   6.346  0.6567 -0.7405  0.7573
 9144SOL    HW229046   1.680   2.617   6.250  0.6251  0.5951  0.0255
 9145SOL     OW29047   3.280   4.909   0.274 -0.1171  0.2504  1.1054
 9145SOL    HW129048   3.228   4.845   0.323 -0.5774  1.7109  2.6346
 9145SOL    HW229049   3.345   4.939   0.337  0.9468  0.3407 -0.0024
 9146SOL     OW29050   5.157   9.108   4.624 -0.0788  0.0836  0.2187
 9146SOL    HW129051   5.251   9.119   4.613 -0.3038  3.0358  0.4482
 9146SOL    HW229052   5.134   9.170   4.693 -2.1611 -0.9153  0.4961
 9147SOL     OW29053   5.707   6.417   9.291  0.3032  0.7718  0.6439
 9147SOL    HW129054   5.726   6.324   9.294 -0.2850  0.4312 -2.7747
 9147SOL    HW229055   5.615   6.424   9.315  0.4064  0.5145  1.1197
 9148SOL     OW29056   9.071   7.846   1.220 -0.2180  0.2344 -0.1785
 9148SOL    HW129057   9.040   7.909   1.156  1.9330  0.3861 -1.1393
 9148SOL    HW229058   9.090   7.767   1.169  0.7349  0.0813  0.3994
 9149SOL     OW29059   6.463   4.874   7.499  0.3113  0.0138 -0.3391
 9149SOL    HW129060   6.486   4.881   7.407 -0.8728  3.2971 -0.5163
 9149SOL    HW229061   6.372   4.844   7.499 -1.3360  4.2929 -0.6740
 9150SOL     OW29062   9.483   2.556   2.947  0.1337 -0.3879 -0.1529
 9150SOL    HW129063   9.564   2.607   2.946  1.1597 -1.9490 -0.4136
 9150SOL    HW229064   9.453   2.556   2.856 -0.6934  0.9381  0.0877
 9151SOL     OW29065   5.367   5.539   9.348  0.0415 -0.2393  0.2903
 9151SOL    HW129066   5.299   5.504   9.405 -0.0963  0.4649  0.5583
 9151SOL    HW229067   5.329   5.535   9.260 -0.5118  0.5462  0.4878
 9152SOL     OW29068   5.087   1.283   8.511  0.0239  0.1691  0.0745
 9152SOL    HW129069   5.070   1.200   8.556  1.1948 -1.0804 -1.6613
 9152SOL    HW229070   5.125   1.340   8.578  2.7943 -1.9874  0.5282
 9153SOL     OW29071   8.943   8.905   5.759  0.5749  0.1726  0.5023
 9153SOL    HW129072   8.865   8.852   5.742 -0.6277  1.3750  2.0437
 9153SOL    HW229073   9.016   8.850   5.728 -0.8948 -0.4818 -2.1453
 9154SOL     OW29074   3.803   0.724   7.572  0.1895 -0.3094  0.4149
 9154SOL    HW129075   3.869   0.656   7.563  0.4167  0.1218 -1.6588
 9154SOL    HW229076   3.786   0.753   7.483  0.8939  3.1024  1.2384
 9155SOL     OW29077   8.092   0.756   6.374  0.1112  0.2323 -0.0827
 9155SOL    HW129078   8.161   0.727   6.314 -1.3809 -0.3517 -1.6183
 9155SOL    HW229079   8.063   0.675   6.417 -0.9588  0.1326 -0.9600
 9156SOL     OW29080   2.016   0.635   7.029  0.4690  0.7051  0.1956
 9156SOL    HW129081   2.016   0.603   7.119  0.0569  0.3197  0.0701
 9156SOL    HW229082   2.070   0.713   7.030  2.8234 -0.8443  0.2199
 9157SOL     OW29083   6.879   6.432   2.781  0.1953 -0.0721  0.0035
 9157SOL    HW129084   6.822   6.428   2.858  1.6921  0.7354  1.2125
 9157SOL    HW229085   6.819   6.436   2.706 -1.3743  1.8827  1.2651
 9158SOL     OW29086   8.571   1.028   5.280 -0.0245  0.3273  0.6340
 9158SOL    HW129087   8.625   0.957   5.245 -0.1703  0.5764 -0.1331
 9158SOL    HW229088   8.489   0.986   5.304  0.1888  0.0966  0.9705
 9159SOL     OW29089   2.024   2.648   4.964 -0.0417 -0.3167  0.0661
 9159SOL    HW129090   1.934   2.637   4.934  0.0899 -0.9220 -0.1294
 9159SOL    HW229091   2.074   2.666   4.885 -0.0693  0.5557  0.2424
 9160SOL     OW29092   2.171   8.504   1.762  1.1419  0.0558 -0.0553
 9160SOL    HW129093   2.177   8.417   1.722 -0.1535 -0.6154  1.1249
 9160SOL    HW229094   2.177   8.564   1.688 -0.5008 -1.1268 -1.2470
 9161SOL     OW29095   4.692   2.412   3.049  0.1116 -0.6524  0.3066
 9161SOL    HW129096   4.696   2.336   3.106 -1.0236 -0.2672  0.9401
 9161SOL    HW229097   4.784   2.440   3.040  0.5326 -2.0482  0.0927
 9162SOL     OW29098   6.641   4.747   0.313  0.6230  0.3915  0.5504
 9162SOL    HW129099   6.641   4.657   0.280 -0.5057  0.9682 -1.1556
 9162SOL    HW229100   6.655   4.738   0.407  0.4317 -1.5758  0.4311
 9163SOL     OW29101   5.181   1.549   9.109 -0.3114  0.0170 -0.1270
 9163SOL    HW129102   5.223   1.484   9.052  0.1788 -1.8099  2.1633
 9163SOL    HW229103   5.252   1.608   9.134 -0.1040 -0.3208  0.0927
 9164SOL     OW29104   9.634   0.984   0.348 -0.0863 -0.4974  0.0030
 9164SOL    HW129105   9.546   0.949   0.361  0.0845 -0.5076  1.2562
 9164SOL    HW229106   9.679   0.969   0.431  0.2975  1.7875  0.2946
 9165SOL     OW29107   7.931   4.010   5.867 -0.1301 -0.1108  0.5068
 9165SOL    HW129108   7.842   4.002   5.832 -0.5356  3.0307  0.5657
 9165SOL    HW229109   7.966   3.921   5.862 -2.2146 -0.9249 -2.3038
 9166SOL     OW29110   8.971   6.878   2.180  0.2468  0.0372  0.4265
 9166SOL    HW129111   9.033   6.839   2.242 -0.8018 -0.2163  1.3424
 9166SOL    HW229112   9.026   6.907   2.106  1.5468  0.4297  1.5013
 9167SOL     OW29113   6.090   6.649   5.425 -0.4778 -0.6266 -0.3146
 9167SOL    HW129114   6.179   6.649   5.391 -0.0850  0.3872  0.6266
 9167SOL    HW229115   6.101   6.662   5.520 -1.6496  1.2227 -0.3803
 9168SOL     OW29116   7.181   7.480   0.493 -0.1756  0.1284  0.6272
 9168SOL    HW129117   7.170   7.405   0.551  0.3400  0.3119  0.9706
 9168SOL    HW229118   7.171   7.556   0.551 -0.1210  0.3179  0.3884
 9169SOL     OW29119   1.315   8.885   8.286 -0.0022  0.3129  0.0304
 9169SOL    HW129120   1.350   8.973   8.269  0.2430 -0.0477 -1.5113
 9169SOL    HW229121   1.250   8.898   8.355  1.4222  1.3791  1.2454
 9170SOL     OW29122   5.628   8.184   5.946 -0.5291  0.2616 -0.1080
 9170SOL    HW129123   5.591   8.218   5.864  1.4966  1.2467 -0.6852
 9170SOL    HW229124   5.702   8.242   5.964 -0.3462 -0.5300  1.9282
 9171SOL     OW29125   5.395   3.192   1.939  0.2796 -0.2032 -0.1995
 9171SOL    HW129126   5.313   3.234   1.915  0.2347 -0.1298  0.0822
 9171SOL    HW229127   5.392   3.185   2.035 -0.1405 -1.7375 -0.3013
 9172SOL     OW29128   2.958   8.600   4.449  0.1535 -0.2873 -0.0957
 9172SOL    HW129129   3.013   8.531   4.487  1.0103  0.0976 -0.6247
 9172SOL    HW229130   2.991   8.681   4.488 -1.9576 -0.2666  1.8644
 9173SOL     OW29131   9.394   5.758   5.367  0.1707  0.5972 -0.5690
 9173SOL    HW129132   9.403   5.854   5.370 -0.2916  0.6211  0.3760
 9173SOL    HW229133   9.483   5.726   5.357  0.4240  1.1037  0.0037
 9174SOL     OW29134   2.459   6.019   1.678 -0.3013 -0.9785  0.0900
 9174SOL    HW129135   2.422   5.931   1.681  1.3644 -1.7181  0.5360
 9174SOL    HW229136   2.538   6.010   1.625  0.0290  0.1907  0.3541
 9175SOL     OW29137   3.163   8.025   4.874  0.0144  0.7481 -0.1251
 9175SOL    HW129138   3.207   8.075   4.942  0.5716  0.6384 -0.3988
 9175SOL    HW229139   3.198   8.059   4.792 -0.6122  0.8410 -0.3605
 9176SOL     OW29140   3.693   0.353   0.454  0.6189  0.2234  0.4008
 9176SOL    HW129141   3.635   0.423   0.485 -0.5768 -0.3194 -0.4984
 9176SOL    HW229142   3.769   0.399   0.418  0.4031  0.9979  0.9073
 9177SOL     OW29143   4.569   4.370   5.231  0.2695 -0.0124  0.1694
 9177SOL    HW129144   4.544   4.455   5.268 -0.5342  0.1220 -0.6327
 9177SOL    HW229145   4.642   4.389   5.173  0.5743  0.0101  0.5591
 9178SOL     OW29146   5.227   6.076   8.230  0.2896 -0.5846 -0.2605
 9178SOL    HW129147   5.180   6.145   8.277 -0.0287  0.5274 -2.1350
 9178SOL    HW229148   5.218   5.999   8.287  0.3561  0.7855  1.7143
 9179SOL     OW29149   3.576   2.095   1.353 -0.2309  0.2630  0.4262
 9179SOL    HW129150   3.579   2.050   1.269  2.3584  0.2681  0.4274
 9179SOL    HW229151   3.589   2.187   1.332 -2.1877  0.6539  0.6935
 9180SOL     OW29152   8.775   8.687   6.714  0.3227 -0.0994 -0.5678
 9180SOL    HW129153   8.794   8.776   6.685 -3.2206  0.5355 -1.4683
 9180SOL    HW229154   8.752   8.696   6.807 -0.0679 -0.0335 -0.6670
 9181SOL     OW29155   1.097   2.029   8.664  0.1561  0.0203  0.7387
 9181SOL    HW129156   1.101   2.122   8.639 -3.0388  0.3339  0.9163
 9181SOL    HW229157   1.042   1.989   8.597  1.1126 -1.6825  0.9286
 9182SOL     OW29158   9.586   2.026   6.053 -0.3355  0.1993  0.2697
 9182SOL    HW129159   9.676   2.001   6.072 -0.4645 -0.8129 -0.3658
 9182SOL    HW229160   9.543   2.029   6.139 -0.3051 -1.8359  0.4049
 9183SOL     OW29161   5.263   0.558   2.087  1.2385  0.5426 -0.4334
 9183SOL    HW129162   5.234   0.521   2.004 -0.2275  0.5877  0.0302
 9183SOL    HW229163   5.254   0.652   2.076 -0.4622  0.5036  0.2501
 9184SOL     OW29164   7.596   5.365   5.587  0.3268 -0.4171  0.0457
 9184SOL    HW129165   7.628   5.353   5.498  2.7139  2.4798  0.3308
 9184SOL    HW229166   7.523   5.426   5.578  0.9684  0.3746  0.0653
 9185SOL     OW29167   9.775   3.781   4.837  0.0857  0.6110 -0.2884
 9185SOL    HW129168   9.751   3.862   4.792 -2.7696  1.5146  2.4885
 9185SOL    HW229169   9.696   3.728   4.834  0.5402 -0.2354  1.6021
 9186SOL     OW29170   6.718   8.455   9.731 -0.2063 -0.3392 -0.1926
 9186SOL    HW129171   6.673   8.411   9.659  1.2732 -2.1083 -0.1106
 9186SOL    HW229172   6.687   8.545   9.727  0.4605 -0.1354 -3.5758
 9187SOL     OW29173   0.342   8.943   1.778 -0.4543 -0.1302 -0.2124
 9187SOL    HW129174   0.314   8.920   1.867  0.0387 -1.9564 -0.4770
 9187SOL    HW229175   0.333   9.038   1.773 -1.1799 -0.0736  1.5465
 9188SOL     OW29176   5.102   3.637   6.763  0.3731  0.3865 -0.1605
 9188SOL    HW129177   5.105   3.700   6.691  2.0278 -1.1979 -1.5722
 9188SOL    HW229178   5.015   3.649   6.802 -1.1685  0.3456 -3.3062
 9189SOL     OW29179   9.746   2.945   6.458  0.3983 -0.0893  0.6175
 9189SOL    HW129180   9.783   2.859   6.440  1.0827  0.2501  0.3557
 9189SOL    HW229181   9.810   2.986   6.516 -0.3378 -0.0689  1.4429
 9190SOL     OW29182   1.515   6.140   3.543  0.7341  0.0571 -0.9702
 9190SOL    HW129183   1.526   6.225   3.586  1.1692 -0.1041 -0.7488
 9190SOL    HW229184   1.508   6.077   3.616 -0.5732  0.0071 -1.1163
 9191SOL     OW29185   1.589   9.120   2.035  0.2268 -0.5901  1.0057
 9191SOL    HW129186   1.551   9.206   2.055  1.6534  0.2116  0.4674
 9191SOL    HW229187   1.534   9.085   1.966  1.2843  1.2295 -0.8714
 9192SOL     OW29188   5.301   7.148   8.825 -0.6575  0.8499  0.3044
 9192SOL    HW129189   5.275   7.165   8.735  1.1655  3.1570  0.1220
 9192SOL    HW229190   5.378   7.202   8.839  1.5421 -2.3522  2.0636
 9193SOL     OW29191   7.521   6.935   4.178  0.2259 -0.5878  0.5297
 9193SOL    HW129192   7.580   6.862   4.157 -0.0241 -0.4884 -0.6181
 9193SOL    HW229193   7.433   6.901   4.158 -0.0372 -0.4456  1.3922
 9194SOL     OW29194   5.261   6.601   1.286  0.7698 -0.3086  0.9338
 9194SOL    HW129195   5.255   6.689   1.249 -0.4615 -0.1612  1.4375
 9194SOL    HW229196   5.355   6.582   1.287  0.9513  0.1813 -1.0636
 9195SOL     OW29197   4.887   7.805   7.841 -0.2659 -0.2542  0.2271
 9195SOL    HW129198   4.828   7.823   7.768  1.2011  0.2801 -0.8730
 9195SOL    HW229199   4.847   7.730   7.886  0.2399 -2.5282 -2.8231
 9196SOL     OW29200   7.614   6.854   8.367 -0.2693 -0.3711  0.3689
 9196SOL    HW129201   7.702   6.818   8.354 -0.4595 -0.4347 -0.7825
 9196SOL    HW229202   7.568   6.786   8.416  0.3259 -0.3281  1.0078
 9197SOL     OW29203   0.599   9.563   5.168  0.4036 -1.2556 -0.2111
 9197SOL    HW129204   0.650   9.494   5.209  3.5934  0.5335 -0.8673
 9197SOL    HW229205   0.640   9.576   5.082 -0.8832  0.6022 -0.6172
 9198SOL     OW29206   0.479   9.350   1.123 -0.6767 -0.4605 -0.4872
 9198SOL    HW129207   0.495   9.344   1.029  0.8249 -0.0214 -0.2887
 9198SOL    HW229208   0.531   9.280   1.161 -0.7860 -0.2512  0.0626
 9199SOL     OW29209   0.123   4.557   3.190 -0.0609 -0.3397 -0.0391
 9199SOL    HW129210   0.085   4.611   3.259  1.7531  1.2566 -0.2226
 9199SOL    HW229211   0.074   4.583   3.111  1.1345  1.5370 -0.2338
 9200SOL     OW29212   7.818   0.639   7.892 -0.4848 -0.2111  0.2982
 9200SOL    HW129213   7.739   0.694   7.900 -1.9422 -2.2049  0.3566
 9200SOL    HW229214   7.843   0.620   7.982  0.2983  0.6877  0.2849
 9201SOL     OW29215   3.003   1.391   0.611  0.2200  0.0912 -0.2804
 9201SOL    HW129216   3.062   1.428   0.677  0.1373  1.8313 -1.0992
 9201SOL    HW229217   2.958   1.468   0.575 -1.0600 -1.0024 -1.0877
 9202SOL     OW29218   0.494   8.590   8.495 -0.3384  0.1791 -0.0686
 9202SOL    HW129219   0.514   8.681   8.472  0.4052  0.3126  1.0261
 9202SOL    HW229220   0.472   8.548   8.412 -1.3738  1.5186 -0.5084
 9203SOL     OW29221   6.509   6.833   7.899 -0.1127 -0.1483  0.2361
 9203SOL    HW129222   6.447   6.897   7.934 -0.2373 -1.4211  2.5124
 9203SOL    HW229223   6.567   6.813   7.972  2.5135  0.3352 -1.5824
 9204SOL     OW29224   9.340   9.017   4.955 -0.7385 -0.0656  0.5060
 9204SOL    HW129225   9.415   8.960   4.975 -1.7862 -1.1079  1.6485
 9204SOL    HW229226   9.380   9.098   4.925  0.9018 -0.2677  1.9320
 9205SOL     OW29227   6.878   1.024   7.789  0.0472 -0.1764  0.8092
 9205SOL    HW129228   6.803   1.059   7.742  0.0734  0.1449  1.0007
 9205SOL    HW229229   6.916   0.959   7.730  2.2484  2.7499 -1.2525
 9206SOL     OW29230   8.702   2.982   7.601 -0.3982 -0.1448 -0.1152
 9206SOL    HW129231   8.715   2.983   7.506 -1.1140 -0.7098 -0.2261
 9206SOL    HW229232   8.639   3.052   7.618  0.1191  0.2999  0.0150
 9207SOL     OW29233   7.470   6.479   6.864  0.5140 -0.0642  0.0327
 9207SOL    HW129234   7.393   6.432   6.896  0.6709  0.6382  1.5399
 9207SOL    HW229235   7.452   6.571   6.885  2.2055 -0.0043  1.3866
 9208SOL     OW29236   2.871   5.708   7.561 -0.2343  0.0283  0.0940
 9208SOL    HW129237   2.931   5.648   7.606  0.5622 -0.1172 -1.1355
 9208SOL    HW229238   2.884   5.690   7.468 -2.4123 -0.2080 -0.2175
 9209SOL     OW29239   4.573   0.655   1.367  0.2677  0.0793  0.0989
 9209SOL    HW129240   4.627   0.576   1.364  0.6398  0.3547 -1.5165
 9209SOL    HW229241   4.485   0.623   1.387 -0.3788 -1.2968 -3.9849
 9210SOL     OW29242   4.772   4.293   0.302 -0.3698 -0.1955  0.6127
 9210SOL    HW129243   4.810   4.360   0.359 -0.5408  0.7729 -0.3864
 9210SOL    HW229244   4.763   4.335   0.217  1.9114 -2.2707 -0.7678
 9211SOL     OW29245   0.395   7.334   9.430  0.1796  0.4347  0.5446
 9211SOL    HW129246   0.346   7.347   9.512  0.8436  0.8601  0.8821
 9211SOL    HW229247   0.328   7.308   9.367 -0.2302 -0.6908  1.4079
 9212SOL     OW29248   4.199   8.550   7.805 -0.5431  0.4524 -0.2375
 9212SOL    HW129249   4.251   8.501   7.742  2.0796  3.0288 -0.2909
 9212SOL    HW229250   4.225   8.516   7.891 -1.1101 -0.3115 -0.3539
 9213SOL     OW29251   6.252   4.000   8.703  0.2539  0.1074  0.3257
 9213SOL    HW129252   6.172   4.049   8.683 -0.9182 -1.2453  1.5237
 9213SOL    HW229253   6.321   4.049   8.657 -0.7412  3.1232  1.7751
 9214SOL     OW29254   7.464   9.322   1.728 -0.4657 -0.2994 -0.0243
 9214SOL    HW129255   7.447   9.239   1.683 -0.3545 -0.1459 -0.3516
 9214SOL    HW229256   7.512   9.297   1.807 -1.3694 -0.6529  0.4322
 9215SOL     OW29257   0.034   9.319   5.619 -0.4703 -0.0834  0.0549
 9215SOL    HW129258  -0.050   9.325   5.664  0.7708 -1.8292  2.8671
 9215SOL    HW229259   0.053   9.225   5.615  1.1145  0.2326 -1.0275
 9216SOL     OW29260   9.441   8.630   3.069 -0.1472  0.4359 -0.3803
 9216SOL    HW129261   9.519   8.575   3.079 -0.3099  0.1490 -0.6581
 9216SOL    HW229262   9.455   8.678   2.988 -0.0815  0.6742 -0.2255
 9217SOL     OW29263   6.751   7.952   1.699  0.0798  0.4059  0.1466
 9217SOL    HW129264   6.691   8.026   1.698 -1.5932 -0.8723  0.7257
 9217SOL    HW229265   6.731   7.903   1.619 -0.2003 -0.4074  0.6944
 9218SOL     OW29266   4.653   5.187   1.963 -0.2213 -0.0518  0.2140
 9218SOL    HW129267   4.672   5.158   1.873 -1.1223  1.2251 -0.4102
 9218SOL    HW229268   4.559   5.175   1.973 -0.2206  0.3929  0.7810
 9219SOL     OW29269   5.932   4.446   6.624  0.6500  0.0043 -0.2158
 9219SOL    HW129270   5.845   4.448   6.664  1.1931 -0.2953  1.0064
 9219SOL    HW229271   5.963   4.536   6.629  0.9842 -0.1478  0.6797
 9220SOL     OW29272   0.753   7.588   8.278  0.0028 -0.3770 -0.2158
 9220SOL    HW129273   0.785   7.646   8.347 -0.5668  0.4973 -0.6726
 9220SOL    HW229274   0.747   7.502   8.320  0.5703 -0.0560  0.5533
 9221SOL     OW29275   7.760   2.390   3.738 -0.2453  0.1073  0.1477
 9221SOL    HW129276   7.744   2.483   3.724 -0.7519 -0.0927 -0.6777
 9221SOL    HW229277   7.734   2.349   3.656 -0.2031 -0.7835  0.5708
 9222SOL     OW29278   2.932   2.444   6.518 -0.3755  0.0408 -0.1516
 9222SOL    HW129279   2.954   2.534   6.496 -0.4109 -0.3479 -1.8798
 9222SOL    HW229280   3.016   2.400   6.531 -0.0601 -0.6877 -3.6809
 9223SOL     OW29281   7.925   1.581   1.350 -0.3310 -0.0054  0.1356
 9223SOL    HW129282   7.992   1.634   1.307 -1.1274  1.1263  0.2627
 9223SOL    HW229283   7.854   1.577   1.286 -0.3994 -0.6905  0.2473
 9224SOL     OW29284   6.759   0.030   0.576  0.1534 -0.2512  0.1672
 9224SOL    HW129285   6.719   0.012   0.661  0.8701 -1.0098  0.3519
 9224SOL    HW229286   6.852   0.040   0.595  0.0442  1.9190 -0.1903
 9225SOL     OW29287   5.750   4.345   9.295  0.7559  0.2214 -0.0233
 9225SOL    HW129288   5.735   4.251   9.302  0.7768  0.1575 -0.8087
 9225SOL    HW229289   5.780   4.371   9.383  1.0527 -0.5535  0.1098
 9226SOL     OW29290   7.098   6.200   1.256  0.3038 -0.0000 -0.0121
 9226SOL    HW129291   7.158   6.154   1.197 -0.9902  0.7568 -2.0112
 9226SOL    HW229292   7.153   6.263   1.302  1.5374 -1.3383  0.4393
 9227SOL     OW29293   5.513   3.735   1.210  0.6167 -0.1957 -0.2857
 9227SOL    HW129294   5.500   3.682   1.288  1.2990 -0.3956 -0.2994
 9227SOL    HW229295   5.541   3.820   1.243 -0.8347  0.2883 -0.2485
 9228SOL     OW29296   9.074   3.121   8.934  0.0191  0.7526  0.8938
 9228SOL    HW129297   9.020   3.184   8.981 -0.8573  0.9575 -0.3219
 9228SOL    HW229298   9.129   3.176   8.877 -1.6271  0.4440 -1.0952
 9229SOL     OW29299   1.924   0.631   3.168  0.1913 -0.8165  0.4490
 9229SOL    HW129300   1.924   0.535   3.170  1.3345 -0.8424  0.1485
 9229SOL    HW229301   2.017   0.654   3.164 -0.0283  0.3344  1.4882
 9230SOL     OW29302   1.273   3.004   6.041  0.1551 -0.1314 -0.3556
 9230SOL    HW129303   1.257   2.933   5.979  1.4239  0.6876 -1.6887
 9230SOL    HW229304   1.329   2.964   6.108  2.0465 -0.1262 -1.8335
 9231SOL     OW29305   7.749   3.407   7.078  0.7078  0.2303  0.0864
 9231SOL    HW129306   7.788   3.322   7.061  0.6108  0.4469 -1.2984
 9231SOL    HW229307   7.816   3.470   7.050  1.0044  0.6358  1.6125
 9232SOL     OW29308   4.663   8.666   0.900  0.2775  0.8203 -0.5145
 9232SOL    HW129309   4.575   8.700   0.883  0.5906  1.1604 -1.4905
 9232SOL    HW229310   4.720   8.717   0.843  1.2093  1.0808  0.5978
 9233SOL     OW29311   9.567   8.819   4.667  0.3711  0.0385  0.0786
 9233SOL    HW129312   9.536   8.799   4.756 -0.5295  0.8223 -0.0520
 9233SOL    HW229313   9.535   8.906   4.649  0.9603  0.0754 -0.8561
 9234SOL     OW29314   8.606   0.311   3.108  0.0472 -0.5258 -0.6549
 9234SOL    HW129315   8.565   0.258   3.176  3.3600 -2.8107 -0.1780
 9234SOL    HW229316   8.630   0.392   3.152  2.4128 -2.0909  1.1497
 9235SOL     OW29317   8.324   3.287   5.306 -0.1025 -0.0212 -0.2541
 9235SOL    HW129318   8.244   3.293   5.253 -1.9727 -1.2722  2.2224
 9235SOL    HW229319   8.319   3.361   5.366 -1.4067 -2.0037  2.3004
 9236SOL     OW29320   3.395   4.618   7.537  0.2158  0.1793  0.1067
 9236SOL    HW129321   3.461   4.641   7.602  1.3965 -0.9426 -0.6554
 9236SOL    HW229322   3.330   4.567   7.585  1.4845 -1.3378  0.2788
 9237SOL     OW29323   6.806   8.668   7.573 -0.0106  0.4931 -0.0752
 9237SOL    HW129324   6.749   8.661   7.649  0.3047 -0.1272  0.1164
 9237SOL    HW229325   6.798   8.759   7.544  0.9720  1.1474  1.5647
 9238SOL     OW29326   0.810   6.606   8.137 -0.5036  0.3221  0.1473
 9238SOL    HW129327   0.900   6.608   8.171 -0.2637  0.5388 -0.4837
 9238SOL    HW229328   0.756   6.590   8.214 -0.0549  1.7094  0.7732
 9239SOL     OW29329   1.003   1.184   2.079 -0.2913  0.1794  0.0976
 9239SOL    HW129330   1.043   1.145   2.157  2.7997 -0.6348 -1.7706
 9239SOL    HW229331   1.009   1.279   2.095  1.9968  0.0800  0.1512
 9240SOL     OW29332   3.439   6.838   0.761  0.1586 -0.1176 -0.1142
 9240SOL    HW129333   3.351   6.801   0.773  0.6196 -1.2684 -0.1476
 9240SOL    HW229334   3.498   6.768   0.789  1.0868  0.3538 -0.8497
 9241SOL     OW29335   2.730   1.411   9.364  0.0265 -0.3074  0.0147
 9241SOL    HW129336   2.702   1.345   9.300  0.1584 -2.1990  1.8007
 9241SOL    HW229337   2.680   1.390   9.443  1.0603  0.9073  1.0267
 9242SOL     OW29338   5.191   9.510   2.370  0.3236 -0.5558  0.5614
 9242SOL    HW129339   5.227   9.597   2.357  2.1503 -0.9124  2.6306
 9242SOL    HW229340   5.266   9.456   2.395 -0.8717 -2.5729  0.0581
 9243SOL     OW29341   1.642   1.455   1.985 -0.3715 -0.5869 -0.5111
 9243SOL    HW129342   1.667   1.448   1.893  0.7399  0.2950 -0.2942
 9243SOL    HW229343   1.551   1.484   1.983  0.1608  1.1333 -1.3468
 9244SOL     OW29344   9.511   8.174   8.359  0.2274 -0.2080  0.0390
 9244SOL    HW129345   9.601   8.183   8.389  0.1046 -0.5926  0.5483
 9244SOL    HW229346   9.519   8.135   8.272  0.5252 -1.9836  0.8011
 9245SOL     OW29347   7.559   8.527   3.882 -0.4248 -0.3743  0.0918
 9245SOL    HW129348   7.644   8.556   3.850 -0.2540 -1.4714 -0.5044
 9245SOL    HW229349   7.508   8.512   3.803 -1.3558  0.7439  0.4503
 9246SOL     OW29350   8.643   4.824   7.264 -0.1349 -0.2561 -0.3040
 9246SOL    HW129351   8.565   4.805   7.317  0.1079 -0.7476 -0.1166
 9246SOL    HW229352   8.708   4.760   7.293  0.6300  0.7055  0.1633
 9247SOL     OW29353   5.216   1.104   2.754 -0.1969 -0.1909 -0.0872
 9247SOL    HW129354   5.150   1.043   2.721 -1.1510  0.3057  0.8494
 9247SOL    HW229355   5.297   1.052   2.759 -0.9911 -1.3847  0.7089
 9248SOL     OW29356   5.473   3.002   5.955  0.0319  0.8386  0.0068
 9248SOL    HW129357   5.388   2.974   5.989  0.6106  1.0041  1.7113
 9248SOL    HW229358   5.533   2.991   6.029  1.4470  0.9787 -1.0761
 9249SOL     OW29359   4.684   7.884   6.862 -0.3867  0.0270 -0.6257
 9249SOL    HW129360   4.725   7.943   6.799  2.0204 -0.2972  0.5561
 9249SOL    HW229361   4.716   7.797   6.838 -1.5611 -0.4639 -0.5191
 9250SOL     OW29362   8.315   1.651   2.221 -0.1093 -0.1678  0.1602
 9250SOL    HW129363   8.294   1.729   2.273  0.9844 -0.0483  0.4449
 9250SOL    HW229364   8.363   1.594   2.281  0.0531 -0.5795 -0.3552
 9251SOL     OW29365   1.394   2.137   2.981  0.0211 -0.6447  0.5095
 9251SOL    HW129366   1.451   2.060   2.973 -1.8281 -1.9311 -1.0271
 9251SOL    HW229367   1.336   2.132   2.906  0.5153  2.9121 -0.2968
 9252SOL     OW29368   5.782   5.980   7.931  0.0852  0.0340  0.1268
 9252SOL    HW129369   5.695   5.949   7.955  0.2999  0.5612  1.6919
 9252SOL    HW229370   5.812   5.918   7.864 -1.4187 -0.2248 -0.3402
 9253SOL     OW29371   9.002   9.700   5.730 -0.8451 -0.1135 -0.2246
 9253SOL    HW129372   9.064   9.648   5.781  1.2436 -0.3278 -2.7981
 9253SOL    HW229373   8.942   9.636   5.693 -1.2423 -0.1402  0.4435
 9254SOL     OW29374   7.820   7.109   9.738 -0.5607 -0.1734  0.0521
 9254SOL    HW129375   7.858   7.177   9.793  0.9578 -1.4063  0.5542
 9254SOL    HW229376   7.891   7.049   9.720 -1.3934 -0.6297 -2.0102
 9255SOL     OW29377   5.079   2.575   0.573 -0.5375  0.2943  0.1612
 9255SOL    HW129378   5.069   2.661   0.533 -0.7852  0.3631  0.3690
 9255SOL    HW229379   5.025   2.579   0.652  1.2224  0.7281  1.4199
 9256SOL     OW29380   1.901   8.755   0.028  0.3982 -0.1697  0.3024
 9256SOL    HW129381   1.969   8.797  -0.024 -0.6269  0.9253 -0.2135
 9256SOL    HW229382   1.870   8.824   0.087 -0.1595 -0.6895  0.6322
 9257SOL     OW29383   4.901   4.865   3.473 -0.1481  0.3251  0.4170
 9257SOL    HW129384   4.980   4.878   3.421  0.0256 -0.6225  0.4286
 9257SOL    HW229385   4.834   4.917   3.429  0.1784  0.1325 -0.3188
 9258SOL     OW29386   6.956   2.928   2.529 -0.0974 -0.2077  0.8101
 9258SOL    HW129387   6.873   2.976   2.521  0.7431  1.2817  0.6210
 9258SOL    HW229388   6.957   2.869   2.453 -1.9840 -1.9252  2.0394
 9259SOL     OW29389   3.706   7.586   2.635 -0.0212 -0.5683 -0.1197
 9259SOL    HW129390   3.655   7.523   2.584  0.5642 -0.5937 -0.6841
 9259SOL    HW229391   3.797   7.564   2.616  0.2252 -1.0354  1.5061
 9260SOL     OW29392   8.005   6.874   7.794  0.4182  0.3702 -0.3671
 9260SOL    HW129393   8.015   6.816   7.869  1.9349  1.6777  0.5266
 9260SOL    HW229394   8.076   6.848   7.735  2.2608  2.3265  0.8280
 9261SOL     OW29395   8.053   8.562   8.485 -0.5741  0.6310 -0.8359
 9261SOL    HW129396   7.995   8.518   8.423 -0.2221 -0.2092 -0.5897
 9261SOL    HW229397   8.092   8.491   8.536 -0.2253  1.2545 -0.2069
 9262SOL     OW29398   2.180   1.469   2.986  0.2928  0.3325  0.2752
 9262SOL    HW129399   2.093   1.490   3.020 -0.1515 -0.9150 -0.0585
 9262SOL    HW229400   2.183   1.509   2.900 -0.4623 -0.7378 -0.2613
 9263SOL     OW29401   3.806   6.523   1.674  0.1947  0.0942 -0.2268
 9263SOL    HW129402   3.744   6.543   1.744  1.3758  1.4625  0.4826
 9263SOL    HW229403   3.752   6.512   1.596 -0.9956  0.5698  0.5041
 9264SOL     OW29404   5.363   3.095   6.450 -0.2188 -0.3117  0.6730
 9264SOL    HW129405   5.279   3.089   6.496  0.0383 -0.1017  1.1820
 9264SOL    HW229406   5.342   3.134   6.366 -0.4248  1.0892  1.3570
 9265SOL     OW29407   6.766   4.070   3.535 -0.0215  0.5247  0.0638
 9265SOL    HW129408   6.809   4.005   3.481 -1.7994 -2.0710  1.5197
 9265SOL    HW229409   6.837   4.122   3.572  1.5348 -0.9576 -0.7083
 9266SOL     OW29410   3.497   9.332   0.558  0.5514 -0.1661  0.0923
 9266SOL    HW129411   3.447   9.402   0.517  0.0850 -0.4768  0.1265
 9266SOL    HW229412   3.562   9.378   0.612  2.1225  0.2999 -2.0363
 9267SOL     OW29413   1.117   1.807   7.106  0.3609  0.0129  0.2501
 9267SOL    HW129414   1.135   1.851   7.023  2.0071  0.4848  0.8141
 9267SOL    HW229415   1.022   1.799   7.109  0.2662 -0.1889 -1.7610
 9268SOL     OW29416   4.006   5.464   3.707  0.1204 -0.0191 -0.6714
 9268SOL    HW129417   3.970   5.413   3.779 -1.0222 -0.4876 -1.5549
 9268SOL    HW229418   4.101   5.456   3.717 -0.0373 -0.6942  0.3348
 9269SOL     OW29419   8.577   6.431   6.182 -0.0228 -0.7657  0.5904
 9269SOL    HW129420   8.542   6.377   6.254 -2.0222 -0.5895 -0.1945
 9269SOL    HW229421   8.617   6.506   6.226  1.3170 -2.0134  1.6219
 9270SOL     OW29422   9.013   3.768   1.158  0.0298  0.2044  0.7831
 9270SOL    HW129423   9.061   3.847   1.133 -0.2293  0.5526  1.3626
 9270SOL    HW229424   8.933   3.801   1.199 -0.3536 -0.3656  0.4965
 9271SOL     OW29425   6.863   3.321   5.634 -0.7877  0.3087 -0.3305
 9271SOL    HW129426   6.953   3.353   5.626 -0.8639  0.2292 -1.7782
 9271SOL    HW229427   6.856   3.252   5.567 -1.9555  0.3880 -0.3086
 9272SOL     OW29428   7.049   5.716   3.698  0.4933 -0.6368 -0.3927
 9272SOL    HW129429   7.139   5.708   3.728  0.6149  1.0910 -0.2033
 9272SOL    HW229430   7.013   5.789   3.749 -0.6923 -0.6346 -1.1915
 9273SOL     OW29431   7.827   8.155   6.159  0.3757  0.1079  0.0418
 9273SOL    HW129432   7.909   8.194   6.191 -0.1551  1.3697 -0.0799
 9273SOL    HW229433   7.854   8.073   6.119  1.9261  1.4723 -1.9532
 9274SOL     OW29434   3.008   8.115   3.227 -0.0606  0.2320 -0.1919
 9274SOL    HW129435   3.040   8.133   3.316  0.8049 -0.0374 -0.4344
 9274SOL    HW229436   2.914   8.133   3.231 -0.5570 -2.1873  1.4613
 9275SOL     OW29437   9.011   5.610   9.419 -0.2836 -0.3549  0.3978
 9275SOL    HW129438   9.061   5.658   9.485  2.1448  0.3917 -1.7988
 9275SOL    HW229439   9.044   5.644   9.335 -3.5091 -0.8954 -1.2575
 9276SOL     OW29440   3.468   3.651   7.356 -0.3381  0.4119 -0.2737
 9276SOL    HW129441   3.526   3.694   7.419 -0.8802  1.8466 -0.7111
 9276SOL    HW229442   3.527   3.615   7.289  0.4044 -2.6946  1.8366
 9277SOL     OW29443   4.585   2.396   0.480 -0.0532  0.0285 -0.1663
 9277SOL    HW129444   4.661   2.435   0.435 -0.4468 -0.6933 -1.5122
 9277SOL    HW229445   4.513   2.456   0.461  0.4090  1.5596  2.4001
 9278SOL     OW29446   8.192   7.417   4.363 -0.0239  0.0694 -0.4837
 9278SOL    HW129447   8.114   7.442   4.413 -0.4456 -0.9626 -0.5808
 9278SOL    HW229448   8.207   7.490   4.303 -0.2252  0.7893  0.3201
 9279SOL     OW29449   8.306   8.957   7.831  0.5661 -0.1723 -0.0274
 9279SOL    HW129450   8.393   8.920   7.846  0.1749 -0.8543  0.6017
 9279SOL    HW229451   8.317   9.051   7.848  0.8343 -0.4737  1.5836
 9280SOL     OW29452   5.894   1.602   1.817 -0.2925  0.1472  0.0668
 9280SOL    HW129453   5.925   1.511   1.818 -3.1277 -0.9346 -0.7660
 9280SOL    HW229454   5.828   1.606   1.886 -1.4898  1.0310 -1.0736
 9281SOL     OW29455   8.405   2.189   5.841 -0.4458 -0.0427 -0.1835
 9281SOL    HW129456   8.449   2.140   5.771 -1.9430 -0.0913 -1.1438
 9281SOL    HW229457   8.351   2.124   5.885 -1.4893  0.4841 -0.6596
 9282SOL     OW29458   5.816   0.560   3.679 -0.8336  0.1669  0.0151
 9282SOL    HW129459   5.739   0.525   3.636 -1.4650  1.3661  0.1378
 9282SOL    HW229460   5.782   0.619   3.746  0.1318  3.2159 -1.9642
 9283SOL     OW29461   3.232   0.247   1.453  0.2035 -0.4960 -0.4479
 9283SOL    HW129462   3.222   0.198   1.371 -2.6870 -0.9853  0.0875
 9283SOL    HW229463   3.219   0.338   1.428 -1.2495 -0.6940 -0.5238
 9284SOL     OW29464   9.370   2.058   2.093 -0.9528 -0.3490 -0.2344
 9284SOL    HW129465   9.449   2.004   2.099 -0.3737  0.5444  0.4182
 9284SOL    HW229466   9.309   2.019   2.155 -0.8397 -0.7341 -0.3644
 9285SOL     OW29467   9.678   1.701   9.157 -0.0163  1.0518  0.5357
 9285SOL    HW129468   9.725   1.745   9.086 -1.2178  2.0782  0.3335
 9285SOL    HW229469   9.617   1.642   9.112  1.5374 -0.8746  0.8037
 9286SOL     OW29470   7.542   4.057   0.326  0.1785  0.1825  0.0361
 9286SOL    HW129471   7.484   3.985   0.349  1.3822 -1.6667 -2.3598
 9286SOL    HW229472   7.619   4.045   0.382  1.0376 -1.4019 -1.4005
 9287SOL     OW29473   2.632   5.484   3.346 -0.2850  0.5436 -0.2336
 9287SOL    HW129474   2.694   5.426   3.301  0.5963  0.9726  0.3856
 9287SOL    HW229475   2.617   5.555   3.284 -1.9212 -0.6473 -1.2862
 9288SOL     OW29476   2.017   2.014   7.985  0.4293 -0.2410  0.3764
 9288SOL    HW129477   1.922   2.017   7.997  0.5086 -1.3246  1.4503
 9288SOL    HW229478   2.029   1.981   7.896 -0.1878  0.7889 -0.1078
 9289SOL     OW29479   1.859   7.131   0.344  0.7837  0.1848 -0.0862
 9289SOL    HW129480   1.841   7.224   0.359  1.7274  0.6758 -1.7180
 9289SOL    HW229481   1.934   7.112   0.400  0.9370  0.5667 -0.1556
 9290SOL     OW29482   5.562   8.363   6.360  0.0310  0.6208 -0.4161
 9290SOL    HW129483   5.647   8.320   6.371 -0.2036  0.3389  0.3790
 9290SOL    HW229484   5.508   8.299   6.314 -0.3119  0.0516  0.7479
 9291SOL     OW29485   0.854   6.719   0.146  0.6098  0.2120  0.3220
 9291SOL    HW129486   0.904   6.704   0.226  0.0887  4.1572  1.6135
 9291SOL    HW229487   0.920   6.726   0.078  1.4113  0.6168  1.1159
 9292SOL     OW29488   4.138   6.315   5.674  0.2359  0.0646  0.3694
 9292SOL    HW129489   4.136   6.289   5.766 -1.2122  0.3304  0.4345
 9292SOL    HW229490   4.141   6.411   5.677  0.2598  0.0709  0.1441
 9293SOL     OW29491   0.118   6.684   6.259  0.2835  0.1448  0.2016
 9293SOL    HW129492   0.069   6.764   6.274  0.2551  0.4261 -1.2468
 9293SOL    HW229493   0.110   6.668   6.165 -0.4230 -2.0232  0.5666
 9294SOL     OW29494   8.087   8.536   3.277 -0.1441 -0.1039 -0.0038
 9294SOL    HW129495   8.151   8.525   3.207  0.2668 -0.2761  0.3950
 9294SOL    HW229496   8.103   8.624   3.311  1.5190 -1.0000  1.6939
 9295SOL     OW29497   6.823   5.544   9.118  0.2098 -0.1389  0.4185
 9295SOL    HW129498   6.901   5.598   9.108 -0.8474  1.2186 -0.9141
 9295SOL    HW229499   6.758   5.585   9.061 -1.5749 -1.0623  1.6990
 9296SOL     OW29500   0.941   7.504   1.267  0.1066 -0.5572  0.5155
 9296SOL    HW129501   1.036   7.502   1.275 -0.0138 -1.1253  2.3061
 9296SOL    HW229502   0.915   7.587   1.307 -0.1014  0.2096 -1.1324
 9297SOL     OW29503   5.496   6.431   8.022  0.0342 -0.3368 -0.1597
 9297SOL    HW129504   5.483   6.518   7.983 -0.9207  0.9688  2.7040
 9297SOL    HW229505   5.571   6.443   8.080  1.0079 -1.9798 -1.0377
 9298SOL     OW29506   8.739   3.143   6.862  0.0217 -0.4798  0.0953
 9298SOL    HW129507   8.757   3.236   6.847 -0.4332 -0.4313 -0.1596
 9298SOL    HW229508   8.792   3.121   6.939  2.0275 -0.5939 -1.2360
 9299SOL     OW29509   3.934   0.668   3.911  0.5970  0.6248  0.5827
 9299SOL    HW129510   3.996   0.610   3.865 -0.7273 -1.5943  1.4092
 9299SOL    HW229511   3.937   0.639   4.002 -0.4258  1.6215  0.9520
 9300SOL     OW29512   3.351   6.816   8.399  0.1444 -0.1402  0.8150
 9300SOL    HW129513   3.411   6.851   8.465  0.7602  1.9921 -0.7668
 9300SOL    HW229514   3.407   6.772   8.336 -0.1209  0.2932  0.2650
 9301SOL     OW29515   6.306   7.208   1.423 -0.2739 -0.6113 -0.1428
 9301SOL    HW129516   6.379   7.161   1.462  0.7938  0.0274 -1.2930
 9301SOL    HW229517   6.285   7.159   1.343 -0.0031  0.1287 -0.6781
 9302SOL     OW29518   1.762   5.120   5.690 -0.9925 -0.5193  0.1462
 9302SOL    HW129519   1.766   5.197   5.635  3.3100  1.7540  3.0856
 9302SOL    HW229520   1.686   5.135   5.747 -0.7648  1.1734  0.0590
 9303SOL     OW29521   3.228   1.047   7.426  0.1271  0.2385  0.3210
 9303SOL    HW129522   3.308   1.052   7.374 -0.1567 -0.0580 -0.1594
 9303SOL    HW229523   3.214   1.137   7.456  0.6982  0.2690  0.5084
 9304SOL     OW29524   8.734   5.464   1.639 -0.4101 -0.3587 -0.0133
 9304SOL    HW129525   8.752   5.394   1.702  0.8166  1.0389  1.2539
 9304SOL    HW229526   8.801   5.453   1.571 -0.2621 -0.4639  0.1483
 9305SOL     OW29527   1.344   7.563   0.078  0.2432  0.1859  0.1626
 9305SOL    HW129528   1.281   7.508   0.125 -0.3968  0.8383  0.0814
 9305SOL    HW229529   1.334   7.539  -0.014  2.0986 -1.7110  0.3753
 9306SOL     OW29530   8.506   8.241   6.693 -0.0393  0.0259 -0.3914
 9306SOL    HW129531   8.595   8.275   6.703 -0.5368  1.3017  0.0287
 9306SOL    HW229532   8.506   8.195   6.610  0.7826  0.8126 -0.8389
 9307SOL     OW29533   1.392   4.797   3.887 -0.2298 -0.0187  0.1975
 9307SOL    HW129534   1.362   4.880   3.923  0.6171  2.0195 -3.3880
 9307SOL    HW229535   1.484   4.811   3.867 -0.4949 -1.1746 -2.0921
 9308SOL     OW29536   3.059   7.943   0.448 -0.5242 -0.1615  0.5843
 9308SOL    HW129537   2.970   7.976   0.448 -0.4661  0.1472 -1.7396
 9308SOL    HW229538   3.106   8.000   0.510 -1.5884  0.6921  0.6334
 9309SOL     OW29539   3.268   8.862   6.102  0.3689  0.1033 -0.4785
 9309SOL    HW129540   3.307   8.945   6.073  0.0575  0.3553 -0.1869
 9309SOL    HW229541   3.334   8.825   6.161  0.5921  0.0498 -0.7598
 9310SOL     OW29542   7.980   0.062   8.042 -0.8469  0.1594  0.1673
 9310SOL    HW129543   7.927   0.038   7.965 -0.4524 -0.6257  0.1307
 9310SOL    HW229544   7.927   0.127   8.088 -0.6838  1.3909 -1.2705
 9311SOL     OW29545   2.874   4.078   1.059 -0.0700 -0.6252 -0.3328
 9311SOL    HW129546   2.874   3.988   1.026  0.7130 -0.7422 -0.0398
 9311SOL    HW229547   2.789   4.088   1.100  0.2506 -1.6278  0.6434
 9312SOL     OW29548   6.110   5.870   3.466  0.6159  0.2421 -0.1918
 9312SOL    HW129549   6.176   5.934   3.494  0.9699  0.6084 -1.7477
 9312SOL    HW229550   6.041   5.923   3.425 -0.3752 -0.1893  0.8777
 9313SOL     OW29551   1.347   6.053   7.950  0.3916  0.3157 -0.1542
 9313SOL    HW129552   1.401   6.128   7.924  0.4893  1.3768  2.7474
 9313SOL    HW229553   1.375   6.034   8.039  0.0707 -2.9762 -0.6543
 9314SOL     OW29554   9.061   5.875   5.107  0.0327 -0.3616  0.6242
 9314SOL    HW129555   9.051   5.781   5.120 -0.3720 -0.4112  0.0142
 9314SOL    HW229556   9.044   5.888   5.013 -0.7856  0.4261  0.8603
 9315SOL     OW29557   7.146   9.520   3.362 -0.4006 -0.1405 -0.0777
 9315SOL    HW129558   7.223   9.514   3.306 -0.9589 -3.2316 -0.7060
 9315SOL    HW229559   7.178   9.504   3.451 -0.3124 -1.9637 -0.4014
 9316SOL     OW29560   9.775   2.501   7.806 -0.2026  0.1278 -0.2853
 9316SOL    HW129561   9.740   2.590   7.806 -1.3784 -0.1682 -3.9053
 9316SOL    HW229562   9.702   2.446   7.835  0.1734  0.1995  0.8508
 9317SOL     OW29563   0.155   0.496   9.283  0.2625  0.5639 -0.2016
 9317SOL    HW129564   0.245   0.515   9.256  0.1512  0.8870 -0.3455
 9317SOL    HW229565   0.118   0.580   9.309  0.5593  0.1899  1.5949
 9318SOL     OW29566   3.924   0.990   5.252  0.4548 -0.4648  0.3471
 9318SOL    HW129567   3.996   0.961   5.308  1.3232  0.1447 -0.4258
 9318SOL    HW229568   3.883   0.909   5.221  1.8328 -0.8750 -0.5013
 9319SOL     OW29569   8.991   6.492   5.318 -0.0333  0.1557  0.3244
 9319SOL    HW129570   8.961   6.472   5.407 -1.1916  1.2083  0.1917
 9319SOL    HW229571   9.079   6.453   5.313 -0.4216 -0.9286  1.5309
 9320SOL     OW29572   7.785   8.488   1.956  0.3529  0.3050 -0.3711
 9320SOL    HW129573   7.719   8.557   1.967  0.6902  0.4870  0.5628
 9320SOL    HW229574   7.742   8.424   1.899 -0.6406  0.4210  0.2111
 9321SOL     OW29575   2.779   7.126   9.402 -0.2610  0.4510  0.6253
 9321SOL    HW129576   2.728   7.202   9.373  2.1654  2.6667  1.7657
 9321SOL    HW229577   2.757   7.117   9.495  0.7422  0.8813  0.9129
 9322SOL     OW29578   5.430   8.427   5.203 -0.0183  0.0038 -0.1770
 9322SOL    HW129579   5.411   8.410   5.295 -0.7009  1.1846 -0.0790
 9322SOL    HW229580   5.518   8.465   5.203 -0.3765  0.8652  0.1045
 9323SOL     OW29581   2.410   8.741   3.505  0.2002  0.0490  0.0770
 9323SOL    HW129582   2.436   8.673   3.567  0.7518  0.0330 -0.1732
 9323SOL    HW229583   2.386   8.816   3.560 -0.3200 -0.3150  0.3478
 9324SOL     OW29584   1.024   5.609   5.065 -0.0090 -0.2776  0.2804
 9324SOL    HW129585   1.078   5.610   5.144  0.0604 -0.3077  0.2338
 9324SOL    HW229586   1.087   5.621   4.994 -0.1642  0.5491  0.2773
 9325SOL     OW29587   2.415   8.035   3.210 -0.0327  0.4651  0.7037
 9325SOL    HW129588   2.437   8.125   3.236  0.6685  0.0787  1.4875
 9325SOL    HW229589   2.358   8.046   3.134  1.2326  1.5691 -0.1362
 9326SOL     OW29590   7.067   2.295   8.000  0.1230  0.2353  0.5722
 9326SOL    HW129591   6.980   2.299   8.040  0.3441 -3.2253  1.7393
 9326SOL    HW229592   7.127   2.289   8.074  1.0451 -0.7208 -0.2352
 9327SOL     OW29593   1.014   0.752   2.068  0.2162  0.1157  0.5344
 9327SOL    HW129594   0.933   0.774   2.023  0.5742 -0.1022 -0.2390
 9327SOL    HW229595   1.046   0.835   2.103 -0.0508  0.2947  0.3584
 9328SOL     OW29596   2.915   5.824   5.592 -0.2239  0.0739 -0.2165
 9328SOL    HW129597   2.945   5.755   5.533 -0.9496  1.5400 -2.4517
 9328SOL    HW229598   2.856   5.780   5.653  0.9417 -1.6038 -0.2470
 9329SOL     OW29599   6.789   0.062   0.302  0.1854 -0.1720 -0.4095
 9329SOL    HW129600   6.882   0.072   0.286  0.1706 -2.2190 -2.1221
 9329SOL    HW229601   6.781   0.065   0.398  1.7541  1.5239 -0.2757
 9330SOL     OW29602   7.172   0.980   3.647  0.2682 -0.2374 -0.2518
 9330SOL    HW129603   7.148   1.036   3.720  1.3418  0.2661 -0.2561
 9330SOL    HW229604   7.200   1.041   3.578 -0.7730 -0.6955 -1.1153
 9331SOL     OW29605   2.974   8.389   4.005  0.0283  0.1317  0.6368
 9331SOL    HW129606   2.906   8.415   4.067  0.1913 -1.3905  1.5202
 9331SOL    HW229607   2.929   8.334   3.941  0.0674  0.7852  0.0407
 9332SOL     OW29608   3.498   2.590   0.899  0.2271 -0.1795 -0.3960
 9332SOL    HW129609   3.428   2.525   0.898  1.7331 -1.8912 -2.2001
 9332SOL    HW229610   3.535   2.585   0.987 -1.0390 -0.1814  0.1585
 9333SOL     OW29611   2.157   2.309   2.968  0.2629 -0.0731 -0.3319
 9333SOL    HW129612   2.205   2.228   2.954  0.6177  0.0556  0.0935
 9333SOL    HW229613   2.210   2.376   2.925  0.7393  0.1449  0.5725
 9334SOL     OW29614   6.396   1.119   7.655  0.2374 -0.6992 -0.8806
 9334SOL    HW129615   6.337   1.061   7.607  1.3915 -1.9990 -0.8054
 9334SOL    HW229616   6.354   1.130   7.741  0.0387 -1.5069 -0.8667
 9335SOL     OW29617   8.295   7.781   9.133 -0.3143 -0.6168  0.0571
 9335SOL    HW129618   8.277   7.875   9.134 -2.6653 -1.0193  0.0915
 9335SOL    HW229619   8.382   7.773   9.173  0.3123  1.5789 -0.7273
 9336SOL     OW29620   2.791   5.460   4.483 -0.4299 -0.4039 -0.0755
 9336SOL    HW129621   2.847   5.389   4.514 -0.2712 -0.3507 -0.2364
 9336SOL    HW229622   2.702   5.424   4.487 -0.7329  0.4732  2.9214
 9337SOL     OW29623   3.174   6.302   1.455  0.2364  0.0978 -0.6080
 9337SOL    HW129624   3.130   6.285   1.372  0.0490 -0.8281 -0.3282
 9337SOL    HW229625   3.147   6.230   1.512  3.2101 -1.3654 -0.8463
 9338SOL     OW29626   3.741   0.774   7.327  0.8119 -0.1166 -0.5977
 9338SOL    HW129627   3.754   0.849   7.268 -1.3565 -1.0543 -2.4215
 9338SOL    HW229628   3.771   0.698   7.277 -2.5102 -1.1385 -1.2799
 9339SOL     OW29629   6.919   7.930   3.218  0.0481  0.1590  0.2403
 9339SOL    HW129630   6.886   7.930   3.308 -1.4315 -1.1546 -0.2530
 9339SOL    HW229631   6.916   8.022   3.191 -2.1133  0.2680  0.6585
 9340SOL     OW29632   1.552   5.462   6.502  0.0785  0.1611  0.6157
 9340SOL    HW129633   1.595   5.406   6.438  0.1059 -0.4772  1.1923
 9340SOL    HW229634   1.471   5.489   6.459  1.0343  1.4011 -0.4889
 9341SOL     OW29635   3.855   2.328   5.341  0.2576  0.1732  0.0617
 9341SOL    HW129636   3.885   2.289   5.424 -0.8838  0.3439  0.5634
 9341SOL    HW229637   3.761   2.339   5.352  0.1159  0.3546 -1.2077
 9342SOL     OW29638   8.361   8.969   9.098  0.2893 -0.2347  0.0647
 9342SOL    HW129639   8.371   8.875   9.081 -0.7879 -0.4489  0.5511
 9342SOL    HW229640   8.302   8.973   9.173 -0.4010  0.8544 -0.5140
 9343SOL     OW29641   5.014   7.623   0.688 -0.0385 -0.2589 -0.0689
 9343SOL    HW129642   4.945   7.641   0.624  0.5961  0.5839 -0.5341
 9343SOL    HW229643   5.028   7.529   0.682 -0.7452 -0.3497 -0.3839
 9344SOL     OW29644   9.564   8.679   5.145 -0.5124 -0.0100 -0.2749
 9344SOL    HW129645   9.639   8.693   5.203  0.9478  0.1236 -2.0890
 9344SOL    HW229646   9.498   8.638   5.201  1.1333 -0.7141  1.2737
 9345SOL     OW29647   0.088   1.972   7.943  0.2925 -0.1090  0.3876
 9345SOL    HW129648   0.120   2.048   7.895  0.7018  0.5005  1.5948
 9345SOL    HW229649   0.162   1.912   7.945  0.4099  0.0405  0.6014
 9346SOL     OW29650   7.863   4.658   8.286  0.1298  0.0835 -0.0257
 9346SOL    HW129651   7.844   4.575   8.243 -0.5916  0.7035 -0.9411
 9346SOL    HW229652   7.777   4.689   8.318  0.1839  1.0590 -0.7880
 9347SOL     OW29653   4.461   6.131   6.061  0.2917 -0.1310  0.2100
 9347SOL    HW129654   4.366   6.125   6.063  0.3127 -3.9256 -1.5952
 9347SOL    HW229655   4.487   6.131   6.153 -1.3897  2.2617  0.7615
 9348SOL     OW29656   6.227   7.817   9.836 -0.2725 -0.0307 -0.1153
 9348SOL    HW129657   6.211   7.819   9.742  1.8164  1.7753 -0.5110
 9348SOL    HW229658   6.160   7.758   9.870 -1.7706  0.1101 -2.5685
 9349SOL     OW29659   3.535   0.048   8.729  0.0056  0.5427  0.2612
 9349SOL    HW129660   3.589   0.123   8.704  1.3448 -0.4848 -0.0240
 9349SOL    HW229661   3.586  -0.029   8.703 -0.9049 -0.4932  1.3802
 9350SOL     OW29662   6.300   8.134   6.922  0.2103 -0.0836 -0.2973
 9350SOL    HW129663   6.219   8.084   6.931  0.2375  0.2542  2.9653
 9350SOL    HW229664   6.272   8.226   6.922  0.5380  0.0213  0.3738
 9351SOL     OW29665   3.524   0.565   4.976  0.1454 -0.1602 -0.9832
 9351SOL    HW129666   3.550   0.625   4.905 -0.0149  1.0730 -0.0308
 9351SOL    HW229667   3.607   0.527   5.006  0.4090  0.5804 -0.7435
 9352SOL     OW29668   9.043   1.000   7.140 -0.3205 -0.4892 -0.4246
 9352SOL    HW129669   9.134   1.026   7.152 -1.0717  1.2200  2.7029
 9352SOL    HW229670   8.992   1.077   7.167 -2.6984 -2.0244 -0.1817
 9353SOL     OW29671   0.394   3.381   5.415 -0.2810  0.0651  0.1770
 9353SOL    HW129672   0.478   3.399   5.373 -0.9420  0.4442 -1.0270
 9353SOL    HW229673   0.395   3.434   5.495  0.3706  0.5669 -0.1533
 9354SOL     OW29674   2.158   2.363   4.048  0.9719 -0.1537 -0.1172
 9354SOL    HW129675   2.161   2.377   4.143  0.6130 -0.4839 -0.0546
 9354SOL    HW229676   2.108   2.282   4.037  0.3868  0.2576 -0.6140
 9355SOL     OW29677   1.409   3.121   2.522 -0.1768  0.2136 -0.3142
 9355SOL    HW129678   1.317   3.109   2.545 -1.3083  1.9136 -3.2705
 9355SOL    HW229679   1.429   3.046   2.466 -0.8541  1.3807 -2.2285
 9356SOL     OW29680   6.424   9.527   5.851 -0.2550  0.8389 -0.2887
 9356SOL    HW129681   6.404   9.606   5.801 -2.4012  0.9380  0.6092
 9356SOL    HW229682   6.394   9.455   5.794  0.2198  0.7593 -0.4417
 9357SOL     OW29683   6.640   8.131   0.334  0.5678 -0.2198  0.4672
 9357SOL    HW129684   6.688   8.049   0.321  1.2521 -0.0179  1.6171
 9357SOL    HW229685   6.708   8.197   0.342  0.0162  0.7190 -1.7087
 9358SOL     OW29686   7.178   7.238   0.670 -0.0227  0.1509  0.0051
 9358SOL    HW129687   7.268   7.208   0.664  0.6602  1.8354  1.0914
 9358SOL    HW229688   7.126   7.158   0.680  1.6154 -0.7525  2.0265
 9359SOL     OW29689   5.151   2.481   7.865  0.1178 -0.2276 -0.4978
 9359SOL    HW129690   5.099   2.415   7.820 -1.2245  0.9365 -0.7133
 9359SOL    HW229691   5.089   2.526   7.923  1.4592 -0.5954  1.3321
 9360SOL     OW29692   8.766   3.810   1.312 -0.1063  0.2727 -0.0892
 9360SOL    HW129693   8.730   3.853   1.235 -0.4181 -1.1526 -0.7731
 9360SOL    HW229694   8.703   3.827   1.381 -0.2758  0.8051 -0.3708
 9361SOL     OW29695   0.785   5.218   7.406 -0.4392  0.2580  0.2691
 9361SOL    HW129696   0.768   5.140   7.353  2.6288 -0.6762  0.4796
 9361SOL    HW229697   0.698   5.252   7.428 -1.8874 -2.8822 -0.1346
 9362SOL     OW29698   0.146   4.389   8.351  0.3572 -0.3402  0.0307
 9362SOL    HW129699   0.057   4.410   8.324  0.0401 -1.5621  0.0304
 9362SOL    HW229700   0.164   4.447   8.425 -0.4579 -0.1005  0.0468
 9363SOL     OW29701   5.369   6.598   5.472 -0.1848  0.4487 -0.0477
 9363SOL    HW129702   5.424   6.552   5.535 -0.3694  0.6541  0.2661
 9363SOL    HW229703   5.308   6.531   5.440  0.9877 -0.0756 -1.2825
 9364SOL     OW29704   1.133   5.901   5.347 -0.1551 -0.0314  0.3075
 9364SOL    HW129705   1.150   5.994   5.331 -0.2025 -0.3023 -1.6217
 9364SOL    HW229706   1.037   5.895   5.354 -0.1169  0.1320  1.0492
 9365SOL     OW29707   8.399   3.614   9.575  0.5924 -0.4168  0.2786
 9365SOL    HW129708   8.397   3.697   9.622  1.4401  0.9104 -1.8636
 9365SOL    HW229709   8.491   3.601   9.552  0.2028 -0.8517 -1.1775
 9366SOL     OW29710   4.175   0.517   8.381 -0.0881 -0.0354 -0.1896
 9366SOL    HW129711   4.189   0.495   8.473  1.6490  0.0499 -0.3881
 9366SOL    HW229712   4.252   0.480   8.336 -0.9366 -0.1449 -1.6172
 9367SOL     OW29713   6.492   2.453   7.467 -0.2272 -0.1086  0.0873
 9367SOL    HW129714   6.486   2.358   7.470 -0.1402 -0.0977  0.8397
 9367SOL    HW229715   6.458   2.482   7.552  0.3586  0.5019  0.1250
 9368SOL     OW29716   9.218   6.006   1.406 -0.2112 -0.0849 -0.2698
 9368SOL    HW129717   9.189   6.090   1.370 -2.6794 -0.3050  0.9968
 9368SOL    HW229718   9.236   6.025   1.498  3.0476 -0.1823 -0.7823
 9369SOL     OW29719   9.409   8.444   6.748  0.2279  0.2958  0.3455
 9369SOL    HW129720   9.478   8.496   6.788  0.4946 -0.2829  0.6365
 9369SOL    HW229721   9.454   8.367   6.713  0.0529  0.8891 -1.2862
 9370SOL     OW29722   4.828   0.090   1.481  0.1514  0.0426 -0.0020
 9370SOL    HW129723   4.825   0.018   1.418 -0.5157 -1.4506  1.6446
 9370SOL    HW229724   4.738   0.125   1.482 -0.4712 -1.4497  1.7043
 9371SOL     OW29725   8.586   4.799   4.931 -1.0688 -0.1014  0.0463
 9371SOL    HW129726   8.542   4.726   4.889 -2.3984  0.7694 -0.1547
 9371SOL    HW229727   8.542   4.877   4.897 -1.7884  0.6739  2.5102
 9372SOL     OW29728   3.027   1.165   8.272 -0.5674  0.4759 -0.5792
 9372SOL    HW129729   3.034   1.207   8.358 -0.4912  1.0545 -0.8642
 9372SOL    HW229730   3.116   1.161   8.239 -0.4342 -0.8473 -0.1281
 9373SOL     OW29731   4.505   7.308   3.068 -0.0391 -0.3184  0.6539
 9373SOL    HW129732   4.535   7.395   3.042 -1.5679 -0.1664 -0.6968
 9373SOL    HW229733   4.580   7.270   3.114  0.7444  1.5986  1.0570
 9374SOL     OW29734   4.130   3.707   4.667 -0.2076  0.1138 -0.0756
 9374SOL    HW129735   4.053   3.735   4.716 -0.3449  1.4929 -1.0016
 9374SOL    HW229736   4.194   3.777   4.683  0.5611 -0.5926 -0.0001
 9375SOL     OW29737   9.447   7.511   1.947  0.0381  0.2915 -0.6062
 9375SOL    HW129738   9.393   7.542   1.874 -0.8686 -0.7497 -0.4141
 9375SOL    HW229739   9.406   7.428   1.973  1.9083 -0.6796 -0.6206
 9376SOL     OW29740   7.201   4.999   5.653  0.2829 -0.0299  0.1997
 9376SOL    HW129741   7.142   5.067   5.620  1.2365  0.6548 -0.1203
 9376SOL    HW229742   7.284   5.015   5.607  0.0626 -2.4506 -1.2072
 9377SOL     OW29743   7.186   9.190   1.914 -0.1318  0.2069 -0.1466
 9377SOL    HW129744   7.119   9.243   1.871  0.6761  1.4047  0.0122
 9377SOL    HW229745   7.214   9.243   1.988 -0.4828 -1.2010  1.0313
 9378SOL     OW29746   0.785   7.306   2.913  0.1776 -0.7332  0.1617
 9378SOL    HW129747   0.862   7.332   2.964  2.2834 -1.1227 -2.5865
 9378SOL    HW229748   0.746   7.389   2.885  0.7908 -0.5220 -0.0785
 9379SOL     OW29749   5.079   6.438   1.706 -0.2834  0.5167  0.0759
 9379SOL    HW129750   5.009   6.386   1.667  0.5565 -0.5556 -0.0637
 9379SOL    HW229751   5.084   6.408   1.797 -0.6253  1.2676  0.3481
 9380SOL     OW29752   0.458   9.074   6.138 -0.1067 -0.0386  0.3692
 9380SOL    HW129753   0.365   9.075   6.157 -0.2800 -1.5677 -0.2254
 9380SOL    HW229754   0.477   8.983   6.115  1.7789 -0.0222  1.6531
 9381SOL     OW29755   7.996   0.433   8.194  0.2113  0.1584  0.3976
 9381SOL    HW129756   7.987   0.514   8.244  1.3401  1.2199 -0.9861
 9381SOL    HW229757   7.907   0.403   8.179 -0.1708 -0.6076  3.5310
 9382SOL     OW29758   6.975   6.799   1.620 -0.2394 -0.7504 -0.6614
 9382SOL    HW129759   7.010   6.888   1.610 -0.4465 -0.4285  1.0645
 9382SOL    HW229760   6.885   6.805   1.591 -0.3666 -0.2808 -0.1881
 9383SOL     OW29761   3.614   1.964   6.125 -0.3824  0.9205  0.2394
 9383SOL    HW129762   3.563   1.899   6.173  0.0017  0.8748  0.5919
 9383SOL    HW229763   3.569   1.971   6.041 -0.7950  0.6631  0.4295
 9384SOL     OW29764   9.262   0.719   8.658  0.0212  0.3134  0.0504
 9384SOL    HW129765   9.349   0.680   8.670  0.7919  1.7065 -0.7495
 9384SOL    HW229766   9.278   0.797   8.604 -1.3405  2.0880  2.0490
 9385SOL     OW29767   7.962   5.645   6.583  0.8121  0.3430  0.2660
 9385SOL    HW129768   7.935   5.713   6.645  0.5753  0.1010  0.4318
 9385SOL    HW229769   7.939   5.562   6.626 -0.0046  0.1915 -0.4386
 9386SOL     OW29770   9.293   1.169   8.499 -0.2311 -0.0793 -0.0533
 9386SOL    HW129771   9.297   1.140   8.589  0.9354 -2.0894 -0.7014
 9386SOL    HW229772   9.300   1.265   8.504  1.2424 -0.2337  1.8919
 9387SOL     OW29773   4.717   1.073   0.341 -0.1067 -0.5858  0.0986
 9387SOL    HW129774   4.785   1.085   0.275 -0.6814  0.2317 -0.3686
 9387SOL    HW229775   4.706   1.159   0.381 -1.0156 -0.6499  0.0115
 9388SOL     OW29776   0.994   5.902   7.417 -0.1222  0.4050 -0.5223
 9388SOL    HW129777   1.078   5.941   7.443  0.0850  1.2719 -2.3655
 9388SOL    HW229778   1.012   5.860   7.333 -1.1073 -1.0599 -0.0405
 9389SOL     OW29779   2.662   0.550   2.028  0.2240  0.0733  0.2784
 9389SOL    HW129780   2.604   0.494   2.080 -0.5810 -1.2617 -1.8911
 9389SOL    HW229781   2.741   0.497   2.015  0.2184  0.1837 -0.2335
 9390SOL     OW29782   8.973   3.380   1.634  0.0227 -0.4051  0.0817
 9390SOL    HW129783   8.968   3.327   1.554 -1.1452  0.0457 -0.1728
 9390SOL    HW229784   8.957   3.469   1.603  1.5367  0.0507  0.5617
 9391SOL     OW29785   1.887   3.311   3.613 -0.0135  0.1921 -0.2571
 9391SOL    HW129786   1.920   3.244   3.553  1.1829  0.6802 -0.1659
 9391SOL    HW229787   1.881   3.390   3.559  0.3666  0.4541  0.0822
 9392SOL     OW29788   0.602   4.607   0.986  0.4427  0.2287 -0.6302
 9392SOL    HW129789   0.536   4.674   0.968 -0.2672 -0.8306 -2.1680
 9392SOL    HW229790   0.561   4.550   1.052  1.1778  1.4417  0.9300
 9393SOL     OW29791   1.632   3.644   4.025  0.2790 -0.4512  0.3798
 9393SOL    HW129792   1.715   3.661   3.979  0.1983  0.0710  0.4216
 9393SOL    HW229793   1.657   3.635   4.117  0.1976  0.6052  0.5278
 9394SOL     OW29794   4.760   0.098   6.361  0.0432  0.7457  0.3718
 9394SOL    HW129795   4.843   0.142   6.382  1.4218 -1.0690 -0.9003
 9394SOL    HW229796   4.787   0.013   6.327 -2.3675  0.2227 -0.3840
 9395SOL     OW29797   9.544   6.285   2.706 -0.3035 -0.2134 -0.0735
 9395SOL    HW129798   9.638   6.269   2.696  0.1174  1.3274  1.0990
 9395SOL    HW229799   9.522   6.347   2.637 -0.1889  0.3725  0.4127
 9396SOL     OW29800   3.064   6.917   5.110  0.3434  0.0864  0.9391
 9396SOL    HW129801   3.075   6.831   5.151 -1.0335 -0.1213  0.9386
 9396SOL    HW229802   3.128   6.918   5.039  1.1791 -0.4612  1.6586
 9397SOL     OW29803   8.849   2.048   6.826  0.0645  1.0045  0.5420
 9397SOL    HW129804   8.782   2.042   6.759 -1.3229  0.0132  1.9517
 9397SOL    HW229805   8.883   1.959   6.835 -0.2885  0.9651  1.6346
 9398SOL     OW29806   8.719   6.617   9.585  0.4661  0.2540 -0.3744
 9398SOL    HW129807   8.777   6.604   9.661  1.2110  1.3215 -0.7493
 9398SOL    HW229808   8.650   6.551   9.597 -0.5106  1.6068  2.2576
 9399SOL     OW29809   8.860   6.397   6.041  0.2818  0.2237 -0.1331
 9399SOL    HW129810   8.868   6.453   6.118  1.2216  2.4687 -1.7306
 9399SOL    HW229811   8.941   6.410   5.993 -0.4851 -0.6597 -1.7737
 9400SOL     OW29812   8.072   7.141   8.812 -0.4062  0.7638  0.0253
 9400SOL    HW129813   8.066   7.113   8.721  0.3005 -1.7682  0.6670
 9400SOL    HW229814   8.066   7.060   8.863  0.5164  1.9374  2.1720
 9401SOL     OW29815   6.716   2.589   1.911 -0.0181 -0.1579 -0.1498
 9401SOL    HW129816   6.749   2.524   1.849 -0.7604  0.8104 -1.6163
 9401SOL    HW229817   6.621   2.575   1.913 -0.1522  0.6503 -0.2505
 9402SOL     OW29818   2.547   6.712   8.803  0.1906 -0.2042 -0.1052
 9402SOL    HW129819   2.615   6.675   8.859  2.4388  1.0463 -1.8554
 9402SOL    HW229820   2.543   6.653   8.728 -0.5664 -0.1611 -0.1108
 9403SOL     OW29821   8.931   0.753   5.954  0.1622  0.3492 -0.0853
 9403SOL    HW129822   8.933   0.847   5.936 -0.0223  0.3981  0.1566
 9403SOL    HW229823   9.021   0.731   5.978  0.1436  0.5155  0.1305
 9404SOL     OW29824   1.041   5.885   0.444  0.2481 -0.4856 -0.4444
 9404SOL    HW129825   1.113   5.836   0.404  1.0730 -0.2722  0.7226
 9404SOL    HW229826   0.994   5.924   0.370  3.1844  1.9791 -1.2289
 9405SOL     OW29827   1.499   9.511   6.723 -0.6056  0.1819  0.0673
 9405SOL    HW129828   1.501   9.592   6.671 -2.1728  1.1478  1.3942
 9405SOL    HW229829   1.591   9.489   6.736 -0.1387  1.6319 -0.5294
 9406SOL     OW29830   3.257   5.938   4.886 -0.7243 -0.1091  0.2177
 9406SOL    HW129831   3.249   6.022   4.841  1.7846  0.1350  0.1096
 9406SOL    HW229832   3.317   5.954   4.958  0.3852 -1.9290 -0.2166
 9407SOL     OW29833   7.412   9.798   9.673  0.6372 -0.1016 -0.8079
 9407SOL    HW129834   7.344   9.835   9.617  2.3993  1.7261 -1.8619
 9407SOL    HW229835   7.452   9.728   9.621  2.1021  1.4267 -1.8391
 9408SOL     OW29836   4.991   3.008   7.650  0.4102  0.5461 -0.5062
 9408SOL    HW129837   4.955   3.012   7.562 -1.0194  0.2243  0.0351
 9408SOL    HW229838   5.086   3.019   7.638  0.4934 -1.3788 -2.2668
 9409SOL     OW29839   8.893   2.026   1.156  0.1972 -0.2104 -0.0206
 9409SOL    HW129840   8.842   2.093   1.110  1.2874  0.6550 -0.0115
 9409SOL    HW229841   8.926   1.969   1.087  0.7114  0.2961 -0.1992
 9410SOL     OW29842   3.675   5.018   8.836 -0.3749 -0.0434  0.0872
 9410SOL    HW129843   3.765   5.019   8.867 -0.4792  0.7916  0.4017
 9410SOL    HW229844   3.668   5.094   8.779 -1.1450  0.5368  0.9088
 9411SOL     OW29845   3.553   8.677   2.919  0.4171  0.0105 -0.1164
 9411SOL    HW129846   3.545   8.754   2.976 -0.6220 -0.7837  0.8488
 9411SOL    HW229847   3.466   8.638   2.919  0.3701  0.0145 -2.3488
 9412SOL     OW29848   3.331   0.276   2.599 -0.1198 -0.3399  0.2851
 9412SOL    HW129849   3.368   0.214   2.536 -1.7276 -0.9223 -0.1336
 9412SOL    HW229850   3.259   0.229   2.640 -0.9776  1.0415  0.4279
 9413SOL     OW29851   5.286   2.154   6.137  0.0803  0.0966 -0.1910
 9413SOL    HW129852   5.256   2.226   6.082  1.2679 -0.4754 -1.6783
 9413SOL    HW229853   5.365   2.122   6.093  0.6774 -0.8622  1.4841
 9414SOL     OW29854   5.150   4.390   9.077  0.2319 -0.6993  0.1651
 9414SOL    HW129855   5.099   4.471   9.081  0.3246 -0.6738  1.0144
 9414SOL    HW229856   5.084   4.320   9.075  0.1179 -0.7103  2.2295
 9415SOL     OW29857   7.899   9.670   8.705  0.0387  1.0879  0.6655
 9415SOL    HW129858   7.869   9.672   8.614 -1.5897 -0.4564  1.1212
 9415SOL    HW229859   7.954   9.592   8.711  0.1517  1.1901  0.9957
 9416SOL     OW29860   4.409   9.102   6.267 -0.1664 -0.4764 -0.0678
 9416SOL    HW129861   4.458   9.055   6.335  0.0564  0.6045  0.5338
 9416SOL    HW229862   4.329   9.130   6.310 -0.4267 -0.5497 -0.5009
 9417SOL     OW29863   1.214   4.720   8.297  0.1539  0.3576  0.2206
 9417SOL    HW129864   1.244   4.630   8.298 -0.5709  0.0343  3.0935
 9417SOL    HW229865   1.118   4.713   8.296  0.0926  1.1144 -0.0301
 9418SOL     OW29866   3.730   3.371   6.115 -0.1032  0.6175  0.0171
 9418SOL    HW129867   3.672   3.402   6.045 -1.0585  1.0309  0.9545
 9418SOL    HW229868   3.747   3.450   6.168 -0.7864  0.0016  1.1991
 9419SOL     OW29869   0.498   3.758   4.299  0.2811 -0.1853  0.0789
 9419SOL    HW129870   0.451   3.675   4.292 -1.0053  0.5555 -0.5850
 9419SOL    HW229871   0.583   3.742   4.258 -0.6067 -0.7227 -1.6478
 9420SOL     OW29872   4.818   3.290   3.280  0.6748 -0.5458 -0.7326
 9420SOL    HW129873   4.754   3.231   3.240 -1.2478  1.7583 -1.2872
 9420SOL    HW229874   4.889   3.296   3.217 -1.6109  1.8483 -3.3908
 9421SOL     OW29875   4.023   5.879   7.985 -0.3650 -0.0479  0.0779
 9421SOL    HW129876   4.029   5.884   7.890 -1.4955  3.4459  0.0405
 9421SOL    HW229877   3.973   5.800   8.003 -2.6983  0.7177 -2.4672
 9422SOL     OW29878   9.524   6.659   6.770 -0.1710  0.2376 -0.3540
 9422SOL    HW129879   9.588   6.593   6.746  1.1677  1.2370  0.3066
 9422SOL    HW229880   9.457   6.654   6.702 -0.0892 -1.7436 -0.3202
 9423SOL     OW29881   0.411   7.083   3.770 -0.0869  0.0008  0.4675
 9423SOL    HW129882   0.390   7.001   3.726 -1.0299  0.4995 -0.0495
 9423SOL    HW229883   0.331   7.105   3.818 -0.3226  1.2552 -0.4434
 9424SOL     OW29884   6.687   1.442   3.525 -0.0241  0.3638 -0.5313
 9424SOL    HW129885   6.777   1.472   3.521  0.0412  0.1630 -0.5729
 9424SOL    HW229886   6.652   1.481   3.605  0.7446 -1.3259  0.6905
 9425SOL     OW29887   7.528   2.264   4.125  0.6035  0.0323 -0.1435
 9425SOL    HW129888   7.455   2.288   4.068  0.0258 -1.7410 -0.1953
 9425SOL    HW229889   7.546   2.344   4.175 -0.6467  0.8212 -0.8911
 9426SOL     OW29890   2.241   5.833   5.918  0.2656  0.0921 -0.1021
 9426SOL    HW129891   2.239   5.738   5.917  1.1659 -0.0153  2.1767
 9426SOL    HW229892   2.317   5.855   5.971 -0.6075  2.0695  0.4180
 9427SOL     OW29893   8.663   0.878   2.321  0.3810 -0.6039 -0.0624
 9427SOL    HW129894   8.743   0.852   2.275  1.4121  1.1154  0.6428
 9427SOL    HW229895   8.651   0.970   2.296 -1.6803 -0.9482 -0.5340
 9428SOL     OW29896   6.745   6.970   7.801  0.4376  0.1520 -0.1081
 9428SOL    HW129897   6.667   6.920   7.825 -0.4236  0.1764 -2.5202
 9428SOL    HW229898   6.723   7.061   7.822  0.2896  0.0145  0.3284
 9429SOL     OW29899   9.839   6.407   2.921  0.4318  0.1601  0.6640
 9429SOL    HW129900   9.814   6.429   2.831  1.5375 -2.6180 -0.4148
 9429SOL    HW229901   9.932   6.387   2.916 -0.2032 -3.9703  1.4458
 9430SOL     OW29902   6.000   7.530   9.198 -0.4327  0.6595  0.1962
 9430SOL    HW129903   5.974   7.606   9.145  0.4658  0.7259 -0.1658
 9430SOL    HW229904   6.023   7.463   9.134  0.7565  0.7696  0.4803
 9431SOL     OW29905   0.647   6.809   6.394 -0.5961 -0.2438  0.3873
 9431SOL    HW129906   0.610   6.762   6.469  1.9921  0.8715  2.5596
 9431SOL    HW229907   0.584   6.879   6.376 -1.7650 -1.1566  0.8013
 9432SOL     OW29908   7.800   2.301   1.886 -0.4099  0.1334  0.2993
 9432SOL    HW129909   7.782   2.341   1.801  3.1029  1.4772  0.0512
 9432SOL    HW229910   7.790   2.372   1.949  0.8717  0.1521  0.4961
 9433SOL     OW29911   2.376   7.940   5.693  0.0070 -0.6600  0.2519
 9433SOL    HW129912   2.380   7.923   5.599  0.3436  0.5499  0.0255
 9433SOL    HW229913   2.464   7.922   5.725  1.1182  2.7822 -0.4308
 9434SOL     OW29914   7.249   9.481   6.292 -0.2016 -0.1802  0.2701
 9434SOL    HW129915   7.280   9.438   6.372  1.4846 -1.2205 -0.8832
 9434SOL    HW229916   7.234   9.571   6.319  1.0392 -0.3258  1.6347
 9435SOL     OW29917   0.046   7.289   7.358  0.3081 -0.0596  0.4642
 9435SOL    HW129918  -0.022   7.227   7.384  0.1876  1.2301  3.6095
 9435SOL    HW229919   0.119   7.271   7.418  0.1982  2.8815  1.6420
 9436SOL     OW29920   6.168   9.629   6.061  0.5318 -0.4758 -0.4962
 9436SOL    HW129921   6.197   9.538   6.060  1.8390 -0.0854  0.1380
 9436SOL    HW229922   6.136   9.644   6.150  0.2051 -0.3476 -0.6333
 9437SOL     OW29923   5.027   2.012   9.712 -0.6898 -0.2913  0.3210
 9437SOL    HW129924   4.936   2.001   9.739 -0.2234 -1.0156  1.7250
 9437SOL    HW229925   5.028   2.092   9.661 -1.9881  0.1219  0.9007
 9438SOL     OW29926   9.680   8.439   6.114  0.1222  0.1993 -0.1097
 9438SOL    HW129927   9.617   8.398   6.054  0.3423  0.8428 -0.8019
 9438SOL    HW229928   9.629   8.458   6.193 -0.1903 -0.6085 -0.1107
 9439SOL     OW29929   6.696   3.642   0.322  0.7210  0.0364 -0.2210
 9439SOL    HW129930   6.768   3.705   0.314  1.1407 -0.5757 -1.4496
 9439SOL    HW229931   6.703   3.609   0.411  2.2478 -0.3350 -0.4539
 9440SOL     OW29932   7.111   8.367   2.314  0.1329 -0.2445 -0.1580
 9440SOL    HW129933   7.022   8.333   2.311  0.2851 -0.6339 -0.2656
 9440SOL    HW229934   7.100   8.461   2.327 -0.2883 -0.3265  0.0994
 9441SOL     OW29935   6.912   4.261   7.468  0.0124  0.6267  0.4998
 9441SOL    HW129936   6.894   4.354   7.484 -0.7466  0.6867 -0.6323
 9441SOL    HW229937   6.990   4.261   7.413 -1.1623  0.7012 -1.2197
 9442SOL     OW29938   6.925   9.067   1.422  0.6183  0.3505 -0.3372
 9442SOL    HW129939   6.915   9.148   1.371 -0.3734  0.4959  0.0715
 9442SOL    HW229940   6.910   9.095   1.512  0.1992 -0.3055 -0.2028
 9443SOL     OW29941   5.594   4.929   9.537 -0.1413 -0.1369  0.0580
 9443SOL    HW129942   5.628   4.861   9.480 -0.5243  0.1901 -0.5770
 9443SOL    HW229943   5.581   4.886   9.621 -0.9240 -1.0117 -0.4793
 9444SOL     OW29944   9.354   1.859   0.189 -0.1289  0.0094 -0.3951
 9444SOL    HW129945   9.375   1.799   0.261 -4.7628 -1.6887 -0.1360
 9444SOL    HW229946   9.343   1.944   0.231  2.2491  0.2460 -0.0844
 9445SOL     OW29947   1.283   2.518   6.671 -0.8034 -0.4330  0.3110
 9445SOL    HW129948   1.368   2.507   6.714 -1.5523  1.2436  2.3863
 9445SOL    HW229949   1.249   2.429   6.662  0.7591 -1.0519  0.2502
 9446SOL     OW29950   6.344   1.322   5.637 -0.0093 -0.7455 -0.5891
 9446SOL    HW129951   6.374   1.368   5.558  0.6060  1.2499  0.7334
 9446SOL    HW229952   6.250   1.337   5.639  0.1530  0.3638 -0.2833
 9447SOL     OW29953   6.223   7.622   2.155 -0.1655  0.1040  0.0505
 9447SOL    HW129954   6.234   7.609   2.061 -0.3917  2.5970 -0.4032
 9447SOL    HW229955   6.307   7.660   2.184  0.5251 -2.1365  1.2464
 9448SOL     OW29956   4.419   8.087   9.196 -0.2397 -0.0287 -0.0334
 9448SOL    HW129957   4.430   8.162   9.138  0.4960 -0.9645 -1.1475
 9448SOL    HW229958   4.508   8.055   9.210 -0.4548 -0.1234  1.2332
 9449SOL     OW29959   3.881   4.507   9.654 -0.2300 -0.2390 -0.1142
 9449SOL    HW129960   3.803   4.561   9.642  0.5113  0.6110 -1.5086
 9449SOL    HW229961   3.918   4.537   9.737 -1.5245 -0.8738  0.7191
 9450SOL     OW29962   1.744   0.966   9.072 -0.0658  0.6741  0.5494
 9450SOL    HW129963   1.731   0.899   9.139  0.0689  0.3138  0.2197
 9450SOL    HW229964   1.778   1.041   9.120  1.1140  0.0446  0.7456
 9451SOL     OW29965   3.798   9.415   3.219 -0.2529 -0.0276  0.5481
 9451SOL    HW129966   3.813   9.413   3.125  1.8565 -0.2325  0.8497
 9451SOL    HW229967   3.705   9.391   3.229 -0.9457  1.4950 -1.5275
 9452SOL     OW29968   9.708   2.085   6.342  0.3518  0.0782  0.5757
 9452SOL    HW129969   9.743   2.163   6.300 -0.8273  0.3371  0.0378
 9452SOL    HW229970   9.681   2.114   6.429 -0.7509  0.4582  0.1216
 9453SOL     OW29971   7.488   3.158   4.904  0.0763  0.4897 -0.2112
 9453SOL    HW129972   7.573   3.115   4.887 -0.1837  0.4551 -1.5646
 9453SOL    HW229973   7.425   3.086   4.905  0.1955  0.3403  2.2320
 9454SOL     OW29974   9.244   3.448   0.673 -0.7181 -0.0883  0.1025
 9454SOL    HW129975   9.173   3.508   0.649  0.2418  0.5634 -1.2758
 9454SOL    HW229976   9.205   3.361   0.667 -2.2271  0.3382  2.4561
 9455SOL     OW29977   0.641   2.023   6.407 -0.2985 -0.3289  0.5315
 9455SOL    HW129978   0.611   1.952   6.464  2.0409  0.0112  2.3607
 9455SOL    HW229979   0.619   2.103   6.455  3.4934 -0.0641  2.1974
 9456SOL     OW29980   2.711   5.707   8.081  0.4973  1.0409  0.1058
 9456SOL    HW129981   2.666   5.709   8.166  1.0011  1.3353  0.3751
 9456SOL    HW229982   2.741   5.617   8.072  0.3600  0.9861  0.2039
 9457SOL     OW29983   2.072   4.432   5.375 -0.1440  0.3715  0.1089
 9457SOL    HW129984   2.093   4.367   5.442  1.0366  0.3909 -0.2087
 9457SOL    HW229985   2.157   4.466   5.348 -0.6306  0.7141 -1.0578
 9458SOL     OW29986   6.648   2.679   7.451  0.3923  0.6697  0.0648
 9458SOL    HW129987   6.605   2.595   7.466 -1.5905  1.5719 -0.2282
 9458SOL    HW229988   6.576   2.741   7.440  1.7347  1.9202 -2.6273
 9459SOL     OW29989   2.355   5.548   3.359 -0.0419 -0.1219 -0.5433
 9459SOL    HW129990   2.272   5.519   3.396 -1.0615 -0.4478 -2.9711
 9459SOL    HW229991   2.421   5.503   3.412 -1.3094  0.7104  1.9216
 9460SOL     OW29992   9.553   0.239   8.172 -0.3328  0.1068  0.6815
 9460SOL    HW129993   9.462   0.227   8.144 -0.2610 -2.4934  1.3276
 9460SOL    HW229994   9.551   0.229   8.267  0.8266 -2.0252  0.5496
 9461SOL     OW29995   8.112   1.801   6.376  0.5683 -0.0588 -0.5810
 9461SOL    HW129996   8.103   1.866   6.446  0.6689  2.0173 -2.4086
 9461SOL    HW229997   8.135   1.720   6.422  0.0380  1.0551  1.8242
 9462SOL     OW29998   1.494   9.738   8.291  0.9185  0.3051 -0.2018
 9462SOL    HW129999   1.516   9.825   8.325  0.3368  0.3351  0.1188
 9462SOL    HW230000   1.578   9.699   8.268  1.5057 -0.2017  2.4661
 9463SOL     OW30001   3.894   7.215   2.411 -0.6833 -0.2689 -0.2110
 9463SOL    HW130002   3.948   7.292   2.396 -1.2601  0.4414  1.0945
 9463SOL    HW230003   3.955   7.148   2.441 -0.5542  0.8161  2.2330
 9464SOL     OW30004   3.723   5.049   5.565  0.5467  0.0264 -0.3591
 9464SOL    HW130005   3.801   5.061   5.619  1.2742 -1.0885 -1.1175
 9464SOL    HW230006   3.650   5.056   5.627  1.1071  2.6269  0.1302
 9465SOL     OW30007   3.807   5.097   3.222  0.5114 -0.4052 -0.0258
 9465SOL    HW130008   3.860   5.078   3.300 -1.2682 -0.1449  1.3096
 9465SOL    HW230009   3.784   5.190   3.231 -1.3041 -0.8371  0.2054
 9466SOL     OW30010   4.621   9.689   7.677  0.5507  0.0075 -0.3897
 9466SOL    HW130011   4.646   9.780   7.662  1.2976 -0.3295 -1.3074
 9466SOL    HW230012   4.691   9.638   7.636  0.6098 -0.9914  0.8797
 9467SOL     OW30013   5.768   9.035   9.391 -0.3310 -0.1523 -0.0638
 9467SOL    HW130014   5.752   8.969   9.458  0.8156 -0.1109  0.2831
 9467SOL    HW230015   5.854   9.012   9.355 -0.6946  0.1485 -1.1415
 9468SOL     OW30016   6.016   6.547   0.358 -0.3019  0.2056  0.4515
 9468SOL    HW130017   5.933   6.565   0.315  1.1665  1.5901 -2.0355
 9468SOL    HW230018   6.040   6.629   0.401  0.2526  0.1244  0.3099
 9469SOL     OW30019   5.246   5.720   6.197 -0.1266 -0.2550 -0.3829
 9469SOL    HW130020   5.286   5.804   6.178  0.6340 -0.4019  0.4719
 9469SOL    HW230021   5.175   5.740   6.259  0.8553 -0.3569  0.8102
 9470SOL     OW30022   6.918   7.025   4.299 -0.3516 -0.1168 -0.2504
 9470SOL    HW130023   6.905   7.033   4.394  0.4233 -2.1960  0.0790
 9470SOL    HW230024   7.013   7.034   4.288 -0.4324  0.0352 -0.8351
 9471SOL     OW30025   3.989   0.740   4.184 -0.2425 -0.2493 -0.0623
 9471SOL    HW130026   4.000   0.731   4.278 -0.8929  0.3002  0.0790
 9471SOL    HW230027   3.909   0.792   4.174 -0.2663 -0.4265 -0.9180
 9472SOL     OW30028   5.324   0.509   8.794  0.1588 -0.7292  0.0239
 9472SOL    HW130029   5.298   0.543   8.708 -2.2929 -1.9540  0.1948
 9472SOL    HW230030   5.294   0.418   8.794 -0.9112 -0.4524  2.5473
 9473SOL     OW30031   6.513   2.136   9.816  0.0839 -0.5851  0.4057
 9473SOL    HW130032   6.489   2.191   9.741  0.1068  0.8506  1.4000
 9473SOL    HW230033   6.607   2.120   9.804  0.6025  1.4521  1.1611
 9474SOL     OW30034   0.898   6.766   7.562  0.1936 -0.2766  0.0237
 9474SOL    HW130035   0.850   6.685   7.542  1.7918 -1.5664  1.1002
 9474SOL    HW230036   0.841   6.836   7.530 -2.6324 -1.6503  1.5439
 9475SOL     OW30037   9.644   6.664   2.090  0.1230  0.2055 -0.0604
 9475SOL    HW130038   9.708   6.710   2.144  0.1599 -0.7218  0.6947
 9475SOL    HW230039   9.637   6.718   2.012  1.6800  0.4371 -0.0805
 9476SOL     OW30040   2.660   2.702   3.701 -0.0070 -0.3428 -0.1153
 9476SOL    HW130041   2.584   2.647   3.718 -0.8163  0.7489 -0.0947
 9476SOL    HW230042   2.731   2.640   3.684 -0.6461 -1.3901  0.9026
 9477SOL     OW30043   8.724   0.414   1.828 -0.3139  0.1611  0.5620
 9477SOL    HW130044   8.632   0.425   1.805 -0.3504 -2.6409 -1.1660
 9477SOL    HW230045   8.771   0.469   1.765 -0.7499  0.5333  0.5525
 9478SOL     OW30046   9.000   0.433   1.331 -0.0737  0.0360  0.2529
 9478SOL    HW130047   8.947   0.495   1.280 -0.4059  0.5021  1.1349
 9478SOL    HW230048   8.944   0.357   1.344 -0.0935  0.0364  0.1668
 9479SOL     OW30049   2.667   1.863   8.018  0.0799 -0.0158 -0.1176
 9479SOL    HW130050   2.600   1.911   8.066  0.9052  0.0818  0.9966
 9479SOL    HW230051   2.701   1.925   7.954 -1.7410 -0.4638 -1.5688
 9480SOL     OW30052   5.667   3.586   1.027  0.4208 -0.3326  0.1126
 9480SOL    HW130053   5.755   3.616   1.052  0.8360 -1.4480  0.0530
 9480SOL    HW230054   5.607   3.642   1.076  1.1247  1.5963 -1.1304
 9481SOL     OW30055   2.601   8.213   0.080  0.2585 -0.2896  0.1167
 9481SOL    HW130056   2.521   8.210   0.027  0.9659  0.5600 -1.0381
 9481SOL    HW230057   2.672   8.212   0.016  1.1544  0.0804  1.0851
 9482SOL     OW30058   4.356   1.456   0.769 -0.1345 -0.0409 -0.6012
 9482SOL    HW130059   4.272   1.497   0.747 -0.8600 -1.1091  0.0742
 9482SOL    HW230060   4.378   1.490   0.855 -0.7467 -1.0195 -0.0311
 9483SOL     OW30061   7.016   0.039   9.256  0.5457 -0.3381  0.1824
 9483SOL    HW130062   6.932   0.023   9.299  1.1071 -0.2129  1.3597
 9483SOL    HW230063   7.081  -0.002   9.313  1.2361 -1.1243 -1.1080
 9484SOL     OW30064   8.109   3.979   5.480 -0.0686 -0.8895 -0.1536
 9484SOL    HW130065   8.079   4.070   5.483  0.1803 -0.7901 -0.5297
 9484SOL    HW230066   8.057   3.939   5.410  0.4506 -0.7945 -0.6022
 9485SOL     OW30067   2.073   8.057   2.620  0.2984 -0.3308 -0.3538
 9485SOL    HW130068   2.103   8.148   2.618  0.9988 -0.5390  0.1939
 9485SOL    HW230069   2.078   8.028   2.529  0.2183  0.1292 -0.5072
 9486SOL     OW30070   8.760   9.403   0.604  0.0332  0.3720  0.1952
 9486SOL    HW130071   8.733   9.431   0.691 -2.2024  1.0046 -0.6179
 9486SOL    HW230072   8.728   9.472   0.546  0.0852 -0.7820 -1.2633
 9487SOL     OW30073   6.404   5.329   4.411 -0.4821 -0.2742  0.6974
 9487SOL    HW130074   6.347   5.255   4.392  0.1583 -0.3423 -1.1492
 9487SOL    HW230075   6.448   5.305   4.492 -1.1311 -1.3954  0.7390
 9488SOL     OW30076   7.549   7.035   2.695 -0.0772 -0.0543 -0.0073
 9488SOL    HW130077   7.462   6.996   2.699  0.7211 -1.9524 -0.1899
 9488SOL    HW230078   7.608   6.964   2.718  1.5637  0.6390 -1.8106
 9489SOL     OW30079   0.961   2.165   7.283  0.6094 -0.6439 -0.2471
 9489SOL    HW130080   0.881   2.144   7.235 -1.1294  1.1039  1.6772
 9489SOL    HW230081   0.986   2.083   7.324 -0.7251 -1.0387 -0.1662
 9490SOL     OW30082   8.206   4.790   3.562  0.0809 -0.1760  0.2739
 9490SOL    HW130083   8.254   4.841   3.497  0.4278 -0.1010  0.5839
 9490SOL    HW230084   8.120   4.776   3.523  0.8379 -1.6248 -0.9511
 9491SOL     OW30085   0.775   5.261   7.851 -0.6830  0.1277 -0.5136
 9491SOL    HW130086   0.831   5.251   7.927 -1.9766 -1.4196  0.2901
 9491SOL    HW230087   0.788   5.351   7.823 -1.0466  1.1217  2.2499
 9492SOL     OW30088   0.952   8.018   5.640  0.4864 -0.3557 -0.7842
 9492SOL    HW130089   0.864   8.045   5.665  0.1861 -0.5040 -1.6410
 9492SOL    HW230090   0.941   7.932   5.600  1.3428 -1.5252  1.3127
 9493SOL     OW30091   7.025   2.203   6.605 -0.0151 -0.4362  0.1042
 9493SOL    HW130092   7.028   2.288   6.651 -1.8680  0.3296 -1.0839
 9493SOL    HW230093   7.003   2.140   6.673  2.3171 -0.1715  1.1967
 9494SOL     OW30094   8.979   1.782   4.100 -0.1652  0.0298 -0.3157
 9494SOL    HW130095   9.054   1.835   4.074  1.2738 -2.3243 -1.2816
 9494SOL    HW230096   8.999   1.752   4.188 -0.6239  0.4586 -0.0588
 9495SOL     OW30097   6.733   3.417   3.331  0.1752 -0.6113  0.3050
 9495SOL    HW130098   6.642   3.409   3.358  0.3451 -2.5361  0.4809
 9495SOL    HW230099   6.769   3.488   3.385 -1.2192  0.2404  0.1482
 9496SOL     OW30100   1.406   2.001   7.965  0.3696  0.4641 -0.2362
 9496SOL    HW130101   1.375   2.071   7.908  0.4781  0.9460  0.2877
 9496SOL    HW230102   1.334   1.939   7.968  0.3559  0.4419 -0.8830
 9497SOL     OW30103   8.013   8.066   2.485 -0.2415  0.6942  0.1144
 9497SOL    HW130104   8.074   7.997   2.511  0.2623 -0.0278 -2.6345
 9497SOL    HW230105   8.035   8.140   2.542  1.6739 -0.2659  0.7175
 9498SOL     OW30106   0.159   0.638   7.495 -0.3778 -0.2150  0.1601
 9498SOL    HW130107   0.136   0.708   7.434  0.6944  1.2848  1.3988
 9498SOL    HW230108   0.243   0.604   7.463  0.0365  0.3703  0.5981
 9499SOL     OW30109   7.811   0.452   8.604  0.2970  0.1246 -0.4032
 9499SOL    HW130110   7.801   0.506   8.682  0.4657 -0.5127  0.0741
 9499SOL    HW230111   7.867   0.379   8.633  1.5967  0.6518 -1.5036
 9500SOL     OW30112   1.068   6.228   0.907 -0.3319 -0.0146 -0.3892
 9500SOL    HW130113   1.115   6.308   0.928 -0.0317  0.1409 -1.6050
 9500SOL    HW230114   1.001   6.255   0.844 -0.7723 -0.5765 -0.1748
 9501SOL     OW30115   6.913   7.484   8.837 -0.0882 -0.1668 -0.4013
 9501SOL    HW130116   6.868   7.426   8.776  2.0819 -0.9068 -1.3836
 9501SOL    HW230117   6.965   7.425   8.892 -0.1182  0.6770  0.5687
 9502SOL     OW30118   7.226   7.299   9.449  0.4829  0.0054 -0.1622
 9502SOL    HW130119   7.185   7.226   9.496  1.4289  0.4217  1.4141
 9502SOL    HW230120   7.314   7.306   9.488  0.5168  1.7905 -0.4512
 9503SOL     OW30121   6.561   7.395   8.532  0.3545 -0.0953 -0.6250
 9503SOL    HW130122   6.562   7.428   8.442  3.1134 -1.8893 -1.3757
 9503SOL    HW230123   6.484   7.338   8.536  0.3963 -0.2766 -1.9874
 9504SOL     OW30124   1.657   6.468   1.603  0.4089  0.3611 -0.5308
 9504SOL    HW130125   1.605   6.474   1.683  1.7692  2.7237  0.2566
 9504SOL    HW230126   1.737   6.422   1.631 -0.0263 -0.7903 -1.1001
 9505SOL     OW30127   0.100   5.027   3.993  0.3296  0.3887 -0.4497
 9505SOL    HW130128   0.012   5.023   3.956  0.4816  2.0348 -1.0761
 9505SOL    HW230129   0.110   4.945   4.042 -1.4446  0.0643 -0.5853
 9506SOL     OW30130   3.051   1.462   1.995 -0.2651  0.3450 -0.0331
 9506SOL    HW130131   3.096   1.437   1.915  0.4910 -1.1701  0.8237
 9506SOL    HW230132   2.964   1.423   1.988 -0.6219  1.2070 -0.6064
 9507SOL     OW30133   4.914   4.448   3.529  0.4901  0.0838  0.3264
 9507SOL    HW130134   4.843   4.512   3.532  0.1922 -0.2601  3.1630
 9507SOL    HW230135   4.908   4.401   3.612  2.0580 -2.1751 -0.7149
 9508SOL     OW30136   6.439   3.750   5.309 -0.2023  0.4179 -0.1228
 9508SOL    HW130137   6.530   3.735   5.283  0.5458  1.3250  1.7909
 9508SOL    HW230138   6.435   3.718   5.400 -0.9892  2.9554  0.8082
 9509SOL     OW30139   7.781   8.433   8.405 -0.4394 -0.4851 -0.2846
 9509SOL    HW130140   7.791   8.378   8.482 -0.8226 -0.7810 -0.4414
 9509SOL    HW230141   7.691   8.418   8.376  0.5428 -2.7452 -2.5676
 9510SOL     OW30142   9.428   1.365   7.117 -0.1227 -0.4587  0.7500
 9510SOL    HW130143   9.460   1.286   7.074  0.7534  0.0037  0.5267
 9510SOL    HW230144   9.457   1.437   7.060  0.6802  0.1370  1.8597
 9511SOL     OW30145   9.366   7.346   4.567  0.2512 -0.1793  0.4023
 9511SOL    HW130146   9.287   7.390   4.535 -0.5662 -0.8831  1.3877
 9511SOL    HW230147   9.432   7.363   4.499 -0.5008  1.1101 -0.0547
 9512SOL     OW30148   2.445   3.002   4.567  0.1541 -0.4409  0.1205
 9512SOL    HW130149   2.364   3.050   4.586  0.6313 -0.0787  1.3570
 9512SOL    HW230150   2.418   2.910   4.562 -0.4700 -0.2351 -0.3722
 9513SOL     OW30151   4.633   7.793   3.680  0.3516 -0.5758 -0.6321
 9513SOL    HW130152   4.587   7.867   3.720  3.1728  0.7857  0.4110
 9513SOL    HW230153   4.673   7.746   3.753  1.1728 -1.2705 -1.4917
 9514SOL     OW30154   6.575   0.423   6.776 -0.1796 -0.3309  0.3673
 9514SOL    HW130155   6.574   0.488   6.847  0.2007 -0.2901  0.3392
 9514SOL    HW230156   6.661   0.381   6.784  0.0451 -0.0263 -0.3442
 9515SOL     OW30157   7.020   4.225   5.000 -0.2978  0.3490 -0.2493
 9515SOL    HW130158   6.972   4.308   4.994 -0.8025  0.1473  0.8010
 9515SOL    HW230159   7.060   4.227   5.087  0.8099  0.0748 -0.7227
 9516SOL     OW30160   7.126   8.961   9.643  0.7536  0.2513 -0.1880
 9516SOL    HW130161   7.104   8.870   9.622  1.4696 -0.1266  0.6273
 9516SOL    HW230162   7.046   9.010   9.624  0.0964 -0.6702  0.1381
 9517SOL     OW30163   0.800   7.169   4.268 -0.2929  0.3500  0.2472
 9517SOL    HW130164   0.815   7.202   4.356  1.2079  1.3310 -0.3288
 9517SOL    HW230165   0.744   7.235   4.227 -0.0151  0.5004  0.1076
 9518SOL     OW30166   1.122   3.540   8.888 -0.5148  0.0531  0.3245
 9518SOL    HW130167   1.200   3.508   8.843  0.8537  1.8152  1.3223
 9518SOL    HW230168   1.065   3.464   8.894  1.4483 -1.4918  0.2612
 9519SOL     OW30169   5.982   8.610   0.045 -0.6592  0.3805 -0.3276
 9519SOL    HW130170   6.059   8.574   0.001 -1.4324 -0.8647 -0.7269
 9519SOL    HW230171   5.964   8.692  -0.000  0.3190  0.5928 -0.3445
 9520SOL     OW30172   7.218   0.963   7.386  0.1660  0.0120 -0.1602
 9520SOL    HW130173   7.309   0.953   7.414 -0.1116 -0.5795  0.5872
 9520SOL    HW230174   7.216   0.926   7.298  0.4287 -1.0531  0.2543
 9521SOL     OW30175   8.931   0.323   6.597  0.2606 -0.3152 -0.6562
 9521SOL    HW130176   9.021   0.350   6.578  0.0010  0.4772 -0.8151
 9521SOL    HW230177   8.877   0.387   6.551 -0.3879 -0.8950 -0.7145
 9522SOL     OW30178   4.682   0.009   3.322 -0.1278 -0.0585  0.1393
 9522SOL    HW130179   4.741  -0.064   3.304  1.9731  1.7004 -0.6739
 9522SOL    HW230180   4.620  -0.025   3.387  1.8553 -2.0305  1.1538
 9523SOL     OW30181   2.868   1.691   2.990  0.0572 -0.4773 -0.2667
 9523SOL    HW130182   2.855   1.608   2.945 -1.8350  0.3645 -1.4483
 9523SOL    HW230183   2.962   1.697   3.005  0.4108 -2.1215 -1.5653
 9524SOL     OW30184   1.974   8.803   5.164  0.1934 -0.0370  0.1609
 9524SOL    HW130185   2.047   8.741   5.159  0.2244 -0.2717  2.4942
 9524SOL    HW230186   1.981   8.841   5.251 -3.2158 -1.0047  0.9854
 9525SOL     OW30187   1.900   4.173   7.550  0.5598 -0.3075 -0.2639
 9525SOL    HW130188   1.979   4.218   7.521  1.5342 -0.1885  2.2981
 9525SOL    HW230189   1.906   4.172   7.646 -3.6524  1.7162  0.2581
 9526SOL     OW30190   3.369   9.094   1.307  0.6176  0.5307  0.5023
 9526SOL    HW130191   3.305   9.023   1.311  1.3522 -0.1699  0.0345
 9526SOL    HW230192   3.373   9.128   1.396  0.5347 -0.2642  0.8166
 9527SOL     OW30193   4.576   3.670   3.719  0.0154  0.5659  0.1914
 9527SOL    HW130194   4.654   3.726   3.719  0.5048 -0.0336 -1.8492
 9527SOL    HW230195   4.610   3.581   3.731 -0.4002  0.3506 -0.2044
 9528SOL     OW30196   0.419   8.003   7.226 -0.2684 -0.0508 -0.0414
 9528SOL    HW130197   0.421   8.063   7.152  0.2207  1.0720  0.8611
 9528SOL    HW230198   0.510   7.977   7.240 -0.4454 -0.8374 -0.2751
 9529SOL     OW30199   8.329   1.747   8.687 -0.8447  0.6714 -0.3470
 9529SOL    HW130200   8.369   1.762   8.772 -0.1691  1.2719 -0.7568
 9529SOL    HW230201   8.304   1.834   8.655 -4.3286  0.2126  0.7095
 9530SOL     OW30202   1.835   5.262   7.030  0.8993  0.1018 -0.0244
 9530SOL    HW130203   1.920   5.277   7.071  0.9839 -0.6391  0.0897
 9530SOL    HW230204   1.783   5.338   7.054  1.2675  0.1658  0.6055
 9531SOL     OW30205   2.129   8.869   3.350  0.1123  0.1510  0.4378
 9531SOL    HW130206   2.146   8.775   3.347  1.4162  0.3889 -0.6072
 9531SOL    HW230207   2.034   8.876   3.344 -0.0237 -1.0969  0.7756
 9532SOL     OW30208   3.137   9.569   7.086 -0.0001 -0.7656 -0.2694
 9532SOL    HW130209   3.195   9.534   7.019  0.0832 -1.0122 -0.0702
 9532SOL    HW230210   3.128   9.498   7.150  0.0538 -0.4759  0.0656
 9533SOL     OW30211   7.607   9.465   8.166 -0.0718  0.3073 -0.9200
 9533SOL    HW130212   7.639   9.387   8.212 -0.2720 -0.3909 -1.9356
 9533SOL    HW230213   7.683   9.523   8.162 -0.4322  1.1062  1.6848
 9534SOL     OW30214   7.516   6.635   3.439 -0.6494 -0.2057 -0.0297
 9534SOL    HW130215   7.583   6.595   3.384  0.0428  0.7579  0.0916
 9534SOL    HW230216   7.437   6.635   3.385 -0.2068 -0.0965 -0.6882
 9535SOL     OW30217   1.868   8.881   0.547  0.2117  0.0840 -0.4867
 9535SOL    HW130218   1.939   8.854   0.489  0.6006 -0.8386  0.3718
 9535SOL    HW230219   1.849   8.802   0.598 -1.0272  0.4942 -0.2914
 9536SOL     OW30220   1.042   5.315   6.232 -0.1528 -0.2085  0.4673
 9536SOL    HW130221   1.050   5.348   6.321  0.3652  0.2561  0.2519
 9536SOL    HW230222   0.949   5.294   6.223  0.2353 -3.1627  2.1167
 9537SOL     OW30223   2.187   8.806   3.079  0.0121 -0.4543 -0.8908
 9537SOL    HW130224   2.146   8.884   3.042 -0.9024 -1.0659 -1.2112
 9537SOL    HW230225   2.199   8.826   3.171  0.1145  0.1987 -1.0435
 9538SOL     OW30226   3.862   4.677   1.717  0.5241 -0.3076 -0.0952
 9538SOL    HW130227   3.858   4.770   1.742  0.8840 -0.3709  0.1999
 9538SOL    HW230228   3.841   4.677   1.623 -0.1721 -0.0034  0.0560
 9539SOL     OW30229   8.940   5.340   2.329  0.5900 -0.7086 -0.2819
 9539SOL    HW130230   8.920   5.394   2.405  1.9320 -1.3949  0.5994
 9539SOL    HW230231   8.950   5.252   2.364  0.6157 -1.1429 -1.3553
 9540SOL     OW30232   4.316   2.773   3.576 -0.9605  0.4507 -0.3697
 9540SOL    HW130233   4.232   2.742   3.541 -0.3972  0.0907 -1.4246
 9540SOL    HW230234   4.351   2.829   3.507  1.6553 -2.7428 -1.9089
 9541SOL     OW30235   5.030   9.312   1.445 -0.1459 -0.1639  0.4429
 9541SOL    HW130236   5.062   9.402   1.451  0.0885 -0.1848 -0.4095
 9541SOL    HW230237   5.081   9.264   1.510 -0.5400  0.3870  1.1753
 9542SOL     OW30238   8.484   3.130   7.345  0.5810 -0.6426 -0.2749
 9542SOL    HW130239   8.503   3.223   7.332  1.4573 -0.4646  1.8349
 9542SOL    HW230240   8.559   3.085   7.307 -0.8993 -0.7257 -3.4376
 9543SOL     OW30241   4.164   2.057   6.838  0.1484  0.1017  0.1713
 9543SOL    HW130242   4.148   2.142   6.880  2.5715  0.9636 -0.4564
 9543SOL    HW230243   4.098   2.052   6.768  0.0934  1.5707  0.0893
 9544SOL     OW30244   7.445   3.724   7.953 -0.2493  0.6177 -0.5189
 9544SOL    HW130245   7.515   3.686   7.898  0.1973 -0.4658  0.7345
 9544SOL    HW230246   7.459   3.818   7.948  1.2976  0.4248 -0.3368
 9545SOL     OW30247   6.659   3.775   3.313 -0.0878 -0.1146  0.3298
 9545SOL    HW130248   6.743   3.820   3.302  0.6989 -1.8601 -1.3733
 9545SOL    HW230249   6.593   3.842   3.294  1.0054  0.6712 -0.8342
 9546SOL     OW30250   7.268   1.257   2.672  0.1965 -0.3612  0.1869
 9546SOL    HW130251   7.229   1.179   2.632 -1.4012  0.1946  0.5759
 9546SOL    HW230252   7.350   1.227   2.710 -0.7788 -2.0376  1.0397
 9547SOL     OW30253   6.276   5.017   4.180  0.0040  0.2133 -0.8685
 9547SOL    HW130254   6.254   4.928   4.206 -0.5138  0.5639 -0.0514
 9547SOL    HW230255   6.371   5.016   4.168  0.6159  0.3929  2.7724
 9548SOL     OW30256   5.809   5.561   4.334  0.2010  0.3691  0.2529
 9548SOL    HW130257   5.861   5.628   4.377  1.4676  1.0039 -2.0923
 9548SOL    HW230258   5.858   5.540   4.254 -0.5446 -2.7881  0.4802
 9549SOL     OW30259   3.176   5.443   1.313  0.3563 -0.4212  0.3467
 9549SOL    HW130260   3.267   5.420   1.331  0.1566 -1.2775  0.3106
 9549SOL    HW230261   3.181   5.528   1.268  1.2019 -0.9140 -0.5395
 9550SOL     OW30262   0.907   7.004   3.128  0.5018 -0.5758  0.2120
 9550SOL    HW130263   0.901   7.061   3.051 -1.4174  0.8449  1.3371
 9550SOL    HW230264   1.000   7.002   3.149  1.0160 -0.6688 -1.8742
 9551SOL     OW30265   5.551   8.955   7.855  0.1034  0.0863  0.1672
 9551SOL    HW130266   5.541   9.024   7.921  0.1843  2.5336 -2.2058
 9551SOL    HW230267   5.489   8.888   7.882  1.2564  0.1571  3.5774
 9552SOL     OW30268   4.666   0.699   7.767  0.3181  0.2604  0.9787
 9552SOL    HW130269   4.715   0.762   7.714 -0.2043  1.4071  1.8134
 9552SOL    HW230270   4.689   0.720   7.857 -1.7793  0.9605  1.4268
 9553SOL     OW30271   2.109   4.128   8.944  0.5454 -0.0636 -0.7804
 9553SOL    HW130272   2.141   4.199   8.888 -1.1814  0.5401 -1.0446
 9553SOL    HW230273   2.075   4.063   8.884 -1.5613  0.7035 -0.4969
 9554SOL     OW30274   8.835   0.822   1.433  0.3797  0.0818 -0.2418
 9554SOL    HW130275   8.923   0.831   1.469  0.0346  0.9631  0.4143
 9554SOL    HW230276   8.790   0.902   1.460  0.0809  0.7808 -2.6195
 9555SOL     OW30277   0.883   8.744   0.706 -0.5871  0.2528  0.0026
 9555SOL    HW130278   0.950   8.795   0.660 -0.9436  0.1331 -0.6600
 9555SOL    HW230279   0.895   8.655   0.675 -1.0165  0.2207 -0.0766
 9556SOL     OW30280   0.676   8.592   0.410  0.4723 -0.2624 -0.1497
 9556SOL    HW130281   0.686   8.661   0.476 -0.3436  0.2588 -0.5546
 9556SOL    HW230282   0.722   8.517   0.447 -0.2546 -0.0849  1.1817
 9557SOL     OW30283   7.250   3.178   4.600  0.5613  0.9363 -0.2131
 9557SOL    HW130284   7.217   3.213   4.682  0.6816 -0.8173  0.6252
 9557SOL    HW230285   7.338   3.214   4.591  0.9536  0.3307  0.9887
 9558SOL     OW30286   2.234   5.795   7.012 -0.6909  0.1696 -0.5865
 9558SOL    HW130287   2.249   5.751   6.929  0.7261 -0.5484  0.0202
 9558SOL    HW230288   2.321   5.819   7.043 -1.0601 -0.6807  1.2591
 9559SOL     OW30289   7.258   1.798   9.279 -0.0257  0.1872  0.0378
 9559SOL    HW130290   7.225   1.730   9.338  2.6867 -0.4991  0.9361
 9559SOL    HW230291   7.278   1.750   9.198 -4.6807  1.2843 -2.1121
 9560SOL     OW30292   8.155   5.123   6.231 -0.7280 -0.2579 -0.0382
 9560SOL    HW130293   8.109   5.091   6.154  1.1173 -2.1614 -0.4530
 9560SOL    HW230294   8.159   5.048   6.290  0.2685  0.3662  0.7241
 9561SOL     OW30295   5.181   6.391   9.208 -0.3637 -0.9960 -0.0853
 9561SOL    HW130296   5.246   6.335   9.251  1.3113  1.7391  1.2706
 9561SOL    HW230297   5.126   6.423   9.279 -0.7551 -0.3141 -0.6768
 9562SOL     OW30298   9.052   8.259   8.293  0.4375  0.1292 -0.0892
 9562SOL    HW130299   9.053   8.354   8.292 -0.9750  0.2962 -4.0740
 9562SOL    HW230300   9.015   8.236   8.378 -2.7685  3.3507 -0.3812
 9563SOL     OW30301   4.447   2.907   5.836  0.1664 -0.4694  0.1952
 9563SOL    HW130302   4.397   2.828   5.814  1.5585 -1.4820  0.5660
 9563SOL    HW230303   4.536   2.889   5.807  0.3930  1.2433 -0.3063
 9564SOL     OW30304   5.047   8.877   8.527  0.4978  0.0985 -0.3114
 9564SOL    HW130305   5.038   8.901   8.435 -1.8159  0.1574 -0.1125
 9564SOL    HW230306   4.960   8.847   8.553  1.1940 -0.2557  1.7728
 9565SOL     OW30307   4.265   0.012   7.633 -0.8834  0.7383 -0.0450
 9565SOL    HW130308   4.286  -0.081   7.643 -1.7208  0.2773 -2.0606
 9565SOL    HW230309   4.230   0.038   7.719  0.4367 -0.4779  0.9088
 9566SOL     OW30310   8.702   4.207   6.580  0.0694  0.0297 -0.3524
 9566SOL    HW130311   8.625   4.263   6.588  0.2820  0.4607 -1.2487
 9566SOL    HW230312   8.713   4.194   6.486  1.3910  0.3903 -0.2639
 9567SOL     OW30313   1.010   4.153   5.029  0.3125  0.0017  0.2756
 9567SOL    HW130314   0.980   4.228   5.079 -1.8107 -0.6822  0.1163
 9567SOL    HW230315   1.017   4.082   5.093 -0.1458 -0.2821  0.0207
 9568SOL     OW30316   9.092   4.363   3.093  0.1673  0.3470  0.0320
 9568SOL    HW130317   9.109   4.269   3.090  1.4726  0.5812 -0.4578
 9568SOL    HW230318   9.076   4.387   3.002 -0.9056  0.4790  0.2496
 9569SOL     OW30319   1.161   8.984   3.379  0.4494 -0.0729 -0.0432
 9569SOL    HW130320   1.198   8.896   3.386 -1.1976 -0.9398 -1.4888
 9569SOL    HW230321   1.108   8.994   3.458 -0.5887 -1.0165 -0.6013
 9570SOL     OW30322   3.502   8.058   7.167  0.4933  0.0676  0.0988
 9570SOL    HW130323   3.546   8.115   7.104 -0.3239  0.7993  0.1830
 9570SOL    HW230324   3.530   8.089   7.253 -1.5473  1.7370  0.2352
 9571SOL     OW30325   9.763   7.558   7.843  0.3039  0.6859  0.0883
 9571SOL    HW130326   9.673   7.588   7.831 -0.1287 -0.7054 -0.2740
 9571SOL    HW230327   9.785   7.583   7.933 -0.3617  1.2127  0.1128
 9572SOL     OW30328   5.657   0.720   0.399 -1.1334  0.0859 -0.1722
 9572SOL    HW130329   5.570   0.682   0.413 -0.2804 -2.0742 -0.3636
 9572SOL    HW230330   5.693   0.728   0.487 -0.2868 -2.2841 -0.2212
 9573SOL     OW30331   3.356   8.943   4.213  0.3155 -0.1907 -0.5281
 9573SOL    HW130332   3.431   8.906   4.166 -1.2469 -1.1929 -2.3621
 9573SOL    HW230333   3.379   9.035   4.226  1.1455 -0.0447 -2.6668
 9574SOL     OW30334   1.940   4.755   5.365  0.2029 -0.1243  0.0382
 9574SOL    HW130335   1.895   4.763   5.281  0.4413  1.6960  0.0372
 9574SOL    HW230336   1.986   4.672   5.359  1.0921  0.4421 -2.0870
 9575SOL     OW30337   1.933   2.746   6.048  0.3380 -0.2708 -0.1124
 9575SOL    HW130338   1.936   2.696   6.129  0.3850  0.2989  0.2381
 9575SOL    HW230339   2.016   2.793   6.045 -0.0506  0.4265 -0.0288
 9576SOL     OW30340   8.523   3.770   3.286  1.1018 -0.0533  0.2156
 9576SOL    HW130341   8.590   3.736   3.345  0.7431 -0.0194  0.6494
 9576SOL    HW230342   8.441   3.761   3.336  0.8330  0.2280 -0.1737
 9577SOL     OW30343   2.868   0.508   5.312 -0.0432  0.9626  1.0537
 9577SOL    HW130344   2.937   0.522   5.376  0.1176 -0.5374  1.2421
 9577SOL    HW230345   2.831   0.422   5.334  1.9293 -1.0380 -2.5118
 9578SOL     OW30346   3.808   2.723   3.738 -0.0597  0.1566  0.1735
 9578SOL    HW130347   3.720   2.751   3.712  0.6898  2.2918 -0.3161
 9578SOL    HW230348   3.801   2.629   3.750 -2.0411  0.0346 -1.4218
 9579SOL     OW30349   4.817   8.070   1.422 -0.0250 -0.1985  0.6766
 9579SOL    HW130350   4.884   8.134   1.447  0.4228  0.1730 -1.2661
 9579SOL    HW230351   4.809   8.081   1.327 -2.2369 -0.8419  0.7411
 9580SOL     OW30352   3.663   0.127   5.923 -0.2475  0.1916 -0.2017
 9580SOL    HW130353   3.617   0.064   5.868  0.8340 -0.7411 -0.0900
 9580SOL    HW230354   3.714   0.179   5.861  1.5637 -1.3539 -0.0992
 9581SOL     OW30355   4.539   2.738   8.756 -0.9077  0.5247  0.0985
 9581SOL    HW130356   4.475   2.736   8.827 -0.1277 -0.3700  0.7989
 9581SOL    HW230357   4.541   2.648   8.722 -1.3808  0.9740 -1.1677
 9582SOL     OW30358   7.947   6.620   3.690 -0.0854  0.0577  0.4252
 9582SOL    HW130359   7.852   6.612   3.678 -0.0111 -0.2343  0.0098
 9582SOL    HW230360   7.956   6.674   3.768 -0.5922 -0.5759  0.9341
 9583SOL     OW30361   6.136   9.473   0.013  0.0148  0.1478  0.4432
 9583SOL    HW130362   6.108   9.550  -0.036 -0.1557 -0.6551 -0.7723
 9583SOL    HW230363   6.136   9.501   0.105 -3.3260  0.6828  0.4088
 9584SOL     OW30364   7.270   8.756   5.562  0.0855 -0.0330  0.6101
 9584SOL    HW130365   7.233   8.842   5.579  0.3715  0.5513 -1.4847
 9584SOL    HW230366   7.222   8.724   5.485  0.7093 -1.3024  0.7169
 9585SOL     OW30367   6.712   5.283   3.775 -0.9895 -0.3188  0.0768
 9585SOL    HW130368   6.685   5.292   3.684 -0.3789  1.3136  0.0231
 9585SOL    HW230369   6.638   5.316   3.826 -1.3015 -1.1604  0.1707
 9586SOL     OW30370   9.204   0.195   5.665  0.0920  0.2364  0.2551
 9586SOL    HW130371   9.216   0.160   5.753  0.8289  1.4105  0.6491
 9586SOL    HW230372   9.110   0.210   5.657  0.0971  0.7541  1.1010
 9587SOL     OW30373   1.432   6.948   2.053  0.1893 -0.0217  0.1775
 9587SOL    HW130374   1.504   6.888   2.073 -1.6207 -2.1963  0.5479
 9587SOL    HW230375   1.466   7.002   1.982  2.1532 -1.0365  0.2546
 9588SOL     OW30376   9.755   3.399   7.192 -0.0407  0.1109  0.5107
 9588SOL    HW130377   9.688   3.466   7.177 -0.9053 -0.8390  0.1141
 9588SOL    HW230378   9.732   3.361   7.277  0.6612  0.5311  0.9090
 9589SOL     OW30379   9.176   0.385   9.711 -0.2615 -0.1243 -0.1320
 9589SOL    HW130380   9.211   0.391   9.622 -0.0782 -1.2550 -0.1527
 9589SOL    HW230381   9.241   0.429   9.765 -1.7791  3.3159 -0.8337
 9590SOL     OW30382   9.624   4.373   7.111 -0.1249  0.0371 -0.4297
 9590SOL    HW130383   9.568   4.338   7.181  0.1834  1.8954  0.8148
 9590SOL    HW230384   9.563   4.408   7.047 -0.4469 -2.6434 -1.7259
 9591SOL     OW30385   7.018   4.757   4.790 -0.0378  0.1789 -0.8114
 9591SOL    HW130386   7.033   4.731   4.881  0.8835 -1.1037 -1.3018
 9591SOL    HW230387   6.923   4.766   4.784 -0.2508 -1.1771 -0.0812
 9592SOL     OW30388   6.816   5.185   4.528  0.0899  0.0252 -0.2170
 9592SOL    HW130389   6.780   5.096   4.523  1.4144 -0.7253  2.2735
 9592SOL    HW230390   6.758   5.231   4.589 -0.5318  0.8855 -1.4186
 9593SOL     OW30391   0.760   9.155   2.412  0.2077  0.1462 -0.0084
 9593SOL    HW130392   0.852   9.142   2.388 -0.0328  0.8979 -1.4179
 9593SOL    HW230393   0.748   9.100   2.489  1.5277 -0.9111 -0.5103
 9594SOL     OW30394   2.648   8.707   5.045  0.1951  0.3772 -0.0210
 9594SOL    HW130395   2.570   8.661   5.076 -1.0820  0.8666 -2.3079
 9594SOL    HW230396   2.646   8.791   5.092  0.0023 -0.0698  0.7878
 9595SOL     OW30397   8.518   0.274   7.387 -0.0109 -0.0970  0.0409
 9595SOL    HW130398   8.567   0.229   7.455 -0.0369  1.6294  1.2728
 9595SOL    HW230399   8.436   0.300   7.429  0.2456  1.5682 -0.3968
 9596SOL     OW30400   2.491   0.514   1.475  0.3636 -0.5761 -0.2501
 9596SOL    HW130401   2.473   0.606   1.494  1.0061 -0.4051 -0.4463
 9596SOL    HW230402   2.477   0.506   1.380  1.6381 -0.3511 -0.4762
 9597SOL     OW30403   1.193   7.887   3.126 -0.1724  0.0914  0.0890
 9597SOL    HW130404   1.237   7.934   3.055 -0.4234  0.2587  0.0427
 9597SOL    HW230405   1.262   7.872   3.191 -0.3778  1.8404  0.7715
 9598SOL     OW30406   7.282   3.839   5.513  0.0131 -0.5308 -0.4620
 9598SOL    HW130407   7.370   3.804   5.499 -0.5649 -1.4609 -1.9424
 9598SOL    HW230408   7.249   3.858   5.426 -1.3968 -0.5207  0.0458
 9599SOL     OW30409   9.399   4.133   8.478  0.1219 -0.2311  0.7915
 9599SOL    HW130410   9.320   4.112   8.528 -0.3403  0.3920  0.3392
 9599SOL    HW230411   9.427   4.050   8.440 -0.8135 -0.3001  0.2428
 9600SOL     OW30412   3.196   7.225   1.765  0.5373 -0.1546 -0.0139
 9600SOL    HW130413   3.125   7.233   1.701  1.9660 -0.5237 -1.7028
 9600SOL    HW230414   3.216   7.316   1.789 -1.0516 -0.0666  1.1834
 9601SOL     OW30415   4.831   8.093   1.119 -0.3261 -0.4101 -0.3041
 9601SOL    HW130416   4.912   8.132   1.085 -0.5344  1.2498  0.9464
 9601SOL    HW230417   4.761   8.135   1.068 -0.5121  0.2879  0.5007
 9602SOL     OW30418   3.027   1.711   9.482 -0.5132 -0.1069  0.2455
 9602SOL    HW130419   2.950   1.701   9.425  0.8017  0.7421 -1.8148
 9602SOL    HW230420   3.028   1.632   9.535 -0.8125 -1.9103 -2.2371
 9603SOL     OW30421   6.874   4.100   4.537  0.4367 -0.0205  0.0068
 9603SOL    HW130422   6.781   4.106   4.518  0.4576  0.2585 -0.0075
 9603SOL    HW230423   6.896   4.183   4.579  0.7642  0.0770 -0.3534
 9604SOL     OW30424   7.873   5.607   8.173  0.4893 -0.0602 -0.6290
 9604SOL    HW130425   7.841   5.634   8.086 -1.5923 -0.2546  0.0067
 9604SOL    HW230426   7.860   5.513   8.175 -0.1444  0.0345  0.1288
 9605SOL     OW30427   3.332   0.698   0.183 -0.2350 -0.5679 -0.1145
 9605SOL    HW130428   3.254   0.731   0.228 -0.4739 -0.2424 -0.7514
 9605SOL    HW230429   3.402   0.757   0.210 -0.6889  0.5893 -1.3511
 9606SOL     OW30430   8.328   4.950   5.223 -0.4814  0.0762 -0.5465
 9606SOL    HW130431   8.281   4.918   5.300 -0.9152 -0.9576 -1.2133
 9606SOL    HW230432   8.400   4.888   5.212 -0.5045  0.1334 -1.0457
 9607SOL     OW30433   7.312   7.601   9.473 -0.2230  0.0544  0.2334
 9607SOL    HW130434   7.403   7.576   9.460 -0.4356 -0.5660 -0.0655
 9607SOL    HW230435   7.273   7.600   9.386 -0.6488 -0.2097  0.4211
 9608SOL     OW30436   8.911   2.841   8.133 -0.1133  0.5933 -0.1022
 9608SOL    HW130437   8.851   2.834   8.060  0.5003 -0.5139 -0.5248
 9608SOL    HW230438   8.993   2.802   8.101  1.1184  2.7675  0.1690
 9609SOL     OW30439   0.694   2.044   7.213 -0.1090 -0.3224  0.0319
 9609SOL    HW130440   0.640   2.076   7.141  0.9929 -0.2565 -0.7987
 9609SOL    HW230441   0.681   2.108   7.283  0.7419  1.0272 -1.0005
 9610SOL     OW30442   8.413   1.775   5.633 -0.0429  0.1863  0.1375
 9610SOL    HW130443   8.339   1.833   5.618 -0.7251 -1.0846 -1.6562
 9610SOL    HW230444   8.378   1.703   5.685  0.1286 -0.0693 -0.1023
 9611SOL     OW30445   0.082   8.792   8.576 -0.1080 -0.0809 -0.0963
 9611SOL    HW130446   0.032   8.841   8.511  0.9331 -2.0259 -2.5190
 9611SOL    HW230447   0.134   8.857   8.621  0.4548  1.2012 -2.4473
 9612SOL     OW30448   2.363   0.021   0.752 -0.4165  0.3929  1.0069
 9612SOL    HW130449   2.416  -0.058   0.767 -0.4803  0.4168  1.3682
 9612SOL    HW230450   2.427   0.091   0.739 -0.1445 -0.3984 -3.8959
 9613SOL     OW30451   4.791   5.853   0.973  0.0590  0.1080 -0.3008
 9613SOL    HW130452   4.870   5.804   0.997 -0.2660 -0.2745  0.0204
 9613SOL    HW230453   4.760   5.890   1.056 -0.5448 -0.4239 -0.2746
 9614SOL     OW30454   4.178   7.688   4.795 -0.0578 -0.8667 -0.5696
 9614SOL    HW130455   4.162   7.620   4.730  1.2325 -2.2164  0.4456
 9614SOL    HW230456   4.273   7.696   4.798 -0.1449  0.0754  0.2696
 9615SOL     OW30457   1.110   7.160   7.249 -0.0455 -0.0762  0.2145
 9615SOL    HW130458   1.095   7.066   7.240  0.4177 -0.0482 -1.1074
 9615SOL    HW230459   1.032   7.193   7.293 -0.9395 -0.8522 -0.7390
 9616SOL     OW30460   7.390   1.053   6.960  0.4816  0.5721 -0.3960
 9616SOL    HW130461   7.332   1.023   6.889  1.3843 -0.5192 -0.7060
 9616SOL    HW230462   7.461   1.098   6.915  2.0714 -1.7791 -0.4112
 9617SOL     OW30463   3.461   7.585   9.222 -0.0478  0.3544 -0.4999
 9617SOL    HW130464   3.540   7.549   9.183  0.1501 -0.5179  0.6409
 9617SOL    HW230465   3.407   7.508   9.243 -1.1539  0.9290 -1.1488
 9618SOL     OW30466   0.328   9.674   8.632 -0.0501 -0.5533 -0.5573
 9618SOL    HW130467   0.343   9.740   8.564 -1.1756 -0.4235 -0.7041
 9618SOL    HW230468   0.242   9.696   8.668  0.1036 -1.2087  0.2419
 9619SOL     OW30469   2.436   5.388   1.598  0.4709  0.1111  0.2744
 9619SOL    HW130470   2.395   5.319   1.545  1.7551  0.6151 -1.4669
 9619SOL    HW230471   2.377   5.463   1.589  0.2718 -0.0558  0.1889
 9620SOL     OW30472   4.159   9.113   7.883 -0.5589  0.2321 -0.4261
 9620SOL    HW130473   4.174   9.033   7.833 -0.0933  0.4998 -0.7247
 9620SOL    HW230474   4.083   9.094   7.937 -1.8475  0.3442 -2.1166
 9621SOL     OW30475   8.311   7.713   2.304 -0.3064  0.0842 -0.4057
 9621SOL    HW130476   8.337   7.699   2.213 -0.9399 -0.5773 -0.4955
 9621SOL    HW230477   8.233   7.659   2.315  0.1743 -0.4082  0.7300
 9622SOL     OW30478   6.095   8.578   4.615  0.5266  0.1769  0.1066
 9622SOL    HW130479   6.006   8.543   4.611  0.2095  0.7108  1.6262
 9622SOL    HW230480   6.095   8.651   4.553 -0.1944  0.3711  0.3301
 9623SOL     OW30481   4.397   2.980   1.802 -0.1984  0.2782  0.3543
 9623SOL    HW130482   4.389   3.067   1.840 -0.4142  0.3779  0.0847
 9623SOL    HW230483   4.318   2.934   1.829 -0.9646  0.7520 -0.9915
 9624SOL     OW30484   3.599   9.594   1.129 -0.0112 -0.0755 -0.2144
 9624SOL    HW130485   3.586   9.538   1.206 -0.4282  0.8374  0.3975
 9624SOL    HW230486   3.664   9.658   1.158  1.0444 -0.6858 -1.1576
 9625SOL     OW30487   2.862   3.802   1.401  0.0893  0.2295  0.1241
 9625SOL    HW130488   2.900   3.890   1.407  2.1993 -0.6586  0.7528
 9625SOL    HW230489   2.855   3.772   1.492  1.9305 -1.2186 -0.1505
 9626SOL     OW30490   4.372   6.993   3.656 -0.6719  0.5018 -0.2758
 9626SOL    HW130491   4.293   7.002   3.710  1.3385 -0.4180  3.1080
 9626SOL    HW230492   4.444   6.994   3.719  2.0185  0.4504 -3.1270
 9627SOL     OW30493   0.985   1.992   5.074 -0.0311  0.0068 -0.2148
 9627SOL    HW130494   0.969   1.912   5.024 -1.9393  0.2211 -0.0122
 9627SOL    HW230495   0.909   2.047   5.055 -0.7395  0.1732  2.7443
 9628SOL     OW30496   3.687   7.852   9.439  0.3358 -0.6008  0.1387
 9628SOL    HW130497   3.638   7.835   9.358 -0.0101  1.7004 -0.2155
 9628SOL    HW230498   3.740   7.774   9.452 -2.4908 -2.7338 -0.1429
 9629SOL     OW30499   2.613   9.142   3.644 -0.5929  0.5811 -0.4859
 9629SOL    HW130500   2.691   9.169   3.693  0.0632  1.9745 -2.2031
 9629SOL    HW230501   2.556   9.103   3.711  1.4196 -0.2398  0.8694
 9630SOL     OW30502   6.273   9.123   8.850  0.2576 -0.3073 -0.1141
 9630SOL    HW130503   6.265   9.115   8.945 -0.7392 -2.2008 -0.2912
 9630SOL    HW230504   6.278   9.217   8.833  0.1019  0.0768  1.7774
 9631SOL     OW30505   5.129   0.088   5.387  0.5218 -0.3007  0.0964
 9631SOL    HW130506   5.169   0.012   5.345 -2.7937 -1.4531 -1.3637
 9631SOL    HW230507   5.159   0.163   5.336 -0.1846 -1.2608 -1.8152
 9632SOL     OW30508   0.446   1.010   4.895 -0.2665  0.3174  0.1637
 9632SOL    HW130509   0.524   1.031   4.946  0.5859 -0.2335 -0.8780
 9632SOL    HW230510   0.446   0.915   4.888 -0.9293  0.3251 -0.0058
 9633SOL     OW30511   2.717   1.658   3.257  0.0717 -0.0494  0.1846
 9633SOL    HW130512   2.760   1.580   3.223  2.3336  0.7261  1.1146
 9633SOL    HW230513   2.776   1.730   3.235 -0.8107  1.0927  1.3895
 9634SOL     OW30514   9.724   2.042   9.332 -0.0939  0.2752 -0.0300
 9634SOL    HW130515   9.798   2.086   9.374 -1.5842  0.4544  2.6878
 9634SOL    HW230516   9.754   1.951   9.323  0.5528  0.3774  0.8548
 9635SOL     OW30517   7.283   7.927   8.746 -0.2357  0.1742  0.0641
 9635SOL    HW130518   7.280   8.022   8.734 -1.0454  0.5004  2.3418
 9635SOL    HW230519   7.242   7.891   8.667 -0.6729  1.7470 -0.4585
 9636SOL     OW30520   7.683   6.843   6.573  0.1877 -0.7168  0.6051
 9636SOL    HW130521   7.692   6.791   6.653 -1.1085 -0.1727  1.1374
 9636SOL    HW230522   7.708   6.932   6.598 -0.5784 -0.4656  0.5211
 9637SOL     OW30523   5.459   3.081   9.312 -0.3526 -0.4022  0.8646
 9637SOL    HW130524   5.444   3.066   9.218 -4.6642 -1.4403  1.4900
 9637SOL    HW230525   5.403   3.156   9.333 -0.8903 -1.3242  2.9125
 9638SOL     OW30526   5.337   7.304   5.619 -0.1491  0.4674 -0.0173
 9638SOL    HW130527   5.389   7.365   5.672  0.1078  0.5936 -0.4046
 9638SOL    HW230528   5.336   7.223   5.669  0.3806  0.4838  0.0280
 9639SOL     OW30529   5.437   3.406   0.468  0.5940  0.7310 -0.0450
 9639SOL    HW130530   5.396   3.325   0.499  1.3591  0.1513 -0.5259
 9639SOL    HW230531   5.383   3.476   0.506  0.3420  0.0102  0.9571
 9640SOL     OW30532   8.554   2.226   7.381  0.4302  0.3429 -0.1841
 9640SOL    HW130533   8.591   2.312   7.363  0.5936  0.1562 -0.7403
 9640SOL    HW230534   8.592   2.201   7.465  1.1674  0.3704 -0.5090
 9641SOL     OW30535   3.561   5.673   3.049  0.4775  0.6844 -0.3896
 9641SOL    HW130536   3.555   5.653   3.143 -3.4533  2.7818  0.0195
 9641SOL    HW230537   3.584   5.766   3.046  1.2269  0.4728 -1.5462
 9642SOL     OW30538   0.381   2.743   4.061 -0.1851  0.9150 -0.0900
 9642SOL    HW130539   0.423   2.679   4.002  1.2632  2.5428 -0.9300
 9642SOL    HW230540   0.288   2.723   4.056  0.0535  0.0215 -1.7624
 9643SOL     OW30541   5.947   2.755   0.445  0.5720  0.4968  0.5285
 9643SOL    HW130542   5.854   2.738   0.428  0.9152 -1.2617  0.2329
 9643SOL    HW230543   5.961   2.845   0.414 -0.5061 -0.0328 -1.6895
 9644SOL     OW30544   4.843   8.885   2.494  0.0913 -0.6411 -0.2892
 9644SOL    HW130545   4.906   8.864   2.424  1.2512  1.0171  0.1739
 9644SOL    HW230546   4.850   8.812   2.555  0.9952 -0.8789 -0.6502
 9645SOL     OW30547   4.293   5.376   8.599 -0.3008 -0.2854 -0.2156
 9645SOL    HW130548   4.282   5.471   8.591 -0.7081 -0.2076  1.0795
 9645SOL    HW230549   4.388   5.363   8.597 -0.1333  0.3805  1.6070
 9646SOL     OW30550   6.234   1.682   7.433  0.1703  0.1184  0.9094
 9646SOL    HW130551   6.163   1.619   7.421  0.2585  0.3523 -1.1099
 9646SOL    HW230552   6.293   1.666   7.360  1.1238  1.3619  1.3709
 9647SOL     OW30553   2.464   2.506   8.461  0.8200 -0.1263 -0.5608
 9647SOL    HW130554   2.501   2.468   8.541  0.0413  0.4705  0.1103
 9647SOL    HW230555   2.388   2.451   8.442  0.2773  0.4668 -0.1616
 9648SOL     OW30556   6.856   7.685   6.069 -0.2620  0.3417 -0.5416
 9648SOL    HW130557   6.862   7.777   6.045  3.0705  0.8464  1.6435
 9648SOL    HW230558   6.926   7.642   6.020 -0.9840 -0.8225 -0.5999
 9649SOL     OW30559   7.620   4.584   2.542 -0.5212  0.0939 -0.4517
 9649SOL    HW130560   7.545   4.604   2.597  0.3839  0.9687  0.5179
 9649SOL    HW230561   7.632   4.489   2.551 -0.0135  0.2985  1.4046
 9650SOL     OW30562   4.051   2.513   4.827  0.2687 -0.5930 -0.1762
 9650SOL    HW130563   4.079   2.597   4.862 -0.1275 -0.3820 -0.3612
 9650SOL    HW230564   4.085   2.511   4.738  0.8841 -0.9341  0.0608
 9651SOL     OW30565   3.207   5.633   5.974 -0.2013  0.1935  0.2921
 9651SOL    HW130566   3.289   5.659   5.932  1.4206 -1.5130  2.1492
 9651SOL    HW230567   3.153   5.600   5.903  1.5832 -0.6101 -0.7603
 9652SOL     OW30568   6.265   5.010   8.576 -0.4347  0.1354 -0.5482
 9652SOL    HW130569   6.342   5.034   8.524  1.0997 -2.8843  0.0863
 9652SOL    HW230570   6.198   4.991   8.511  0.6091 -0.9161 -1.3790
 9653SOL     OW30571   1.171   6.114   2.202  0.1144  0.9645  0.2373
 9653SOL    HW130572   1.115   6.111   2.280 -0.5600  2.9210 -0.1153
 9653SOL    HW230573   1.157   6.030   2.160  0.0902  0.0677  1.9411
 9654SOL     OW30574   7.748   9.378   1.665  0.4805  0.3073  0.6820
 9654SOL    HW130575   7.656   9.369   1.689  0.0713  0.2823 -0.7862
 9654SOL    HW230576   7.786   9.433   1.734 -0.4481 -0.3143  1.7117
 9655SOL     OW30577   5.750   8.278   6.913 -0.0547  0.0699 -0.1912
 9655SOL    HW130578   5.755   8.354   6.855 -0.4121  0.0720 -0.2248
 9655SOL    HW230579   5.691   8.305   6.983 -1.7613 -0.8150 -1.2180
 9656SOL     OW30580   7.850   3.032   7.748  0.5808  0.2946 -0.4595
 9656SOL    HW130581   7.850   3.023   7.653  1.8710  1.4676 -0.5981
 9656SOL    HW230582   7.810   3.118   7.764  1.0426  0.4315  0.0068
 9657SOL     OW30583   0.615   4.652   0.420  0.0791  0.2209 -0.5538
 9657SOL    HW130584   0.598   4.728   0.475  2.8439 -0.4974  1.5066
 9657SOL    HW230585   0.663   4.687   0.345 -0.1557  0.7009 -0.4844
 9658SOL     OW30586   0.166   5.594   7.253  0.2778 -0.0752  0.0823
 9658SOL    HW130587   0.169   5.562   7.162  0.7279  0.4074 -0.0801
 9658SOL    HW230588   0.212   5.527   7.303 -0.9374 -0.8922  0.1324
 9659SOL     OW30589   3.269   9.796   0.536 -0.1108  0.3960 -0.0083
 9659SOL    HW130590   3.323   9.717   0.536 -1.9247 -1.1880  4.7898
 9659SOL    HW230591   3.328   9.865   0.568  0.4693  0.0582 -0.3393
 9660SOL     OW30592   0.978   0.224   4.046  0.0263  0.2382  0.0125
 9660SOL    HW130593   0.940   0.290   3.989  2.1716  2.0659  0.5372
 9660SOL    HW230594   0.972   0.261   4.134 -1.8578 -1.8695  0.8812
 9661SOL     OW30595   8.293   6.405   3.571  0.1493  0.4777  0.7132
 9661SOL    HW130596   8.266   6.381   3.659 -0.6484 -0.5578  0.2024
 9661SOL    HW230597   8.389   6.410   3.576  0.0857  0.9607  1.7480
 9662SOL     OW30598   7.690   0.327   1.029 -0.3038 -0.3607 -0.2985
 9662SOL    HW130599   7.732   0.388   0.968 -1.3435  0.9176  0.2206
 9662SOL    HW230600   7.760   0.269   1.058  1.1119  1.6813  0.5172
 9663SOL     OW30601   8.514   7.715   6.504 -0.1429 -0.4846  0.0048
 9663SOL    HW130602   8.545   7.679   6.420  0.6747 -1.1221  0.5644
 9663SOL    HW230603   8.583   7.776   6.531 -1.6414  1.8471 -1.0786
 9664SOL     OW30604   0.033   6.091   4.467 -0.2303  0.4522 -0.1283
 9664SOL    HW130605  -0.014   6.007   4.474  0.7218 -0.0853  0.0300
 9664SOL    HW230606   0.054   6.099   4.374  0.5856 -0.0018  0.0124
 9665SOL     OW30607   5.430   2.666   6.593 -0.6551 -0.1712 -0.3784
 9665SOL    HW130608   5.356   2.618   6.555 -1.0545  0.3417 -0.2666
 9665SOL    HW230609   5.507   2.628   6.552 -0.9782 -0.7517 -0.4594
 9666SOL     OW30610   3.184   8.148   0.592 -1.0772  0.2085 -0.5542
 9666SOL    HW130611   3.273   8.159   0.558  0.4340 -2.1899  2.1495
 9666SOL    HW230612   3.187   8.186   0.680 -2.2160 -1.2797  0.1805
 9667SOL     OW30613   0.704   5.277   0.542 -0.7317 -0.4390  0.1566
 9667SOL    HW130614   0.767   5.218   0.584 -0.5052 -0.0049  0.4260
 9667SOL    HW230615   0.632   5.283   0.605  0.2809  1.4405  1.2273
 9668SOL     OW30616   6.426   7.946   7.616 -0.5178 -0.3374  0.2598
 9668SOL    HW130617   6.480   7.871   7.590 -0.8586 -0.3382 -0.4945
 9668SOL    HW230618   6.413   7.935   7.710  0.2580 -0.6849  0.3373
 9669SOL     OW30619   5.069   9.612   5.874  0.0089  0.5466 -0.2746
 9669SOL    HW130620   5.017   9.609   5.955  1.4316 -0.3113  0.6414
 9669SOL    HW230621   5.073   9.521   5.845 -0.3828  0.8334 -1.2633
 9670SOL     OW30622   6.778   1.934   2.075 -0.4684  0.2954 -0.4656
 9670SOL    HW130623   6.749   1.917   2.165 -0.7997  0.2735 -0.5772
 9670SOL    HW230624   6.765   2.028   2.062 -2.0302  0.0196 -1.0590
 9671SOL     OW30625   2.684   6.460   6.146 -0.4421 -0.2363  0.6737
 9671SOL    HW130626   2.684   6.388   6.083  0.5920 -0.2626  0.6928
 9671SOL    HW230627   2.623   6.432   6.215  0.6052 -1.4826  1.1168
 9672SOL     OW30628   0.048   1.896   2.229  0.0357 -0.0864  0.5853
 9672SOL    HW130629   0.071   1.950   2.153  1.6630 -0.3629  0.8429
 9672SOL    HW230630   0.105   1.928   2.299  1.2741 -2.2877  0.6752
 9673SOL     OW30631   2.417   7.620   3.049  0.1526  0.2182 -0.0466
 9673SOL    HW130632   2.425   7.716   3.045  1.0683  0.1437 -0.2356
 9673SOL    HW230633   2.355   7.599   2.980  1.3741  0.5456 -1.3070
 9674SOL     OW30634   2.249   8.854   7.622  0.1635 -0.2763 -0.5999
 9674SOL    HW130635   2.281   8.764   7.626  0.0025 -0.4425 -2.2471
 9674SOL    HW230636   2.323   8.904   7.588  0.1282  0.1625 -0.0490
 9675SOL     OW30637   0.038   9.678   9.600  0.3796  0.1165  0.0526
 9675SOL    HW130638   0.113   9.618   9.593  1.0432  0.3163  3.7031
 9675SOL    HW230639  -0.036   9.621   9.619  0.1113  0.1512 -0.8362
 9676SOL     OW30640   3.910   6.488   3.948 -0.5357  0.6933 -0.3829
 9676SOL    HW130641   3.932   6.420   3.884  1.7723  1.0797 -0.0854
 9676SOL    HW230642   3.829   6.526   3.915  0.8675  1.2860 -3.4786
 9677SOL     OW30643   1.216   4.618   6.551  0.2017 -0.5818 -0.0596
 9677SOL    HW130644   1.296   4.668   6.563 -1.0648  2.0120 -1.5183
 9677SOL    HW230645   1.217   4.592   6.459 -1.0745  0.3656 -0.3596
 9678SOL     OW30646   0.063   4.118   7.410 -0.2949 -0.1133 -0.4420
 9678SOL    HW130647   0.100   4.199   7.446  2.0686 -1.2413 -0.1881
 9678SOL    HW230648   0.133   4.054   7.416 -2.0582 -2.2031 -0.7350
 9679SOL     OW30649   9.235   8.765   7.413 -0.3419  0.4514 -0.1811
 9679SOL    HW130650   9.318   8.796   7.377  0.1075 -1.0689 -0.5065
 9679SOL    HW230651   9.200   8.707   7.346 -1.3982  0.6306  0.2041
 9680SOL     OW30652   5.947   5.479   3.774  0.7938  0.0164  0.2320
 9680SOL    HW130653   5.974   5.533   3.699  0.9803 -0.7653 -0.2772
 9680SOL    HW230654   5.889   5.412   3.736 -1.2233  1.1305  1.1668
 9681SOL     OW30655   5.653   9.390   3.267  0.9120 -0.1100 -0.1666
 9681SOL    HW130656   5.715   9.318   3.262  2.0754  0.9045 -0.8972
 9681SOL    HW230657   5.603   9.372   3.347  2.4539 -0.7276  0.7127
 9682SOL     OW30658   8.491   2.781   7.074 -0.0456 -0.6948  0.0013
 9682SOL    HW130659   8.496   2.689   7.046  1.0083 -0.0728 -2.0700
 9682SOL    HW230660   8.410   2.813   7.035 -0.1633 -0.6118  0.3144
 9683SOL     OW30661   6.313   8.252   0.960  0.2242  0.3185  0.0906
 9683SOL    HW130662   6.379   8.183   0.960 -0.1058 -0.0574 -1.9823
 9683SOL    HW230663   6.248   8.223   0.896 -1.3475  1.2538  1.1933
 9684SOL     OW30664   8.298   6.966   0.952  0.7276 -0.1398  0.3894
 9684SOL    HW130665   8.299   7.027   0.878  1.9385 -2.6114 -1.8068
 9684SOL    HW230666   8.236   6.898   0.926 -0.2003 -0.1790  2.5270
 9685SOL     OW30667   0.647   5.531   3.613 -0.3506 -0.2535  0.1567
 9685SOL    HW130668   0.681   5.566   3.531 -1.6833  0.6234 -0.0409
 9685SOL    HW230669   0.659   5.436   3.605 -0.7094 -0.2046 -1.1743
 9686SOL     OW30670   0.400   0.285   0.574 -0.0572  0.4081 -0.0328
 9686SOL    HW130671   0.369   0.211   0.521  1.3343 -0.5967  0.5134
 9686SOL    HW230672   0.426   0.351   0.510 -0.7216  0.1860 -0.5414
 9687SOL     OW30673   6.730   1.322   3.881  0.3887 -0.3315 -0.2005
 9687SOL    HW130674   6.795   1.380   3.841  1.7540 -0.0867  2.1238
 9687SOL    HW230675   6.766   1.234   3.871 -0.1196 -0.4488 -0.9991
 9688SOL     OW30676   8.860   1.185   4.759 -0.0100  0.0191  0.4114
 9688SOL    HW130677   8.863   1.246   4.686  1.4287  0.8200  1.1033
 9688SOL    HW230678   8.833   1.239   4.834  1.6353 -0.0573  1.1050
 9689SOL     OW30679   9.309   8.694   6.611 -0.1263  0.0487 -0.3606
 9689SOL    HW130680   9.244   8.654   6.554 -0.6264 -0.9748  0.8627
 9689SOL    HW230681   9.331   8.625   6.674  1.9429  0.4445 -0.5512
 9690SOL     OW30682   2.563   1.276   9.531  0.0075  0.1505  0.2419
 9690SOL    HW130683   2.511   1.211   9.485  0.9171 -1.9030  1.9167
 9690SOL    HW230684   2.503   1.312   9.596 -0.1382 -0.0578  0.2266
 9691SOL     OW30685   9.146   0.723   7.820 -0.0569  0.0896  0.3396
 9691SOL    HW130686   9.168   0.655   7.757  0.4278  0.0565  0.5396
 9691SOL    HW230687   9.229   0.741   7.865  0.6854  3.1657 -1.9363
 9692SOL     OW30688   3.243   8.206   2.423 -0.0970  0.1185  0.0205
 9692SOL    HW130689   3.254   8.192   2.329 -0.3366 -0.3724  0.0609
 9692SOL    HW230690   3.288   8.288   2.441 -1.1999  0.9053 -0.7548
 9693SOL     OW30691   4.529   8.155   4.395 -0.1324  0.3991 -0.7894
 9693SOL    HW130692   4.501   8.237   4.354 -0.1496  0.6948 -0.1972
 9693SOL    HW230693   4.613   8.135   4.354  0.0672  0.9319 -0.6404
 9694SOL     OW30694   3.932   9.692   4.628  0.0501  0.4569  0.4685
 9694SOL    HW130695   3.878   9.771   4.627  1.0838  1.1903 -0.6347
 9694SOL    HW230696   3.887   9.632   4.569 -0.8425  0.1407  1.4602
 9695SOL     OW30697   5.983   4.673   1.044  0.2091  0.6976 -0.5807
 9695SOL    HW130698   5.929   4.634   0.975 -1.8892  0.4876  1.0756
 9695SOL    HW230699   5.956   4.765   1.046  0.5643  0.7969 -0.3052
 9696SOL     OW30700   8.116   1.733   1.791  0.2375 -0.8761  0.2037
 9696SOL    HW130701   8.111   1.808   1.850 -0.3204 -1.6505  1.1836
 9696SOL    HW230702   8.036   1.738   1.739  0.8957  0.0025 -0.7581
 9697SOL     OW30703   2.925   3.532   1.759 -0.1004 -0.0732 -0.2242
 9697SOL    HW130704   2.894   3.482   1.683  0.6047 -0.8706 -0.0016
 9697SOL    HW230705   2.847   3.544   1.813 -0.2129 -1.2900 -0.0882
 9698SOL     OW30706   8.046   3.665   6.079  0.3348  0.1072  0.0252
 9698SOL    HW130707   8.041   3.578   6.119  1.6913 -0.2065 -0.4267
 9698SOL    HW230708   8.004   3.655   5.994  0.7912 -0.2140 -0.1698
 9699SOL     OW30709   7.358   4.975   7.766  0.0812  0.0099  0.3171
 9699SOL    HW130710   7.284   4.981   7.827  0.0329 -0.9536  0.3724
 9699SOL    HW230711   7.407   4.899   7.796  1.7420  1.2608  0.9706
 9700SOL     OW30712   8.474   4.380   6.637 -0.9252 -0.4163 -0.1334
 9700SOL    HW130713   8.456   4.428   6.718  0.5179 -0.1258  0.0466
 9700SOL    HW230714   8.390   4.374   6.593 -1.9664 -1.5141  1.8805
 9701SOL     OW30715   1.809   6.614   7.855 -0.4103  0.3264 -0.3967
 9701SOL    HW130716   1.825   6.705   7.882  2.1243 -0.2813  0.4233
 9701SOL    HW230717   1.841   6.561   7.928 -3.0510 -1.2856 -0.2865
 9702SOL     OW30718   1.504   2.566   4.014 -0.4094  0.4845  0.0291
 9702SOL    HW130719   1.479   2.642   4.066 -0.2511  0.5752 -0.0266
 9702SOL    HW230720   1.560   2.602   3.945  0.1398  0.2442  0.3405
 9703SOL     OW30721   0.681   9.717   6.554 -0.2631  0.9111  0.1404
 9703SOL    HW130722   0.734   9.792   6.526 -0.6912  0.8361 -0.9022
 9703SOL    HW230723   0.676   9.660   6.478 -1.4048  0.6673  0.3696
 9704SOL     OW30724   5.143   5.419   8.213  0.2020  0.1959  0.4874
 9704SOL    HW130725   5.082   5.347   8.195 -0.3456  1.3362 -3.0721
 9704SOL    HW230726   5.090   5.498   8.201  2.0520  1.2166 -1.8422
 9705SOL     OW30727   4.662   7.688   5.811 -0.4430 -0.7989 -0.1442
 9705SOL    HW130728   4.633   7.614   5.864  0.4206 -2.0519 -1.3855
 9705SOL    HW230729   4.718   7.738   5.870 -1.8528 -0.5213  1.0245
 9706SOL     OW30730   9.209   6.168   2.814 -0.2902  0.3936 -0.1118
 9706SOL    HW130731   9.204   6.072   2.808  0.1612  0.4780 -2.5363
 9706SOL    HW230732   9.300   6.185   2.840 -0.7294  0.1854  1.7479
 9707SOL     OW30733   6.397   4.521   9.537 -0.1885  0.0144  0.1330
 9707SOL    HW130734   6.409   4.616   9.534 -2.6558  0.4112  0.5824
 9707SOL    HW230735   6.335   4.507   9.609  0.3814 -1.9791  0.2880
 9708SOL     OW30736   9.432   7.586   6.461 -0.1895  0.8689 -0.1936
 9708SOL    HW130737   9.522   7.586   6.427 -0.5019  0.9610 -1.0312
 9708SOL    HW230738   9.377   7.597   6.384 -0.8945  1.7057  0.4054
 9709SOL     OW30739   4.609   3.348   2.068 -0.0174 -0.5355 -0.0252
 9709SOL    HW130740   4.693   3.380   2.100 -0.1557  0.3114 -0.4800
 9709SOL    HW230741   4.593   3.268   2.119 -0.7056  1.2292  2.7687
 9710SOL     OW30742   9.227   7.771   2.562  0.8220 -0.1367  0.0602
 9710SOL    HW130743   9.202   7.770   2.470  2.5340  0.5718 -0.4553
 9710SOL    HW230744   9.279   7.851   2.572  1.7465 -0.8517  1.3144
 9711SOL     OW30745   2.630   4.475   1.385  0.8186 -0.0275  0.0600
 9711SOL    HW130746   2.624   4.564   1.418 -1.7827  0.0604 -0.4095
 9711SOL    HW230747   2.627   4.419   1.463  0.3539  0.2777  0.2659
 9712SOL     OW30748   5.660   8.972   1.469 -0.1668 -0.5990  0.4815
 9712SOL    HW130749   5.593   9.040   1.475  0.3712 -0.1582  1.9521
 9712SOL    HW230750   5.616   8.897   1.429 -0.8062  0.5450 -1.0705
 9713SOL     OW30751   4.578   5.308   8.578 -0.7334 -0.0059 -0.4048
 9713SOL    HW130752   4.663   5.320   8.620 -1.3383 -0.1893  0.9091
 9713SOL    HW230753   4.592   5.238   8.514  0.7002  1.6358 -2.0125
 9714SOL     OW30754   2.152   7.673   7.672 -0.5280  0.5464  0.1664
 9714SOL    HW130755   2.156   7.631   7.586  1.2834  1.8406 -0.4286
 9714SOL    HW230756   2.181   7.605   7.733 -2.8110 -0.7176 -0.0455
 9715SOL     OW30757   8.232   5.755   3.193  0.0322  0.0962 -0.2443
 9715SOL    HW130758   8.322   5.753   3.225  0.4673  0.7222 -1.3764
 9715SOL    HW230759   8.240   5.750   3.098 -1.1990 -1.2032 -0.3143
 9716SOL     OW30760   0.014   9.703   4.794  0.6142  0.0556 -0.1607
 9716SOL    HW130761  -0.031   9.773   4.746  0.1979  0.1484  0.3634
 9716SOL    HW230762   0.050   9.647   4.725 -1.3986 -0.7492 -0.6576
 9717SOL     OW30763   7.550   2.914   1.092 -1.0499 -0.3630  0.1363
 9717SOL    HW130764   7.644   2.901   1.105 -1.1332 -0.3778  0.7305
 9717SOL    HW230765   7.537   2.896   0.999 -0.9959 -3.5269  0.6371
 9718SOL     OW30766   3.513   3.331   0.223 -0.2229 -0.0467 -0.3897
 9718SOL    HW130767   3.473   3.256   0.179  0.8515 -0.2996 -0.9726
 9718SOL    HW230768   3.600   3.339   0.183  0.3239  0.4691  0.8558
 9719SOL     OW30769   5.741   3.412   1.710 -0.1445 -0.1537  0.3316
 9719SOL    HW130770   5.760   3.411   1.804  1.4479  0.0563  0.0433
 9719SOL    HW230771   5.756   3.321   1.682  0.4149  0.0074  0.1021
 9720SOL     OW30772   7.336   6.175   0.670  0.0597 -0.4471  0.2202
 9720SOL    HW130773   7.272   6.188   0.601  0.6641  0.4413 -0.1882
 9720SOL    HW230774   7.315   6.241   0.736  1.8398  1.3653 -0.9012
 9721SOL     OW30775   4.700   3.478   4.756 -0.6398  0.4175 -0.3157
 9721SOL    HW130776   4.769   3.449   4.696 -1.0760 -0.1383 -0.5590
 9721SOL    HW230777   4.740   3.548   4.807  0.0303  0.2581 -0.6169
 9722SOL     OW30778   4.091   2.297   4.311  0.1888  0.3441  0.0283
 9722SOL    HW130779   4.173   2.250   4.297  0.2342  0.4915 -0.1980
 9722SOL    HW230780   4.104   2.382   4.269 -0.5803 -0.1362 -1.2237
 9723SOL     OW30781   5.130   9.056   9.761  0.1973 -0.0935  0.0564
 9723SOL    HW130782   5.173   9.127   9.808 -0.2555  0.6536 -0.6352
 9723SOL    HW230783   5.190   9.036   9.688  1.1292 -1.5667  1.1588
 9724SOL     OW30784   2.738   4.154   8.510  0.2299  0.4508  0.3864
 9724SOL    HW130785   2.718   4.197   8.427 -0.6854  0.0503  0.3874
 9724SOL    HW230786   2.791   4.218   8.559  1.1109  0.5385 -0.6501
 9725SOL     OW30787   0.886   7.473   9.658 -0.4104  0.0344  0.7063
 9725SOL    HW130788   0.840   7.390   9.643  1.3568 -1.3653  2.4758
 9725SOL    HW230789   0.919   7.498   9.572  0.8843 -2.3334  0.4315
 9726SOL     OW30790   2.032   7.253   2.674 -0.0581 -0.1186  0.0243
 9726SOL    HW130791   2.090   7.202   2.618  0.0977  0.2670 -0.1697
 9726SOL    HW230792   2.079   7.260   2.757 -0.9765 -2.0412  0.7506
 9727SOL     OW30793   5.393   1.142   7.336  0.1253 -0.2444  0.1046
 9727SOL    HW130794   5.330   1.131   7.407  0.3290 -1.6477  0.0953
 9727SOL    HW230795   5.469   1.183   7.378  0.5373 -1.7434  0.8881
 9728SOL     OW30796   0.527   1.242   9.282 -0.1910  0.4091 -0.1124
 9728SOL    HW130797   0.546   1.209   9.194  1.0648 -1.6805  0.8571
 9728SOL    HW230798   0.446   1.292   9.272 -0.4562 -0.3568 -2.3304
 9729SOL     OW30799   3.207   4.767   6.921  0.5275 -0.1893 -0.3841
 9729SOL    HW130800   3.152   4.692   6.899  0.0213 -0.5850  1.8968
 9729SOL    HW230801   3.290   4.729   6.951  0.7162  0.2155 -0.3829
 9730SOL     OW30802   5.321   0.472   6.222  0.2519 -0.2702  0.5614
 9730SOL    HW130803   5.416   0.480   6.215  0.2945  1.0447  2.0379
 9730SOL    HW230804   5.307   0.433   6.309 -0.5296 -2.4424 -0.4728
 9731SOL     OW30805   3.959   0.864   0.284 -0.1092 -1.1299  0.2507
 9731SOL    HW130806   3.934   0.950   0.318  0.8759 -0.1948 -1.2489
 9731SOL    HW230807   3.878   0.814   0.283 -0.6889 -0.2457  1.2269
 9732SOL     OW30808   1.102   1.467   7.359  0.3662  0.5145  0.0044
 9732SOL    HW130809   1.029   1.518   7.394  0.7569  1.9411 -1.1662
 9732SOL    HW230810   1.164   1.533   7.328  2.2521 -0.6428  1.1196
 9733SOL     OW30811   9.069   1.241   9.140  0.2196 -0.3823 -0.0716
 9733SOL    HW130812   9.079   1.188   9.061  1.2469  0.2275 -0.3665
 9733SOL    HW230813   9.148   1.224   9.191 -0.0408 -0.1126  0.4318
 9734SOL     OW30814   5.217   1.567   6.410  0.5471 -0.1328  0.2698
 9734SOL    HW130815   5.221   1.540   6.502 -0.2720 -2.3045 -0.2730
 9734SOL    HW230816   5.306   1.596   6.391  1.3315 -1.7163  1.2057
 9735SOL     OW30817   1.582   3.401   8.303  0.0471  0.2133  0.1220
 9735SOL    HW130818   1.596   3.389   8.397 -0.9220  1.9598  0.5404
 9735SOL    HW230819   1.493   3.368   8.288 -0.3865  1.3122  0.1546
 9736SOL     OW30820   7.691   0.064   7.085 -0.0694  0.3324  0.2301
 9736SOL    HW130821   7.710   0.016   7.165 -0.3811  1.1725  0.8184
 9736SOL    HW230822   7.628   0.131   7.111 -1.4893 -0.4386 -1.0522
 9737SOL     OW30823   5.799   4.935   8.262 -0.3099 -0.1169 -0.0675
 9737SOL    HW130824   5.798   4.900   8.173 -3.9403 -1.9398  0.4973
 9737SOL    HW230825   5.793   5.030   8.250  0.0537 -0.2772 -1.7537
 9738SOL     OW30826   8.571   1.245   1.865 -0.2002 -0.0288  0.2783
 9738SOL    HW130827   8.511   1.237   1.791  1.5378 -2.7172 -1.0075
 9738SOL    HW230828   8.640   1.304   1.834 -0.8881  1.1141  0.8604
 9739SOL     OW30829   3.401   8.145   2.209  0.3221  0.2227  0.4770
 9739SOL    HW130830   3.407   8.085   2.135 -2.3321  0.0809  0.2857
 9739SOL    HW230831   3.393   8.231   2.170 -1.6814  0.0930  0.5121
 9740SOL     OW30832   7.659   2.548   2.864 -0.0092  0.1806 -0.0435
 9740SOL    HW130833   7.567   2.569   2.855  0.3742  2.0447  0.0706
 9740SOL    HW230834   7.682   2.505   2.782 -0.8036  0.3649 -0.3696
 9741SOL     OW30835   8.773   6.771   6.655  0.9404 -0.1120 -0.6050
 9741SOL    HW130836   8.689   6.812   6.636  0.8608 -0.0518 -0.1264
 9741SOL    HW230837   8.762   6.680   6.628  0.8115 -0.0435 -0.7841
 9742SOL     OW30838   3.143   4.140   1.074  0.1139  0.4280  0.3330
 9742SOL    HW130839   3.074   4.074   1.077  0.7403 -0.2337  0.3678
 9742SOL    HW230840   3.096   4.223   1.066 -0.6702 -0.0473 -0.1667
 9743SOL     OW30841   9.778   9.705   8.208  0.0318 -0.3298 -0.5114
 9743SOL    HW130842   9.686   9.695   8.182 -0.0748 -0.0620 -0.2462
 9743SOL    HW230843   9.825   9.642   8.154 -0.3268 -0.5751 -0.5443
 9744SOL     OW30844   6.097   4.367   8.285  0.5846 -0.4104 -0.1022
 9744SOL    HW130845   6.182   4.326   8.300  0.0993 -1.8883 -1.2545
 9744SOL    HW230846   6.063   4.384   8.373  1.9794  0.0583  0.3741
 9745SOL     OW30847   5.161   1.723   3.105  0.2494 -0.2058 -0.2816
 9745SOL    HW130848   5.080   1.775   3.107  0.9625  1.0941 -2.2179
 9745SOL    HW230849   5.230   1.787   3.122  1.0242 -0.8579 -0.9464
 9746SOL     OW30850   1.754   1.472   6.518  0.6365 -0.5512  0.1545
 9746SOL    HW130851   1.749   1.550   6.574  2.4944 -1.2781  1.4279
 9746SOL    HW230852   1.825   1.490   6.457  0.4460 -0.8690 -0.1665
 9747SOL     OW30853   8.115   4.414   1.965  0.2991 -0.0234  0.4447
 9747SOL    HW130854   8.075   4.500   1.951 -1.7993 -0.6272  2.1105
 9747SOL    HW230855   8.057   4.354   1.918 -0.5079 -0.8624  2.4134
 9748SOL     OW30856   1.398   5.827   1.158  0.5622 -0.0364 -0.1750
 9748SOL    HW130857   1.478   5.815   1.209  1.7844  1.5146 -1.6059
 9748SOL    HW230858   1.345   5.750   1.178  1.9137 -0.5590  1.6769
 9749SOL     OW30859   9.384   4.389   8.295  0.5272 -0.9210 -0.1928
 9749SOL    HW130860   9.397   4.301   8.329  1.4063 -0.0892  1.7999
 9749SOL    HW230861   9.407   4.447   8.368 -1.0996  0.9573 -1.0489
 9750SOL     OW30862   9.411   5.866   0.252 -0.1341 -0.2292  0.1603
 9750SOL    HW130863   9.427   5.777   0.283  0.8984 -0.5190 -1.1087
 9750SOL    HW230864   9.499   5.901   0.234 -0.5351  0.9921  0.5064
 9751SOL     OW30865   2.207   7.480   6.616  0.3786 -0.1262 -0.1286
 9751SOL    HW130866   2.297   7.514   6.616  1.0046 -1.5756 -2.3371
 9751SOL    HW230867   2.155   7.552   6.653  2.3431  0.9665  0.7011
 9752SOL     OW30868   2.410   1.083   9.403 -0.1298 -0.3133 -0.0128
 9752SOL    HW130869   2.349   1.112   9.335 -0.1475  0.2290  0.2271
 9752SOL    HW230870   2.356   1.037   9.467 -0.2454 -0.1015  0.0440
 9753SOL     OW30871   8.736   4.379   5.231 -0.8044 -0.1516  0.6009
 9753SOL    HW130872   8.700   4.291   5.242 -1.8311  0.3900  1.9495
 9753SOL    HW230873   8.668   4.436   5.266  0.3375  1.0965  0.8530
 9754SOL     OW30874   2.865   3.239   3.909  0.6270 -0.1039  0.1513
 9754SOL    HW130875   2.906   3.314   3.952  2.0763 -0.4352 -0.5684
 9754SOL    HW230876   2.893   3.163   3.961  3.1719 -0.6158 -1.7258
 9755SOL     OW30877   6.466   1.640   6.516 -0.1748 -0.0234 -0.7313
 9755SOL    HW130878   6.371   1.634   6.506 -0.2096  0.7002 -0.8559
 9755SOL    HW230879   6.501   1.628   6.428 -0.2050  0.6694 -0.8459
 9756SOL     OW30880   2.548   0.252   5.175 -0.1011 -0.1079 -0.6371
 9756SOL    HW130881   2.548   0.339   5.136  0.7510  0.6668  0.9908
 9756SOL    HW230882   2.480   0.255   5.242 -0.0181 -0.6635 -0.5192
 9757SOL     OW30883   9.660   9.588   5.992  0.0743 -0.0019 -0.2807
 9757SOL    HW130884   9.721   9.575   6.064 -1.1180 -1.4531  0.5284
 9757SOL    HW230885   9.574   9.580   6.032 -0.6372  0.3304 -1.6808
 9758SOL     OW30886   9.018   9.376   0.557 -0.5589 -0.8408 -0.0946
 9758SOL    HW130887   9.026   9.312   0.486 -0.2941 -0.5587 -0.3246
 9758SOL    HW230888   8.926   9.371   0.583 -0.2392 -2.3548  0.8857
 9759SOL     OW30889   2.846   8.291   9.362  0.6161 -0.1534  0.3125
 9759SOL    HW130890   2.936   8.266   9.383  1.2891  1.5709 -0.3099
 9759SOL    HW230891   2.846   8.306   9.267 -0.3202 -0.1382  0.3011
 9760SOL     OW30892   9.244   6.226   5.340  0.2397  0.5732 -0.2106
 9760SOL    HW130893   9.260   6.319   5.325 -1.1387  0.6625 -1.3326
 9760SOL    HW230894   9.232   6.189   5.253  0.4006 -0.5980  0.2441
 9761SOL     OW30895   2.218   2.401   4.318 -0.1022 -0.5808  0.0801
 9761SOL    HW130896   2.171   2.327   4.358 -1.7951  0.2697 -0.2737
 9761SOL    HW230897   2.185   2.478   4.364 -0.1523  0.1807 -1.1934
 9762SOL     OW30898   6.646   6.968   5.823  0.4620  0.3218  0.4568
 9762SOL    HW130899   6.695   6.890   5.796 -0.8437 -0.1599 -0.6093
 9762SOL    HW230900   6.554   6.943   5.812  0.0164  2.4561 -1.2490
 9763SOL     OW30901   3.024   6.121   4.575 -0.0499 -0.5701 -0.1396
 9763SOL    HW130902   3.044   6.149   4.664  0.0024  0.2567 -0.3958
 9763SOL    HW230903   2.928   6.118   4.571 -0.3529  3.5091 -1.1614
 9764SOL     OW30904   2.196   3.779   3.655  0.1949 -0.1867 -0.1130
 9764SOL    HW130905   2.170   3.765   3.746  2.4677  2.2475  1.0409
 9764SOL    HW230906   2.284   3.743   3.648  0.4467  0.5480 -1.0570
 9765SOL     OW30907   6.011   9.343   6.117  0.0610 -0.2460 -0.1229
 9765SOL    HW130908   5.991   9.435   6.098 -0.3933 -0.4718 -0.7580
 9765SOL    HW230909   6.099   9.330   6.082  0.3978  0.1162  0.5617
 9766SOL     OW30910   8.946   8.707   6.384  0.1469 -0.0018 -0.3893
 9766SOL    HW130911   8.937   8.770   6.455 -0.0756  1.0297 -1.3110
 9766SOL    HW230912   9.016   8.648   6.414  0.1518  0.4840  0.6182
 9767SOL     OW30913   3.905   0.486   8.781 -0.2713  0.3505  0.3994
 9767SOL    HW130914   3.908   0.569   8.734  0.4021  0.8620  1.3267
 9767SOL    HW230915   3.971   0.431   8.737 -0.1655  0.5680  0.2866
 9768SOL     OW30916   4.312   8.029   0.937 -0.4964  0.5659  0.0033
 9768SOL    HW130917   4.273   8.020   1.024 -0.8909 -1.7826 -0.3437
 9768SOL    HW230918   4.406   8.013   0.951 -0.7332 -1.1487 -0.1245
 9769SOL     OW30919   0.158   7.164   3.093  0.1968 -0.0042 -0.1019
 9769SOL    HW130920   0.242   7.201   3.067  0.3423  0.8825  1.5367
 9769SOL    HW230921   0.181   7.081   3.135  0.2421  0.1149  0.1119
 9770SOL     OW30922   3.591   7.695   1.580  0.1939  0.3654 -0.3564
 9770SOL    HW130923   3.498   7.717   1.573 -0.4602 -1.4038  1.6860
 9770SOL    HW230924   3.632   7.740   1.506 -2.2742  1.1384 -1.3589
 9771SOL     OW30925   3.976   1.398   0.991  0.4433  0.4082  0.4997
 9771SOL    HW130926   3.932   1.346   0.924  0.0518  0.9236  0.3549
 9771SOL    HW230927   4.065   1.361   0.994  0.5801  0.6056 -0.5584
 9772SOL     OW30928   5.013   4.518   1.399  0.2456  0.1675  0.1802
 9772SOL    HW130929   4.944   4.585   1.403 -0.1573 -0.1775 -0.6502
 9772SOL    HW230930   5.065   4.543   1.323 -0.9782 -1.4277 -1.2758
 9773SOL     OW30931   7.616   9.237   1.960  0.2266 -0.5063 -0.1614
 9773SOL    HW130932   7.649   9.148   1.972  1.3038 -0.7505 -3.6620
 9773SOL    HW230933   7.688   9.294   1.987 -0.9837 -0.4541  3.5434
 9774SOL     OW30934   9.125   9.186   9.223  0.4062  0.4435 -0.4823
 9774SOL    HW130935   9.132   9.184   9.318 -0.7982  2.8639 -0.2752
 9774SOL    HW230936   9.148   9.276   9.199 -2.0685  0.7214 -2.1861
 9775SOL     OW30937   8.920   9.432   3.106 -0.3670  0.2501 -0.2279
 9775SOL    HW130938   8.928   9.337   3.103 -0.0816  0.2392  0.5222
 9775SOL    HW230939   8.992   9.460   3.163  0.0527  0.9872 -1.0990
 9776SOL     OW30940   2.286   0.229   3.306 -0.3963  0.1371 -0.4380
 9776SOL    HW130941   2.345   0.155   3.297 -1.3136 -0.5785 -0.7791
 9776SOL    HW230942   2.215   0.197   3.362 -0.4205  1.0061  0.0545
 9777SOL     OW30943   6.142   0.986   4.911  0.4783  0.3642  0.0821
 9777SOL    HW130944   6.182   1.040   4.843  0.0512 -0.1550 -0.5937
 9777SOL    HW230945   6.079   1.044   4.955  1.7356  1.1077  0.9748
 9778SOL     OW30946   5.225   6.283   7.243  0.1674 -0.4284  0.4253
 9778SOL    HW130947   5.234   6.372   7.275 -1.6139 -0.1571  0.2850
 9778SOL    HW230948   5.175   6.238   7.311 -0.7201 -0.7543 -0.4196
 9779SOL     OW30949   8.301   9.832   6.621 -0.4300 -0.2221 -0.9042
 9779SOL    HW130950   8.377   9.890   6.614 -1.3616  1.3052  0.7519
 9779SOL    HW230951   8.267   9.826   6.532 -0.8532  2.6396 -1.0131
 9780SOL     OW30952   7.450   7.468   4.581  0.0269 -0.2874  0.2564
 9780SOL    HW130953   7.450   7.559   4.552  1.2239 -0.2004  0.4969
 9780SOL    HW230954   7.538   7.436   4.561  0.1743 -0.8821  1.7222
 9781SOL     OW30955   4.245   2.952   5.201 -0.4157  0.2655 -0.4451
 9781SOL    HW130956   4.204   2.918   5.281 -1.6809  1.9380 -0.3380
 9781SOL    HW230957   4.182   2.932   5.132 -1.1484  2.2552 -0.3905
 9782SOL     OW30958   4.424   0.863   1.167 -0.3200 -0.0542 -0.1445
 9782SOL    HW130959   4.432   0.779   1.123  1.1036  0.4234 -0.8679
 9782SOL    HW230960   4.336   0.862   1.206 -2.9958  0.5184 -5.2864
 9783SOL     OW30961   7.672   1.233   4.281 -0.7895 -0.4232 -0.3081
 9783SOL    HW130962   7.763   1.245   4.253 -0.8824  1.2874 -0.0022
 9783SOL    HW230963   7.620   1.250   4.202 -0.8613 -3.0842 -0.9434
 9784SOL     OW30964   8.919   4.831   2.476 -0.3201 -0.0210 -0.0096
 9784SOL    HW130965   8.846   4.797   2.527 -0.3141  0.3945  0.2915
 9784SOL    HW230966   8.976   4.756   2.462  0.2514  0.0669  1.6059
 9785SOL     OW30967   0.124   5.999   3.701  0.3401  0.0243  0.2543
 9785SOL    HW130968   0.208   6.044   3.693 -0.0381  0.9065  1.0355
 9785SOL    HW230969   0.147   5.908   3.720  1.1178 -0.0517 -0.9568
 9786SOL     OW30970   5.449   6.104   5.755  0.1990 -0.1050  0.3859
 9786SOL    HW130971   5.448   6.171   5.823 -4.0597  0.3477  0.1516
 9786SOL    HW230972   5.420   6.024   5.799 -1.0931 -0.1663 -0.5078
 9787SOL     OW30973   2.743   0.540   1.656  0.1562 -0.0377  0.4168
 9787SOL    HW130974   2.716   0.477   1.722  0.8750 -0.9212 -0.0994
 9787SOL    HW230975   2.665   0.593   1.638 -1.1173 -2.1497 -0.6531
 9788SOL     OW30976   3.805   4.409   4.299  0.4700  0.5926 -0.0861
 9788SOL    HW130977   3.774   4.351   4.368 -0.6941  0.4114 -0.7383
 9788SOL    HW230978   3.728   4.426   4.245  1.4597  0.2562 -1.6790
 9789SOL     OW30979   3.763   1.831   2.116 -0.3478 -0.2338 -0.2108
 9789SOL    HW130980   3.675   1.799   2.135 -0.4053 -0.7901 -1.3294
 9789SOL    HW230981   3.752   1.888   2.039  0.1352  0.4366  0.2086
 9790SOL     OW30982   3.365   5.198   4.770 -0.0731 -0.3480  0.1222
 9790SOL    HW130983   3.344   5.107   4.791  1.5738 -0.2592  2.5139
 9790SOL    HW230984   3.281   5.243   4.769 -0.8612 -1.7555 -0.5653
 9791SOL     OW30985   5.938   0.764   4.395  0.4888  0.1869 -0.2073
 9791SOL    HW130986   5.996   0.840   4.408  0.0855  0.5982 -0.7885
 9791SOL    HW230987   5.878   0.791   4.325 -1.9525  0.6861  1.9258
 9792SOL     OW30988   9.505   5.408   5.172  0.5778  0.0879 -0.0605
 9792SOL    HW130989   9.475   5.322   5.201  1.2323 -1.0711 -2.5822
 9792SOL    HW230990   9.595   5.415   5.204  0.3561  0.0801  0.5831
 9793SOL     OW30991   9.691   2.527   1.788  0.0657 -0.4253 -0.3868
 9793SOL    HW130992   9.786   2.519   1.802  0.2816 -1.4995 -2.1484
 9793SOL    HW230993   9.654   2.450   1.831  0.4115 -1.9816 -2.6821
 9794SOL     OW30994   5.659   5.085   3.798  0.5202 -0.4581  0.2904
 9794SOL    HW130995   5.643   4.994   3.774 -0.0671 -0.3720  0.3343
 9794SOL    HW230996   5.575   5.129   3.783  0.3686 -0.2263  1.6333
 9795SOL     OW30997   4.627   3.889   7.996 -0.3000  0.2065 -0.1357
 9795SOL    HW130998   4.552   3.924   7.948  0.9291  2.5127 -0.4954
 9795SOL    HW230999   4.694   3.874   7.928 -0.0629 -0.8675  0.3101
 9796SOL     OW31000   5.322   3.982   9.626  0.3324  0.1280 -0.0661
 9796SOL    HW131001   5.232   3.954   9.646  0.3989  0.7499  1.1926
 9796SOL    HW231002   5.332   4.065   9.672  1.9879 -0.5597  0.8802
 9797SOL     OW31003   1.198   0.158   7.856 -0.2951  0.1012 -0.1188
 9797SOL    HW131004   1.193   0.062   7.856 -1.7765  0.1475 -0.4341
 9797SOL    HW231005   1.119   0.186   7.809  0.5610  1.4730 -0.8003
 9798SOL     OW31006   0.382   7.806   6.782  0.1187  0.2703  0.2543
 9798SOL    HW131007   0.478   7.803   6.774  0.0268  0.5543 -1.3308
 9798SOL    HW231008   0.363   7.756   6.861  1.6071  0.6529  0.8969
 9799SOL     OW31009   1.441   0.400   5.635 -0.0531  0.2211  0.4135
 9799SOL    HW131010   1.453   0.475   5.577  1.2564 -0.4528 -0.2276
 9799SOL    HW231011   1.392   0.336   5.583  2.0221 -0.7996 -0.3838
 9800SOL     OW31012   2.489   0.912   7.923 -0.0258 -0.0090 -0.3924
 9800SOL    HW131013   2.530   0.934   7.839  2.8812 -1.1610  0.5742
 9800SOL    HW231014   2.491   0.817   7.927  3.1369 -0.0443  2.2168
 9801SOL     OW31015   7.602   5.504   2.178  0.5237  0.1920  0.6716
 9801SOL    HW131016   7.513   5.470   2.190  0.0441  0.9193 -0.6701
 9801SOL    HW231017   7.607   5.578   2.239 -0.2618  0.9655 -0.1774
 9802SOL     OW31018   9.128   5.079   7.992  0.3662  0.2371  0.4671
 9802SOL    HW131019   9.152   5.076   7.899  1.2563 -2.7950  0.7095
 9802SOL    HW231020   9.055   5.141   7.996  1.1781  1.4714 -2.0126
 9803SOL     OW31021   7.291   0.807   6.408 -0.0686  0.4523  0.4158
 9803SOL    HW131022   7.346   0.751   6.463 -0.6523 -1.6791 -1.0610
 9803SOL    HW231023   7.348   0.879   6.383  1.2538 -0.3470  1.0041
 9804SOL     OW31024   1.010   1.459   3.689  0.5118  0.1129  0.4401
 9804SOL    HW131025   0.972   1.463   3.601  0.2154  1.7006  0.6201
 9804SOL    HW231026   1.065   1.380   3.687 -0.5396 -0.6384 -0.7202
 9805SOL     OW31027   2.277   2.167   9.785 -0.2027  0.1999  0.3537
 9805SOL    HW131028   2.219   2.093   9.801 -1.1919  0.7390 -0.5877
 9805SOL    HW231029   2.314   2.187   9.871 -0.8500 -0.6192  0.8454
 9806SOL     OW31030   1.829   6.655   2.177 -0.4458 -0.0615 -0.5462
 9806SOL    HW131031   1.876   6.638   2.258 -1.2791 -0.1882 -0.0845
 9806SOL    HW231032   1.747   6.608   2.186 -0.8854  0.5784 -1.1229
 9807SOL     OW31033   4.811   5.398   3.944  0.4269  0.0118  0.0815
 9807SOL    HW131034   4.839   5.315   3.907  0.6189 -0.2383  0.7705
 9807SOL    HW231035   4.776   5.376   4.031  1.5878  0.7637  0.7773
 9808SOL     OW31036   3.122   2.958   5.849 -0.5856  0.0324  0.2115
 9808SOL    HW131037   3.077   2.873   5.850  1.1069 -0.9099 -0.2283
 9808SOL    HW231038   3.215   2.936   5.842 -0.2152  1.9404 -2.1886
 9809SOL     OW31039   4.507   6.805   4.022  0.0621  0.3664  0.1015
 9809SOL    HW131040   4.422   6.814   4.066  0.3229 -1.7997  1.1657
 9809SOL    HW231041   4.521   6.710   4.016  2.9138  0.6574  0.9369
 9810SOL     OW31042   4.462   7.122   8.111 -0.1585  0.2132 -0.5538
 9810SOL    HW131043   4.467   7.204   8.160 -0.0552 -0.3212  0.3574
 9810SOL    HW231044   4.417   7.145   8.030 -2.2980  0.7333  0.6818
 9811SOL     OW31045   3.897   8.685   5.474 -0.5538 -1.0956  0.6222
 9811SOL    HW131046   3.953   8.747   5.522 -0.4966 -0.7405  0.1099
 9811SOL    HW231047   3.958   8.623   5.435 -0.5846 -1.2457  0.8084
 9812SOL     OW31048   5.143   1.420   0.792 -0.1121  0.3484  0.5917
 9812SOL    HW131049   5.235   1.441   0.774 -0.0712 -0.5584 -0.3359
 9812SOL    HW231050   5.146   1.369   0.873  0.4332 -1.3726 -0.4599
 9813SOL     OW31051   1.056   9.367   9.055  0.4818  0.6994  0.1006
 9813SOL    HW131052   1.012   9.291   9.092 -0.0322  0.8713 -0.1315
 9813SOL    HW231053   1.136   9.333   9.016  0.3266  0.3010  0.1242
 9814SOL     OW31054   0.221   1.859   4.813  0.2017 -0.3469 -0.0683
 9814SOL    HW131055   0.167   1.783   4.788  1.6889 -1.1531 -0.9845
 9814SOL    HW231056   0.234   1.850   4.907  0.0943 -1.0580 -0.1158
 9815SOL     OW31057   9.409   4.563   3.882  0.2814 -0.6903 -0.1737
 9815SOL    HW131058   9.412   4.488   3.942  1.6210 -0.3653  0.1962
 9815SOL    HW231059   9.399   4.523   3.796 -0.5100 -1.2148  0.1436
 9816SOL     OW31060   6.675   0.495   9.754 -0.1299 -0.0516 -0.2881
 9816SOL    HW131061   6.610   0.474   9.821 -0.7091  1.1557 -0.4375
 9816SOL    HW231062   6.667   0.425   9.690 -0.2559 -0.6941  0.4223
 9817SOL     OW31063   1.120   1.176   9.064 -0.2657 -0.0316 -0.0171
 9817SOL    HW131064   1.145   1.251   9.118  0.2462  0.4890 -0.9650
 9817SOL    HW231065   1.129   1.100   9.123  0.5300  0.4934  0.5564
 9818SOL     OW31066   8.340   9.316   8.585 -0.1541  0.0510 -0.1909
 9818SOL    HW131067   8.352   9.278   8.498  2.6925  2.9552 -1.2572
 9818SOL    HW231068   8.300   9.401   8.569 -0.1368  0.3921  1.3955
 9819SOL     OW31069   2.768   6.284   5.946 -0.2824  0.2651 -0.1917
 9819SOL    HW131070   2.769   6.228   6.023 -0.3637  2.5467  1.5709
 9819SOL    HW231071   2.689   6.258   5.898 -0.7841 -0.5073  1.0229
 9820SOL     OW31072   9.219   1.643   2.121 -0.0307 -0.2622 -0.3698
 9820SOL    HW131073   9.239   1.552   2.099 -0.1657 -0.3535 -0.1267
 9820SOL    HW231074   9.304   1.686   2.125  0.0406 -0.4003 -0.3993
 9821SOL     OW31075   1.318   9.348   1.261  0.4033  0.0588  0.3077
 9821SOL    HW131076   1.307   9.301   1.178  1.7238 -1.4513  0.9341
 9821SOL    HW231077   1.387   9.411   1.243  2.0442 -1.5373  0.6874
 9822SOL     OW31078   9.836   0.484   9.723 -0.1166 -0.3704  0.1772
 9822SOL    HW131079   9.856   0.467   9.631  1.5635 -0.5870  0.5574
 9822SOL    HW231080   9.765   0.423   9.743  0.3019 -1.1578 -0.6519
 9823SOL     OW31081   8.402   5.948   6.783 -0.3642  0.1124 -0.3700
 9823SOL    HW131082   8.496   5.933   6.776  0.0027  0.8692  1.9347
 9823SOL    HW231083   8.369   5.872   6.832 -0.0763  1.9163  2.9264
 9824SOL     OW31084   7.191   9.440   9.527  0.5871  0.3481  0.0544
 9824SOL    HW131085   7.111   9.485   9.555  0.1806  0.1132 -0.6832
 9824SOL    HW231086   7.205   9.471   9.437  1.7536  0.9587  0.4320
 9825SOL     OW31087   6.751   3.614   0.589 -0.2634  0.3425 -0.3794
 9825SOL    HW131088   6.845   3.627   0.575 -0.1327  0.3934  0.5187
 9825SOL    HW231089   6.735   3.645   0.678 -0.7377 -1.6164  0.2802
 9826SOL     OW31090   7.066   0.848   6.570 -0.4070 -0.1483  0.5976
 9826SOL    HW131091   7.131   0.849   6.499  1.3280 -0.9312  2.0885
 9826SOL    HW231092   7.046   0.755   6.583  0.7241 -0.2026  2.3059
 9827SOL     OW31093   3.644   1.445   1.630 -0.1652  0.2807 -0.5390
 9827SOL    HW131094   3.695   1.524   1.616  1.2442 -0.5702 -0.3327
 9827SOL    HW231095   3.705   1.382   1.668 -1.1532 -1.0311 -1.0288
 9828SOL     OW31096   5.163   0.664   0.417 -0.3833 -0.1724  0.5834
 9828SOL    HW131097   5.220   0.736   0.393 -1.0619  0.6322  1.3354
 9828SOL    HW231098   5.200   0.631   0.499 -0.0676 -0.6999  0.2357
 9829SOL     OW31099   7.546   8.767   5.464  0.4748 -0.0669  0.2799
 9829SOL    HW131100   7.536   8.747   5.371  1.6302  1.3635 -0.1771
 9829SOL    HW231101   7.456   8.784   5.494  0.0166 -1.1748 -0.3922
 9830SOL     OW31102   3.284   3.574   0.577  0.0612 -0.2612 -0.7888
 9830SOL    HW131103   3.301   3.565   0.483  0.7646 -0.6844 -0.6277
 9830SOL    HW231104   3.316   3.492   0.615  0.8441  0.3643 -0.0437
 9831SOL     OW31105   5.777   1.665   6.075 -0.6141 -0.3866 -0.3918
 9831SOL    HW131106   5.751   1.747   6.117  2.0165  1.6243 -2.3079
 9831SOL    HW231107   5.718   1.657   6.000 -0.9075 -0.2794 -0.1742
 9832SOL     OW31108   6.131   4.310   1.752 -0.0885 -0.3782 -0.6439
 9832SOL    HW131109   6.102   4.220   1.764 -0.9220 -0.5355 -3.3416
 9832SOL    HW231110   6.227   4.304   1.749 -0.1152 -1.0783 -0.3145
 9833SOL     OW31111   5.245   0.565   7.733  0.1113 -0.2804 -0.2192
 9833SOL    HW131112   5.199   0.555   7.650 -0.4657 -1.7107  0.2396
 9833SOL    HW231113   5.213   0.493   7.787  3.7982 -2.2267 -0.2674
 9834SOL     OW31114   9.185   6.046   8.703 -0.0626 -0.6484 -0.2652
 9834SOL    HW131115   9.215   6.093   8.625 -2.3674  0.2999 -0.6721
 9834SOL    HW231116   9.247   6.072   8.771  1.1563 -0.3432 -1.4465
 9835SOL     OW31117   4.407   1.565   4.849 -0.5112  0.2339  1.1288
 9835SOL    HW131118   4.491   1.594   4.885 -0.7574 -0.4406  2.3154
 9835SOL    HW231119   4.356   1.645   4.838 -0.8437  0.4095  3.4718
 9836SOL     OW31120   6.013   7.557   9.843  0.2663  0.0226 -0.1989
 9836SOL    HW131121   6.069   7.484   9.872  0.5459  0.0846 -0.5783
 9836SOL    HW231122   5.929   7.540   9.885 -0.1689 -1.3953 -1.5538
 9837SOL     OW31123   0.447   0.664   1.558  0.2642  0.4550  0.1824
 9837SOL    HW131124   0.495   0.596   1.605 -1.1780  0.0898  1.1901
 9837SOL    HW231125   0.499   0.744   1.571  1.6857 -0.3198 -0.5595
 9838SOL     OW31126   8.452   8.619   8.795  0.0605  0.6060  0.4360
 9838SOL    HW131127   8.477   8.592   8.706  2.0339 -1.1130  1.4404
 9838SOL    HW231128   8.439   8.713   8.788 -1.9070  0.2825 -2.1044
 9839SOL     OW31129   7.630   1.792   0.829  0.0214  0.5604 -0.4220
 9839SOL    HW131130   7.556   1.738   0.802  1.7435 -3.2548  1.7056
 9839SOL    HW231131   7.692   1.785   0.757  0.8770 -1.8587  0.4539
 9840SOL     OW31132   6.413   2.233   0.934  0.2924 -0.1342  0.2402
 9840SOL    HW131133   6.440   2.310   0.884 -0.0922  0.0502  0.3147
 9840SOL    HW231134   6.424   2.159   0.874 -2.9665  0.3673 -1.1919
 9841SOL     OW31135   3.367   4.011   3.823 -0.3616 -0.2813 -0.2273
 9841SOL    HW131136   3.276   4.008   3.853 -0.4078 -1.5266 -0.4607
 9841SOL    HW231137   3.380   4.102   3.796 -1.6109 -0.1455 -0.4298
 9842SOL     OW31138   9.551   3.019   0.849 -0.2382 -0.7923  0.3527
 9842SOL    HW131139   9.572   2.941   0.798 -0.4644 -0.7219  0.1485
 9842SOL    HW231140   9.551   3.090   0.785  0.5328 -0.5300  0.6303
 9843SOL     OW31141   1.833   1.879   0.709  0.1310 -0.4184 -0.7100
 9843SOL    HW131142   1.739   1.864   0.697 -0.3828  0.7240  1.4071
 9843SOL    HW231143   1.870   1.792   0.720 -0.8926 -0.8137 -0.2643
 9844SOL     OW31144   6.110   5.152   6.205 -0.0770  0.0015 -0.6972
 9844SOL    HW131145   6.068   5.082   6.154 -0.0262 -0.7227  0.2481
 9844SOL    HW231146   6.036   5.204   6.237 -0.2672 -1.0727  0.6756
 9845SOL     OW31147   7.637   5.667   5.665  0.4706  0.0070 -0.8464
 9845SOL    HW131148   7.577   5.733   5.699  2.4010  0.7143  1.4444
 9845SOL    HW231149   7.589   5.627   5.592 -1.3119  2.9654 -1.4893
 9846SOL     OW31150   3.183   7.824   4.483  0.2225  0.3137  0.0731
 9846SOL    HW131151   3.098   7.836   4.525  0.3080  1.8589 -0.1501
 9846SOL    HW231152   3.240   7.889   4.523  0.5746  1.1628 -1.6729
 9847SOL     OW31153   2.346   8.536   3.340 -0.3661 -0.3025 -0.7368
 9847SOL    HW131154   2.380   8.545   3.251 -1.9286 -0.7647 -1.4203
 9847SOL    HW231155   2.370   8.617   3.384  1.0500 -0.3720 -1.3585
 9848SOL     OW31156   4.492   5.820   2.705 -1.0865  0.5361 -0.4213
 9848SOL    HW131157   4.523   5.884   2.769  1.2306 -0.5256 -0.4228
 9848SOL    HW231158   4.485   5.738   2.754 -1.8472  0.2654 -0.9579
 9849SOL     OW31159   6.445   3.746   4.394 -0.0672 -0.1942 -0.3128
 9849SOL    HW131160   6.515   3.742   4.459 -0.1078 -1.0844 -0.3089
 9849SOL    HW231161   6.419   3.838   4.392  0.1211 -0.1045  0.7267
 9850SOL     OW31162   8.426   0.986   8.329 -0.4156  0.0768 -0.5712
 9850SOL    HW131163   8.411   1.062   8.272 -3.1551 -0.0729 -0.1716
 9850SOL    HW231164   8.355   0.926   8.308  0.4262 -1.4424  0.7046
 9851SOL     OW31165   7.169   5.026   6.701 -0.2729  0.3556 -0.0552
 9851SOL    HW131166   7.152   5.031   6.607 -0.7609  0.6267  0.0437
 9851SOL    HW231167   7.174   5.118   6.729  2.0552  0.3404 -0.1852
 9852SOL     OW31168   0.075   3.862   3.266 -0.1963  0.0125 -0.7955
 9852SOL    HW131169   0.046   3.949   3.296 -1.6163 -1.1671  1.5230
 9852SOL    HW231170   0.011   3.838   3.199 -0.5782  0.2292 -0.5169
 9853SOL     OW31171   3.583   1.213   3.481 -0.0170 -0.0049  0.2480
 9853SOL    HW131172   3.584   1.257   3.566 -0.9175  0.5254 -0.0015
 9853SOL    HW231173   3.650   1.145   3.488 -0.3027 -0.1788  1.5008
 9854SOL     OW31174   2.425   4.020   7.643 -0.5515  0.0122 -0.4424
 9854SOL    HW131175   2.338   4.032   7.682 -0.6288  0.7115 -0.7994
 9854SOL    HW231176   2.475   3.972   7.709  0.3148  3.7958  1.9945
 9855SOL     OW31177   0.328   7.351   0.937 -0.4942  0.3515  0.1405
 9855SOL    HW131178   0.324   7.441   0.968  0.3671  0.4283  0.0423
 9855SOL    HW231179   0.421   7.335   0.919 -0.7765 -0.1603 -0.9816
 9856SOL     OW31180   8.894   5.580   0.557 -0.7103  0.2359  0.1482
 9856SOL    HW131181   8.845   5.658   0.530 -0.5112  0.5110  0.5733
 9856SOL    HW231182   8.888   5.581   0.652 -0.5750 -0.1864  0.1591
 9857SOL     OW31183   3.489   2.897   1.560  0.2665  0.5299 -0.2358
 9857SOL    HW131184   3.582   2.898   1.580  0.6765  2.1770 -1.9054
 9857SOL    HW231185   3.446   2.888   1.645  1.9348  0.2038  0.6028
 9858SOL     OW31186   5.555   3.956   6.529 -0.4883 -0.7552 -0.0862
 9858SOL    HW131187   5.609   4.005   6.467  0.5360 -2.8171 -0.9304
 9858SOL    HW231188   5.467   3.956   6.491 -1.1629  2.4235  1.1740
 9859SOL     OW31189   8.892   6.685   8.261  0.8246  0.5486  0.0775
 9859SOL    HW131190   8.935   6.767   8.287 -0.7791  1.6990 -0.7580
 9859SOL    HW231191   8.834   6.710   8.190 -1.4917 -0.8669  1.3639
 9860SOL     OW31192   3.439   8.923   8.207  0.2440 -0.1865 -0.2594
 9860SOL    HW131193   3.379   8.977   8.258  0.4243 -0.5478  0.3414
 9860SOL    HW231194   3.430   8.835   8.244 -0.4710 -0.7142 -1.5867
 9861SOL     OW31195   4.800   6.428   8.856 -0.5249 -0.4811  0.5605
 9861SOL    HW131196   4.816   6.513   8.816  0.9675 -0.9930 -0.0012
 9861SOL    HW231197   4.847   6.431   8.939  0.0341 -0.9574  0.2679
 9862SOL     OW31198   5.942   3.186   2.465 -0.1558 -0.0874  0.2189
 9862SOL    HW131199   5.947   3.194   2.370 -2.1016 -0.4131  0.0420
 9862SOL    HW231200   5.891   3.263   2.493  2.4806  1.4000  1.3353
 9863SOL     OW31201   2.813   3.823   8.270  0.4002 -0.7354 -0.1061
 9863SOL    HW131202   2.895   3.773   8.268  0.3208 -0.9163 -2.4761
 9863SOL    HW231203   2.797   3.841   8.362  1.9656 -2.5817  0.5819
 9864SOL     OW31204   2.376   6.031   9.063  0.0812  0.4877  0.5145
 9864SOL    HW131205   2.398   6.018   8.971  0.8263 -1.2558  0.9051
 9864SOL    HW231206   2.438   6.098   9.093  0.3378  0.5182 -0.0687
 9865SOL     OW31207   4.274   9.261   0.195  0.2545 -0.4330 -0.1230
 9865SOL    HW131208   4.364   9.271   0.225  0.5808 -2.1813 -0.4193
 9865SOL    HW231209   4.282   9.227   0.106 -0.7218  1.1961 -0.8933
 9866SOL     OW31210   1.937   7.639   5.368  0.2294 -0.3587  0.5029
 9866SOL    HW131211   2.019   7.686   5.381 -0.0239 -0.0131  0.8808
 9866SOL    HW231212   1.871   7.695   5.407 -0.0581 -1.1227  1.1288
 9867SOL     OW31213   2.105   4.582   4.328  0.0998  0.3241  0.5189
 9867SOL    HW131214   2.113   4.497   4.284  0.8093  0.1449  0.9803
 9867SOL    HW231215   2.027   4.572   4.383  0.0821  0.0262  0.4455
 9868SOL     OW31216   5.043   1.660   3.676 -0.2301 -0.0258 -0.4928
 9868SOL    HW131217   5.109   1.715   3.719  0.0934 -0.9552  0.2330
 9868SOL    HW231218   5.076   1.647   3.587  0.0293  0.3882 -0.4572
 9869SOL     OW31219   0.346   3.837   3.891  0.2829  0.0812 -0.1694
 9869SOL    HW131220   0.358   3.875   3.803 -2.4546 -1.2142 -1.2056
 9869SOL    HW231221   0.425   3.784   3.905  1.1916  1.0418 -1.4296
 9870SOL     OW31222   3.815   4.897   9.373 -0.5804 -0.0857 -0.5633
 9870SOL    HW131223   3.770   4.909   9.457  0.8498  0.2234  0.1922
 9870SOL    HW231224   3.906   4.881   9.397 -0.1173  0.1298 -2.0720
 9871SOL     OW31225   2.240   7.951   7.256 -0.2287  0.2928 -0.2115
 9871SOL    HW131226   2.257   7.904   7.338 -1.1354 -0.4219 -0.4097
 9871SOL    HW231227   2.326   7.972   7.221  0.1743 -0.2141  0.4701
 9872SOL     OW31228   1.703   3.126   4.987  0.0304 -0.6855 -0.7502
 9872SOL    HW131229   1.709   3.035   5.015 -1.9032  0.0636  2.6717
 9872SOL    HW231230   1.613   3.134   4.953 -0.7642  0.4077  1.4277
 9873SOL     OW31231   1.266   0.885   8.723  0.2707  0.1542 -0.4821
 9873SOL    HW131232   1.243   0.970   8.686  2.0581  0.3692 -1.1953
 9873SOL    HW231233   1.296   0.905   8.812  3.3636  0.7377 -1.5401
 9874SOL     OW31234   5.212   3.931   0.469 -0.1056  0.5960 -0.0647
 9874SOL    HW131235   5.216   3.879   0.550 -1.8627  0.6935  0.1202
 9874SOL    HW231236   5.198   4.021   0.499 -1.6352  0.5135 -0.4745
 9875SOL     OW31237   8.669   2.293   8.872  0.0141  0.0231  0.1667
 9875SOL    HW131238   8.745   2.275   8.817 -1.5359 -0.4426 -2.0015
 9875SOL    HW231239   8.652   2.386   8.858  0.1634  0.1246  0.6411
 9876SOL     OW31240   2.567   8.614   1.966 -0.1137 -0.4917 -0.2249
 9876SOL    HW131241   2.628   8.603   1.893  0.3408 -0.7078  0.1761
 9876SOL    HW231242   2.617   8.664   2.031 -1.8024  3.4421 -1.6317
 9877SOL     OW31243   1.793   1.478   4.864  0.0425 -0.1476 -0.0372
 9877SOL    HW131244   1.763   1.387   4.873 -0.8940  0.1464 -0.1338
 9877SOL    HW231245   1.884   1.469   4.835 -0.0940 -1.0581 -0.2426
 9878SOL     OW31246   4.592   5.879   5.319 -0.0071  0.5714  0.5713
 9878SOL    HW131247   4.621   5.841   5.401 -1.7484 -1.6491  0.2762
 9878SOL    HW231248   4.547   5.960   5.344  0.6355  0.6084  1.6420
 9879SOL     OW31249   9.197   9.702   2.610 -0.2902  0.7585  0.3193
 9879SOL    HW131250   9.274   9.705   2.666  0.9112 -0.5499 -1.1744
 9879SOL    HW231251   9.232   9.704   2.521 -1.9531 -0.1119 -0.3934
 9880SOL     OW31252   2.146   4.376   3.979  0.3812  0.0520  0.1221
 9880SOL    HW131253   2.184   4.289   3.965  0.3559 -0.2106  1.4751
 9880SOL    HW231254   2.118   4.374   4.071  0.8016  1.6500  0.3095
 9881SOL     OW31255   2.569   9.256   3.229  0.3281  0.1244  0.3922
 9881SOL    HW131256   2.483   9.220   3.206 -0.2353  1.6672 -0.0398
 9881SOL    HW231257   2.625   9.235   3.154  0.1511 -0.3208  0.3854
 9882SOL     OW31258   7.206   5.082   2.006 -0.0560  0.2598 -0.1813
 9882SOL    HW131259   7.140   5.014   2.014 -0.0322  0.2509 -0.0521
 9882SOL    HW231260   7.181   5.132   1.929 -0.3511  0.4052  0.0076
 9883SOL     OW31261   3.151   1.636   8.309  0.0772 -0.2597  0.2054
 9883SOL    HW131262   3.074   1.601   8.354  1.1800 -1.3923  1.3077
 9883SOL    HW231263   3.152   1.590   8.225 -0.1567 -0.6594  0.4163
 9884SOL     OW31264   5.240   1.105   3.481 -0.0099 -0.2576  0.2060
 9884SOL    HW131265   5.223   1.024   3.529 -2.8128 -1.2403 -2.1441
 9884SOL    HW231266   5.250   1.171   3.550 -4.7375 -1.3612  2.4328
 9885SOL     OW31267   5.222   7.822   0.950 -0.2005 -0.2297  0.1775
 9885SOL    HW131268   5.213   7.914   0.927 -2.9740 -0.3260  0.4432
 9885SOL    HW231269   5.218   7.776   0.867 -0.1990 -0.1654  0.1416
 9886SOL     OW31270   6.310   5.046   2.533 -0.1885 -0.0255  0.5698
 9886SOL    HW131271   6.286   4.959   2.499 -0.3267 -0.1618  1.0104
 9886SOL    HW231272   6.381   5.075   2.476 -0.2878 -0.3331  0.2828
 9887SOL     OW31273   0.978   2.644   3.596 -0.3759  0.0199  0.0755
 9887SOL    HW131274   1.025   2.564   3.618  1.0856  0.4749 -1.1587
 9887SOL    HW231275   0.940   2.627   3.510  0.5425  0.8446 -0.5242
 9888SOL     OW31276   9.347   6.934   6.523 -0.0876 -0.0863 -0.0507
 9888SOL    HW131277   9.312   6.848   6.545 -0.8809 -0.5280 -2.6766
 9888SOL    HW231278   9.286   6.996   6.563 -0.8783 -0.8069 -0.1156
 9889SOL     OW31279   0.734   5.145   0.991  0.0297  0.6337 -0.2312
 9889SOL    HW131280   0.799   5.085   1.029  0.8582  0.2412 -2.1510
 9889SOL    HW231281   0.785   5.223   0.967 -0.6402  1.2272  0.2449
 9890SOL     OW31282   5.418   4.390   1.775  0.7616  0.3197  0.4710
 9890SOL    HW131283   5.424   4.445   1.697 -0.9889 -3.0091 -2.2452
 9890SOL    HW231284   5.328   4.403   1.806  0.0401 -1.4754 -0.7097
 9891SOL     OW31285   7.897   2.091   0.776  0.3121  0.0792 -0.3545
 9891SOL    HW131286   7.817   2.087   0.724 -1.0957  0.2118  1.6906
 9891SOL    HW231287   7.952   2.020   0.740 -0.8629 -0.2822 -1.5301
 9892SOL     OW31288   2.250   4.298   9.626 -0.3147  0.3958  0.5524
 9892SOL    HW131289   2.179   4.303   9.562 -1.5069  0.0639  1.8037
 9892SOL    HW231290   2.321   4.253   9.579 -0.7275  1.1793 -0.8771
 9893SOL     OW31291   4.774   4.550   5.063 -0.1756  0.4520  0.2510
 9893SOL    HW131292   4.707   4.566   4.997 -0.7147  2.0515  1.1255
 9893SOL    HW231293   4.845   4.506   5.016 -0.8612  0.8460 -1.2063
 9894SOL     OW31294   1.162   6.637   8.548 -0.1125  0.1615  0.4028
 9894SOL    HW131295   1.148   6.638   8.454  0.1688  1.5887  0.3597
 9894SOL    HW231296   1.097   6.699   8.583  0.9095  0.9444  0.9624
 9895SOL     OW31297   6.274   3.435   1.874 -0.5252  0.9030 -0.2295
 9895SOL    HW131298   6.192   3.394   1.846 -0.6152  0.8231  0.1442
 9895SOL    HW231299   6.288   3.403   1.964 -1.9009  3.6118  1.0555
 9896SOL     OW31300   0.065   1.893   4.015 -0.0315 -0.7037 -0.3721
 9896SOL    HW131301   0.072   1.825   4.082  1.1553 -0.7149 -0.4912
 9896SOL    HW231302   0.152   1.897   3.976 -0.5141 -0.1804 -1.4187
 9897SOL     OW31303   4.990   6.654   4.775 -0.1429 -0.1233 -0.1516
 9897SOL    HW131304   5.070   6.678   4.821 -0.4705  0.6796  0.0147
 9897SOL    HW231305   4.986   6.715   4.702  0.4097 -1.4246 -1.3195
 9898SOL     OW31306   9.586   4.074   6.739 -0.3625  0.4913 -0.4795
 9898SOL    HW131307   9.591   4.118   6.654  0.4941  0.8997 -0.2260
 9898SOL    HW231308   9.502   4.102   6.776  0.3059  2.2365 -0.1746
 9899SOL     OW31309   1.177   9.180   5.157  0.0654  0.4142 -0.1528
 9899SOL    HW131310   1.085   9.170   5.132 -0.2898  1.4636  0.7025
 9899SOL    HW231311   1.203   9.092   5.185 -0.8273  0.2107  0.0833
 9900SOL     OW31312   6.582   5.319   4.622 -0.9806 -0.5136  0.0323
 9900SOL    HW131313   6.542   5.311   4.708  1.8085  0.2762  1.5062
 9900SOL    HW231314   6.623   5.405   4.622  1.6811 -1.6636 -0.8423
 9901SOL     OW31315   3.600   1.115   2.703 -0.6999  0.2827  0.0926
 9901SOL    HW131316   3.687   1.087   2.676 -1.2624 -0.9997 -0.5000
 9901SOL    HW231317   3.542   1.085   2.633 -1.6757  0.7409  0.6725
 9902SOL     OW31318   1.655   6.561   8.541 -0.6385 -0.1199 -0.6483
 9902SOL    HW131319   1.682   6.652   8.526 -1.7706  0.3432  0.0532
 9902SOL    HW231320   1.586   6.567   8.607  1.5467 -1.7426  2.0218
 9903SOL     OW31321   4.436   0.730   0.091  0.6245 -0.6376  0.5127
 9903SOL    HW131322   4.450   0.692   0.004 -1.8226  2.5085 -1.5201
 9903SOL    HW231323   4.374   0.671   0.133  0.0480 -1.0557 -0.8645
 9904SOL     OW31324   8.983   3.135   2.887 -0.0548  0.2095 -0.5011
 9904SOL    HW131325   8.893   3.147   2.856 -0.7869 -1.4925  0.7833
 9904SOL    HW231326   8.980   3.158   2.980  0.4953 -1.1117 -0.1306
 9905SOL     OW31327   5.159   3.493   4.550 -0.7886  0.5847  0.0773
 9905SOL    HW131328   5.171   3.414   4.498 -4.0621 -0.5785  0.8074
 9905SOL    HW231329   5.228   3.552   4.521  2.7625 -2.9287  0.4539
 9906SOL     OW31330   2.808   7.849   7.945  0.3064  0.1570  0.1569
 9906SOL    HW131331   2.817   7.936   7.983 -0.2555 -0.3920  1.6342
 9906SOL    HW231332   2.784   7.865   7.853  0.5193  1.5430  0.3250
 9907SOL     OW31333   8.470   3.169   5.787  0.0008 -0.2481  0.1611
 9907SOL    HW131334   8.501   3.257   5.765  3.6593 -1.0541  1.3079
 9907SOL    HW231335   8.535   3.111   5.749 -0.6251 -2.2770  1.9916
 9908SOL     OW31336   1.443   1.654   4.393 -0.0889  0.1265 -0.0997
 9908SOL    HW131337   1.431   1.629   4.484  3.1763  1.3222  0.8112
 9908SOL    HW231338   1.513   1.596   4.361  0.4223  1.2474 -1.0970
 9909SOL     OW31339   6.547   0.581   0.239 -0.2047 -0.2902 -0.7705
 9909SOL    HW131340   6.626   0.635   0.243 -0.1461 -0.4337  0.7074
 9909SOL    HW231341   6.475   0.644   0.237 -0.0860 -0.1530 -0.7017
 9910SOL     OW31342   6.649   9.586   3.986  0.7607  0.3154  0.1232
 9910SOL    HW131343   6.656   9.644   4.062 -0.1898  0.6543 -0.0435
 9910SOL    HW231344   6.688   9.636   3.914 -1.0717  1.2442 -0.2779
 9911SOL     OW31345   9.264   8.918   1.222 -0.0907  0.7945 -0.0949
 9911SOL    HW131346   9.214   8.933   1.303 -0.4125 -1.4992  0.2134
 9911SOL    HW231347   9.203   8.941   1.152 -0.5716  0.7977  0.3118
 9912SOL     OW31348   9.052   3.109   2.033  0.0237 -0.2112  0.8218
 9912SOL    HW131349   9.049   3.014   2.029  0.2572 -0.2781  1.8980
 9912SOL    HW231350   8.986   3.138   1.971  1.5442 -1.0079 -1.2913
 9913SOL     OW31351   4.513   9.683   4.076 -0.5306 -0.0800 -0.3533
 9913SOL    HW131352   4.594   9.733   4.089 -0.1334 -1.0126  0.9561
 9913SOL    HW231353   4.463   9.734   4.012  0.5607  1.1422 -0.2661
 9914SOL     OW31354   6.104   5.923   8.130  0.2376  0.0150  0.1663
 9914SOL    HW131355   6.096   6.018   8.118  0.7394  0.2288  1.3444
 9914SOL    HW231356   6.034   5.901   8.192 -0.2080 -0.4771 -0.5081
 9915SOL     OW31357   9.362   4.118   6.907  0.6098 -0.2947 -0.0970
 9915SOL    HW131358   9.271   4.091   6.896  0.5092  0.6483 -1.9502
 9915SOL    HW231359   9.357   4.199   6.958  0.1176  1.1766 -2.3178
 9916SOL     OW31360   5.380   5.827   9.632 -0.4927  0.2648  0.9588
 9916SOL    HW131361   5.313   5.758   9.632 -0.4206  0.1894  0.2709
 9916SOL    HW231362   5.395   5.845   9.540 -2.5012  3.1740  1.0536
 9917SOL     OW31363   1.099   0.911   4.464  0.1016 -0.4282 -0.1736
 9917SOL    HW131364   1.148   0.829   4.467 -0.2506 -0.6715 -0.8774
 9917SOL    HW231365   1.011   0.886   4.434 -0.4524  0.0110  1.0298
 9918SOL     OW31366   3.007   2.955   7.218 -0.2608  0.0115 -0.2665
 9918SOL    HW131367   3.018   2.862   7.236  0.2668  0.1229 -0.0094
 9918SOL    HW231368   2.920   2.976   7.253  0.0111 -0.1760  0.5435
 9919SOL     OW31369   6.341   1.486   6.776  0.3254  0.5513 -0.6183
 9919SOL    HW131370   6.334   1.543   6.699 -1.0853 -2.2673 -2.7540
 9919SOL    HW231371   6.251   1.461   6.796  0.9717 -2.7785 -1.3722
 9920SOL     OW31372   7.911   3.557   7.575 -0.0036 -0.1889 -0.2529
 9920SOL    HW131373   7.984   3.540   7.516  1.5029  2.6780  0.6131
 9920SOL    HW231374   7.867   3.633   7.538  0.2626  0.9397  1.5991
 9921SOL     OW31375   4.618   1.778   1.614  0.0372 -0.3029  0.0587
 9921SOL    HW131376   4.677   1.749   1.544  1.1138  3.8321 -1.0490
 9921SOL    HW231377   4.535   1.793   1.570 -0.3466 -1.1015  0.4925
 9922SOL     OW31378   1.906   9.321   4.113 -0.2245  0.3611 -0.3988
 9922SOL    HW131379   1.860   9.291   4.035  0.7753 -1.9241 -0.2097
 9922SOL    HW231380   1.996   9.290   4.101 -0.3070 -1.1785  2.1445
 9923SOL     OW31381   7.573   0.352   5.915 -0.0288 -0.2629 -0.4309
 9923SOL    HW131382   7.666   0.339   5.896 -0.3565 -0.9011 -1.6731
 9923SOL    HW231383   7.533   0.266   5.902 -0.6995 -0.1587  0.7622
 9924SOL     OW31384   6.808   8.541   4.461 -0.1161  0.4015  0.1350
 9924SOL    HW131385   6.836   8.513   4.374  1.5627  1.2262  0.3872
 9924SOL    HW231386   6.740   8.606   4.444 -1.6243 -1.2346 -0.4862
 9925SOL     OW31387   1.416   4.803   6.610 -0.2192  0.1996 -0.2439
 9925SOL    HW131388   1.464   4.770   6.686 -1.1391  0.0349  0.2795
 9925SOL    HW231389   1.426   4.898   6.614 -1.7866  0.3566  1.1725
 9926SOL     OW31390   2.625   8.546   5.511  0.4030 -0.7596 -0.1256
 9926SOL    HW131391   2.635   8.460   5.470  3.4715 -0.3219 -0.4925
 9926SOL    HW231392   2.652   8.533   5.602 -1.0459 -0.5548  0.3604
 9927SOL     OW31393   0.662   8.509   9.214  0.1450 -0.2896  0.2758
 9927SOL    HW131394   0.669   8.414   9.205 -0.4285 -0.3613  0.5437
 9927SOL    HW231395   0.739   8.544   9.169  0.2441 -0.8707 -0.0037
 9928SOL     OW31396   6.323   0.735   0.178  0.3626 -0.5300 -0.6903
 9928SOL    HW131397   6.273   0.744   0.097 -0.5197  0.4574 -0.0508
 9928SOL    HW231398   6.258   0.717   0.245  1.0083 -0.6081 -0.0655
 9929SOL     OW31399   8.188   1.963   0.103  0.1998  0.0051  0.2902
 9929SOL    HW131400   8.214   1.892   0.044 -1.3709 -0.9065  0.6214
 9929SOL    HW231401   8.237   1.946   0.184  1.1836  0.3637 -0.2128
 9930SOL     OW31402   4.849   4.782   1.971  0.0279  0.2984 -0.2079
 9930SOL    HW131403   4.765   4.737   1.961 -0.2158  0.3789  1.3279
 9930SOL    HW231404   4.880   4.758   2.058  1.4545  0.5264 -0.6321
 9931SOL     OW31405   5.813   3.367   8.715  0.5590 -0.0514 -0.0853
 9931SOL    HW131406   5.807   3.274   8.738  0.5379 -0.1126 -0.3366
 9931SOL    HW231407   5.767   3.412   8.786  0.4431 -0.2428 -0.0375
 9932SOL     OW31408   7.975   3.632   6.445 -0.1516 -0.1324 -0.7445
 9932SOL    HW131409   7.983   3.720   6.409  0.4728  0.2065  0.1936
 9932SOL    HW231410   8.005   3.575   6.375 -1.0757  0.3474 -1.5643
 9933SOL     OW31411   0.321   4.033   5.997 -0.8300  0.6972 -0.0996
 9933SOL    HW131412   0.371   4.009   6.074 -0.1513  1.3902 -0.3072
 9933SOL    HW231413   0.387   4.055   5.931 -1.3517 -1.2346 -1.3466
 9934SOL     OW31414   8.385   1.440   9.187  0.0020 -0.0071 -0.0887
 9934SOL    HW131415   8.411   1.454   9.096  1.5251 -1.1424  0.1324
 9934SOL    HW231416   8.440   1.501   9.236 -0.5666  0.3519  0.1077
 9935SOL     OW31417   8.445   2.748   6.789  0.1272 -0.1201  0.1046
 9935SOL    HW131418   8.461   2.653   6.791 -0.0277 -0.1429  0.5478
 9935SOL    HW231419   8.361   2.758   6.835 -0.8573  0.0428 -1.6514
 9936SOL     OW31420   9.689   6.272   3.359 -0.1741  0.1284  0.2035
 9936SOL    HW131421   9.609   6.233   3.325 -0.9490  0.7851  1.2117
 9936SOL    HW231422   9.704   6.227   3.443  0.0113  0.6246  0.4395
 9937SOL     OW31423   6.424   9.008   0.362 -0.2879 -0.1048 -0.1435
 9937SOL    HW131424   6.377   8.927   0.345 -1.3400  0.4082  0.2450
 9937SOL    HW231425   6.363   9.077   0.337  1.0855  0.5854 -1.7651
 9938SOL     OW31426   2.618   7.020   5.662  0.2477 -0.0105 -0.2070
 9938SOL    HW131427   2.601   7.074   5.584  0.2372  1.5924  0.8678
 9938SOL    HW231428   2.542   6.962   5.667 -0.6555  1.0993 -0.4086
 9939SOL     OW31429   8.717   4.905   8.277 -0.2694 -0.4611  0.2966
 9939SOL    HW131430   8.727   4.982   8.334  1.0024 -0.7331  0.4791
 9939SOL    HW231431   8.643   4.927   8.221 -0.2203  0.7091  0.6485
 9940SOL     OW31432   8.168   1.346   4.931  0.9014 -0.0899  0.9666
 9940SOL    HW131433   8.129   1.353   4.844  1.7132 -0.4182  0.5647
 9940SOL    HW231434   8.095   1.362   4.991  0.4561  0.7319  0.2254
 9941SOL     OW31435   2.536   4.703   8.095  0.5259  0.1789  0.8136
 9941SOL    HW131436   2.608   4.746   8.049 -1.5907  1.9570 -1.0960
 9941SOL    HW231437   2.564   4.700   8.186  2.9643  0.8013  0.1533
 9942SOL     OW31438   7.330   2.753   6.289  0.3727 -0.3240 -0.4332
 9942SOL    HW131439   7.242   2.720   6.305  0.4234  0.0408  0.6814
 9942SOL    HW231440   7.375   2.743   6.373  1.3897 -0.4856 -0.9777
 9943SOL     OW31441   0.263   9.827   6.785  0.5571  0.3235 -0.2230
 9943SOL    HW131442   0.233   9.827   6.694  0.6946  0.2764 -0.2694
 9943SOL    HW231443   0.210   9.893   6.828 -0.1980 -0.3388 -0.1077
 9944SOL     OW31444   8.202   4.239   3.784 -0.2036 -0.1812  0.6636
 9944SOL    HW131445   8.276   4.289   3.818 -1.4633  0.7873  2.1658
 9944SOL    HW231446   8.130   4.260   3.844 -1.4843 -1.7265 -0.2463
 9945SOL     OW31447   1.986   7.255   3.109 -0.0292  0.2543 -0.1286
 9945SOL    HW131448   2.053   7.261   3.040 -0.4258 -0.9664 -0.6532
 9945SOL    HW231449   1.921   7.194   3.073 -0.0709 -0.6770  1.4602
 9946SOL     OW31450   0.996   5.483   8.268  0.1627 -0.8157 -0.2080
 9946SOL    HW131451   1.062   5.482   8.337 -0.4734  0.2173  0.4395
 9946SOL    HW231452   0.961   5.572   8.270 -0.5840 -1.0719 -1.1790
 9947SOL     OW31453   7.263   2.675   8.970  0.6083  0.6535  0.1803
 9947SOL    HW131454   7.338   2.692   9.027  0.7675  0.9229 -0.1100
 9947SOL    HW231455   7.239   2.584   8.989  1.7998  0.1478 -0.6394
 9948SOL     OW31456   4.215   5.537   6.832 -0.2941 -0.3356 -0.4492
 9948SOL    HW131457   4.171   5.544   6.748 -0.4556  0.9355 -0.2751
 9948SOL    HW231458   4.199   5.621   6.875 -2.0111 -1.6739  1.7404
 9949SOL     OW31459   6.586   0.326   7.756  0.3309  0.5095  0.1975
 9949SOL    HW131460   6.629   0.325   7.842 -0.3745 -0.6546  0.5621
 9949SOL    HW231461   6.658   0.337   7.694  0.8228  1.6657  0.9296
 9950SOL     OW31462   2.197   2.856   9.370  0.0035  0.2570 -0.3651
 9950SOL    HW131463   2.268   2.799   9.402 -0.1705 -0.3099 -0.9762
 9950SOL    HW231464   2.120   2.829   9.422  0.0268  0.2576 -0.3293
 9951SOL     OW31465   9.113   0.528   5.001  0.2650 -0.1845  0.2413
 9951SOL    HW131466   9.112   0.503   5.093  1.1493  1.3850  0.7092
 9951SOL    HW231467   9.206   0.539   4.980  0.2027 -1.9991 -1.2906
 9952SOL     OW31468   6.586   2.742   4.207  0.0830  0.2993 -0.3204
 9952SOL    HW131469   6.593   2.730   4.301 -1.8206  0.4451 -0.1050
 9952SOL    HW231470   6.509   2.691   4.182  0.0365  0.9570 -1.6478
 9953SOL     OW31471   8.319   9.349   6.317  0.5346 -0.4072 -0.1819
 9953SOL    HW131472   8.412   9.348   6.293  0.8093 -1.8609  0.7891
 9953SOL    HW231473   8.318   9.388   6.405  0.2504 -0.6374 -0.0826
 9954SOL     OW31474   6.428   3.920   1.965  0.1557  0.3311  0.0950
 9954SOL    HW131475   6.517   3.953   1.954  0.2499 -0.1466 -0.6119
 9954SOL    HW231476   6.439   3.832   1.999 -0.0203 -0.0067 -0.7012
 9955SOL     OW31477   3.510   1.941   0.390 -0.0272 -0.1383 -0.3451
 9955SOL    HW131478   3.548   1.861   0.354  0.8276 -0.1591  0.5659
 9955SOL    HW231479   3.532   2.009   0.326  1.1808 -0.2323 -0.0490
 9956SOL     OW31480   4.567   8.837   7.418 -0.4871 -0.5109 -0.1713
 9956SOL    HW131481   4.512   8.898   7.467  0.0771  1.1996 -1.5378
 9956SOL    HW231482   4.656   8.854   7.450 -0.1980  0.1627 -1.2526
 9957SOL     OW31483   4.723   1.155   5.557 -0.2343  0.1381  0.2127
 9957SOL    HW131484   4.812   1.147   5.590 -0.7204  0.0294  1.5515
 9957SOL    HW231485   4.671   1.094   5.611 -0.6050 -2.4253 -2.7321
 9958SOL     OW31486   0.730   6.536   3.685 -0.2874  0.1239  0.0353
 9958SOL    HW131487   0.652   6.577   3.722  0.6850  1.3309  0.8002
 9958SOL    HW231488   0.797   6.604   3.688  1.5845 -1.6646  1.9959
 9959SOL     OW31489   7.764   4.164   6.233 -0.5018  0.0648  0.4578
 9959SOL    HW131490   7.771   4.252   6.271 -1.2857  0.5417 -0.4742
 9959SOL    HW231491   7.855   4.136   6.221 -0.2404  0.3791  1.5738
 9960SOL     OW31492   3.325   1.531   6.807  0.0065 -0.3702  0.0519
 9960SOL    HW131493   3.317   1.539   6.902 -0.0869  1.6859 -0.0829
 9960SOL    HW231494   3.418   1.520   6.792  0.1870  0.6533  0.3361
 9961SOL     OW31495   4.562   6.365   4.762 -0.3946  0.3401 -0.4511
 9961SOL    HW131496   4.481   6.412   4.781 -0.7125 -0.0655 -0.7775
 9961SOL    HW231497   4.556   6.284   4.813  0.1762  0.6784  0.1556
 9962SOL     OW31498   1.137   9.479   7.419  0.2104  0.1074  0.3229
 9962SOL    HW131499   1.225   9.511   7.439  0.6731  0.4122 -1.9474
 9962SOL    HW231500   1.131   9.483   7.324 -1.7962 -1.1914  0.3396
 9963SOL     OW31501   5.205   1.585   3.463 -0.1463 -1.0294  0.2539
 9963SOL    HW131502   5.226   1.497   3.496  1.0640 -0.3397  1.4363
 9963SOL    HW231503   5.269   1.642   3.506 -0.3483  0.3275 -1.1636
 9964SOL     OW31504   7.106   4.557   2.367  0.3582 -0.3685 -0.3808
 9964SOL    HW131505   7.036   4.499   2.397 -0.0016 -0.6106 -1.5991
 9964SOL    HW231506   7.153   4.505   2.302  0.3017  0.5335 -1.1673
 9965SOL     OW31507   3.045   8.580   7.910 -0.1146 -0.7160 -0.1681
 9965SOL    HW131508   3.116   8.563   7.972 -1.2548  0.3105  1.4868
 9965SOL    HW231509   2.979   8.513   7.929  0.0499 -1.1909 -1.1801
 9966SOL     OW31510   4.229   8.382   9.129  0.1569 -0.2699 -0.3996
 9966SOL    HW131511   4.248   8.344   9.043 -2.4710 -0.9817 -0.7744
 9966SOL    HW231512   4.145   8.427   9.116  0.0374  0.1703  1.6363
 9967SOL     OW31513   3.945   2.432   2.781  0.0402  0.1016 -0.2882
 9967SOL    HW131514   3.988   2.376   2.846  0.9639 -1.2421 -1.9549
 9967SOL    HW231515   3.917   2.509   2.830  2.0712 -0.1408  1.4072
 9968SOL     OW31516   3.906   7.999   3.099  0.1840  0.1686 -0.3795
 9968SOL    HW131517   3.952   7.941   3.038  0.2820  0.1199 -0.2609
 9968SOL    HW231518   3.877   8.072   3.045  1.3893  0.7558 -0.2534
 9969SOL     OW31519   9.097   4.631   0.899 -0.3016 -0.2797 -0.0025
 9969SOL    HW131520   9.114   4.585   0.982  1.8660 -1.6927 -1.1207
 9969SOL    HW231521   9.126   4.721   0.916 -0.6803 -0.3227  0.9923
 9970SOL     OW31522   0.637   4.777   5.549  0.2923 -0.0707 -0.2946
 9970SOL    HW131523   0.606   4.767   5.639 -1.6868  0.3288 -0.8964
 9970SOL    HW231524   0.661   4.688   5.522 -1.9330 -0.7209 -0.3196
 9971SOL     OW31525   9.628   1.125   3.260  0.0616  0.1999  0.4788
 9971SOL    HW131526   9.702   1.180   3.235 -0.8643  0.2628 -2.5091
 9971SOL    HW231527   9.614   1.068   3.185  0.0118 -3.1839  2.8279
 9972SOL     OW31528   8.616   8.167   4.177  0.2455  0.0453 -0.2937
 9972SOL    HW131529   8.667   8.143   4.254 -1.8285  0.8136  1.4323
 9972SOL    HW231530   8.642   8.105   4.109  1.0717 -1.6152  1.4747
 9973SOL     OW31531   8.203   2.702   4.189 -0.5112  0.0464 -0.3164
 9973SOL    HW131532   8.218   2.790   4.154 -1.0785  0.0911 -0.4617
 9973SOL    HW231533   8.256   2.645   4.133  1.3399  0.4679  0.9381
 9974SOL     OW31534   2.343   0.037   4.880 -0.0297 -0.0066  0.5608
 9974SOL    HW131535   2.437   0.048   4.872  0.0823 -1.1025  0.1995
 9974SOL    HW231536   2.319  -0.020   4.807 -1.0733  0.7662  0.2723
 9975SOL     OW31537   3.242   7.748   4.821 -0.2475 -0.0712 -0.1867
 9975SOL    HW131538   3.174   7.705   4.872  0.2870 -1.1292 -0.3466
 9975SOL    HW231539   3.211   7.838   4.811 -2.9369 -1.1080 -2.4866
 9976SOL     OW31540   3.886   8.163   9.701 -0.4153  0.1835 -0.5674
 9976SOL    HW131541   3.915   8.074   9.723 -1.9600 -0.1574  0.2652
 9976SOL    HW231542   3.860   8.157   9.609  0.9798  0.2048 -0.9828
 9977SOL     OW31543   8.000   7.330   1.805 -0.5828 -0.0753  0.0772
 9977SOL    HW131544   7.920   7.280   1.788 -1.1017  0.6914  0.2059
 9977SOL    HW231545   7.982   7.378   1.886 -0.2590  0.6265 -0.2525
 9978SOL     OW31546   0.048   9.413   2.251 -0.2570 -0.1399 -0.0086
 9978SOL    HW131547   0.113   9.460   2.304  0.5261 -0.9041 -0.2733
 9978SOL    HW231548   0.078   9.424   2.161 -0.3290 -0.7377 -0.1104
 9979SOL     OW31549   4.395   3.616   6.576  0.2311 -0.0375  0.1186
 9979SOL    HW131550   4.475   3.596   6.528 -0.2385 -2.2767  0.1752
 9979SOL    HW231551   4.418   3.607   6.668  0.1444  0.2592  0.1711
 9980SOL     OW31552   2.195   2.955   8.154 -0.1732 -0.4883 -0.0148
 9980SOL    HW131553   2.150   3.039   8.162 -0.5975 -0.7687  0.7813
 9980SOL    HW231554   2.212   2.929   8.245  0.9893 -0.7214 -0.2865
 9981SOL     OW31555   1.376   4.451   0.673  0.0218  0.5780 -0.0925
 9981SOL    HW131556   1.449   4.396   0.702 -0.7117  0.2102  1.1063
 9981SOL    HW231557   1.394   4.537   0.712 -1.2580 -0.0575  2.0913
 9982SOL     OW31558   7.696   5.976   5.503 -0.3495 -0.8915 -0.1760
 9982SOL    HW131559   7.670   5.904   5.560 -0.4611 -0.5083  0.2572
 9982SOL    HW231560   7.735   6.041   5.562 -1.6923  0.1037 -0.3308
 9983SOL     OW31561   1.584   0.391   0.525  0.7399 -0.1758  0.2145
 9983SOL    HW131562   1.602   0.380   0.618 -1.3259 -1.5939  0.5326
 9983SOL    HW231563   1.553   0.305   0.496  0.9529  0.3379 -1.6895
 9984SOL     OW31564   2.079   8.316   8.568 -0.1151  0.2206 -0.3768
 9984SOL    HW131565   2.126   8.348   8.645  0.1095 -1.0681  0.0600
 9984SOL    HW231566   2.063   8.394   8.515  2.6246  0.7351 -0.6083
 9985SOL     OW31567   5.073   5.282   2.854 -0.2214  0.4950  0.6918
 9985SOL    HW131568   5.107   5.289   2.943  0.7357  1.6843  0.2556
 9985SOL    HW231569   5.107   5.359   2.808 -1.5962  0.4896 -0.4200
 9986SOL     OW31570   2.001   9.807   1.760 -0.1293  0.3266  0.4906
 9986SOL    HW131571   2.013   9.724   1.715 -1.2565  0.3786  0.0649
 9986SOL    HW231572   1.947   9.786   1.836  0.5513  0.4853  1.0322
 9987SOL     OW31573   2.495   7.803   1.555 -0.1014  0.1255  0.6935
 9987SOL    HW131574   2.425   7.827   1.495 -0.7871 -1.2888  0.8821
 9987SOL    HW231575   2.450   7.776   1.635  0.7313  0.6273  1.3434
 9988SOL     OW31576   8.041   7.608   2.747  0.2093  0.6869  0.2365
 9988SOL    HW131577   8.044   7.655   2.830  2.3847  0.5964  0.2688
 9988SOL    HW231578   8.013   7.673   2.683  0.7601  1.3828  0.6860
 9989SOL     OW31579   8.874   5.302   6.781  0.2146  0.0309  0.0325
 9989SOL    HW131580   8.842   5.212   6.768 -0.5359  0.2456  0.3244
 9989SOL    HW231581   8.916   5.324   6.699 -1.8514  0.3145 -1.0290
 9990SOL     OW31582   6.034   0.130   3.973  0.3740  0.6158  0.0295
 9990SOL    HW131583   6.085   0.203   4.009  3.0215 -0.4540 -1.2695
 9990SOL    HW231584   6.083   0.052   3.999 -0.2462 -0.4641 -1.8585
 9991SOL     OW31585   5.635   7.050   9.529 -0.0640 -0.0407 -0.2108
 9991SOL    HW131586   5.727   7.040   9.505  0.0756 -1.2743  0.7364
 9991SOL    HW231587   5.637   7.085   9.618 -0.5343  0.8511 -0.5378
 9992SOL     OW31588   2.742   8.539   0.702 -0.2854  0.8283 -0.0967
 9992SOL    HW131589   2.690   8.619   0.695  0.6096  1.2792 -2.4833
 9992SOL    HW231590   2.833   8.568   0.706  0.0179 -0.0400 -0.3210
 9993SOL     OW31591   7.229   0.550   4.434  0.1163 -0.2200 -0.2564
 9993SOL    HW131592   7.270   0.486   4.376 -1.5864 -0.2970 -1.4229
 9993SOL    HW231593   7.199   0.499   4.509  3.1424  0.0091  1.2763
 9994SOL     OW31594   0.454   4.703   5.073  0.1596  0.5635  0.7554
 9994SOL    HW131595   0.424   4.749   5.152 -3.0867 -0.3259  0.2040
 9994SOL    HW231596   0.449   4.769   5.004 -0.2283  0.5142  0.7326
 9995SOL     OW31597   7.244   6.425   0.364 -0.7904  0.0158  0.3391
 9995SOL    HW131598   7.212   6.406   0.276 -2.4943 -1.6239  1.2356
 9995SOL    HW231599   7.301   6.350   0.384 -0.6531  0.2325  0.7601
 9996SOL     OW31600   3.830   1.258   0.837  0.3757  0.3577  0.9194
 9996SOL    HW131601   3.736   1.240   0.843  0.1336  0.6207 -1.3829
 9996SOL    HW231602   3.857   1.219   0.753  2.0654  1.3831  0.9366
 9997SOL     OW31603   3.351   2.596   8.439  0.3362 -0.4174 -0.2776
 9997SOL    HW131604   3.291   2.642   8.380  0.6226  0.4906  0.1290
 9997SOL    HW231605   3.362   2.510   8.399 -1.3568 -0.6652 -0.2817
 9998SOL     OW31606   3.206   9.371   0.339  0.1343 -0.1937  0.4518
 9998SOL    HW131607   3.179   9.363   0.430  0.6612  0.8175  0.7201
 9998SOL    HW231608   3.271   9.301   0.326 -0.7974 -1.0871  0.4939
 9999SOL     OW31609   6.205   6.146   8.365 -0.1542 -0.3773 -0.0337
 9999SOL    HW131610   6.280   6.087   8.369 -0.7042 -1.0958 -0.1379
 9999SOL    HW231611   6.241   6.228   8.332  0.0808 -1.6030 -3.1812
10000SOL     OW31612   0.238   6.211   6.688  0.3161  0.2418  0.5938
10000SOL    HW131613   0.330   6.238   6.683 -0.1900  2.2164  0.9405
10000SOL    HW231614   0.228   6.176   6.777  1.1714 -1.9704 -0.1150
10001SOL     OW31615   7.165   8.301   4.794 -0.2487  0.3111 -0.3793
10001SOL    HW131616   7.216   8.318   4.873 -0.5635  0.5956 -0.2365
10001SOL    HW231617   7.185   8.210   4.772 -0.3019  0.1704  0.1351
10002SOL     OW31618   1.304   6.015   2.901 -0.1545  0.4563  0.3774
10002SOL    HW131619   1.312   6.031   2.807 -0.1291  0.8005  0.4347
10002SOL    HW231620   1.212   5.993   2.914 -0.0252 -0.2172  0.1849
10003SOL     OW31621   2.363   7.544   5.608  0.5459  0.6591  0.0907
10003SOL    HW131622   2.301   7.479   5.642  0.2103  0.3463 -1.0736
10003SOL    HW231623   2.308   7.612   5.569  0.9249  0.9099 -0.0159
10004SOL     OW31624   6.101   1.005   0.932  0.1906  0.4745 -0.5616
10004SOL    HW131625   6.055   1.089   0.933 -1.3376 -0.3007 -1.5079
10004SOL    HW231626   6.188   1.025   0.967 -0.6022  2.1547  0.5866
10005SOL     OW31627   8.057   1.604   5.832  0.0001  0.1770  0.2492
10005SOL    HW131628   8.136   1.570   5.790  0.5789  1.3822  0.3121
10005SOL    HW231629   8.056   1.563   5.918 -0.3778 -1.1519 -0.3660
10006SOL     OW31630   9.021   8.960   2.502 -0.0489 -0.1963  0.5031
10006SOL    HW131631   8.936   9.005   2.506  0.4236  0.6576  2.7716
10006SOL    HW231632   9.002   8.871   2.529 -0.1590  0.1494  1.6073
10007SOL     OW31633   0.902   6.396   9.709 -0.2238 -0.1200 -0.2756
10007SOL    HW131634   0.818   6.443   9.710 -1.4698 -2.1689  2.0408
10007SOL    HW231635   0.939   6.413   9.795  0.4954 -1.3317 -0.3369
10008SOL     OW31636   0.508   8.051   6.697 -0.1825  0.2557  0.0104
10008SOL    HW131637   0.456   7.983   6.741  1.0298  0.4535  1.8633
10008SOL    HW231638   0.538   8.009   6.616 -1.2240 -0.6725  0.0757
10009SOL     OW31639   7.513   4.570   2.229 -0.5270 -0.1879  0.6485
10009SOL    HW131640   7.543   4.565   2.138 -1.9786  0.1450  0.1079
10009SOL    HW231641   7.580   4.525   2.279 -0.7647 -2.4439 -0.8714
10010SOL     OW31642   1.262   7.049   5.294  0.2329  0.2273  0.1379
10010SOL    HW131643   1.192   6.988   5.272  0.3085  0.4032 -0.6188
10010SOL    HW231644   1.286   7.027   5.383 -1.8396  1.1452  1.0091
10011SOL     OW31645   6.585   8.804   1.554  0.5514  0.5474 -0.0433
10011SOL    HW131646   6.585   8.899   1.548  0.9435  0.5903  0.5631
10011SOL    HW231647   6.660   8.776   1.502  1.1602  0.6497  0.7517
10012SOL     OW31648   1.166   7.865   5.678 -0.2241  0.7760 -0.4449
10012SOL    HW131649   1.075   7.854   5.706  0.3354  0.5649  1.3979
10012SOL    HW231650   1.170   7.955   5.644 -1.0903  0.8209 -0.4465
10013SOL     OW31651   5.376   5.910   2.447  0.5889 -0.0494 -0.2441
10013SOL    HW131652   5.368   5.964   2.525  1.4207  1.5896 -1.2374
10013SOL    HW231653   5.430   5.836   2.475 -2.1496 -1.5330  1.6459
10014SOL     OW31654   2.880   0.070   2.322 -0.5281  0.0783 -0.7424
10014SOL    HW131655   2.939   0.144   2.332 -1.6273  0.8187  0.5963
10014SOL    HW231656   2.796   0.109   2.299 -1.3651 -0.6502  0.9528
10015SOL     OW31657   1.648   6.036   2.482 -0.2486  0.3286  0.4462
10015SOL    HW131658   1.664   6.019   2.389 -0.4131 -0.1613  0.5028
10015SOL    HW231659   1.554   6.053   2.487 -0.0405  1.5316  0.3551
10016SOL     OW31660   3.816   3.147   5.753 -0.1067  0.5210  0.7081
10016SOL    HW131661   3.820   3.052   5.745 -0.5245  0.6380 -1.5734
10016SOL    HW231662   3.902   3.172   5.785  0.0955 -0.6040  1.0777
10017SOL     OW31663   9.654   6.073   2.040 -0.0187  0.4260  0.5243
10017SOL    HW131664   9.606   6.064   1.958  0.3776 -0.2577  0.3568
10017SOL    HW231665   9.747   6.066   2.015  0.1994  1.9416  0.8116
10018SOL     OW31666   8.106   3.060   6.879  0.2508 -0.6213 -0.2985
10018SOL    HW131667   8.055   3.114   6.819  0.5658 -1.0406 -0.9459
10018SOL    HW231668   8.181   3.115   6.902 -0.7104  0.1874  1.0375
10019SOL     OW31669   0.610   5.021   9.533 -0.1744 -0.0235  0.3058
10019SOL    HW131670   0.530   5.046   9.487  0.0690 -1.0168 -0.7033
10019SOL    HW231671   0.670   4.996   9.463  0.3506 -1.1686  1.1496
10020SOL     OW31672   6.333   0.489   7.119  0.1443 -0.5783 -0.0719
10020SOL    HW131673   6.333   0.407   7.169  0.5161 -0.7458 -0.3424
10020SOL    HW231674   6.425   0.503   7.096 -0.2273 -1.4968 -2.3071
10021SOL     OW31675   0.367   3.131   3.786  0.6283 -0.0237 -0.2730
10021SOL    HW131676   0.356   3.105   3.877  0.0120 -1.1894 -0.6584
10021SOL    HW231677   0.278   3.138   3.752  0.8650 -0.5624 -1.0345
10022SOL     OW31678   5.027   0.435   5.585 -0.2140  0.3012  0.4112
10022SOL    HW131679   5.003   0.443   5.493 -0.9944  0.9441  0.6575
10022SOL    HW231680   5.064   0.347   5.593  0.2447  0.3927 -0.5951
10023SOL     OW31681   3.292   4.394   8.380 -0.2795  0.1109  0.4912
10023SOL    HW131682   3.351   4.370   8.452  0.6056  1.5857  0.2950
10023SOL    HW231683   3.281   4.313   8.330  1.3203 -0.2890  0.7326
10024SOL     OW31684   7.461   0.699   4.994  0.0902  0.3798  0.0532
10024SOL    HW131685   7.373   0.712   4.957  0.3615  2.3370  0.0000
10024SOL    HW231686   7.446   0.694   5.089 -0.3310 -2.1444 -0.0731
10025SOL     OW31687   7.353   6.806   7.498  0.6773 -0.1147 -0.0525
10025SOL    HW131688   7.354   6.891   7.541 -1.2902  0.0508 -0.2260
10025SOL    HW231689   7.324   6.745   7.566  1.0579 -0.4608 -0.2007
10026SOL     OW31690   2.097   4.843   0.127  0.2858 -0.0975 -0.0994
10026SOL    HW131691   2.165   4.776   0.132 -1.5035 -2.0268 -0.0414
10026SOL    HW231692   2.024   4.799   0.083 -0.5838  2.2072 -1.1064
10027SOL     OW31693   0.880   6.201   7.799  0.9189 -0.2078 -0.2255
10027SOL    HW131694   0.956   6.143   7.808  1.2119  0.3961  1.5590
10027SOL    HW231695   0.909   6.285   7.834 -1.1352 -0.4986  2.5327
10028SOL     OW31696   1.247   1.164   4.977 -0.5510  0.0147  0.1885
10028SOL    HW131697   1.331   1.123   4.999 -0.3489 -0.0754 -0.7123
10028SOL    HW231698   1.192   1.147   5.054  0.5805  1.0573  1.2734
10029SOL     OW31699   9.275   4.402   2.750  0.0394  0.9254  0.2857
10029SOL    HW131700   9.195   4.372   2.794  0.5762  0.2205  0.7985
10029SOL    HW231701   9.281   4.495   2.772 -0.1751  0.7827  0.9726
10030SOL     OW31702   5.310   6.498   7.387  0.3754 -0.0546 -0.4381
10030SOL    HW131703   5.398   6.499   7.349  0.2563 -0.6213 -0.7407
10030SOL    HW231704   5.274   6.584   7.365  0.2834 -0.3839 -1.6940
10031SOL     OW31705   8.269   6.145   5.301 -0.2865  0.2040 -0.7149
10031SOL    HW131706   8.263   6.240   5.304 -0.4109  0.1846  1.3740
10031SOL    HW231707   8.343   6.126   5.244  0.9692  1.6305  0.3741
10032SOL     OW31708   5.757   6.087   0.014 -0.6983  0.6495  0.3319
10032SOL    HW131709   5.718   6.026   0.077 -1.5324 -0.6865 -1.3643
10032SOL    HW231710   5.686   6.147  -0.008 -0.9005  0.1302 -0.4746
10033SOL     OW31711   0.265   3.963   4.875  0.3023 -0.2207 -0.4328
10033SOL    HW131712   0.247   3.884   4.925  1.2418 -0.5270 -0.5605
10033SOL    HW231713   0.245   3.940   4.785 -0.3605 -0.0018 -0.3466
10034SOL     OW31714   7.151   0.828   3.426  0.0020  0.2173 -0.6366
10034SOL    HW131715   7.158   0.844   3.520  1.0130  2.8469 -1.0834
10034SOL    HW231716   7.091   0.895   3.395  0.3931 -0.0380 -1.9906
10035SOL     OW31717   8.555   4.339   4.432 -0.8191 -0.0850 -0.3288
10035SOL    HW131718   8.606   4.417   4.407  0.2323 -1.2144 -1.9190
10035SOL    HW231719   8.464   4.367   4.424 -0.4688  0.8602 -1.4179
10036SOL     OW31720   0.164   7.252   0.744 -0.0358 -0.5242 -0.0421
10036SOL    HW131721   0.175   7.313   0.671 -1.4083  1.8211  1.5768
10036SOL    HW231722   0.222   7.285   0.812 -0.3315 -1.4296  0.6677
10037SOL     OW31723   0.349   6.701   9.602  0.0942 -0.1728  0.4276
10037SOL    HW131724   0.404   6.747   9.539  0.7818 -0.0135  1.1286
10037SOL    HW231725   0.391   6.615   9.612  1.6595  0.7385  2.7156
10038SOL     OW31726   3.428   9.528   6.306  0.4875  0.2362  0.2603
10038SOL    HW131727   3.461   9.502   6.220  1.0964 -0.0715  0.5744
10038SOL    HW231728   3.507   9.538   6.360  0.0482 -1.7899  1.4037
10039SOL     OW31729   3.794   3.409   3.165  0.1138  0.1521 -0.1890
10039SOL    HW131730   3.742   3.489   3.158 -0.4642 -0.3021 -1.2937
10039SOL    HW231731   3.736   3.346   3.206 -0.4929 -0.5583 -2.0540
10040SOL     OW31732   7.431   6.057   5.696 -0.8549 -0.3415 -0.4186
10040SOL    HW131733   7.364   6.103   5.747 -0.4755 -0.6966  0.4409
10040SOL    HW231734   7.504   6.048   5.757  0.2982  0.7427 -1.5871
10041SOL     OW31735   5.537   5.503   6.969 -0.2437 -0.7471  0.0103
10041SOL    HW131736   5.463   5.453   7.002  0.2335 -1.4780 -0.0101
10041SOL    HW231737   5.548   5.574   7.032 -0.3463 -1.2048  0.5522
10042SOL     OW31738   5.259   2.025   2.878  0.2733  0.0976 -0.2937
10042SOL    HW131739   5.257   2.003   2.971 -1.3763 -0.8321 -0.5030
10042SOL    HW231740   5.285   1.944   2.834  1.5072  0.6563 -0.6346
10043SOL     OW31741   4.175   3.315   5.109  0.9422 -0.8870 -0.0546
10043SOL    HW131742   4.123   3.251   5.158 -0.7669  0.6598  0.2856
10043SOL    HW231743   4.114   3.349   5.043  1.6406  0.7194  0.0928
10044SOL     OW31744   5.614   9.749   5.007  0.5653  0.3328 -0.5343
10044SOL    HW131745   5.639   9.672   5.059  2.4501  1.6798  0.6975
10044SOL    HW231746   5.593   9.816   5.072  1.3787  1.5844 -1.5110
10045SOL     OW31747   9.680   4.082   2.528  0.1622  0.4289 -0.1790
10045SOL    HW131748   9.703   4.126   2.610 -1.9632  0.7679  0.2873
10045SOL    HW231749   9.607   4.025   2.551  0.2516 -0.3252 -1.6341
10046SOL     OW31750   7.557   4.447   6.052  0.2423  0.6855 -0.0378
10046SOL    HW131751   7.546   4.412   6.141  0.4702  1.2941  0.2334
10046SOL    HW231752   7.524   4.377   5.995  0.3410  0.1807  0.5107
10047SOL     OW31753   6.073   2.869   7.005  0.1280 -0.0707  0.2509
10047SOL    HW131754   6.093   2.813   7.080 -0.1390 -0.7950 -0.2044
10047SOL    HW231755   5.980   2.889   7.014  0.4432  1.1711  0.9710
10048SOL     OW31756   3.566   1.009   8.981  0.5727  0.2000 -0.5888
10048SOL    HW131757   3.576   1.104   8.986  0.9011  0.1898 -0.9919
10048SOL    HW231758   3.495   0.989   9.042  1.8322  0.4678  1.0166
10049SOL     OW31759   5.195   4.831   5.229 -0.6588 -0.9001 -0.3714
10049SOL    HW131760   5.221   4.849   5.320  1.3718 -1.3841 -0.8042
10049SOL    HW231761   5.117   4.884   5.216 -2.2539 -2.3847  2.2777
10050SOL     OW31762   7.817   7.599   3.110 -0.6497  0.3249 -0.1674
10050SOL    HW131763   7.833   7.589   3.016  1.3416 -0.1912  0.1903
10050SOL    HW231764   7.746   7.662   3.115 -1.0621  0.0642 -2.0318
10051SOL     OW31765   5.463   2.174   8.735  0.3547  0.4209  0.4402
10051SOL    HW131766   5.461   2.193   8.642 -0.5931  1.3851  0.6413
10051SOL    HW231767   5.516   2.244   8.774  0.0272  0.5099  0.7306
10052SOL     OW31768   6.953   9.193   0.219 -0.2916  0.3241 -0.2352
10052SOL    HW131769   6.993   9.114   0.182 -0.1758  0.6478 -0.8264
10052SOL    HW231770   6.860   9.172   0.225 -0.1375 -0.1742  0.4574
10053SOL     OW31771   0.720   8.338   1.392  0.2664 -0.2741 -0.1145
10053SOL    HW131772   0.649   8.279   1.417 -0.3132  0.5558  0.2696
10053SOL    HW231773   0.741   8.386   1.473 -1.1157  1.9245 -0.9678
10054SOL     OW31774   2.819   4.642   6.189  0.0409  0.0727  0.2124
10054SOL    HW131775   2.885   4.712   6.185  0.1705 -0.1032 -2.4170
10054SOL    HW231776   2.736   4.688   6.178 -0.2173  0.1300  2.0540
10055SOL     OW31777   6.285   5.314   0.521  0.0753 -0.8141 -0.1572
10055SOL    HW131778   6.195   5.286   0.507  0.5974 -2.0364 -1.2379
10055SOL    HW231779   6.301   5.299   0.614 -0.2527 -2.4025 -0.3311
10056SOL     OW31780   4.148   0.706   7.759 -0.4182  0.8834  0.3087
10056SOL    HW131781   4.167   0.741   7.672  0.9018  0.3346  0.3503
10056SOL    HW231782   4.221   0.736   7.813  1.8339 -3.1942 -0.0249
10057SOL     OW31783   1.658   9.110   4.638  0.3077 -0.3644  0.3759
10057SOL    HW131784   1.682   9.024   4.604  1.1099 -0.3145  0.7961
10057SOL    HW231785   1.565   9.119   4.616  0.6415 -0.5790 -1.2726
10058SOL     OW31786   1.477   8.109   3.133  0.1764 -0.1648 -0.5158
10058SOL    HW131787   1.446   8.062   3.056 -1.5093 -1.3455  0.8039
10058SOL    HW231788   1.412   8.178   3.147  0.1571 -0.3139  0.1587
10059SOL     OW31789   9.299   2.533   5.831  0.3822  0.0188 -0.6786
10059SOL    HW131790   9.258   2.606   5.878  0.5942 -0.3298  0.0670
10059SOL    HW231791   9.273   2.546   5.740  1.5900  1.8321 -0.8104
10060SOL     OW31792   3.644   1.660   9.839 -0.4585  0.3462  0.2576
10060SOL    HW131793   3.706   1.589   9.859 -0.7852  0.3660  1.4225
10060SOL    HW231794   3.588   1.624   9.770 -0.8621 -0.6999  1.0935
10061SOL     OW31795   2.356   1.744   1.096 -0.6418 -0.5045 -0.2477
10061SOL    HW131796   2.333   1.828   1.135  0.4167 -1.8594  3.8447
10061SOL    HW231797   2.438   1.761   1.049 -1.1082  0.9514 -0.5805
10062SOL     OW31798   5.446   9.380   2.416  0.6489  0.0107  0.3478
10062SOL    HW131799   5.527   9.398   2.464  2.1212 -1.0319 -1.5977
10062SOL    HW231800   5.464   9.300   2.367 -0.3868  1.4127 -2.5803
10063SOL     OW31801   7.226   0.880   8.551  0.7157 -0.1551  0.3178
10063SOL    HW131802   7.289   0.865   8.622 -0.4358  2.8237  2.1934
10063SOL    HW231803   7.151   0.825   8.572 -0.0912  1.5326  2.2478
10064SOL     OW31804   6.278   2.367   4.043  0.8912 -0.1257 -0.0469
10064SOL    HW131805   6.283   2.429   3.971  0.8391 -0.7955 -0.6301
10064SOL    HW231806   6.369   2.351   4.068  1.0576 -1.4961 -1.3659
10065SOL     OW31807   7.022   1.907   1.717  0.1987 -0.2062 -0.2250
10065SOL    HW131808   7.004   1.896   1.624 -1.1990  1.8523 -0.2597
10065SOL    HW231809   7.012   1.819   1.754 -0.6770 -0.7984 -1.7887
10066SOL     OW31810   1.230   7.881   8.870 -0.3797 -0.0154  0.2426
10066SOL    HW131811   1.215   7.929   8.789 -0.0998 -1.7624 -0.8932
10066SOL    HW231812   1.289   7.937   8.921  1.5618 -0.0028 -1.8916
10067SOL     OW31813   3.683   5.936   3.015 -0.2943  0.0969  0.1067
10067SOL    HW131814   3.768   5.968   3.046 -0.7461  1.0985  0.3467
10067SOL    HW231815   3.641   6.012   2.976 -1.0125 -0.4344 -0.1877
10068SOL     OW31816   5.026   7.785   8.556  0.1470 -0.5881  0.5017
10068SOL    HW131817   5.091   7.791   8.626  0.4348  0.6357  0.1494
10068SOL    HW231818   5.032   7.869   8.511  0.1249 -1.4311 -1.1370
10069SOL     OW31819   1.167   7.221   2.896 -0.6005 -0.0815  0.3445
10069SOL    HW131820   1.246   7.275   2.905 -0.7187 -0.1128  1.8433
10069SOL    HW231821   1.108   7.254   2.964 -1.4630 -0.7671 -0.0563
10070SOL     OW31822   5.934   3.434   2.155 -0.1574 -0.2476 -0.4321
10070SOL    HW131823   5.920   3.345   2.187 -0.3381  0.5581  1.8662
10070SOL    HW231824   5.854   3.455   2.106 -0.2956 -1.1729 -0.6143
10071SOL     OW31825   2.018   0.420   6.069  0.0680 -0.0700  0.3177
10071SOL    HW131826   2.064   0.490   6.115 -0.1527 -0.3450  0.9681
10071SOL    HW231827   2.073   0.402   5.992 -0.0854  1.0835 -0.0840
10072SOL     OW31828   7.561   6.398   4.165 -0.2131 -0.5238  0.1692
10072SOL    HW131829   7.491   6.339   4.138 -0.9506  0.4466 -0.1220
10072SOL    HW231830   7.555   6.400   4.261 -0.8817 -0.1184  0.1260
10073SOL     OW31831   7.505   9.600   9.510  0.0102  0.0310 -0.2307
10073SOL    HW131832   7.571   9.531   9.510 -0.1573 -0.1409  0.4041
10073SOL    HW231833   7.441   9.573   9.444 -0.8411 -1.2180  1.0323
10074SOL     OW31834   1.422   0.387   9.003  0.3062 -0.4163 -0.3736
10074SOL    HW131835   1.449   0.309   8.955 -0.7795 -0.8968 -0.2318
10074SOL    HW231836   1.454   0.460   8.949  0.6638 -0.9558 -0.9025
10075SOL     OW31837   1.053   1.412   5.698  0.7283  0.2070 -0.5851
10075SOL    HW131838   1.129   1.412   5.756  2.0075  0.0967 -2.1844
10075SOL    HW231839   1.026   1.503   5.694 -2.0994 -0.1933  3.4333
10076SOL     OW31840   8.988   6.546   3.872 -0.1016  0.6514  0.0276
10076SOL    HW131841   8.944   6.531   3.788 -0.9897  1.0190  0.4232
10076SOL    HW231842   8.987   6.461   3.915  0.7099  0.3646 -0.4827
10077SOL     OW31843   5.298   1.148   5.415  0.6825 -0.3185 -0.3650
10077SOL    HW131844   5.234   1.079   5.436 -1.2914  1.5472  0.0588
10077SOL    HW231845   5.336   1.120   5.332 -2.2959 -0.4804 -1.7893
10078SOL     OW31846   4.237   6.059   6.251  0.7165 -0.0194  0.5948
10078SOL    HW131847   4.194   6.052   6.337 -0.6772  1.0290  0.0305
10078SOL    HW231848   4.331   6.056   6.271  0.4211 -0.9184  2.0331
10079SOL     OW31849   5.835   1.445   0.016  0.1555 -0.6742  0.4574
10079SOL    HW131850   5.916   1.451   0.066  0.0873 -0.2770  0.5215
10079SOL    HW231851   5.834   1.355  -0.018  0.9580 -0.4775 -0.1045
10080SOL     OW31852   5.399   9.259   8.482  0.1793 -0.8653 -0.3516
10080SOL    HW131853   5.493   9.264   8.500  0.4755  1.1803 -2.0500
10080SOL    HW231854   5.390   9.185   8.422  0.9830 -0.0647 -1.4990
10081SOL     OW31855   3.521   3.306   5.526 -0.2271  0.0958  0.5667
10081SOL    HW131856   3.597   3.315   5.584 -1.3343  0.3133  2.0199
10081SOL    HW231857   3.467   3.383   5.545 -0.3900  0.4485 -1.1344
10082SOL     OW31858   7.990   7.582   1.379  0.1702  0.5722 -0.0145
10082SOL    HW131859   7.986   7.664   1.330  1.7453  0.1124 -0.9982
10082SOL    HW231860   8.066   7.536   1.343  1.4076  0.1567  2.8157
10083SOL     OW31861   8.626   2.135   1.375 -0.4751 -0.2640 -0.6377
10083SOL    HW131862   8.536   2.131   1.343 -0.9502  0.2730  0.5704
10083SOL    HW231863   8.630   2.215   1.428  0.4037 -0.8333  0.2118
10084SOL     OW31864   0.973   2.427   4.848 -0.1190 -0.1245 -0.2956
10084SOL    HW131865   1.067   2.411   4.840  0.2908  0.7071  2.1125
10084SOL    HW231866   0.966   2.523   4.855 -0.9534 -0.2780  1.2957
10085SOL     OW31867   4.790   3.779   9.064  1.0276  0.5004  0.4510
10085SOL    HW131868   4.856   3.843   9.091 -0.6951  1.4054  2.8135
10085SOL    HW231869   4.707   3.826   9.068 -0.0300 -1.1995 -0.2677
10086SOL     OW31870   7.249   6.872   0.365  0.7019  0.6692  0.1973
10086SOL    HW131871   7.156   6.891   0.373  0.7157  1.1579 -0.6790
10086SOL    HW231872   7.280   6.865   0.455 -0.6631 -2.0588  0.5852
10087SOL     OW31873   3.085   5.327   3.367 -0.1365 -0.3758 -0.1643
10087SOL    HW131874   3.113   5.313   3.277 -0.3871 -0.5060 -0.2213
10087SOL    HW231875   3.003   5.279   3.375 -0.6903  0.5448 -0.1866
10088SOL     OW31876   6.975   0.649   7.107 -0.1950  0.3498  0.0981
10088SOL    HW131877   7.067   0.671   7.122 -0.5210  0.6506  1.8846
10088SOL    HW231878   6.976   0.592   7.030  1.3961  0.9697 -0.3729
10089SOL     OW31879   1.855   1.801   5.891 -0.4005 -0.1645  0.2518
10089SOL    HW131880   1.848   1.747   5.970 -0.2876  0.7815  0.9357
10089SOL    HW231881   1.779   1.859   5.895 -0.4204 -0.1452 -0.3688
10090SOL     OW31882   0.353   2.737   2.271  0.4973  0.6618 -0.4480
10090SOL    HW131883   0.263   2.763   2.293 -0.0107 -1.6758  0.5718
10090SOL    HW231884   0.397   2.729   2.356  1.2070  0.3035 -0.8422
10091SOL     OW31885   1.154   5.231   5.584 -0.0579  0.6728  0.0673
10091SOL    HW131886   1.123   5.292   5.517  0.8347  0.1463 -0.8518
10091SOL    HW231887   1.208   5.286   5.642  0.3301  0.8617 -0.4649
10092SOL     OW31888   5.768   3.032   6.085  0.2653  0.2013 -0.0185
10092SOL    HW131889   5.809   2.951   6.118  0.5731  0.6030  0.5964
10092SOL    HW231890   5.705   3.056   6.153  1.4368  1.4503  0.6673
10093SOL     OW31891   5.946   6.298   7.476 -0.3139 -0.5477 -0.1559
10093SOL    HW131892   6.001   6.342   7.540  0.4682 -0.3792 -0.9132
10093SOL    HW231893   5.965   6.205   7.488  1.9445 -0.4181 -1.8908
10094SOL     OW31894   2.619   3.799   4.732  0.0274 -0.1369 -0.1428
10094SOL    HW131895   2.636   3.859   4.660  1.1753  0.6917  0.7767
10094SOL    HW231896   2.670   3.721   4.712 -0.2684 -0.2168 -0.5953
10095SOL     OW31897   9.057   8.629   3.196 -0.7697 -0.0369 -0.3608
10095SOL    HW131898   9.036   8.719   3.221  1.0970  0.5690 -0.8006
10095SOL    HW231899   8.986   8.602   3.138 -1.6504  0.9263  0.2389
10096SOL     OW31900   5.676   8.551   5.597  0.2912  0.2647  0.2119
10096SOL    HW131901   5.750   8.499   5.629  0.2865 -0.7325 -1.2760
10096SOL    HW231902   5.659   8.614   5.667  1.5679 -0.4667  1.2378
10097SOL     OW31903   9.754   7.378   5.636  0.1105  0.1287 -0.6750
10097SOL    HW131904   9.676   7.423   5.606 -0.2851 -0.9492 -1.3316
10097SOL    HW231905   9.827   7.423   5.593 -0.1918  0.7566 -0.5298
10098SOL     OW31906   2.738   4.830   9.416  0.4641  0.0305  0.3617
10098SOL    HW131907   2.728   4.884   9.338 -1.7284  0.0636  0.5937
10098SOL    HW231908   2.787   4.754   9.387  0.8864  0.6914 -0.7034
10099SOL     OW31909   6.722   6.130   5.195 -0.9108  0.3903  0.0600
10099SOL    HW131910   6.636   6.131   5.153 -1.4381  0.9336  1.1219
10099SOL    HW231911   6.710   6.076   5.273 -0.5363  1.2617  0.7264
10100SOL     OW31912   8.055   2.205   6.950 -0.1329 -0.1324 -0.1291
10100SOL    HW131913   8.039   2.293   6.917 -2.0384 -0.0169  0.9337
10100SOL    HW231914   8.091   2.157   6.876 -0.1175  1.2538 -1.0472
10101SOL     OW31915   1.430   9.748   9.036  0.2193 -0.7334 -0.2169
10101SOL    HW131916   1.482   9.800   9.097 -1.4237  0.3542  0.3432
10101SOL    HW231917   1.443   9.789   8.951 -0.0371 -0.1891 -0.0002
10102SOL     OW31918   6.314   0.408   1.308  0.1683  0.1618 -0.0605
10102SOL    HW131919   6.336   0.489   1.262  0.5108  0.2860  0.3151
10102SOL    HW231920   6.218   0.410   1.315  0.1296  0.2368 -0.5891
10103SOL     OW31921   3.097   4.601   7.694  0.3074  0.6454  0.9041
10103SOL    HW131922   3.098   4.549   7.613 -0.7869  1.0567  0.6150
10103SOL    HW231923   3.140   4.683   7.670 -1.9385  1.6442  0.1053
10104SOL     OW31924   0.978   9.143   1.764 -0.2780  0.3649 -0.1679
10104SOL    HW131925   1.049   9.207   1.756  1.1885 -1.3929 -2.5288
10104SOL    HW231926   0.941   9.137   1.677 -0.6930 -1.5929  0.0875
10105SOL     OW31927   1.490   0.592   3.985 -0.9432  0.2297  0.4087
10105SOL    HW131928   1.419   0.648   3.954 -1.0354  0.8774  1.7171
10105SOL    HW231929   1.566   0.617   3.932 -1.3528  0.4952 -0.0621
10106SOL     OW31930   2.308   9.589   2.474  0.0215 -0.0380 -0.4733
10106SOL    HW131931   2.260   9.672   2.470  0.0217 -0.0869 -2.1448
10106SOL    HW231932   2.298   9.560   2.565 -1.4110  0.9561 -0.2786
10107SOL     OW31933   8.406   4.412   8.690 -0.0468  0.2706  0.2970
10107SOL    HW131934   8.429   4.502   8.713  0.2923 -0.1345  1.6650
10107SOL    HW231935   8.402   4.411   8.595 -0.0376  1.7255  0.2654
10108SOL     OW31936   9.673   9.626   0.994  0.0962 -0.2442 -0.5575
10108SOL    HW131937   9.606   9.564   0.967  0.5297 -0.9513 -0.0344
10108SOL    HW231938   9.755   9.576   0.992  0.0602 -0.6889  3.0026
10109SOL     OW31939   2.654   9.726   2.948 -0.0765 -0.6282  0.3030
10109SOL    HW131940   2.662   9.638   2.984  1.2426 -1.0112 -0.8293
10109SOL    HW231941   2.713   9.726   2.872  0.6898  1.4896  0.8211
10110SOL     OW31942   1.114   0.482   7.279 -0.8789  0.2602 -0.0346
10110SOL    HW131943   1.076   0.475   7.191 -1.7450  1.8588  0.1818
10110SOL    HW231944   1.071   0.412   7.329  0.7344 -1.6766 -1.2090
10111SOL     OW31945   4.856   8.193   4.898 -0.1266 -0.1273 -0.3542
10111SOL    HW131946   4.768   8.225   4.875 -0.5308  0.0028  1.2774
10111SOL    HW231947   4.914   8.265   4.873 -0.7475  0.7892  0.7387
10112SOL     OW31948   3.296   6.534   0.064 -0.5540  0.1575  0.3976
10112SOL    HW131949   3.344   6.617   0.051 -1.1021  0.5651  0.9377
10112SOL    HW231950   3.286   6.527   0.159  0.3936 -1.0573  0.4325
10113SOL     OW31951   5.493   7.577   9.385  0.1553  0.1387 -0.3256
10113SOL    HW131952   5.508   7.505   9.447 -0.8860  1.5839  1.6977
10113SOL    HW231953   5.531   7.545   9.303  0.9328 -2.1650  0.8262
10114SOL     OW31954   3.162   1.230   0.048 -0.4451 -0.4188 -0.0771
10114SOL    HW131955   3.069   1.209   0.056 -0.0216 -3.0241 -0.9280
10114SOL    HW231956   3.195   1.225   0.138 -1.0842  0.4694  0.2211
10115SOL     OW31957   0.768   4.056   3.352 -0.1972 -0.1583  0.1050
10115SOL    HW131958   0.739   3.987   3.412 -0.5403 -0.6037 -0.5563
10115SOL    HW231959   0.741   4.137   3.394 -1.1835 -0.5054  0.1659
10116SOL     OW31960   6.608   1.548   7.751 -0.0498 -0.4583 -0.3662
10116SOL    HW131961   6.635   1.505   7.832 -0.4049 -0.6622 -0.3530
10116SOL    HW231962   6.517   1.573   7.767  0.3533  0.8958 -0.1340
10117SOL     OW31963   4.769   4.423   8.988  0.2201 -0.1655 -0.3152
10117SOL    HW131964   4.693   4.471   8.957 -0.7844 -0.9075  0.9103
10117SOL    HW231965   4.842   4.457   8.936 -0.2890  3.1423  0.9451
10118SOL     OW31966   9.224   1.678   0.820 -0.2574 -0.2057  0.3543
10118SOL    HW131967   9.179   1.716   0.896  0.7123  1.1884  0.2732
10118SOL    HW231968   9.181   1.716   0.744 -1.0569 -1.4015  0.1832
10119SOL     OW31969   4.455   8.497   0.368  0.0844  0.8238  0.0233
10119SOL    HW131970   4.365   8.516   0.393  0.4787  1.8241  0.7491
10119SOL    HW231971   4.501   8.484   0.451  0.1485 -2.1381 -0.3706
10120SOL     OW31972   7.002   2.401   2.165  0.5480 -0.3063 -0.3958
10120SOL    HW131973   6.916   2.438   2.185  0.0824 -1.7899  0.5769
10120SOL    HW231974   7.052   2.474   2.130 -0.2787  1.2549  1.4873
10121SOL     OW31975   9.334   5.021   1.581  1.2489  0.0928 -0.4799
10121SOL    HW131976   9.388   5.047   1.656  0.7304 -1.7251  0.5802
10121SOL    HW231977   9.250   5.064   1.597  1.1281 -0.3179  0.0067
10122SOL     OW31978   6.977   4.895   6.840 -0.0319  0.2999  0.6066
10122SOL    HW131979   7.052   4.941   6.801 -0.9054  0.8495 -0.4690
10122SOL    HW231980   6.988   4.804   6.812  1.3905 -0.0909  2.2656
10123SOL     OW31981   9.077   4.631   9.231 -0.3527  0.3394 -0.8949
10123SOL    HW131982   9.074   4.589   9.317  0.9873  1.2225 -0.3673
10123SOL    HW231983   8.999   4.600   9.186 -1.9041  0.9736  1.1730
10124SOL     OW31984   3.974   4.235   7.457  0.0184  0.3680  0.2792
10124SOL    HW131985   3.941   4.273   7.377  0.9754 -0.2597 -0.4445
10124SOL    HW231986   3.939   4.290   7.527 -1.2125  0.6379 -0.5297
10125SOL     OW31987   6.625   6.249   4.683  0.0351 -0.3762 -0.2140
10125SOL    HW131988   6.553   6.219   4.739  0.3702  0.7062  0.8443
10125SOL    HW231989   6.652   6.171   4.635 -0.4816 -1.2845  0.9162
10126SOL     OW31990   0.528   9.227   5.078  0.0609 -0.0620 -0.2907
10126SOL    HW131991   0.599   9.184   5.030  0.7785  1.3207 -0.5207
10126SOL    HW231992   0.572   9.276   5.147 -0.9363 -1.7353  1.6078
10127SOL     OW31993   1.919   9.812   9.475 -0.2376  0.4764 -0.4950
10127SOL    HW131994   1.897   9.905   9.472 -0.0387  0.4941 -1.5485
10127SOL    HW231995   2.012   9.810   9.498 -0.3212  0.5181 -0.1398
10128SOL     OW31996   9.743   5.016   2.000  0.0863 -0.2598  0.7252
10128SOL    HW131997   9.764   4.923   1.991  0.1150 -0.1372 -0.6766
10128SOL    HW231998   9.797   5.060   1.935 -0.1457  0.7172  1.1682
10129SOL     OW31999   2.553   5.403   5.231  0.4106 -0.6849  0.1146
10129SOL    HW132000   2.557   5.311   5.255  0.1323 -0.5790  0.5828
10129SOL    HW232001   2.544   5.403   5.136 -0.5787 -1.1715  0.1939
10130SOL     OW32002   0.704   6.991   4.619 -0.0143 -0.3718 -0.1599
10130SOL    HW132003   0.608   6.985   4.621 -0.0625  0.2705  1.5006
10130SOL    HW232004   0.732   6.905   4.588 -1.1199 -0.8711  0.1478
10131SOL     OW32005   3.306   9.078   8.650 -0.7062 -0.4269  0.1653
10131SOL    HW132006   3.375   9.016   8.673  1.9345  2.2266  0.0558
10131SOL    HW232007   3.280   9.117   8.734 -1.0586 -0.4045  0.0478
10132SOL     OW32008   0.357   1.205   5.871 -0.2995 -0.0541 -0.5763
10132SOL    HW132009   0.334   1.242   5.786  1.2679  1.6226 -0.3396
10132SOL    HW232010   0.441   1.245   5.893 -1.3105  0.7239  2.4043
10133SOL     OW32011   7.544   9.006   4.099  0.2654 -0.2108  0.0920
10133SOL    HW132012   7.482   9.017   4.027 -0.7422  1.9925  1.1846
10133SOL    HW232013   7.560   8.911   4.102 -1.9526 -0.7127 -1.1469
10134SOL     OW32014   9.574   0.114   2.091 -0.6476 -0.2132 -0.0764
10134SOL    HW132015   9.585   0.019   2.099  0.9195 -0.0964 -0.6582
10134SOL    HW232016   9.661   0.147   2.070 -0.9656  1.4661  1.0191
10135SOL     OW32017   8.065   3.993   0.390  0.0538  0.1885  0.1120
10135SOL    HW132018   8.113   3.910   0.392  0.9234  0.6968  0.6463
10135SOL    HW232019   8.011   3.987   0.311 -0.2662 -1.0831  0.3890
10136SOL     OW32020   5.354   6.121   0.968  0.1388  0.2732 -0.3334
10136SOL    HW132021   5.378   6.067   0.892 -0.3625 -2.9634  1.6030
10136SOL    HW232022   5.263   6.098   0.986 -0.4656  2.6775 -0.0120
10137SOL     OW32023   1.854   5.935   7.928  0.8560 -0.1732  0.2925
10137SOL    HW132024   1.764   5.906   7.919  0.7979  0.4551 -1.6363
10137SOL    HW232025   1.895   5.871   7.986 -0.9729 -0.0662  1.7853
10138SOL     OW32026   2.830   4.634   7.441 -0.1123 -0.4250  0.3094
10138SOL    HW132027   2.924   4.650   7.427 -0.1393 -0.0412  0.5283
10138SOL    HW232028   2.812   4.552   7.395  0.5021 -0.9219  0.9309
10139SOL     OW32029   2.508   5.369   6.058  0.1647  0.0931  0.4909
10139SOL    HW132030   2.479   5.345   5.970 -0.0038  2.0077 -0.0317
10139SOL    HW232031   2.603   5.375   6.052  0.1927 -0.2458  0.5758
10140SOL     OW32032   0.317   8.130   5.636 -0.6016  0.1155 -0.3148
10140SOL    HW132033   0.349   8.221   5.643 -2.6821  0.8235  0.9982
10140SOL    HW232034   0.258   8.131   5.561 -1.7758  0.2617  0.5880
10141SOL     OW32035   3.908   5.712   1.851 -0.1248 -0.0275 -0.3431
10141SOL    HW132036   3.825   5.719   1.899  0.0846 -1.3731  0.2616
10141SOL    HW232037   3.893   5.761   1.770 -1.2330  0.4348  0.1234
10142SOL     OW32038   6.606   8.890   4.088 -0.7047 -0.5330 -0.0584
10142SOL    HW132039   6.682   8.850   4.130 -0.0902  0.2762 -0.3804
10142SOL    HW232040   6.548   8.816   4.067 -0.3344 -1.0840  0.8273
10143SOL     OW32041   4.449   9.319   5.069  0.5440 -0.5500 -0.4509
10143SOL    HW132042   4.498   9.241   5.096  0.6726 -0.4108 -0.2799
10143SOL    HW232043   4.517   9.383   5.048  0.4441  0.1259  1.1748
10144SOL     OW32044   9.564   7.712   8.002  0.1159  0.3595  0.0515
10144SOL    HW132045   9.613   7.730   8.083  1.3992  2.5630 -1.1195
10144SOL    HW232046   9.493   7.775   8.004 -1.0683 -0.9403  0.3739
10145SOL     OW32047   1.063   2.694   7.719  0.4969  0.1344  0.4172
10145SOL    HW132048   0.977   2.734   7.715 -0.1977 -1.3438 -1.3679
10145SOL    HW232049   1.080   2.664   7.629  2.9649  0.5438  0.6607
10146SOL     OW32050   9.714   0.180   3.313 -0.1829  0.4387  0.4089
10146SOL    HW132051   9.680   0.169   3.402 -0.9912  2.7198  0.4360
10146SOL    HW232052   9.801   0.216   3.325 -0.3999  1.0136  0.2894
10147SOL     OW32053   2.173   0.881   4.652 -0.6306 -0.1256  0.2277
10147SOL    HW132054   2.214   0.800   4.681 -0.0203 -0.8989 -2.4472
10147SOL    HW232055   2.081   0.872   4.678 -0.2638 -0.9769  1.2770
10148SOL     OW32056   1.843   8.526   8.536  0.4646  0.6133  0.8293
10148SOL    HW132057   1.880   8.535   8.624  3.3388  2.5856 -0.4226
10148SOL    HW232058   1.886   8.594   8.485  0.2256 -1.5326 -2.5533
10149SOL     OW32059   2.609   0.471   8.067  0.5487  0.1151 -0.2470
10149SOL    HW132060   2.643   0.388   8.100  1.7882  0.3876 -0.8170
10149SOL    HW232061   2.665   0.537   8.106  0.1301  0.6357 -0.5138
10150SOL     OW32062   2.961   0.101   3.906 -0.3306  0.0150 -0.7910
10150SOL    HW132063   2.933   0.094   3.998  1.9073 -2.8944 -0.1847
10150SOL    HW232064   3.031   0.167   3.908  0.1966 -0.5433 -0.2317
10151SOL     OW32065   2.988   2.730   5.563 -0.4852 -0.3917 -0.2076
10151SOL    HW132066   2.936   2.716   5.643 -1.9631 -2.3303 -1.4193
10151SOL    HW232067   3.075   2.697   5.585 -1.1600 -1.9043  0.3037
10152SOL     OW32068   2.673   2.487   7.773  0.0860 -0.3835 -0.2727
10152SOL    HW132069   2.749   2.517   7.823 -0.4055  0.2757  0.1000
10152SOL    HW232070   2.604   2.478   7.838 -1.0013  1.9671 -0.9908
10153SOL     OW32071   8.976   5.823   1.910  0.0871  0.2105 -0.2942
10153SOL    HW132072   8.908   5.770   1.869  1.3268 -0.4195 -1.6260
10153SOL    HW232073   8.970   5.802   2.004 -0.0745 -1.5701 -0.6723
10154SOL     OW32074   4.230   1.254   3.948 -0.3307 -0.2660  0.3719
10154SOL    HW132075   4.196   1.323   3.890 -0.2898 -0.4574  0.1195
10154SOL    HW232076   4.325   1.257   3.934 -0.2527  0.1635  0.9601
10155SOL     OW32077   8.470   0.301   1.165  0.4252 -0.0514  0.2229
10155SOL    HW132078   8.468   0.333   1.256 -1.8176  0.9786 -0.1302
10155SOL    HW232079   8.544   0.348   1.126 -0.2638  1.6209  0.8208
10156SOL     OW32080   7.355   4.712   7.342 -0.4938  0.4869  0.0714
10156SOL    HW132081   7.337   4.719   7.435  1.0989  0.5364  0.4052
10156SOL    HW232082   7.395   4.795   7.318 -1.5184  0.7502 -0.8366
10157SOL     OW32083   5.170   1.329   4.088  0.1543  0.0947  0.3192
10157SOL    HW132084   5.079   1.355   4.104 -0.5518 -1.6276 -0.6421
10157SOL    HW232085   5.218   1.364   4.163 -1.8147 -1.4266  2.4591
10158SOL     OW32086   8.253   4.711   7.181  0.2515  0.0238 -0.1076
10158SOL    HW132087   8.167   4.751   7.171 -0.8591 -2.5457 -1.5823
10158SOL    HW232088   8.276   4.727   7.273 -2.5258 -0.5721  0.7886
10159SOL     OW32089   7.074   8.588   7.642  0.2810  0.6150 -0.0365
10159SOL    HW132090   6.987   8.604   7.606  0.1312  2.3750  1.0285
10159SOL    HW232091   7.105   8.674   7.671  1.3896 -0.3433  1.7900
10160SOL     OW32092   5.499   7.214   6.344  0.1304 -0.6867  0.1060
10160SOL    HW132093   5.488   7.282   6.278 -1.7952 -0.0782  1.0107
10160SOL    HW232094   5.457   7.136   6.306  1.7716 -1.2574 -0.6548
10161SOL     OW32095   9.337   7.684   4.914  0.2752 -0.1642  0.2654
10161SOL    HW132096   9.262   7.689   4.856 -0.8340 -1.0479  1.5605
10161SOL    HW232097   9.329   7.761   4.970  1.2310  0.5780 -0.5786
10162SOL     OW32098   3.311   6.459   9.384 -0.1230 -0.5518  0.2860
10162SOL    HW132099   3.358   6.439   9.303  0.2060  1.4923 -0.0898
10162SOL    HW232100   3.269   6.377   9.409 -0.2055 -1.2328 -1.9353
10163SOL     OW32101   1.862   1.851   3.817  0.1859 -0.2536  0.1438
10163SOL    HW132102   1.837   1.916   3.751  2.1853  0.9620  0.4955
10163SOL    HW232103   1.802   1.778   3.803 -1.2684  1.1070 -1.1582
10164SOL     OW32104   8.392   5.914   2.326  0.4843  0.5779 -0.0199
10164SOL    HW132105   8.467   5.972   2.339 -0.1353  0.9230  2.7400
10164SOL    HW232106   8.420   5.830   2.362 -0.1128  0.4374  0.1282
10165SOL     OW32107   2.721   4.762   2.710 -0.1892  0.4820  0.1946
10165SOL    HW132108   2.681   4.831   2.763  0.9559 -0.4953  2.4883
10165SOL    HW232109   2.736   4.690   2.772 -0.2707 -1.3983 -1.8481
10166SOL     OW32110   4.956   7.199   5.789  0.0692  0.1099 -0.0153
10166SOL    HW132111   5.001   7.278   5.820  0.0711 -0.1070  0.5500
10166SOL    HW232112   5.027   7.143   5.758  0.0600  0.3667 -0.5078
10167SOL     OW32113   0.320   1.661   5.888 -0.1725  0.5711  0.0199
10167SOL    HW132114   0.269   1.625   5.816  2.0740 -1.8282 -0.5459
10167SOL    HW232115   0.409   1.669   5.853  0.6695  0.8700  2.0625
10168SOL     OW32116   5.308   2.452   0.607  0.1175  0.6270  0.1425
10168SOL    HW132117   5.287   2.360   0.592  1.0844  0.7842 -2.8371
10168SOL    HW232118   5.225   2.498   0.596  0.0458  0.2945 -0.7742
10169SOL     OW32119   2.317   7.072   1.871 -0.5439 -0.0990  0.1230
10169SOL    HW132120   2.395   7.091   1.923 -1.1328  0.0205  0.9923
10169SOL    HW232121   2.261   7.021   1.930 -0.7509 -0.9600 -0.7876
10170SOL     OW32122   0.648   7.662   2.416  0.4343  0.5074  0.5597
10170SOL    HW132123   0.638   7.589   2.477 -1.0531  0.9453  0.8795
10170SOL    HW232124   0.660   7.621   2.330 -0.2404 -0.1169  0.7604
10171SOL     OW32125   3.410   5.490   2.095 -0.1848 -0.3067  0.2164
10171SOL    HW132126   3.347   5.550   2.055 -1.2911 -1.8166 -0.4149
10171SOL    HW232127   3.362   5.449   2.167 -0.0893 -1.7669 -0.5155
10172SOL     OW32128   9.586   4.938   7.412  0.0442 -0.5132  0.3698
10172SOL    HW132129   9.619   4.989   7.339  0.1754  0.6192  1.1910
10172SOL    HW232130   9.617   4.849   7.396  1.6771  0.0949  0.0210
10173SOL     OW32131   8.985   9.342   7.428  0.7824 -0.2493  0.1538
10173SOL    HW132132   9.009   9.256   7.461 -0.5265  0.0783  2.1365
10173SOL    HW232133   8.928   9.324   7.353 -1.7132 -1.2538  2.1589
10174SOL     OW32134   5.310   3.597   0.248  0.5159 -0.0253  0.3046
10174SOL    HW132135   5.330   3.599   0.342  0.9500 -2.7311  0.3671
10174SOL    HW232136   5.395   3.608   0.205 -0.0014  4.5316 -0.0188
10175SOL     OW32137   2.214   3.172   7.376 -0.3105  0.0119  0.3351
10175SOL    HW132138   2.192   3.256   7.416 -0.2609  0.6141 -0.8734
10175SOL    HW232139   2.276   3.194   7.306 -0.5852 -0.9842 -0.2405
10176SOL     OW32140   6.789   4.431   7.997 -0.2441 -0.9129 -0.9530
10176SOL    HW132141   6.875   4.392   7.983  1.5262  1.9201  0.8081
10176SOL    HW232142   6.773   4.484   7.919  1.9052  2.0701  0.4158
10177SOL     OW32143   3.271   3.484   3.049 -0.4129 -0.7164  0.2357
10177SOL    HW132144   3.285   3.486   2.954 -1.3809 -1.3969  0.0684
10177SOL    HW232145   3.284   3.392   3.073 -1.7679 -0.8592  0.4976
10178SOL     OW32146   4.972   4.376   5.331  0.0883 -0.2019  0.3157
10178SOL    HW132147   4.963   4.410   5.242  0.9762 -0.2706  0.1939
10178SOL    HW232148   5.064   4.390   5.353 -0.9318  4.2865  3.0140
10179SOL     OW32149   7.887   9.466   3.585  0.3525  0.2995 -0.7531
10179SOL    HW132150   7.936   9.543   3.557 -0.0990  0.2330 -1.7516
10179SOL    HW232151   7.954   9.402   3.610  0.7554  0.4607 -1.4112
10180SOL     OW32152   8.478   6.736   0.029 -0.6397 -0.6243  0.0754
10180SOL    HW132153   8.453   6.742   0.122 -1.7501  0.1364 -0.2529
10180SOL    HW232154   8.567   6.770   0.026 -1.3195  1.3354  0.5865
10181SOL     OW32155   5.757   1.054   1.926 -0.2838 -0.0282  0.2491
10181SOL    HW132156   5.683   1.054   1.865  0.2970  2.4751 -0.5577
10181SOL    HW232157   5.829   1.017   1.875 -0.0947  0.9648 -0.2293
10182SOL     OW32158   2.741   3.140   5.964 -0.0794  0.2039 -0.2200
10182SOL    HW132159   2.786   3.203   6.021  0.2252 -0.2982  0.0993
10182SOL    HW232160   2.800   3.130   5.889  0.4697 -0.6416  0.3143
10183SOL     OW32161   2.056   7.966   3.472 -0.4105  0.2146 -0.6761
10183SOL    HW132162   2.059   8.032   3.542 -1.8037  1.0741 -1.3920
10183SOL    HW232163   2.147   7.958   3.443  0.0011  0.7513  0.4002
10184SOL     OW32164   7.078   8.144   7.279  0.1702 -0.5506  0.3764
10184SOL    HW132165   7.029   8.125   7.199  0.1515 -1.2571  0.5530
10184SOL    HW232166   7.011   8.153   7.347  0.1475  0.5454  0.2345
10185SOL     OW32167   1.844   0.902   1.389 -0.3846  0.2876 -0.2607
10185SOL    HW132168   1.781   0.905   1.317 -0.7522  2.6498  0.0689
10185SOL    HW232169   1.797   0.859   1.461 -1.1178  0.7228 -0.4732
10186SOL     OW32170   6.474   6.311   2.439  0.1472  0.2124 -0.3374
10186SOL    HW132171   6.489   6.321   2.345 -2.1310  2.4791 -0.5710
10186SOL    HW232172   6.442   6.221   2.449  0.1222  0.0421 -1.8002
10187SOL     OW32173   3.086   3.793   2.749 -0.5616 -0.4438  0.0792
10187SOL    HW132174   3.108   3.862   2.812 -1.0740  1.3714 -1.6062
10187SOL    HW232175   3.031   3.732   2.798 -1.7577  1.4071  1.1572
10188SOL     OW32176   9.366   0.339   5.258 -0.6310 -0.6896  0.4464
10188SOL    HW132177   9.353   0.259   5.206  1.1457  0.4327 -1.9214
10188SOL    HW232178   9.443   0.320   5.312  0.6781 -0.1571 -1.1680
10189SOL     OW32179   5.804   4.184   3.084  0.3530 -0.1918  0.5456
10189SOL    HW132180   5.755   4.112   3.122  1.6708 -0.3642  1.9917
10189SOL    HW232181   5.746   4.260   3.091  0.1709 -0.4512  1.9381
10190SOL     OW32182   2.173   2.040   6.566  0.3486  0.5559  0.7958
10190SOL    HW132183   2.080   2.047   6.586  0.2677 -0.7022  0.9798
10190SOL    HW232184   2.180   1.962   6.511  1.1158  1.4918 -0.5028
10191SOL     OW32185   0.972   2.746   0.427  0.3660  0.2783 -0.3096
10191SOL    HW132186   0.913   2.672   0.442  1.8646 -1.0002 -0.4531
10191SOL    HW232187   0.942   2.785   0.345 -1.2684  0.6962  0.4435
10192SOL     OW32188   7.053   7.997   9.222  0.4311 -0.6202  0.3465
10192SOL    HW132189   7.136   7.958   9.193  0.0776 -0.1707 -1.3167
10192SOL    HW232190   6.986   7.942   9.183 -0.0626  0.5349 -0.4677
10193SOL     OW32191   8.248   8.593   9.042 -0.1148 -0.7852  0.0612
10193SOL    HW132192   8.277   8.535   8.972 -0.2215 -1.4706  0.5734
10193SOL    HW232193   8.160   8.620   9.016  0.0411 -0.6423 -0.3120
10194SOL     OW32194   4.556   4.886   2.109 -0.1484  0.4812  0.4547
10194SOL    HW132195   4.514   4.929   2.035 -0.9948  0.1283  0.7155
10194SOL    HW232196   4.593   4.806   2.072 -1.3843 -0.1679  0.5704
10195SOL     OW32197   3.223   7.649   3.752  0.3384 -0.0408  0.3814
10195SOL    HW132198   3.129   7.651   3.734  0.4425  1.5495 -0.1782
10195SOL    HW232199   3.243   7.737   3.785  1.7142 -0.1879  0.0010
10196SOL     OW32200   9.016   8.941   2.005 -0.1686  0.6972  0.3199
10196SOL    HW132201   9.070   9.016   2.028  0.9907 -0.3770  1.2293
10196SOL    HW232202   8.950   8.937   2.075 -0.4909  1.0896  0.0462
10197SOL     OW32203   6.122   6.868   2.522 -0.1889 -0.1543 -0.5624
10197SOL    HW132204   6.113   6.846   2.615 -1.3203 -3.0318 -1.2382
10197SOL    HW232205   6.101   6.961   2.517 -0.6389 -0.0435  1.9847
10198SOL     OW32206   5.778   8.432   8.525 -0.3928 -0.2387 -0.3410
10198SOL    HW132207   5.868   8.398   8.533  0.0755  0.8871 -0.5874
10198SOL    HW232208   5.732   8.397   8.601  0.6145  0.2088  0.5072
10199SOL     OW32209   0.701   6.808   5.884 -0.2982 -0.8225  0.0263
10199SOL    HW132210   0.659   6.743   5.941  0.3425 -1.1584  0.1175
10199SOL    HW232211   0.792   6.780   5.879  0.1758  0.5387  0.7428
10200SOL     OW32212   5.038   3.032   6.263  0.1270  0.1164 -0.0899
10200SOL    HW132213   5.020   3.080   6.343  1.1689  0.9858 -0.3672
10200SOL    HW232214   4.994   2.948   6.276  0.6495  0.0620  1.5786
10201SOL     OW32215   6.518   7.645   4.653  0.4970  0.0616 -0.3646
10201SOL    HW132216   6.554   7.645   4.564  2.8671  2.6811  0.4314
10201SOL    HW232217   6.585   7.601   4.706  1.2250  2.2357  0.6714
10202SOL     OW32218   5.752   8.689   3.600 -0.3649 -0.1232  0.0270
10202SOL    HW132219   5.830   8.706   3.653 -1.6366  1.8315  1.4177
10202SOL    HW232220   5.763   8.745   3.523 -1.5311  2.3289  1.5123
10203SOL     OW32221   2.096   8.419   3.586 -0.2439  0.5770 -0.5810
10203SOL    HW132222   2.145   8.419   3.667  1.4455 -2.1154 -1.4645
10203SOL    HW232223   2.083   8.511   3.564 -0.3716  1.3577  2.4422
10204SOL     OW32224   3.652   2.186   8.012 -0.4618  0.2330  0.9235
10204SOL    HW132225   3.693   2.265   7.976  0.3453 -0.1244  1.0420
10204SOL    HW232226   3.613   2.142   7.936 -0.5963  0.5549  0.8038
10205SOL     OW32227   7.469   1.440   4.695 -0.2787 -0.1954  0.0153
10205SOL    HW132228   7.472   1.344   4.698  1.2444 -0.2938 -2.2007
10205SOL    HW232229   7.549   1.465   4.648 -1.1506  2.1152 -0.3623
10206SOL     OW32230   3.964   1.695   4.513 -0.3480 -0.1043  0.4819
10206SOL    HW132231   3.881   1.647   4.523 -0.2367 -0.5447 -0.5412
10206SOL    HW232232   4.030   1.636   4.549 -0.7244  1.4729  4.2149
10207SOL     OW32233   8.812   8.604   5.867 -0.5317  1.1273  0.1466
10207SOL    HW132234   8.871   8.581   5.795 -0.1053 -0.6736  0.9903
10207SOL    HW232235   8.765   8.682   5.837  0.8839  1.4528 -1.3395
10208SOL     OW32236   5.339   9.681   2.895 -0.1877 -0.3307  0.0781
10208SOL    HW132237   5.385   9.693   2.812 -0.8681 -0.5442 -0.3376
10208SOL    HW232238   5.246   9.692   2.873 -0.3585 -0.1113  0.8628
10209SOL     OW32239   2.792   2.511   5.449  0.0634 -0.5042  0.0532
10209SOL    HW132240   2.822   2.591   5.406 -0.2191  0.1421  1.0331
10209SOL    HW232241   2.869   2.455   5.453  0.7765  0.5096  1.1274
10210SOL     OW32242   4.456   0.830   3.177  0.2163 -0.1790 -0.1967
10210SOL    HW132243   4.469   0.796   3.266  1.3243 -1.0436 -0.6697
10210SOL    HW232244   4.427   0.921   3.190  0.3728 -0.2900  1.0469
10211SOL     OW32245   1.359   3.563   8.579 -0.1966 -0.2494 -0.3581
10211SOL    HW132246   1.385   3.570   8.487  1.5067  0.8848  0.1729
10211SOL    HW232247   1.420   3.500   8.617 -1.6748 -1.6684 -0.2349
10212SOL     OW32248   3.882   4.702   3.241 -0.3069  0.2458 -0.0838
10212SOL    HW132249   3.919   4.659   3.164  1.8310  1.9073 -0.0951
10212SOL    HW232250   3.948   4.767   3.266 -2.0367  1.4346  1.6980
10213SOL     OW32251   3.808   3.644   8.803 -0.7382  0.3766 -0.3749
10213SOL    HW132252   3.859   3.713   8.845  0.8501 -1.2501  0.5556
10213SOL    HW232253   3.723   3.646   8.846  0.2923 -0.1562  1.8259
10214SOL     OW32254   9.131   9.476   1.846  0.1620 -0.9914 -0.4450
10214SOL    HW132255   9.044   9.497   1.812  0.0765 -0.9307 -0.1917
10214SOL    HW232256   9.129   9.506   1.937  1.4910  1.9191 -1.2733
10215SOL     OW32257   4.363   4.169   9.614 -0.1175 -0.3304  0.0294
10215SOL    HW132258   4.327   4.256   9.599  2.8270  0.7773 -1.4102
10215SOL    HW232259   4.303   4.110   9.569 -1.3068  1.0899 -0.3355
10216SOL     OW32260   1.432   1.336   0.024 -0.1689 -0.0281 -0.1429
10216SOL    HW132261   1.447   1.252   0.067 -2.3216  0.4279  1.6338
10216SOL    HW232262   1.383   1.314  -0.055  1.1787 -0.5840 -0.8689
10217SOL     OW32263   4.521   0.736   3.433 -0.2288  0.4552 -0.1310
10217SOL    HW132264   4.530   0.784   3.516 -1.2044  0.0533  0.2211
10217SOL    HW232265   4.543   0.646   3.455  0.0876  0.4568 -0.4423
10218SOL     OW32266   4.381   2.290   1.999 -0.5869 -0.4429 -0.0742
10218SOL    HW132267   4.432   2.294   1.918 -1.0508 -1.6860 -0.4616
10218SOL    HW232268   4.395   2.201   2.031  0.6931  0.4286  1.9782
10219SOL     OW32269   7.553   3.115   5.259  0.1218  0.1084 -0.7086
10219SOL    HW132270   7.475   3.154   5.219 -1.4434 -1.3146  0.7869
10219SOL    HW232271   7.624   3.174   5.235 -1.7357  2.6470 -0.3638
10220SOL     OW32272   0.872   4.412   2.778 -0.4424 -0.4140  0.4489
10220SOL    HW132273   0.810   4.344   2.805 -0.5285 -1.6763 -2.5259
10220SOL    HW232274   0.819   4.490   2.766 -0.9999 -0.7822  0.4641
10221SOL     OW32275   1.439   8.667   4.639  0.9372 -0.5429  0.6997
10221SOL    HW132276   1.373   8.655   4.570 -0.1534  0.3047  1.5571
10221SOL    HW232277   1.398   8.728   4.701  0.9074 -2.9912  3.3153
10222SOL     OW32278   8.915   3.748   6.660 -0.5103 -0.3299 -0.3512
10222SOL    HW132279   8.870   3.753   6.744  0.7995  1.1500  0.3125
10222SOL    HW232280   8.911   3.655   6.636 -0.1364 -0.9658  1.8095
10223SOL     OW32281   0.054   3.395   1.885  0.4025  0.0639 -0.0924
10223SOL    HW132282   0.137   3.346   1.893 -0.7497 -2.0085 -0.0967
10223SOL    HW232283  -0.004   3.353   1.949 -0.8261  1.0934 -0.4974
10224SOL     OW32284   7.211   8.622   6.214 -0.1645  0.6269 -0.0292
10224SOL    HW132285   7.270   8.553   6.185  2.3954  1.9323  1.6543
10224SOL    HW232286   7.224   8.693   6.152 -0.0925  0.8544  0.2422
10225SOL     OW32287   9.201   1.748   3.065 -0.2355 -0.2001 -0.0972
10225SOL    HW132288   9.226   1.799   2.987 -1.6619 -0.7072 -0.9201
10225SOL    HW232289   9.183   1.815   3.132  1.4441  0.2275 -0.0285
10226SOL     OW32290   7.911   6.372   2.436  0.0257 -1.1211 -0.6146
10226SOL    HW132291   7.976   6.367   2.505 -0.5003 -1.7673 -0.1495
10226SOL    HW232292   7.878   6.462   2.440  2.0306 -0.2572 -1.9607
10227SOL     OW32293   9.194   6.476   9.683 -0.7696 -0.5252  0.2220
10227SOL    HW132294   9.157   6.413   9.621 -0.0721  0.7622 -1.6040
10227SOL    HW232295   9.288   6.472   9.667 -0.5139 -0.6185  1.6831
10228SOL     OW32296   9.843   2.241   7.073  0.4135 -0.1652  0.2837
10228SOL    HW132297   9.896   2.320   7.064  1.0410 -0.6298 -0.0960
10228SOL    HW232298   9.870   2.202   7.156  3.2088 -2.2493 -1.4561
10229SOL     OW32299   9.092   8.311   2.102  0.1675 -0.5064 -0.0417
10229SOL    HW132300   9.074   8.257   2.026  1.2605 -0.4898 -0.3230
10229SOL    HW232301   9.064   8.399   2.077 -0.0739 -0.6261 -0.1872
10230SOL     OW32302   6.944   6.103   8.002  0.4667  0.5481  0.1428
10230SOL    HW132303   6.919   6.168   8.067 -0.7211 -0.7399  1.0496
10230SOL    HW232304   6.861   6.078   7.961  1.0450  0.3946 -0.9456
10231SOL     OW32305   5.397   5.810   7.213  0.2332  0.9147  0.0816
10231SOL    HW132306   5.410   5.896   7.252 -0.8015  0.8741  0.5443
10231SOL    HW232307   5.302   5.797   7.214  0.4068 -0.4482  0.4912
10232SOL     OW32308   6.169   9.082   1.518 -0.3723  0.2557 -0.4911
10232SOL    HW132309   6.159   8.988   1.502  1.0396 -0.2357  1.1593
10232SOL    HW232310   6.227   9.113   1.449  0.9927 -0.6029  0.2236
10233SOL     OW32311   3.736   5.951   4.995  0.0154 -0.1699  0.1796
10233SOL    HW132312   3.759   5.966   4.903  1.0715 -2.7064 -0.0463
10233SOL    HW232313   3.816   5.971   5.043 -0.3281  0.4734  0.5023
10234SOL     OW32314   7.811   9.012   6.167  0.5164  0.2154 -0.1126
10234SOL    HW132315   7.811   9.012   6.262 -3.6281 -0.0242  0.0432
10234SOL    HW232316   7.817   8.920   6.142  0.1266  0.1585 -0.0030
10235SOL     OW32317   6.207   7.559   1.901  0.2700  0.2192  0.3291
10235SOL    HW132318   6.266   7.511   1.843 -0.1486 -0.8946  0.7946
10235SOL    HW232319   6.128   7.506   1.903  0.0645  0.5485  1.4511
10236SOL     OW32320   2.600   6.345   9.706 -0.3788  0.1465 -0.4033
10236SOL    HW132321   2.577   6.253   9.699 -0.8909 -0.0747  2.8431
10236SOL    HW232322   2.518   6.392   9.688 -0.7753 -0.1812  0.4791
10237SOL     OW32323   2.603   3.969   4.479 -0.7402  0.2108  0.3653
10237SOL    HW132324   2.604   3.980   4.384  0.8191  1.3516  0.4624
10237SOL    HW232325   2.622   4.057   4.513 -2.0594 -0.0056  1.7784
10238SOL     OW32326   1.178   2.410   4.255  0.0692 -0.4055  0.0627
10238SOL    HW132327   1.273   2.400   4.254  0.3055  1.5483 -0.7605
10238SOL    HW232328   1.162   2.497   4.219 -2.0725 -0.8936 -0.3309
10239SOL     OW32329   8.283   9.741   3.791 -0.1332 -0.3539 -0.6342
10239SOL    HW132330   8.236   9.738   3.874 -0.3334  1.6540 -0.6344
10239SOL    HW232331   8.369   9.702   3.811 -0.8216 -1.6104  0.0056
10240SOL     OW32332   1.208   0.560   5.877 -0.2158  0.1911  1.0835
10240SOL    HW132333   1.291   0.514   5.869 -0.7977 -0.9322  1.3922
10240SOL    HW232334   1.157   0.531   5.802 -0.0836  1.4404  0.4809
10241SOL     OW32335   3.671   8.109   1.576  0.1964 -0.3401  0.3423
10241SOL    HW132336   3.716   8.026   1.589  0.3592 -0.4005 -0.5861
10241SOL    HW232337   3.714   8.149   1.501  0.2084  0.6517  0.8565
10242SOL     OW32338   6.279   8.805   4.326  0.0824 -0.3002  0.0306
10242SOL    HW132339   6.199   8.816   4.377  1.3105  1.3443  1.7259
10242SOL    HW232340   6.252   8.823   4.236 -1.5048 -0.0786  0.5133
10243SOL     OW32341   0.032   4.109   4.292 -0.0613 -0.0920 -0.2614
10243SOL    HW132342   0.032   4.018   4.263 -2.2201 -1.3349  2.9726
10243SOL    HW232343   0.124   4.129   4.310  0.2476 -2.8500  1.9083
10244SOL     OW32344   8.168   2.317   2.753 -0.1930 -0.5776 -0.0809
10244SOL    HW132345   8.214   2.268   2.822  0.7785 -0.3097 -0.5155
10244SOL    HW232346   8.109   2.375   2.801 -0.1886 -1.0386  0.4977
10245SOL     OW32347   7.366   8.345   5.042 -0.7778 -0.4165 -0.4122
10245SOL    HW132348   7.334   8.262   5.076 -0.7328 -1.7994 -3.3924
10245SOL    HW232349   7.456   8.327   5.017 -0.3884  0.9021  0.0006
10246SOL     OW32350   4.714   3.207   0.195  1.0281 -0.0499  0.2709
10246SOL    HW132351   4.749   3.294   0.214 -1.2875  1.4023 -1.5048
10246SOL    HW232352   4.656   3.188   0.269  1.5409 -0.1031  0.6640
10247SOL     OW32353   9.709   7.627   0.330 -0.2927 -0.2845  0.0047
10247SOL    HW132354   9.696   7.707   0.382 -0.6610 -1.1326  1.2546
10247SOL    HW232355   9.783   7.648   0.273  1.4247  0.0553  2.2199
10248SOL     OW32356   6.278   1.147   0.231 -0.3148 -0.0878 -0.4792
10248SOL    HW132357   6.252   1.178   0.319  2.4133  0.0260  0.3630
10248SOL    HW232358   6.243   1.213   0.172 -2.6797 -0.4335  0.4115
10249SOL     OW32359   3.231   2.675   5.729 -0.1087  0.5570 -0.0401
10249SOL    HW132360   3.289   2.700   5.801 -1.7332  1.1269  1.1279
10249SOL    HW232361   3.200   2.588   5.752  0.4686  0.1316 -0.8098
10250SOL     OW32362   3.710   0.875   2.394 -0.1652  0.0282  0.2297
10250SOL    HW132363   3.649   0.924   2.339  0.4620 -0.7640 -1.2328
10250SOL    HW232364   3.736   0.937   2.462 -0.8144  1.1140 -0.4821
10251SOL     OW32365   7.334   0.696   9.324 -0.6214  0.0424  0.3623
10251SOL    HW132366   7.247   0.672   9.292  0.5762 -1.1157 -2.3324
10251SOL    HW232367   7.373   0.613   9.351  0.1103  0.3790  0.3495
10252SOL     OW32368   4.914   1.105   5.904 -0.1688  0.0036 -0.4521
10252SOL    HW132369   4.848   1.163   5.942  0.4773 -0.0739  0.8473
10252SOL    HW232370   4.890   1.018   5.936  1.7883  0.2361  1.9799
10253SOL     OW32371   0.433   6.933   2.311 -0.0764  0.3718 -0.0256
10253SOL    HW132372   0.445   6.892   2.396  1.9271  1.5062  0.3038
10253SOL    HW232373   0.443   6.862   2.247  2.1680  0.0869  0.5666
10254SOL     OW32374   3.971   1.372   8.597 -0.2157 -0.8763 -0.4481
10254SOL    HW132375   4.047   1.418   8.633 -1.2911  0.3781  0.3278
10254SOL    HW232376   3.970   1.288   8.642 -0.7199  0.1010  1.4786
10255SOL     OW32377   8.928   2.978   5.283  0.3774  0.4503 -0.3676
10255SOL    HW132378   8.990   3.036   5.328  1.1567 -0.7548  0.1667
10255SOL    HW232379   8.974   2.895   5.275 -0.6442 -0.0573 -1.2922
10256SOL     OW32380   1.954   3.768   8.501 -0.0114 -0.3754  0.9679
10256SOL    HW132381   1.892   3.784   8.429 -0.4935  1.1259  1.6908
10256SOL    HW232382   2.032   3.818   8.477  0.2175 -0.7087  1.0060
10257SOL     OW32383   3.107   0.925   0.934 -0.0679  0.1923  0.3799
10257SOL    HW132384   3.071   0.906   1.021  2.0019  2.3542  1.8621
10257SOL    HW232385   3.132   1.018   0.939  1.8111 -0.1084 -1.8768
10258SOL     OW32386   7.624   8.740   4.179 -0.2258  0.0211  0.3326
10258SOL    HW132387   7.544   8.703   4.143 -1.0404 -1.1397  3.1005
10258SOL    HW232388   7.664   8.669   4.229  1.0248  1.3852  1.3868
10259SOL     OW32389   6.613   4.153   9.185 -0.0577  0.1364  0.0136
10259SOL    HW132390   6.544   4.205   9.227  0.5685  0.4117  0.7127
10259SOL    HW232391   6.597   4.165   9.091  0.8241  2.6774  0.1080
10260SOL     OW32392   6.648   0.747   0.612 -0.1704 -0.0837 -0.4531
10260SOL    HW132393   6.702   0.718   0.685 -1.4527  1.0323  1.0001
10260SOL    HW232394   6.564   0.768   0.651 -1.4240 -0.9494 -2.5141
10261SOL     OW32395   1.058   0.471   5.655 -0.5627  0.3308 -0.0986
10261SOL    HW132396   0.975   0.436   5.622  0.2144 -0.2437 -1.5251
10261SOL    HW232397   1.095   0.519   5.581  0.8870 -0.3615  0.1455
10262SOL     OW32398   1.127   4.871   6.222 -0.0725  0.4957 -0.1392
10262SOL    HW132399   1.047   4.919   6.207  0.0524  0.5034 -0.7987
10262SOL    HW232400   1.100   4.779   6.226 -0.2466  0.5678  0.6732
10263SOL     OW32401   7.032   5.922   9.290 -0.1488 -0.5492 -0.3590
10263SOL    HW132402   6.996   5.942   9.377  0.5770 -0.7622  0.0063
10263SOL    HW232403   7.122   5.956   9.294 -0.1773 -0.3773 -1.1014
10264SOL     OW32404   9.811   0.148   8.200  0.6283 -0.0447 -0.6726
10264SOL    HW132405   9.721   0.180   8.203  0.7238  0.1462  0.8388
10264SOL    HW232406   9.803   0.052   8.203  0.4658 -0.0448 -1.0768
10265SOL     OW32407   3.588   8.912   3.062 -0.1037 -0.5906  0.2528
10265SOL    HW132408   3.509   8.954   3.097 -0.1095 -0.0028 -0.4345
10265SOL    HW232409   3.641   8.985   3.030  0.9704 -0.9357  1.1855
10266SOL     OW32410   3.089   6.261   9.620 -0.0409 -0.1168 -0.2272
10266SOL    HW132411   3.054   6.175   9.643 -0.5355 -0.2130 -1.2661
10266SOL    HW232412   3.037   6.289   9.545 -1.0518  1.8665  1.1311
10267SOL     OW32413   0.475   0.621   5.893 -0.2758  0.1844  0.1104
10267SOL    HW132414   0.401   0.624   5.954 -0.7403  2.8182 -0.4432
10267SOL    HW232415   0.529   0.696   5.918  0.8548 -0.1711 -1.1530
10268SOL     OW32416   5.928   2.405   1.283  0.3153  0.7909 -0.8922
10268SOL    HW132417   5.953   2.488   1.323 -0.6872  0.8082 -0.2821
10268SOL    HW232418   5.934   2.421   1.189  0.3988  1.4633 -0.7765
10269SOL     OW32419   0.438   0.322   6.352 -0.3017 -0.4009  0.3060
10269SOL    HW132420   0.446   0.418   6.345 -0.8766 -0.2345  1.5737
10269SOL    HW232421   0.513   0.288   6.304 -1.5442  0.5756 -2.5794
10270SOL     OW32422   7.683   0.599   9.383 -0.4097 -0.2434 -0.1627
10270SOL    HW132423   7.592   0.572   9.388 -0.6655  0.4938 -0.6609
10270SOL    HW232424   7.685   0.685   9.425  0.2763 -0.7417  0.8717
10271SOL     OW32425   9.610   0.305   9.718  0.1401 -0.0777  0.0391
10271SOL    HW132426   9.667   0.229   9.713  0.4027  0.0599  0.9170
10271SOL    HW232427   9.535   0.282   9.662  0.7995 -0.4571 -0.7076
10272SOL     OW32428   1.647   6.415   7.193 -0.0839  0.4143 -0.1269
10272SOL    HW132429   1.685   6.485   7.139  0.8759  1.0146  1.2607
10272SOL    HW232430   1.569   6.386   7.144  0.6125  1.0742 -1.6935
10273SOL     OW32431   4.063   5.150   6.961  0.8193 -0.4405  0.0454
10273SOL    HW132432   4.050   5.167   6.868 -1.0407  0.9105  0.4777
10273SOL    HW232433   4.127   5.215   6.989  0.2842  0.1409 -0.0406
10274SOL     OW32434   1.173   8.237   1.498 -0.5082  0.3190 -0.1717
10274SOL    HW132435   1.227   8.275   1.567 -0.1082 -0.7687  0.1347
10274SOL    HW232436   1.139   8.156   1.535 -0.5135 -0.1417 -1.1405
10275SOL     OW32437   0.067   7.292   1.111  0.0247  0.0836 -0.1184
10275SOL    HW132438   0.160   7.302   1.090  0.0738  0.8737  0.4206
10275SOL    HW232439   0.060   7.204   1.147  0.8989  0.5783  1.3996
10276SOL     OW32440   3.904   3.477   7.663  0.9077  0.3973 -0.4103
10276SOL    HW132441   3.824   3.517   7.696  0.3969 -0.2626 -0.8358
10276SOL    HW232442   3.927   3.529   7.586  0.8047  0.4928 -0.3771
10277SOL     OW32443   3.003   9.770   1.967 -0.0515  0.5996  0.1079
10277SOL    HW132444   3.018   9.688   1.920 -2.2276  1.1689 -1.7576
10277SOL    HW232445   2.915   9.761   2.004 -0.1389  1.9145  0.2875
10278SOL     OW32446   7.082   6.477   5.112 -0.6975  0.0977  0.9239
10278SOL    HW132447   7.070   6.546   5.047 -0.0009  0.3359  1.0402
10278SOL    HW232448   7.023   6.407   5.083 -1.1298  0.5863  0.5943
10279SOL     OW32449   1.994   6.286   7.818 -0.0300 -0.1916  0.6504
10279SOL    HW132450   1.958   6.314   7.902  1.3938  2.3078  0.5370
10279SOL    HW232451   1.994   6.366   7.765  0.2622 -1.4358 -1.3002
10280SOL     OW32452   9.356   4.224   9.559  0.5159 -0.4791 -0.0360
10280SOL    HW132453   9.412   4.149   9.538 -1.4674 -2.0101 -0.1527
10280SOL    HW232454   9.364   4.282   9.484  0.7527 -1.4227 -0.7631
10281SOL     OW32455   8.943   4.645   0.544  0.3478 -0.2483 -0.1480
10281SOL    HW132456   8.932   4.724   0.596  1.3811  0.4483 -0.9342
10281SOL    HW232457   8.863   4.595   0.558 -0.1539  0.7512  0.6757
10282SOL     OW32458   3.582   2.095   5.589  0.3292 -0.1697 -0.5935
10282SOL    HW132459   3.636   2.025   5.624 -0.5595 -0.1998  0.7973
10282SOL    HW232460   3.563   2.069   5.499  0.5455 -1.3962 -0.2891
10283SOL     OW32461   1.145   2.548   5.241  0.5706  0.3932 -0.3472
10283SOL    HW132462   1.192   2.534   5.323 -1.6638  2.1002  1.3550
10283SOL    HW232463   1.146   2.463   5.198  0.4706 -1.0051  2.2296
10284SOL     OW32464   7.525   8.490   7.828  0.2161  0.4498  0.1925
10284SOL    HW132465   7.463   8.440   7.881 -1.3629  1.1715 -0.9076
10284SOL    HW232466   7.542   8.435   7.752 -1.2507  1.3772 -0.8472
10285SOL     OW32467   9.153   5.932   0.266  0.6839 -0.3733 -0.4593
10285SOL    HW132468   9.248   5.938   0.271  0.6344 -0.4209  1.1283
10285SOL    HW232469   9.135   5.838   0.259  0.7271 -0.6693  2.2071
10286SOL     OW32470   2.710   7.954   7.712 -1.0055  0.5719  0.1136
10286SOL    HW132471   2.765   7.935   7.636 -0.9523  0.2013  0.2417
10286SOL    HW232472   2.637   8.005   7.677 -2.0616 -1.3156 -0.5444
10287SOL     OW32473   1.916   3.331   6.688  0.1752 -0.1694  0.1936
10287SOL    HW132474   1.942   3.241   6.707  0.8483  0.0975  0.5318
10287SOL    HW232475   1.941   3.381   6.766 -2.6884 -0.1445  1.2216
10288SOL     OW32476   5.822   2.727   7.128  0.8489  0.1537 -0.2493
10288SOL    HW132477   5.755   2.683   7.076 -0.1258 -2.7495  3.0511
10288SOL    HW232478   5.792   2.818   7.133 -1.0909 -0.3441 -1.5392
10289SOL     OW32479   3.970   0.508   2.903 -0.2768  0.6378  0.2642
10289SOL    HW132480   3.935   0.451   2.834  0.3373 -0.8364  1.1128
10289SOL    HW232481   3.906   0.501   2.974  0.2588  0.2874  0.7138
10290SOL     OW32482   2.366   6.016   1.335 -0.3738 -0.3957 -0.4992
10290SOL    HW132483   2.415   5.966   1.268  1.4996 -0.5829  0.9339
10290SOL    HW232484   2.301   5.954   1.368 -0.7005 -0.5959 -1.4842
10291SOL     OW32485   3.796   9.417   2.661  0.1903 -0.5425  0.1920
10291SOL    HW132486   3.880   9.373   2.673 -0.0139 -0.7045  1.0804
10291SOL    HW232487   3.733   9.346   2.652  0.1453 -0.4211 -0.5006
10292SOL     OW32488   6.536   0.203   0.592 -0.1751  0.3697  0.3094
10292SOL    HW132489   6.615   0.149   0.583 -0.6718 -0.3138 -0.0259
10292SOL    HW232490   6.548   0.274   0.529  0.0392  0.1022  0.0459
10293SOL     OW32491   6.957   9.582   9.639  0.1977 -0.1760 -0.0676
10293SOL    HW132492   6.962   9.539   9.724 -0.2543 -0.8096 -0.3435
10293SOL    HW232493   6.930   9.671   9.658 -0.0026 -0.3431  0.4492
10294SOL     OW32494   1.596   6.212   7.371  0.4986  0.6141 -0.1896
10294SOL    HW132495   1.609   6.285   7.310 -0.2128  1.2472  0.4022
10294SOL    HW232496   1.658   6.228   7.441 -0.4309  1.2967  0.5070
10295SOL     OW32497   1.616   2.402   5.568  0.0469 -0.2826 -0.1039
10295SOL    HW132498   1.524   2.411   5.596  0.2649  1.0172  0.2765
10295SOL    HW232499   1.643   2.318   5.604 -0.8553 -0.4644  0.1969
10296SOL     OW32500   1.566   4.315   3.274 -0.7486 -0.6068 -0.1538
10296SOL    HW132501   1.606   4.235   3.239  1.0807  0.5854 -0.8951
10296SOL    HW232502   1.559   4.374   3.198  0.2116  0.8179  0.8252
10297SOL     OW32503   0.453   2.815   6.739  0.6726  0.2493 -0.7268
10297SOL    HW132504   0.522   2.773   6.790  1.8038  0.2277 -2.2171
10297SOL    HW232505   0.447   2.765   6.658 -1.2488  0.1395 -0.5729
10298SOL     OW32506   2.491   9.611   9.289  0.1935  0.2554 -0.3024
10298SOL    HW132507   2.467   9.575   9.204 -1.2716 -0.9683  0.5983
10298SOL    HW232508   2.447   9.555   9.353  2.2517  0.3796  1.3314
10299SOL     OW32509   2.677   8.240   1.837 -0.0490  0.1261 -0.1453
10299SOL    HW132510   2.670   8.161   1.783  0.8232  0.2357 -0.4341
10299SOL    HW232511   2.600   8.292   1.814 -1.1091 -1.0227  0.6962
10300SOL     OW32512   6.096   4.701   8.550 -0.3085  0.0373  0.1736
10300SOL    HW132513   6.183   4.684   8.514 -1.2926  1.6135 -3.4265
10300SOL    HW232514   6.113   4.739   8.637  2.5545  0.0395 -0.2966
10301SOL     OW32515   3.837   9.519   5.207  0.3800 -0.3421  0.1898
10301SOL    HW132516   3.897   9.470   5.263 -1.1464 -2.6726 -0.0870
10301SOL    HW232517   3.811   9.457   5.139 -2.8236  0.2929  0.6550
10302SOL     OW32518   8.864   5.380   7.439 -0.1566  0.4584 -0.0550
10302SOL    HW132519   8.904   5.376   7.353  0.8923 -0.1880  0.4441
10302SOL    HW232520   8.936   5.400   7.499 -0.5041 -0.9027  0.8762
10303SOL     OW32521   2.676   7.954   5.103  0.4192 -0.6470  0.7171
10303SOL    HW132522   2.738   8.024   5.080  0.4883 -0.8124  0.3991
10303SOL    HW232523   2.676   7.896   5.027 -1.3611  0.2089 -0.0126
10304SOL     OW32524   2.809   2.971   3.112 -0.6636 -0.2637 -0.2705
10304SOL    HW132525   2.846   3.039   3.168 -1.9378  0.8128 -0.6783
10304SOL    HW232526   2.791   2.898   3.171 -1.0358  0.4703  0.5489
10305SOL     OW32527   9.135   9.046   9.734 -0.3181  0.1806 -0.0817
10305SOL    HW132528   9.100   8.988   9.801  0.9291 -0.4247  0.0784
10305SOL    HW232529   9.081   9.030   9.657 -0.8601 -0.1634  0.3608
10306SOL     OW32530   6.787   5.657   7.353  0.1981  0.1865  0.0043
10306SOL    HW132531   6.737   5.687   7.429  0.2137 -1.2258  0.6046
10306SOL    HW232532   6.750   5.705   7.279 -1.3666 -0.0816  0.5871
10307SOL     OW32533   3.275   5.181   6.213  0.6149  0.5646 -0.4184
10307SOL    HW132534   3.361   5.213   6.239  0.9636 -0.5027 -0.2357
10307SOL    HW232535   3.219   5.259   6.217  1.3317  1.0543  0.4771
10308SOL     OW32536   9.236   9.542   4.186 -0.4543 -0.3375  0.4386
10308SOL    HW132537   9.253   9.628   4.150 -2.6956 -0.8740 -2.2493
10308SOL    HW232538   9.142   9.543   4.207 -0.4089 -1.9406  0.8838
10309SOL     OW32539   1.211   0.109   4.127  0.0759 -0.2178 -0.6024
10309SOL    HW132540   1.252   0.195   4.116 -2.2323  1.0484  0.0521
10309SOL    HW232541   1.124   0.118   4.087 -1.4414 -1.2037  2.1988
10310SOL     OW32542   7.995   0.421   2.610 -0.0287  0.2546  0.2168
10310SOL    HW132543   8.027   0.331   2.613 -0.1855  0.2180  1.0957
10310SOL    HW232544   8.073   0.475   2.623 -0.0156  0.2316  0.2340
10311SOL     OW32545   3.965   7.505   2.342  0.3280  0.7108  0.2289
10311SOL    HW132546   3.903   7.549   2.285 -1.3177 -1.6818  0.0163
10311SOL    HW232547   3.980   7.566   2.414  0.3253  2.6619 -1.3286
10312SOL     OW32548   2.755   6.047   3.147  0.6468 -0.0250  0.3581
10312SOL    HW132549   2.755   6.131   3.101  1.1742  0.6012  1.4688
10312SOL    HW232550   2.844   6.038   3.182  0.9010 -1.5232 -0.5570
10313SOL     OW32551   6.240   7.296   9.681  0.0672 -0.1369 -0.0878
10313SOL    HW132552   6.251   7.324   9.590 -2.0644 -0.3087 -0.4529
10313SOL    HW232553   6.264   7.203   9.680  1.1656  0.1418 -0.2135
10314SOL     OW32554   3.618   7.952   7.523  0.7209 -0.3837 -0.0590
10314SOL    HW132555   3.655   7.874   7.482 -1.2741 -0.8947 -1.0366
10314SOL    HW232556   3.538   7.921   7.565  1.1535  0.7195  1.6434
10315SOL     OW32557   7.496   0.088   2.029 -0.0797  0.2638  0.0858
10315SOL    HW132558   7.549   0.090   1.949 -0.1060 -1.3645 -0.0240
10315SOL    HW232559   7.477   0.179   2.047  1.1953  0.7822 -0.9249
10316SOL     OW32560   6.625   8.169   6.219 -0.1066 -0.2954  0.9823
10316SOL    HW132561   6.587   8.099   6.274 -0.0072 -1.6866 -0.6413
10316SOL    HW232562   6.716   8.141   6.205 -0.4040 -0.5111 -0.6873
10317SOL     OW32563   5.448   1.864   6.164  0.6396  1.0082 -0.0847
10317SOL    HW132564   5.389   1.854   6.238  0.4638  0.6240 -0.2755
10317SOL    HW232565   5.532   1.831   6.195  0.3401 -0.0446 -0.3464
10318SOL     OW32566   5.647   7.326   1.149  0.5559  0.0654 -0.3593
10318SOL    HW132567   5.724   7.271   1.161  0.9686  0.6508 -0.2888
10318SOL    HW232568   5.581   7.290   1.208  1.2389  0.4356  0.6428
10319SOL     OW32569   1.630   9.816   9.477 -0.0709  0.4117  0.7466
10319SOL    HW132570   1.600   9.725   9.485  0.4083  0.2019  0.1498
10319SOL    HW232571   1.723   9.810   9.456 -0.0936  1.0384  0.4329
10320SOL     OW32572   6.793   8.760   5.050  0.1854 -0.2722 -0.1361
10320SOL    HW132573   6.781   8.854   5.036  1.2812 -0.1811 -0.5573
10320SOL    HW232574   6.708   8.721   5.027 -0.7282  0.7248  1.3835
10321SOL     OW32575   4.167   7.015   7.832 -0.4004  0.1334  0.2880
10321SOL    HW132576   4.200   7.010   7.742  0.6405  1.1419  0.5996
10321SOL    HW232577   4.190   6.931   7.871 -0.7042 -0.2427 -0.3260
10322SOL     OW32578   5.210   9.413   7.524 -0.1135 -0.2473 -0.0141
10322SOL    HW132579   5.222   9.417   7.619 -1.0567  1.6674  0.0792
10322SOL    HW232580   5.198   9.320   7.505 -0.1466 -0.6437  1.7711
10323SOL     OW32581   7.005   8.857   3.423 -0.9679 -0.0107  0.1255
10323SOL    HW132582   6.985   8.764   3.418  0.1538 -0.3234  0.8779
10323SOL    HW232583   7.036   8.880   3.336 -3.1909  0.1809 -0.6711
10324SOL     OW32584   8.874   6.078   1.804  0.1832 -0.1121  0.2944
10324SOL    HW132585   8.889   6.068   1.710  0.6211 -0.0405  0.3528
10324SOL    HW232586   8.903   5.996   1.842 -0.1636 -0.2105  0.3518
10325SOL     OW32587   6.441   7.030   4.471 -0.4014 -0.6086 -0.1259
10325SOL    HW132588   6.436   6.936   4.488 -1.7929 -0.3523  1.0972
10325SOL    HW232589   6.364   7.050   4.419  0.0627 -0.1876 -0.6627
10326SOL     OW32590   9.263   6.169   3.788 -0.5302  0.1424 -0.0649
10326SOL    HW132591   9.170   6.149   3.781 -0.2113 -2.0765  1.3082
10326SOL    HW232592   9.307   6.095   3.746  0.6380  1.0809 -0.5557
10327SOL     OW32593   8.582   8.320   3.866  0.1882  0.2550  0.5453
10327SOL    HW132594   8.537   8.260   3.925 -0.9081  1.8688  1.4253
10327SOL    HW232595   8.519   8.336   3.795  0.0070  1.2559  0.9244
10328SOL     OW32596   1.026   9.192   2.547 -0.3230  0.4127  0.0474
10328SOL    HW132597   0.967   9.171   2.620  1.4054  1.2055  1.7612
10328SOL    HW232598   1.106   9.143   2.565  0.5405  1.4935 -0.6791
10329SOL     OW32599   3.054   1.814   7.412 -0.2091 -0.1886 -0.1057
10329SOL    HW132600   3.089   1.862   7.337  1.0627  1.2831  1.3469
10329SOL    HW232601   3.120   1.825   7.481 -2.2536  0.3586  1.9065
10330SOL     OW32602   1.598   7.309   3.835  0.2158  0.1935  0.5893
10330SOL    HW132603   1.684   7.267   3.828  0.3054  0.3350  0.8248
10330SOL    HW232604   1.548   7.274   3.761  0.2090 -0.5257  0.9221
10331SOL     OW32605   4.950   2.536   3.010 -0.1035  0.0763  0.4860
10331SOL    HW132606   5.009   2.571   2.942 -0.2036  1.1577  0.9379
10331SOL    HW232607   5.004   2.534   3.089  0.0705 -1.3684  0.3598
10332SOL     OW32608   0.379   7.372   2.801 -0.4653 -0.0065  0.3663
10332SOL    HW132609   0.363   7.354   2.894 -1.0556 -1.0043  0.0823
10332SOL    HW232610   0.291   7.382   2.763 -0.3115 -1.3691 -0.4095
10333SOL     OW32611   2.244   0.358   5.950 -0.5995 -0.0135 -0.0813
10333SOL    HW132612   2.245   0.322   5.862 -1.4949  0.3087 -0.2304
10333SOL    HW232613   2.331   0.395   5.962 -0.5141  0.0426 -0.8701
10334SOL     OW32614   8.936   0.403   4.319 -0.0906  0.4203  0.2036
10334SOL    HW132615   8.992   0.480   4.306 -0.3893  0.3724 -1.5632
10334SOL    HW232616   8.856   0.439   4.359 -0.4353  1.1488 -1.0690
10335SOL     OW32617   6.738   8.987   6.680 -0.4004  0.5506  1.1223
10335SOL    HW132618   6.694   8.908   6.646  0.4135  0.6496 -0.2443
10335SOL    HW232619   6.695   9.059   6.635 -0.0717  0.7740  1.1679
10336SOL     OW32620   9.488   3.986   2.007  0.2168  0.5554  0.3169
10336SOL    HW132621   9.515   4.071   1.973  1.5652  1.0142  2.3233
10336SOL    HW232622   9.528   3.922   1.947  0.5822  1.3268 -0.2786
10337SOL     OW32623   4.553   9.085   4.585 -0.1022  0.0038  0.1838
10337SOL    HW132624   4.504   9.148   4.534  0.2536  2.4978  2.6650
10337SOL    HW232625   4.504   9.077   4.667  0.3008 -2.3948  0.2711
10338SOL     OW32626   4.603   5.712   8.160 -0.2570  0.1892 -0.0470
10338SOL    HW132627   4.681   5.763   8.139 -0.0162 -0.0919  0.1520
10338SOL    HW232628   4.585   5.661   8.082 -0.8720  1.0413 -0.4760
10339SOL     OW32629   8.526   4.909   0.266 -0.5426 -0.8159  0.0706
10339SOL    HW132630   8.493   4.954   0.188 -0.2207 -0.0706  0.3575
10339SOL    HW232631   8.595   4.966   0.299  1.2339 -2.4435 -0.6381
10340SOL     OW32632   2.621   4.865   5.920  0.2183 -0.9792 -0.1549
10340SOL    HW132633   2.693   4.921   5.950 -0.3300  0.3706 -1.2577
10340SOL    HW232634   2.665   4.786   5.888  1.0071 -1.2252  1.4270
10341SOL     OW32635   9.032   4.066   8.233  0.8852  0.1102  0.3737
10341SOL    HW132636   9.123   4.065   8.203  0.9584  0.3773  0.5837
10341SOL    HW232637   9.020   3.982   8.277  1.7773  1.0680  2.5571
10342SOL     OW32638   2.380   5.775   7.477 -0.4063 -0.2705 -0.1566
10342SOL    HW132639   2.454   5.753   7.534  1.4276  1.8691 -1.5392
10342SOL    HW232640   2.391   5.720   7.400 -0.7504 -0.5161 -0.0347
10343SOL     OW32641   9.707   6.675   9.616 -0.1662  0.3252  0.4391
10343SOL    HW132642   9.665   6.612   9.674  0.4537  0.2601  0.8263
10343SOL    HW232643   9.708   6.757   9.666 -1.5637  0.8268 -0.3124
10344SOL     OW32644   8.421   2.189   2.417 -0.5245 -0.0576 -0.0362
10344SOL    HW132645   8.434   2.283   2.405 -1.1328  0.0258 -0.0867
10344SOL    HW232646   8.455   2.171   2.505 -1.2329  0.3806  0.3339
10345SOL     OW32647   5.842   9.520   8.791  0.2323  0.2869 -0.0520
10345SOL    HW132648   5.882   9.433   8.797  0.4902  0.4296  0.3781
10345SOL    HW232649   5.910   9.575   8.753 -0.3119  0.0711 -1.3795
10346SOL     OW32650   6.578   7.023   8.454  0.1018  0.3407 -0.3002
10346SOL    HW132651   6.501   7.080   8.454 -0.6570 -0.6333 -1.5865
10346SOL    HW232652   6.605   7.020   8.362  1.0401 -0.1742 -0.0206
10347SOL     OW32653   1.174   7.452   2.491 -0.4028  0.6282  0.3047
10347SOL    HW132654   1.102   7.390   2.502  1.5331 -1.5566  1.7694
10347SOL    HW232655   1.199   7.444   2.399 -0.3730 -0.6284  0.4050
10348SOL     OW32656   2.952   8.786   5.419  0.5118  0.1398 -0.1317
10348SOL    HW132657   2.996   8.743   5.492 -0.3901 -1.2054 -0.3405
10348SOL    HW232658   2.973   8.879   5.429 -0.3279  0.1308  2.3781
10349SOL     OW32659   8.926   6.289   8.400  0.1935 -0.0507  0.7639
10349SOL    HW132660   8.889   6.201   8.403  1.9581 -0.8620  0.3913
10349SOL    HW232661   8.920   6.321   8.490 -0.3267 -0.6234  0.9389
10350SOL     OW32662   0.344   4.893   6.204 -0.2214 -0.2391  0.3225
10350SOL    HW132663   0.394   4.946   6.266 -1.6152  1.7615 -0.1436
10350SOL    HW232664   0.375   4.804   6.217  2.4777  0.7058  0.9536
10351SOL     OW32665   6.327   6.977   7.672  0.3248 -0.1202 -0.0056
10351SOL    HW132666   6.420   7.000   7.672  0.3911 -0.3834 -0.0719
10351SOL    HW232667   6.286   7.041   7.614  0.1456  1.2538  1.5759
10352SOL     OW32668   1.883   0.876   9.603  0.3497  0.0793 -0.0213
10352SOL    HW132669   1.947   0.891   9.533 -0.1797 -1.2679 -0.8289
10352SOL    HW232670   1.934   0.875   9.683  1.3385 -0.9128 -0.6477
10353SOL     OW32671   4.690   4.937   0.973  0.2059 -0.4807 -0.0767
10353SOL    HW132672   4.666   4.849   1.002  0.4968  0.0974  2.0325
10353SOL    HW232673   4.627   4.994   1.016  0.0054  0.3877 -1.4392
10354SOL     OW32674   1.780   5.901   2.065 -0.6047  0.3076  0.4581
10354SOL    HW132675   1.820   5.818   2.090 -0.3169  0.5307  0.7495
10354SOL    HW232676   1.854   5.957   2.039 -0.7998  0.4523  0.2078
10355SOL     OW32677   5.445   7.097   7.261  0.3204 -1.0197 -0.3968
10355SOL    HW132678   5.501   7.038   7.310  0.9854 -1.0697 -1.1916
10355SOL    HW232679   5.454   7.069   7.170 -0.7663 -0.8376 -0.5820
10356SOL     OW32680   4.483   6.100   0.998  0.7620 -0.0841 -0.5840
10356SOL    HW132681   4.530   6.029   1.041  0.0957 -0.9020 -1.1556
10356SOL    HW232682   4.525   6.108   0.912  0.3354 -0.3379 -0.8232
10357SOL     OW32683   6.937   3.816   7.347  0.0138  0.2107 -0.5182
10357SOL    HW132684   6.998   3.800   7.419  0.1195 -1.6249 -0.9529
10357SOL    HW232685   6.973   3.891   7.300  1.2767 -0.0932 -0.0623
10358SOL     OW32686   9.748   3.528   9.301 -0.5300  0.6122  0.2050
10358SOL    HW132687   9.781   3.522   9.211 -0.6612  0.8257  0.1433
10358SOL    HW232688   9.704   3.444   9.316  0.6639  0.0220  0.5334
10359SOL     OW32689   3.267   5.913   7.394  0.1131  0.1283  0.3645
10359SOL    HW132690   3.212   5.989   7.376 -0.1557 -0.1171  0.1414
10359SOL    HW232691   3.222   5.840   7.351 -0.4478 -0.4476  1.8637
10360SOL     OW32692   4.164   8.121   3.395  0.3154 -0.2361 -0.1387
10360SOL    HW132693   4.149   8.031   3.423  1.3654 -0.7059 -1.0047
10360SOL    HW232694   4.077   8.161   3.394 -0.0759 -1.0136  0.9624
10361SOL     OW32695   0.460   2.802   2.522  0.4035  0.1409 -0.0701
10361SOL    HW132696   0.535   2.841   2.476 -0.3352 -0.3638 -1.7531
10361SOL    HW232697   0.441   2.865   2.592  1.8890  0.6742 -0.1035
10362SOL     OW32698   6.679   1.097   5.502 -0.2025  0.0381 -0.4134
10362SOL    HW132699   6.719   1.032   5.560  0.0445  0.6518  0.1117
10362SOL    HW232700   6.751   1.156   5.479 -0.8353  1.2851  0.7228
10363SOL     OW32701   1.167   1.830   8.184 -0.3848  0.0344  0.4634
10363SOL    HW132702   1.099   1.813   8.119 -1.3145 -0.2806  1.4989
10363SOL    HW232703   1.221   1.751   8.185  1.1931  0.9763 -1.7053
10364SOL     OW32704   7.843   5.146   5.174  0.1956 -0.6683  0.2958
10364SOL    HW132705   7.930   5.166   5.208  0.2853 -1.0192  0.2697
10364SOL    HW232706   7.824   5.057   5.204  0.3457 -1.0433 -0.6996
10365SOL     OW32707   3.352   6.544   1.115 -0.2109 -0.8388  0.4563
10365SOL    HW132708   3.382   6.575   1.030 -1.8207 -0.1139  0.1097
10365SOL    HW232709   3.294   6.614   1.147 -0.9324 -1.8309  1.3891
10366SOL     OW32710   0.693   4.714   8.690 -0.0596 -0.0062  0.0149
10366SOL    HW132711   0.746   4.733   8.767 -1.3186 -0.2168  0.9636
10366SOL    HW232712   0.639   4.792   8.677 -0.0482 -0.0758 -0.4901
10367SOL     OW32713   2.037   9.046   1.558  0.0861  0.2596  0.1636
10367SOL    HW132714   1.975   8.994   1.608  1.2260 -0.7126  0.6318
10367SOL    HW232715   2.123   9.022   1.594  0.9072  0.0121 -1.8241
10368SOL     OW32716   8.699   1.593   0.228 -0.4150  0.0637 -0.1124
10368SOL    HW132717   8.777   1.591   0.173 -1.5095 -0.5662 -1.7318
10368SOL    HW232718   8.630   1.557   0.173 -1.2638 -2.2371  2.2461
10369SOL     OW32719   7.643   8.285   1.828  0.6723  0.1293  0.0459
10369SOL    HW132720   7.567   8.256   1.779 -0.7707  1.5766  1.2956
10369SOL    HW232721   7.666   8.212   1.885 -1.6661  0.6217  1.7511
10370SOL     OW32722   8.737   6.330   9.317  0.1255  0.2306  0.6600
10370SOL    HW132723   8.755   6.236   9.324 -1.5586 -0.1433  0.5523
10370SOL    HW232724   8.821   6.372   9.333  0.7926 -1.2783  1.3418
10371SOL     OW32725   2.377   4.654   6.613  0.0092  0.1285  0.0128
10371SOL    HW132726   2.445   4.625   6.674  0.6718 -0.6043 -1.0445
10371SOL    HW232727   2.360   4.578   6.557 -0.8187  0.6783 -0.5170
10372SOL     OW32728   2.712   3.643   7.950  0.2983 -0.0182  0.2752
10372SOL    HW132729   2.778   3.670   7.887 -1.5003  1.6872 -0.9951
10372SOL    HW232730   2.695   3.721   8.003  0.8871 -1.0744  2.1078
10373SOL     OW32731   8.702   8.082   5.293 -0.5407  0.3404 -0.0275
10373SOL    HW132732   8.730   8.167   5.328  0.9271  0.2638 -0.8886
10373SOL    HW232733   8.612   8.096   5.266  0.1181  2.1348 -1.5676
10374SOL     OW32734   5.442   3.272   6.649 -0.3415 -0.2549 -0.1685
10374SOL    HW132735   5.537   3.261   6.649 -0.2422  0.5526 -0.4316
10374SOL    HW232736   5.412   3.218   6.577  0.1654  1.3756 -1.6651
10375SOL     OW32737   4.609   3.258   8.265 -0.0656 -0.8567 -0.3733
10375SOL    HW132738   4.609   3.209   8.183  0.8015 -0.2118 -0.7640
10375SOL    HW232739   4.662   3.335   8.248 -1.8474  0.5261  0.0821
10376SOL     OW32740   2.833   1.653   7.745  0.4040  0.7028  0.0692
10376SOL    HW132741   2.749   1.642   7.790  0.3876  0.5898  0.0102
10376SOL    HW232742   2.835   1.584   7.679  0.4271  0.8713 -0.1073
10377SOL     OW32743   6.252   2.911   4.541  0.2562  0.4969  0.2563
10377SOL    HW132744   6.221   2.822   4.527 -1.6452  1.1551 -0.0241
10377SOL    HW232745   6.336   2.914   4.495  1.9803 -1.9939  2.8946
10378SOL     OW32746   0.565   5.562   6.521  0.4090  0.1556  0.0316
10378SOL    HW132747   0.599   5.598   6.439 -1.0185  2.8539  0.4906
10378SOL    HW232748   0.480   5.605   6.533 -0.2012 -1.4379  2.1015
10379SOL     OW32749   2.516   5.762   0.459  0.1048 -0.1398  0.3051
10379SOL    HW132750   2.595   5.774   0.512  0.8579 -0.0812 -0.7948
10379SOL    HW232751   2.444   5.773   0.521  0.9353  0.7158  1.1680
10380SOL     OW32752   8.333   2.917   9.369 -0.0677  0.1716  0.1156
10380SOL    HW132753   8.314   2.970   9.291 -2.2300 -0.4663  0.1337
10380SOL    HW232754   8.358   2.981   9.436 -0.8285  0.9999 -0.3660
10381SOL     OW32755   2.640   2.857   6.472  0.0197 -0.2976  0.0740
10381SOL    HW132756   2.642   2.949   6.499 -0.7820  0.3045 -1.7915
10381SOL    HW232757   2.549   2.830   6.487 -0.4250  0.0268 -1.7924
10382SOL     OW32758   3.639   6.830   2.168  0.2382  0.3374  0.6579
10382SOL    HW132759   3.586   6.791   2.238  0.3236 -0.3707  0.3321
10382SOL    HW232760   3.705   6.764   2.149  1.2400  1.1973  1.0421
10383SOL     OW32761   3.212   0.622   1.090 -0.2142  0.3481 -0.1569
10383SOL    HW132762   3.135   0.679   1.093 -0.0278  0.5933  0.0705
10383SOL    HW232763   3.251   0.640   1.004 -0.2269  0.4712 -0.1379
10384SOL     OW32764   7.774   2.407   8.002  0.3602  0.0612  0.4853
10384SOL    HW132765   7.796   2.499   7.987  0.8555  0.0111  0.8621
10384SOL    HW232766   7.850   2.359   7.969  0.4324 -0.1690  0.9853
10385SOL     OW32767   8.579   6.164   5.359  0.4634 -0.5566 -0.1299
10385SOL    HW132768   8.547   6.255   5.360  1.4636 -0.0956 -2.5033
10385SOL    HW232769   8.570   6.135   5.450 -1.9290  1.1608  0.2958
10386SOL     OW32770   6.128   2.895   2.703 -0.2606  0.3210  0.7678
10386SOL    HW132771   6.064   2.866   2.769 -1.5085  0.0024 -0.5409
10386SOL    HW232772   6.076   2.946   2.641  0.5054 -1.0364 -1.0392
10387SOL     OW32773   8.474   7.755   0.376  0.0848 -0.9395 -0.5093
10387SOL    HW132774   8.534   7.725   0.445 -0.7987  0.1431  0.7637
10387SOL    HW232775   8.471   7.681   0.315  1.4839 -1.6349  0.1991
10388SOL     OW32776   0.593   9.254   2.220  0.6393  0.6863  0.3480
10388SOL    HW132777   0.653   9.221   2.287  0.0616 -0.7898  0.1744
10388SOL    HW232778   0.605   9.194   2.146 -1.2103  0.2241  0.3915
10389SOL     OW32779   7.660   3.248   2.980  0.5094  0.5553 -0.2715
10389SOL    HW132780   7.646   3.155   2.998 -1.6885  1.0551  1.0035
10389SOL    HW232781   7.750   3.253   2.947  1.7199 -1.6479  2.3369
10390SOL     OW32782   8.731   9.208   8.920  0.2304  0.0557 -0.3035
10390SOL    HW132783   8.749   9.116   8.899 -0.7933 -0.4216  0.7991
10390SOL    HW232784   8.679   9.240   8.847 -0.1990 -0.5214 -0.2542
10391SOL     OW32785   8.108   4.558   3.142 -0.1133 -0.0711 -0.3144
10391SOL    HW132786   8.109   4.638   3.090 -2.1830  0.2554  0.0726
10391SOL    HW232787   8.034   4.508   3.107 -0.2086 -0.8154  0.8922
10392SOL     OW32788   7.352   8.069   8.154  0.7089 -0.1139  0.6795
10392SOL    HW132789   7.434   8.094   8.197  0.3139  0.4486  1.1208
10392SOL    HW232790   7.379   8.037   8.068  1.3578  0.5477  0.6229
10393SOL     OW32791   5.615   9.791   5.641  0.5416 -1.0647  0.6208
10393SOL    HW132792   5.645   9.882   5.636 -0.4884 -0.7361  0.2160
10393SOL    HW232793   5.590   9.779   5.733 -3.1307  0.3700  0.0032
10394SOL     OW32794   9.021   8.459   3.605 -0.1069  0.3891 -0.3119
10394SOL    HW132795   8.955   8.479   3.671 -0.9875  0.2436 -1.1282
10394SOL    HW232796   8.980   8.393   3.549  0.0849  1.4988 -1.8292
10395SOL     OW32797   8.520   5.176   0.556 -0.0591  0.1699 -0.1249
10395SOL    HW132798   8.508   5.262   0.516  1.1525  0.2955 -0.2516
10395SOL    HW232799   8.606   5.180   0.598  0.0972 -1.0285 -0.2779
10396SOL     OW32800   3.567   5.941   9.662 -0.1363  0.3245  0.0719
10396SOL    HW132801   3.654   5.916   9.631  0.3140 -0.3898  1.7980
10396SOL    HW232802   3.528   5.859   9.692 -1.7972  0.4816 -1.4676
10397SOL     OW32803   1.693   4.970   1.925 -0.2861 -0.3702  0.4968
10397SOL    HW132804   1.633   5.041   1.903 -0.6846 -0.6588  0.6566
10397SOL    HW232805   1.756   5.010   1.985  0.0479  0.0899 -0.1430
10398SOL     OW32806   9.578   5.511   7.948 -0.3581 -0.4634  0.5540
10398SOL    HW132807   9.653   5.567   7.932 -1.1789  0.3165 -0.7909
10398SOL    HW232808   9.578   5.496   8.043  0.8383  0.4217  0.7134
10399SOL     OW32809   4.029   7.629   4.337  0.2914  0.4456 -0.2585
10399SOL    HW132810   3.995   7.551   4.293  0.0746 -0.4628  1.4354
10399SOL    HW232811   3.958   7.692   4.333  0.1310  0.2309 -0.8493
10400SOL     OW32812   3.641   4.203   5.086 -0.9132  0.7041 -0.8017
10400SOL    HW132813   3.730   4.240   5.091 -0.1442 -1.0536 -0.8592
10400SOL    HW232814   3.596   4.241   5.161  0.2340  0.7595 -0.1095
10401SOL     OW32815   3.810   6.849   2.925 -0.1756  0.1720 -0.1866
10401SOL    HW132816   3.854   6.902   2.859 -0.6902  0.3106 -0.4290
10401SOL    HW232817   3.784   6.911   2.993  0.3098  0.0377  0.1240
10402SOL     OW32818   6.432   8.395   0.576  0.1592 -0.1866  0.6234
10402SOL    HW132819   6.348   8.439   0.588  0.6786  0.7878  0.8281
10402SOL    HW232820   6.412   8.302   0.583 -0.6793  0.0760  2.1120
10403SOL     OW32821   0.589   9.135   1.251  0.0643 -0.0275  0.3664
10403SOL    HW132822   0.676   9.097   1.239  0.1572  0.1375  0.5018
10403SOL    HW232823   0.530   9.077   1.202  0.2528 -0.1248  0.2529
10404SOL     OW32824   7.652   0.784   3.022  0.4484  0.0343 -0.4051
10404SOL    HW132825   7.624   0.828   2.942 -1.4034  0.6917  0.5445
10404SOL    HW232826   7.627   0.692   3.009 -1.0294  0.3753 -0.1031
10405SOL     OW32827   3.952   0.324   0.197 -0.1413 -0.1251 -0.4317
10405SOL    HW132828   4.021   0.308   0.261 -1.0840  0.9276  0.9164
10405SOL    HW232829   3.976   0.272   0.121  1.0699 -1.3495  0.7496
10406SOL     OW32830   4.388   1.065   4.171  0.1840 -0.0568 -0.1367
10406SOL    HW132831   4.298   1.038   4.151  0.1217 -0.1383  0.2468
10406SOL    HW232832   4.378   1.129   4.242  0.5102 -0.9346  0.7079
10407SOL     OW32833   6.337   9.628   2.694  0.0239 -0.0215 -0.0022
10407SOL    HW132834   6.423   9.670   2.690 -0.3664  0.7633 -0.5265
10407SOL    HW232835   6.356   9.534   2.691  0.8512  0.1462 -0.4584
10408SOL     OW32836   8.830   0.415   2.080  0.1606  0.3505 -0.2818
10408SOL    HW132837   8.796   0.426   1.991  2.6174  1.2589 -1.1974
10408SOL    HW232838   8.905   0.474   2.084  1.6619 -1.5444  1.5304
10409SOL     OW32839   2.947   8.565   6.808 -0.1039 -0.2173 -0.2930
10409SOL    HW132840   3.001   8.520   6.874  0.7948  0.2562 -0.6833
10409SOL    HW232841   2.884   8.615   6.859 -0.2110 -0.8187  0.1775
10410SOL     OW32842   0.277   0.598   6.106 -0.7888 -0.2352  0.1801
10410SOL    HW132843   0.203   0.542   6.130 -0.3737 -1.4988 -1.3175
10410SOL    HW232844   0.279   0.665   6.174 -2.0260 -1.3687  1.4061
10411SOL     OW32845   6.402   4.331   5.388  0.2734  0.0860  0.1216
10411SOL    HW132846   6.326   4.371   5.344  0.1100  1.9071  1.9147
10411SOL    HW232847   6.364   4.267   5.448  0.2347  0.1655  0.1818
10412SOL     OW32848   9.184   4.722   3.376 -0.3044 -0.0025 -0.5166
10412SOL    HW132849   9.160   4.633   3.402 -0.9725  0.5553  0.9098
10412SOL    HW232850   9.234   4.711   3.295 -1.3977 -1.5745 -1.0285
10413SOL     OW32851   1.836   9.638   0.133 -0.0542  0.3692 -0.5098
10413SOL    HW132852   1.899   9.607   0.198 -1.1542 -2.6686 -0.7669
10413SOL    HW232853   1.869   9.605   0.049 -1.7279 -0.9472 -0.6969
10414SOL     OW32854   7.635   1.553   1.234 -0.0570  0.3913 -0.3086
10414SOL    HW132855   7.668   1.505   1.157  0.2671  0.7246 -0.3793
10414SOL    HW232856   7.542   1.529   1.238 -0.5581  1.8424 -1.9459
10415SOL     OW32857   5.785   9.269   8.413  0.4250  0.2761  0.0505
10415SOL    HW132858   5.726   9.315   8.472 -0.8834 -1.2090 -0.0613
10415SOL    HW232859   5.870   9.273   8.456 -0.1648  0.6643  1.2043
10416SOL     OW32860   9.585   9.234   8.528 -0.3636  0.1452  0.4218
10416SOL    HW132861   9.570   9.296   8.600  1.8051  1.4345 -0.1258
10416SOL    HW232862   9.514   9.170   8.536 -1.9700  1.9664  1.8099
10417SOL     OW32863   0.761   2.578   7.385 -0.4426  0.2996  0.0968
10417SOL    HW132864   0.741   2.655   7.332 -0.2690  0.5093  0.3297
10417SOL    HW232865   0.853   2.559   7.365  0.2673  1.6176  1.8334
10418SOL     OW32866   8.615   6.181   1.633  0.4698  0.0662 -0.2189
10418SOL    HW132867   8.654   6.212   1.715  0.4475  1.8103 -0.8385
10418SOL    HW232868   8.534   6.231   1.625  1.7273  1.8944 -2.5866
10419SOL     OW32869   8.725   9.290   6.859  0.1555  0.0422 -0.0695
10419SOL    HW132870   8.638   9.316   6.887  0.6625  0.6439  1.0104
10419SOL    HW232871   8.767   9.372   6.832  0.2537 -0.3009 -0.9975
10420SOL     OW32872   9.155   9.081   7.314  0.0519  0.0686 -0.1516
10420SOL    HW132873   9.104   9.121   7.243  1.4168  0.7521 -0.7815
10420SOL    HW232874   9.211   9.017   7.270 -0.3797 -0.8184  0.5560
10421SOL     OW32875   6.764   2.526   9.430  0.4125  0.8639  0.8847
10421SOL    HW132876   6.733   2.445   9.470 -1.1367  1.4906  1.0012
10421SOL    HW232877   6.792   2.580   9.504  2.4995  0.0605  0.7453
10422SOL     OW32878   7.398   0.429   6.789  0.3185  0.4702  0.1496
10422SOL    HW132879   7.355   0.397   6.868 -1.1278  0.2350 -0.7010
10422SOL    HW232880   7.481   0.381   6.786 -0.8004 -1.5602  0.0960
10423SOL     OW32881   8.143   3.675   5.135  0.1154  0.0464  1.0482
10423SOL    HW132882   8.223   3.666   5.082 -0.8307 -0.7590 -0.3148
10423SOL    HW232883   8.113   3.585   5.147 -1.9700  0.4344 -0.7052
10424SOL     OW32884   4.372   3.825   0.623  0.2395 -0.0890  0.0452
10424SOL    HW132885   4.385   3.910   0.666  1.1222 -0.5145  0.6436
10424SOL    HW232886   4.334   3.848   0.538  0.9533  0.9552 -0.0221
10425SOL     OW32887   2.497   1.716   8.568  0.4683 -0.2709 -0.3347
10425SOL    HW132888   2.443   1.710   8.489  0.5245 -0.6310 -0.3484
10425SOL    HW232889   2.448   1.667   8.634  0.6579 -0.3880 -0.2803
10426SOL     OW32890   5.427   1.550   8.675  0.0532 -0.4604  0.1447
10426SOL    HW132891   5.478   1.483   8.720  0.7572  0.4854  0.8063
10426SOL    HW232892   5.482   1.578   8.602  0.4431  0.4232  0.7453
10427SOL     OW32893   9.577   7.681   2.392 -0.4200 -0.3307 -0.2406
10427SOL    HW132894   9.578   7.705   2.485 -0.4429 -1.7926  0.1726
10427SOL    HW232895   9.596   7.762   2.346 -0.2338  0.3935  1.0527
10428SOL     OW32896   1.529   2.320   2.152  0.5975  0.1844  0.3474
10428SOL    HW132897   1.611   2.270   2.149  0.3946 -0.1181 -1.5551
10428SOL    HW232898   1.547   2.393   2.211  1.6290 -0.8959  1.4102
10429SOL     OW32899   2.785   4.891   5.339  0.0077 -0.2282  0.6496
10429SOL    HW132900   2.824   4.959   5.284 -1.1214 -0.6101 -0.6441
10429SOL    HW232901   2.740   4.940   5.408 -2.2593  0.4824 -1.2250
10430SOL     OW32902   4.132   2.866   5.439  0.4625  0.2997  0.1568
10430SOL    HW132903   4.160   2.944   5.486  1.3425 -0.9333  1.7806
10430SOL    HW232904   4.205   2.805   5.447 -0.3159 -0.8180 -0.8053
10431SOL     OW32905   0.527   6.739   9.380 -0.2982  0.0878 -0.2205
10431SOL    HW132906   0.568   6.741   9.294 -0.9839  1.2015 -0.5484
10431SOL    HW232907   0.502   6.830   9.396 -1.7166 -0.3848  0.4063
10432SOL     OW32908   6.016   7.487   4.121 -0.5732  0.2971 -0.1010
10432SOL    HW132909   5.939   7.481   4.177 -0.8911 -0.5333 -0.6144
10432SOL    HW232910   6.019   7.403   4.074  1.1583 -0.0954  0.5987
10433SOL     OW32911   6.507   6.203   5.020 -0.0796  0.5939  0.0026
10433SOL    HW132912   6.511   6.183   4.927  0.4066  0.9807 -0.0607
10433SOL    HW232913   6.448   6.136   5.056  1.0807 -0.6229 -0.2882
10434SOL     OW32914   8.028   9.633   9.662 -0.5313  0.1098 -0.1428
10434SOL    HW132915   7.989   9.701   9.716  1.7615  2.2946 -1.0324
10434SOL    HW232916   8.090   9.588   9.720 -0.7618 -0.0358 -0.0093
10435SOL     OW32917   4.142   8.200   9.365 -0.4085  0.7195  0.1988
10435SOL    HW132918   4.236   8.217   9.362 -0.0927 -0.9553 -0.1697
10435SOL    HW232919   4.111   8.223   9.277  0.0118 -0.5443 -0.2955
10436SOL     OW32920   6.915   0.486   1.068 -0.2544  0.4008 -0.1533
10436SOL    HW132921   6.966   0.506   0.990 -0.0177  3.4268  0.6497
10436SOL    HW232922   6.829   0.460   1.035  0.2128  0.4178 -1.4377
10437SOL     OW32923   8.710   1.978   9.760 -0.6216 -0.2154  0.5043
10437SOL    HW132924   8.803   1.979   9.782 -0.8272  1.4804  1.5015
10437SOL    HW232925   8.695   1.892   9.722  1.9402  0.4253 -2.3652
10438SOL     OW32926   6.603   3.358   8.729  0.3777 -0.1372 -0.1505
10438SOL    HW132927   6.569   3.297   8.795  1.1144  1.2399  1.6029
10438SOL    HW232928   6.527   3.410   8.703 -0.2736 -1.7549 -1.7157
10439SOL     OW32929   2.485   6.992   4.131 -0.3589 -0.2559  0.0766
10439SOL    HW132930   2.498   6.991   4.226 -0.0207  0.0529  0.0364
10439SOL    HW232931   2.570   6.963   4.095 -0.1455  0.6353 -0.1588
10440SOL     OW32932   8.925   6.253   7.102  0.7129 -0.1801  0.2118
10440SOL    HW132933   8.891   6.170   7.135 -0.1814  0.4893  1.0367
10440SOL    HW232934   8.889   6.319   7.161 -1.2283  1.1350 -2.2270
10441SOL     OW32935   1.275   5.804   8.375 -0.3332 -0.1387 -0.1900
10441SOL    HW132936   1.301   5.895   8.387 -2.1717  0.2633  1.1129
10441SOL    HW232937   1.196   5.808   8.321 -0.8541 -0.8782  0.4884
10442SOL     OW32938   4.817   1.838   5.527  0.0596  0.0264  0.1026
10442SOL    HW132939   4.732   1.875   5.551 -0.1015 -1.1698  1.5069
10442SOL    HW232940   4.880   1.885   5.583 -0.1059 -1.4816  1.6243
10443SOL     OW32941   4.254   0.956   2.090  0.0104 -0.0307  0.1816
10443SOL    HW132942   4.245   0.860   2.092  0.0494 -0.0264  0.9235
10443SOL    HW232943   4.285   0.978   2.178  1.1203  0.5541 -0.3447
10444SOL     OW32944   0.016   6.245   0.402  0.9828  0.0311 -0.3389
10444SOL    HW132945  -0.054   6.246   0.337 -2.5986  0.0793  3.1416
10444SOL    HW232946  -0.002   6.321   0.458  3.8271 -0.0308  0.8242
10445SOL     OW32947   0.351   5.487   8.755 -0.3708 -0.1178 -0.2384
10445SOL    HW132948   0.391   5.424   8.814 -1.6127 -0.9815 -0.2722
10445SOL    HW232949   0.276   5.441   8.717 -1.1199  1.2621 -0.5289
10446SOL     OW32950   9.670   0.711   6.200 -0.0164  0.3783 -0.2123
10446SOL    HW132951   9.707   0.798   6.211  0.3592  0.1227  0.6098
10446SOL    HW232952   9.724   0.671   6.131  0.7955  0.2596  0.4792
10447SOL     OW32953   3.850   8.170   8.676 -0.1188 -0.0416  0.3354
10447SOL    HW132954   3.846   8.118   8.595 -0.1372 -0.5920  0.6819
10447SOL    HW232955   3.784   8.238   8.664 -0.1738 -0.1625 -0.0828
10448SOL     OW32956   2.609   2.993   1.076 -0.0159  0.1116  0.4307
10448SOL    HW132957   2.703   3.000   1.062 -0.2811  1.5037 -1.0147
10448SOL    HW232958   2.571   2.994   0.987 -1.3879 -0.2458  0.9823
10449SOL     OW32959   0.603   0.167   9.505 -0.5244  0.1408  0.1232
10449SOL    HW132960   0.651   0.234   9.554 -0.8959  0.7563 -0.3258
10449SOL    HW232961   0.525   0.213   9.473  0.6658  0.3643 -2.7784
10450SOL     OW32962   4.764   6.293   0.792  0.3489 -0.0847 -0.2025
10450SOL    HW132963   4.753   6.370   0.736  1.3023  0.7493  0.7140
10450SOL    HW232964   4.803   6.328   0.873  1.6191 -1.6600 -0.0968
10451SOL     OW32965   1.918   6.196   2.854  0.4573 -0.0652  0.2133
10451SOL    HW132966   1.913   6.145   2.934  2.3799 -0.4798  0.1342
10451SOL    HW232967   1.911   6.131   2.784 -1.5731  0.3333  0.0030
10452SOL     OW32968   0.502   6.293   9.231 -0.7511  0.5894 -0.8288
10452SOL    HW132969   0.414   6.311   9.265 -0.2879 -0.0174  0.7412
10452SOL    HW232970   0.560   6.349   9.283  0.0701 -1.0516  0.0896
10453SOL     OW32971   6.250   2.474   7.099  0.4059  0.1433 -0.0372
10453SOL    HW132972   6.200   2.550   7.129 -0.4939 -0.4372 -0.0448
10453SOL    HW232973   6.341   2.506   7.094  0.3924  0.6169  1.9865
10454SOL     OW32974   6.416   3.687   9.270  1.0094  0.0322 -0.0664
10454SOL    HW132975   6.476   3.758   9.247  0.4220  0.3821 -0.5595
10454SOL    HW232976   6.407   3.637   9.189 -0.4897  0.8302 -0.4176
10455SOL     OW32977   8.164   1.758   4.404 -0.0049 -0.0083  0.1962
10455SOL    HW132978   8.250   1.791   4.430  0.1225  2.2955 -2.6126
10455SOL    HW232979   8.102   1.823   4.437 -0.4107 -0.3198  0.0604
10456SOL     OW32980   9.450   1.391   8.022 -0.0075  0.6191 -0.3698
10456SOL    HW132981   9.518   1.324   8.026  0.2921  0.8512 -1.3706
10456SOL    HW232982   9.495   1.470   7.991 -0.8377  0.6138 -1.6386
10457SOL     OW32983   8.830   9.241   5.339 -0.6413 -0.3500 -0.1593
10457SOL    HW132984   8.889   9.313   5.316 -0.3686 -1.0339 -1.7224
10457SOL    HW232985   8.758   9.284   5.386  1.0010  0.5073  1.7165
10458SOL     OW32986   5.808   6.962   7.555 -0.8614  0.0530  0.0151
10458SOL    HW132987   5.857   6.899   7.607 -0.6798  1.3180  1.4336
10458SOL    HW232988   5.737   6.911   7.516  0.1505 -1.3126 -0.1222
10459SOL     OW32989   8.041   7.837   0.222 -0.0092 -0.2155 -0.1645
10459SOL    HW132990   8.008   7.784   0.149 -1.3224  1.1224 -0.6002
10459SOL    HW232991   8.126   7.869   0.192 -0.0661 -0.5305 -0.6744
10460SOL     OW32992   9.397   7.204   9.654  0.1929 -0.9283  0.4224
10460SOL    HW132993   9.302   7.203   9.641  0.3480 -1.6147 -0.7704
10460SOL    HW232994   9.414   7.286   9.699 -0.5465  1.1578 -2.8112
10461SOL     OW32995   0.419   6.424   2.194 -0.1791  0.0844 -0.1626
10461SOL    HW132996   0.430   6.385   2.107  2.1178 -0.8776  0.4773
10461SOL    HW232997   0.325   6.444   2.200 -0.4875 -0.3373 -2.6168
10462SOL     OW32998   9.227   4.377   6.271  0.2281  0.5309  0.2862
10462SOL    HW132999   9.230   4.304   6.210 -1.2107  1.0911 -0.4988
10462SOL    HW233000   9.229   4.336   6.358 -1.5001 -0.5416 -0.1286
10463SOL     OW33001   8.142   5.306   0.538 -0.0047  0.1027  0.4080
10463SOL    HW133002   8.086   5.282   0.612  0.5488  0.9069  1.1024
10463SOL    HW233003   8.131   5.401   0.529 -0.3742 -0.0392 -0.8068
10464SOL     OW33004   7.421   6.651   2.031  0.3565 -0.7491 -0.2638
10464SOL    HW133005   7.452   6.712   1.965  1.5902  0.3261  1.2283
10464SOL    HW233006   7.480   6.576   2.025 -0.8564 -1.6435 -1.7642
10465SOL     OW33007   3.386   1.359   2.712 -0.7883  0.0689  0.2162
10465SOL    HW133008   3.453   1.388   2.649 -1.8389 -0.0430 -0.9988
10465SOL    HW233009   3.424   1.282   2.754  0.5359  1.0038  0.8079
10466SOL     OW33010   4.941   9.171   5.688  0.0328 -0.0173  0.2732
10466SOL    HW133011   5.001   9.106   5.651 -0.4563 -0.7599  0.7630
10466SOL    HW233012   4.900   9.127   5.763 -0.4419  0.7904  0.5036
10467SOL     OW33013   4.683   3.379   7.813 -0.6066 -0.2413 -0.5440
10467SOL    HW133014   4.762   3.413   7.855 -1.2711  1.3610 -0.4935
10467SOL    HW233015   4.612   3.405   7.873 -1.2245 -1.1455 -0.8704
10468SOL     OW33016   0.167   9.207   2.807 -0.7958  0.1590  0.7682
10468SOL    HW133017   0.127   9.193   2.722 -1.0469 -0.9181  1.0472
10468SOL    HW233018   0.100   9.250   2.860  0.2044  3.3859 -0.3003
10469SOL     OW33019   6.372   5.917   8.035 -0.9085 -0.0724 -0.0083
10469SOL    HW133020   6.404   5.934   8.123  0.7849 -0.7026 -0.4593
10469SOL    HW233021   6.277   5.912   8.044 -0.7987  0.4117  1.6699
10470SOL     OW33022   5.791   9.772   9.683  0.5153 -0.4832 -0.3759
10470SOL    HW133023   5.798   9.826   9.604  2.1401  0.7738  0.5680
10470SOL    HW233024   5.769   9.685   9.650  0.5246  0.1386 -2.1508
10471SOL     OW33025   7.838   2.280   8.962  0.0143 -0.4460 -0.2067
10471SOL    HW133026   7.911   2.310   8.907 -1.5086  2.4643 -0.8640
10471SOL    HW233027   7.860   2.313   9.050 -1.1252  1.7896 -0.7037
10472SOL     OW33028   9.228   6.725   2.835 -0.1070 -0.5204 -0.4338
10472SOL    HW133029   9.280   6.645   2.819  0.6451 -0.0222 -0.5379
10472SOL    HW233030   9.166   6.728   2.762  1.3272  0.1456 -1.7098
10473SOL     OW33031   0.912   3.228   6.569  0.3180 -0.0359 -0.3721
10473SOL    HW133032   0.960   3.279   6.504  1.9597 -1.5232 -0.4098
10473SOL    HW233033   0.974   3.162   6.599 -1.1869 -0.9749  0.8885
10474SOL     OW33034   7.081   5.584   9.501  0.0033 -0.4283 -0.0008
10474SOL    HW133035   7.116   5.643   9.567 -0.8461  0.0766  0.0131
10474SOL    HW233036   6.994   5.620   9.480 -0.3160 -1.3768 -0.3632
10475SOL     OW33037   8.079   1.678   9.690  0.8828 -0.6329 -0.4189
10475SOL    HW133038   8.053   1.612   9.755 -2.8393  1.3494  0.3781
10475SOL    HW233039   8.085   1.629   9.607 -2.0398 -2.0294  0.0743
10476SOL     OW33040   2.713   7.730   6.129 -0.4241  0.0723 -0.0873
10476SOL    HW133041   2.764   7.810   6.140  1.6654 -1.1893  0.0792
10476SOL    HW233042   2.714   7.713   6.035 -1.8591  0.8117 -0.2580
10477SOL     OW33043   3.350   6.108   0.555  0.2768  0.1560  0.0462
10477SOL    HW133044   3.419   6.173   0.540  0.3300  0.4895  1.5736
10477SOL    HW233045   3.307   6.136   0.636  0.2242 -1.6334  0.6946
10478SOL     OW33046   1.554   4.478   4.151 -0.6919 -0.1220  0.0872
10478SOL    HW133047   1.614   4.460   4.079  1.0956  0.0883  1.4508
10478SOL    HW233048   1.598   4.444   4.228 -1.9855  0.7460  1.2647
10479SOL     OW33049   0.091   5.665   1.703  0.2347  0.4280  0.1770
10479SOL    HW133050  -0.001   5.691   1.701 -0.0067 -0.0762  2.4672
10479SOL    HW233051   0.096   5.591   1.642 -0.7892  0.6756 -0.2325
10480SOL     OW33052   1.440   4.171   6.386  0.6398 -0.3228  0.0472
10480SOL    HW133053   1.522   4.206   6.352 -0.1483  0.2601 -1.3115
10480SOL    HW233054   1.447   4.076   6.371  1.0889 -0.2844 -0.0049
10481SOL     OW33055   5.758   1.560   9.618  0.4858  0.0853  0.4429
10481SOL    HW133056   5.792   1.509   9.692  0.2258 -3.0182 -1.4235
10481SOL    HW233057   5.663   1.548   9.622  0.6102 -2.8282 -2.0388
10482SOL     OW33058   7.423   8.029   6.896  0.3640 -0.1318 -0.2406
10482SOL    HW133059   7.479   8.048   6.971  0.6625 -1.8901  0.0208
10482SOL    HW233060   7.421   7.934   6.891 -0.9244 -0.0721 -1.5259
10483SOL     OW33061   1.734   0.356   2.649 -0.1341 -0.1270 -0.0678
10483SOL    HW133062   1.642   0.378   2.664  0.0732  0.9174 -0.2158
10483SOL    HW233063   1.778   0.383   2.730  0.4007  1.8059 -0.9359
10484SOL     OW33064   7.601   0.700   8.149  0.2874  0.0911  0.6490
10484SOL    HW133065   7.590   0.607   8.130  0.7676  0.3217 -0.8630
10484SOL    HW233066   7.512   0.734   8.154  0.1130 -0.4144  1.0530
10485SOL     OW33067   2.600   3.178   3.154  0.1131 -0.1584  0.4725
10485SOL    HW133068   2.661   3.146   3.088  0.6941  2.0464 -0.1529
10485SOL    HW233069   2.603   3.273   3.145 -0.9605  0.1460  2.6569
10486SOL     OW33070   9.329   5.303   0.257 -0.8808 -0.3220  0.0647
10486SOL    HW133071   9.401   5.297   0.195 -0.5162 -3.3424  0.6365
10486SOL    HW233072   9.271   5.369   0.220 -0.0465 -1.0734 -2.8282
10487SOL     OW33073   0.573   5.722   8.878  0.4796 -0.7528 -0.0168
10487SOL    HW133074   0.668   5.733   8.885  0.5825 -0.3781 -1.6969
10487SOL    HW233075   0.561   5.652   8.814 -0.3961 -1.2647  0.6663
10488SOL     OW33076   8.805   9.816   9.351 -0.1967  0.1627  0.5205
10488SOL    HW133077   8.837   9.886   9.407 -0.0396  0.1888  0.3986
10488SOL    HW233078   8.711   9.811   9.369 -0.6436  1.8455 -1.0374
10489SOL     OW33079   2.166   3.142   8.624 -0.0184  0.1890  0.1628
10489SOL    HW133080   2.151   3.137   8.530  1.2160 -0.3443 -0.0234
10489SOL    HW233081   2.153   3.053   8.656 -0.8620  0.4488  0.5802
10490SOL     OW33082   5.340   8.065   6.507  0.3332 -0.3722  0.2622
10490SOL    HW133083   5.400   8.063   6.582  0.0350  0.4067  0.5340
10490SOL    HW233084   5.255   8.038   6.543  0.3694 -0.8160  0.0210
10491SOL     OW33085   0.521   8.906   7.787 -0.0788  0.3473 -0.1795
10491SOL    HW133086   0.491   8.986   7.830 -0.5347  0.1749 -0.1638
10491SOL    HW233087   0.616   8.909   7.793 -0.1073 -0.7159  2.8773
10492SOL     OW33088   7.010   9.642   5.090 -0.1428 -0.2129 -0.2790
10492SOL    HW133089   6.980   9.578   5.155 -3.1666  1.0787 -0.1979
10492SOL    HW233090   7.044   9.715   5.142 -0.1563 -0.2489 -0.2190
10493SOL     OW33091   6.531   9.553   4.287  0.7271 -0.5027 -0.1154
10493SOL    HW133092   6.539   9.608   4.365  0.6864  0.9013 -1.0592
10493SOL    HW233093   6.550   9.465   4.318  0.3957 -0.0351  1.5414
10494SOL     OW33094   6.833   7.332   3.481 -0.4827 -0.9444  0.2288
10494SOL    HW133095   6.880   7.324   3.398 -1.3327  1.2160 -0.5452
10494SOL    HW233096   6.867   7.261   3.536  0.6502 -1.9608 -1.6891
10495SOL     OW33097   0.756   6.500   7.446  0.3512  0.6559 -0.2444
10495SOL    HW133098   0.695   6.501   7.519  0.5219  1.2410 -0.1052
10495SOL    HW233099   0.704   6.527   7.370 -0.2091 -1.3918 -0.6768
10496SOL     OW33100   3.600   2.071   3.774  0.5222  0.2865 -0.3541
10496SOL    HW133101   3.610   2.165   3.761 -1.2625  0.4490 -0.7243
10496SOL    HW233102   3.508   2.054   3.758  0.9243 -1.6303 -0.8389
10497SOL     OW33103   0.189   0.124   2.918  0.4170 -0.0422 -0.0434
10497SOL    HW133104   0.223   0.061   2.854 -0.1845  0.0812 -0.4990
10497SOL    HW233105   0.184   0.074   3.000 -0.2130 -0.6517 -0.4396
10498SOL     OW33106   2.756   4.990   3.904  0.4543  0.0185  0.0304
10498SOL    HW133107   2.842   5.030   3.902  0.5207 -0.1544 -1.1556
10498SOL    HW233108   2.746   4.958   3.993  1.7267 -0.1968  0.1037
10499SOL     OW33109   6.663   3.424   2.072  0.4493 -0.0124 -0.1638
10499SOL    HW133110   6.712   3.470   2.140 -0.0769 -1.3537  1.1549
10499SOL    HW233111   6.574   3.418   2.106  0.3763 -1.5075 -0.5413
10500SOL     OW33112   4.266   9.727   2.215  0.1533  0.3354 -0.1857
10500SOL    HW133113   4.171   9.725   2.206  0.2580 -1.6595 -1.5132
10500SOL    HW233114   4.281   9.751   2.307 -1.6189  0.4915  0.0968
10501SOL     OW33115   9.054   6.556   0.978  0.3622 -0.2651  0.3920
10501SOL    HW133116   8.997   6.569   1.053 -3.2179 -0.5593 -2.0183
10501SOL    HW233117   9.070   6.644   0.944  1.5111 -0.1781  1.0971
10502SOL     OW33118   8.584   3.421   3.945 -0.2960 -0.1652 -0.6306
10502SOL    HW133119   8.526   3.386   4.013  1.8506 -1.0629  0.8374
10502SOL    HW233120   8.596   3.513   3.970  0.5312 -0.5060  0.2727
10503SOL     OW33121   4.644   6.333   6.373 -0.0427  0.0143  0.3114
10503SOL    HW133122   4.714   6.310   6.434  1.6540 -0.8129 -1.8073
10503SOL    HW233123   4.593   6.253   6.363  0.3277 -0.1707 -0.1366
10504SOL     OW33124   5.902   1.887   4.003 -0.5245  0.2215 -0.0482
10504SOL    HW133125   5.987   1.931   4.007  0.0507 -0.6688 -1.4943
10504SOL    HW233126   5.850   1.929   4.071  0.4900  2.0632 -0.3402
10505SOL     OW33127   7.346   3.949   5.965  0.2076  0.0047 -0.0478
10505SOL    HW133128   7.346   3.864   5.922 -0.9918 -0.8993  1.6357
10505SOL    HW233129   7.437   3.962   5.992  0.5486 -0.3790 -0.9640
10506SOL     OW33130   8.987   6.336   2.856 -0.0303 -0.4780  0.7163
10506SOL    HW133131   9.043   6.271   2.813 -1.1863 -1.1058  0.0982
10506SOL    HW233132   8.945   6.383   2.783 -1.8183 -1.3765  1.0972
10507SOL     OW33133   6.814   6.452   4.741  0.0590  0.2675  0.4484
10507SOL    HW133134   6.775   6.539   4.750 -1.0143 -0.0627 -0.6071
10507SOL    HW233135   6.741   6.396   4.715  1.3435 -0.1733 -2.7350
10508SOL     OW33136   2.424   5.083   4.068 -0.0764  0.3132 -0.2850
10508SOL    HW133137   2.441   5.016   4.001 -0.0288  0.7121 -0.6735
10508SOL    HW233138   2.379   5.035   4.138 -0.8092  0.0363 -0.9245
10509SOL     OW33139   1.988   8.043   9.176  0.2072  0.8941  0.2100
10509SOL    HW133140   1.894   8.050   9.187  0.2967  1.3440  0.7023
10509SOL    HW233141   2.023   8.124   9.213  0.7831  0.7439  0.0071
10510SOL     OW33142   3.273   7.303   2.507  0.3950 -0.0005  0.3043
10510SOL    HW133143   3.314   7.231   2.459 -1.6015 -0.8831 -0.1489
10510SOL    HW233144   3.231   7.356   2.438  0.0677  0.4173  0.8194
10511SOL     OW33145   7.720   2.257   0.078  0.1186  0.0267  0.2311
10511SOL    HW133146   7.757   2.179   0.120 -1.7093 -1.1470 -0.2105
10511SOL    HW233147   7.795   2.301   0.038  1.0544 -2.1904 -0.6057
10512SOL     OW33148   3.265   2.642   1.398  0.0566  0.3171  0.0568
10512SOL    HW133149   3.347   2.629   1.446 -0.6569  1.3889  1.6450
10512SOL    HW233150   3.218   2.560   1.407  0.5113  0.0507  0.0243
10513SOL     OW33151   1.435   7.997   5.096 -0.2313  0.0581 -0.3973
10513SOL    HW133152   1.411   7.966   5.009  1.7555  0.2095 -1.0525
10513SOL    HW233153   1.479   7.923   5.137  0.6792  0.6180 -0.3306
10514SOL     OW33154   2.759   3.266   5.581  0.0223  0.1823  1.0466
10514SOL    HW133155   2.791   3.180   5.608 -0.1982  0.0135  0.7729
10514SOL    HW233156   2.728   3.253   5.492  1.2467  0.8565  0.4957
10515SOL     OW33157   0.588   1.417   8.005  0.3340 -0.1062 -0.1003
10515SOL    HW133158   0.614   1.326   7.995  1.1138  0.2258 -1.3795
10515SOL    HW233159   0.493   1.415   8.003  0.2849 -0.6279 -3.6682
10516SOL     OW33160   0.378   5.119   8.495  0.0311  0.1243 -0.1083
10516SOL    HW133161   0.304   5.114   8.434  0.5530 -0.0595 -0.7304
10516SOL    HW233162   0.348   5.073   8.573  0.2831 -1.9639 -1.1785
10517SOL     OW33163   2.419   5.432   4.949  0.4341 -0.0010 -0.3183
10517SOL    HW133164   2.365   5.482   4.888  0.1648  0.1117  0.0100
10517SOL    HW233165   2.506   5.470   4.941  0.2314  0.5222 -0.0737
10518SOL     OW33166   2.150   0.794   1.924  0.1773 -0.0051 -0.2236
10518SOL    HW133167   2.110   0.854   1.861  0.8454 -0.6530 -1.2781
10518SOL    HW233168   2.177   0.718   1.872 -1.8377 -1.8563  1.2676
10519SOL     OW33169   9.429   5.120   6.755 -0.4423  0.0860 -0.2394
10519SOL    HW133170   9.467   5.060   6.820 -1.4136  0.6104  0.8492
10519SOL    HW233171   9.482   5.199   6.761 -0.2275 -0.0412 -0.4436
10520SOL     OW33172   8.988   0.577   9.667  0.1224 -0.1439  0.1432
10520SOL    HW133173   9.026   0.664   9.669 -0.3954  0.1946 -2.1454
10520SOL    HW233174   9.061   0.519   9.691  1.5317  0.6587 -1.8875
10521SOL     OW33175   5.922   8.474   5.698 -0.6461  0.2859  0.3623
10521SOL    HW133176   5.945   8.408   5.764 -1.0968 -0.0531  0.1901
10521SOL    HW233177   6.000   8.528   5.690 -0.2577 -0.2454  0.4930
10522SOL     OW33178   5.840   4.358   2.112 -0.0317  0.1940  0.8158
10522SOL    HW133179   5.847   4.452   2.093 -0.8335  0.2043  0.5569
10522SOL    HW233180   5.796   4.321   2.035 -0.8587 -0.1927  1.4675
10523SOL     OW33181   5.418   5.260   3.455 -0.3480 -0.5135 -0.2104
10523SOL    HW133182   5.409   5.172   3.489 -0.4483 -0.6964 -0.6984
10523SOL    HW233183   5.499   5.257   3.403  0.1995 -0.0483  0.5903
10524SOL     OW33184   1.173   3.046   4.746  0.3174 -0.0369 -0.3024
10524SOL    HW133185   1.230   3.115   4.780 -1.2744  1.3158 -0.1996
10524SOL    HW233186   1.108   3.093   4.693 -0.6196 -1.5020 -0.5174
10525SOL     OW33187   1.786   8.037   1.114  0.2101 -0.1183 -0.6322
10525SOL    HW133188   1.755   8.089   1.188 -0.5933 -0.0024 -1.0377
10525SOL    HW233189   1.850   7.977   1.152 -0.4292 -0.2893  0.2245
10526SOL     OW33190   7.453   5.166   2.087  0.4109 -0.3381 -0.0025
10526SOL    HW133191   7.371   5.144   2.043  0.0028  0.6041  0.2712
10526SOL    HW233192   7.431   5.240   2.144  1.8343  1.0680 -1.2192
10527SOL     OW33193   1.115   5.063   2.927 -0.6787 -0.2089 -0.1218
10527SOL    HW133194   1.046   5.009   2.965  0.7186 -0.2578  2.6114
10527SOL    HW233195   1.192   5.005   2.927  0.1433  0.8636  0.0428
10528SOL     OW33196   5.631   4.520   9.656 -0.2721 -0.5267 -0.6142
10528SOL    HW133197   5.559   4.461   9.633  0.8386 -2.1319 -0.1325
10528SOL    HW233198   5.700   4.462   9.688  0.7691  1.0766  0.1599
10529SOL     OW33199   7.250   8.208   7.698 -0.3221 -0.2338  0.2864
10529SOL    HW133200   7.195   8.140   7.660  0.1210 -1.1276  1.1915
10529SOL    HW233201   7.250   8.279   7.633  1.4644 -2.1924 -2.0197
10530SOL     OW33202   1.045   3.041   6.825 -0.4731  0.3497  0.5572
10530SOL    HW133203   0.988   2.977   6.868  1.0138 -0.8628  0.8162
10530SOL    HW233204   1.066   3.001   6.740 -1.7554  1.8065 -0.5038
10531SOL     OW33205   5.305   5.510   6.721  0.7820  0.2238 -0.0580
10531SOL    HW133206   5.373   5.491   6.786  1.0279  0.6176 -0.1962
10531SOL    HW233207   5.256   5.583   6.759  0.8795  0.4052 -0.2808
10532SOL     OW33208   3.688   4.761   2.111 -0.2373  0.1156  0.0061
10532SOL    HW133209   3.611   4.794   2.064  0.5147  1.0572 -0.6040
10532SOL    HW233210   3.699   4.671   2.080 -0.9926  0.0277 -0.0196
10533SOL     OW33211   4.941   0.404   5.856 -0.1101 -0.5585 -0.2434
10533SOL    HW133212   4.956   0.423   5.764 -1.2207  1.0165 -0.1430
10533SOL    HW233213   5.027   0.417   5.897  0.1106  0.0253 -0.8636
10534SOL     OW33214   4.049   2.500   0.944 -0.5383  0.1653  0.5053
10534SOL    HW133215   4.106   2.443   0.893  0.1411 -1.1812  2.6476
10534SOL    HW233216   3.961   2.483   0.910  0.1473  1.9149 -2.5120
10535SOL     OW33217   3.632   8.150   3.547 -0.4660  0.2476  0.3346
10535SOL    HW133218   3.605   8.117   3.460 -1.1699 -0.6569  0.8706
10535SOL    HW233219   3.633   8.245   3.537 -1.5560  0.2113 -0.4064
10536SOL     OW33220   1.052   1.571   2.669 -0.5610 -0.6136 -0.1563
10536SOL    HW133221   1.056   1.593   2.576  0.3905  0.2230  0.0677
10536SOL    HW233222   0.992   1.636   2.707  0.6595  0.3578  0.1551
10537SOL     OW33223   8.148   5.212   4.986 -0.0395  0.4642 -0.0846
10537SOL    HW133224   8.136   5.293   5.036 -0.5033 -0.1614  0.8447
10537SOL    HW233225   8.072   5.208   4.928  0.0932  0.8034 -0.2811
10538SOL     OW33226   2.706   3.957   9.668 -0.0662 -0.3390  0.6631
10538SOL    HW133227   2.793   3.995   9.652 -0.8254  1.5277  0.8016
10538SOL    HW233228   2.715   3.866   9.639  0.8107  0.8020 -3.3140
10539SOL     OW33229   3.077   0.877   9.518 -0.0593 -0.0646 -0.0516
10539SOL    HW133230   3.100   0.833   9.436  1.9715 -1.1368  0.9989
10539SOL    HW233231   3.129   0.830   9.585 -1.9899  0.4524  1.9129
10540SOL     OW33232   5.637   3.100   5.543 -0.0584 -0.0761  0.1395
10540SOL    HW133233   5.586   3.126   5.620 -0.2734  2.2828 -0.7293
10540SOL    HW233234   5.728   3.109   5.570 -0.1319  1.2391 -0.0035
10541SOL     OW33235   4.880   1.502   7.301 -0.0155  0.4623 -0.1866
10541SOL    HW133236   4.859   1.473   7.212  0.2807  0.5844 -0.2992
10541SOL    HW233237   4.975   1.488   7.309 -0.1318 -0.1016  0.3147
10542SOL     OW33238   0.374   4.263   5.178 -0.2993  0.1217  0.2496
10542SOL    HW133239   0.408   4.325   5.115 -1.0742 -0.2285 -0.5276
10542SOL    HW233240   0.299   4.222   5.135  1.1973 -2.6423 -0.0109
10543SOL     OW33241   6.165   6.207   2.306  0.2562  0.3659  0.0087
10543SOL    HW133242   6.138   6.210   2.398 -1.5908 -1.8474 -0.3730
10543SOL    HW233243   6.134   6.290   2.269 -2.0599 -0.1694  0.6493
10544SOL     OW33244   9.259   5.589   1.963 -0.3541  0.4248 -0.5244
10544SOL    HW133245   9.288   5.637   2.040 -0.9052  0.4836 -0.3484
10544SOL    HW233246   9.330   5.528   1.944 -0.2526  0.3538  0.0801
10545SOL     OW33247   2.477   8.260   3.343  0.2702  0.3270 -0.5528
10545SOL    HW133248   2.427   8.339   3.324  1.0011  0.5956 -1.4495
10545SOL    HW233249   2.460   8.242   3.435  0.9879  2.1804 -0.0175
10546SOL     OW33250   3.736   1.827   5.935  0.6370 -0.0309 -0.2749
10546SOL    HW133251   3.687   1.861   6.010 -0.4556  0.4688 -1.1951
10546SOL    HW233252   3.772   1.743   5.966 -1.6276 -0.9175  0.1278
10547SOL     OW33253   8.020   6.094   0.308  0.1003 -0.4414 -0.4747
10547SOL    HW133254   8.026   6.038   0.231 -1.3307 -0.2358 -0.7583
10547SOL    HW233255   8.068   6.047   0.376 -0.8704 -1.9029 -0.7718
10548SOL     OW33256   8.044   9.054   5.731 -0.4300  0.0126 -0.2657
10548SOL    HW133257   8.029   9.132   5.784  1.6347  0.9588 -0.9641
10548SOL    HW233258   7.985   9.064   5.656 -0.8485  0.4029  0.1097
10549SOL     OW33259   0.056   9.763   0.465  0.2370 -0.2689 -0.5718
10549SOL    HW133260   0.005   9.774   0.546 -0.5783 -0.4210 -1.0621
10549SOL    HW233261   0.019   9.827   0.405  0.5162 -0.4998 -0.9893
10550SOL     OW33262   2.798   8.823   4.561 -0.2312 -0.5614  0.0517
10550SOL    HW133263   2.841   8.739   4.577 -0.7938 -1.1877 -1.5538
10550SOL    HW233264   2.760   8.847   4.645 -2.0507 -3.0636  0.0354
10551SOL     OW33265   1.160   3.847   3.880  0.2810 -0.3484 -0.3529
10551SOL    HW133266   1.138   3.911   3.947 -0.3800 -0.5462 -0.3708
10551SOL    HW233267   1.252   3.826   3.895  0.3690  0.2471 -0.0506
10552SOL     OW33268   8.663   1.196   0.034  0.0249 -0.3079  0.1655
10552SOL    HW133269   8.597   1.128   0.051  0.4277 -0.2941  2.0831
10552SOL    HW233270   8.697   1.218   0.121  0.8677  1.4011 -0.5474
10553SOL     OW33271   4.718   5.539   2.658  0.0398 -0.5985 -0.5895
10553SOL    HW133272   4.782   5.476   2.692 -1.3299 -1.0153  1.3671
10553SOL    HW233273   4.642   5.530   2.715 -1.2745  0.8631 -1.9935
10554SOL     OW33274   7.078   9.519   9.171  0.1176 -0.3030 -1.0292
10554SOL    HW133275   7.040   9.553   9.090 -0.4105  3.4423  0.5962
10554SOL    HW233276   7.005   9.513   9.232  1.0667  0.7119  0.2669
10555SOL     OW33277   4.038   1.510   8.306 -0.3006 -0.3811  0.1570
10555SOL    HW133278   4.053   1.420   8.335  0.9100 -0.3454 -0.3174
10555SOL    HW233279   4.096   1.521   8.231 -0.4002  0.8148  0.2422
10556SOL     OW33280   5.615   4.787   9.772 -0.0699 -0.0820  0.0357
10556SOL    HW133281   5.690   4.779   9.832 -1.9602  1.9662  2.9572
10556SOL    HW233282   5.595   4.697   9.747  1.9938 -0.8646  0.9335
10557SOL     OW33283   8.997   7.836   9.724  0.4161  0.3577 -0.1321
10557SOL    HW133284   8.902   7.828   9.719  0.3039  1.8737 -0.9542
10557SOL    HW233285   9.026   7.833   9.633  1.1449  0.0540  0.1028
10558SOL     OW33286   4.121   3.198   6.854 -0.2868  0.5545 -0.1509
10558SOL    HW133287   4.037   3.240   6.871 -0.7061 -0.6142  0.8749
10558SOL    HW233288   4.186   3.268   6.863 -1.0123  1.1243  0.8444
10559SOL     OW33289   0.811   8.305   7.816 -0.5327  0.0708 -0.6847
10559SOL    HW133290   0.716   8.296   7.830 -0.2911 -0.7727  0.6435
10559SOL    HW233291   0.850   8.256   7.889  0.9300  0.2261 -1.3385
10560SOL     OW33292   0.138   2.188   7.784 -0.6038  0.3036  0.5181
10560SOL    HW133293   0.060   2.202   7.730 -1.2463  0.7525  1.5401
10560SOL    HW233294   0.128   2.249   7.857 -0.5704 -1.4010  2.0285
10561SOL     OW33295   0.176   2.660   8.919  0.2603 -0.4875 -0.3696
10561SOL    HW133296   0.164   2.582   8.865  1.2561 -1.1836  0.3680
10561SOL    HW233297   0.171   2.627   9.009  0.2006  0.3847 -0.0502
10562SOL     OW33298   2.252   7.131   5.872 -0.6390 -0.3882 -0.0830
10562SOL    HW133299   2.220   7.201   5.814 -0.3008 -0.7413 -0.7144
10562SOL    HW233300   2.178   7.071   5.879 -1.4146  0.7060  1.5957
10563SOL     OW33301   7.147   9.336   7.784  0.5407 -0.5316  0.2348
10563SOL    HW133302   7.236   9.300   7.788  0.9884  0.6203  1.0388
10563SOL    HW233303   7.150   9.398   7.710 -0.4044 -2.5123 -1.5646
10564SOL     OW33304   5.952   8.428   2.447 -0.4141 -0.3610  0.3181
10564SOL    HW133305   5.907   8.435   2.363 -0.4875 -1.4327  0.2511
10564SOL    HW233306   5.920   8.503   2.498  0.1098  0.6575 -0.8178
10565SOL     OW33307   2.224   5.105   5.015  0.5152 -0.2339 -0.0702
10565SOL    HW133308   2.215   5.163   4.939  0.7109  1.2125  0.9688
10565SOL    HW233309   2.315   5.115   5.043 -0.1251  1.1083  1.7335
10566SOL     OW33310   5.975   2.515   2.494  0.3635  0.0466  0.4520
10566SOL    HW133311   6.041   2.580   2.472 -1.0955  1.0112 -1.3220
10566SOL    HW233312   6.006   2.435   2.451  0.0184  0.6940 -1.0702
10567SOL     OW33313   9.461   1.213   6.110 -0.2933  0.1564  0.8270
10567SOL    HW133314   9.482   1.211   6.017  0.1091 -0.1208  0.9198
10567SOL    HW233315   9.461   1.121   6.136 -1.5401  0.1489  0.8543
10568SOL     OW33316   4.777   6.093   7.195  0.3251 -0.1321 -0.1495
10568SOL    HW133317   4.682   6.099   7.197  0.3133 -0.5571  0.6892
10568SOL    HW233318   4.801   6.122   7.106 -0.5730 -0.0074 -0.3568
10569SOL     OW33319   7.429   0.907   8.737 -0.3526  0.0268 -0.1731
10569SOL    HW133320   7.515   0.904   8.695 -0.3641  0.9746 -0.3025
10569SOL    HW233321   7.449   0.904   8.831 -0.0107  2.1341 -0.1244
10570SOL     OW33322   3.576   7.051   8.177  0.4285  0.0915 -0.2012
10570SOL    HW133323   3.665   7.017   8.191 -0.6932 -2.4580  1.5715
10570SOL    HW233324   3.527   6.975   8.147 -1.2282  1.4149 -0.9729
10571SOL     OW33325   1.514   4.118   7.737  0.3539 -0.2809 -0.4317
10571SOL    HW133326   1.536   4.118   7.830 -1.1725 -0.4093 -0.0486
10571SOL    HW233327   1.419   4.119   7.735  0.3609 -0.5733 -2.0021
10572SOL     OW33328   7.226   3.279   6.564 -0.1123  0.1490  0.3903
10572SOL    HW133329   7.242   3.190   6.533  0.0977 -0.1248  1.2566
10572SOL    HW233330   7.310   3.307   6.601 -0.4003  0.4098  0.8480
10573SOL     OW33331   2.865   0.744   3.085  0.1099 -0.4128 -0.3133
10573SOL    HW133332   2.818   0.732   3.168  1.0454 -0.2682  0.2602
10573SOL    HW233333   2.825   0.821   3.046 -0.1807 -0.3331  0.1305
10574SOL     OW33334   8.711   3.310   5.462 -0.0679 -0.2230  0.7232
10574SOL    HW133335   8.790   3.257   5.462  0.0802 -0.0073  0.5416
10574SOL    HW233336   8.730   3.381   5.525  0.6955  0.9963 -0.8138
10575SOL     OW33337   7.635   6.337   8.129 -0.4593 -0.5477 -0.5150
10575SOL    HW133338   7.634   6.423   8.171  0.4236 -0.8726  0.2188
10575SOL    HW233339   7.599   6.278   8.195  1.3749 -1.1417  0.0019
10576SOL     OW33340   5.374   3.122   0.128  0.5958  0.1889 -0.1875
10576SOL    HW133341   5.409   3.034   0.142  1.9567  0.9015  1.3155
10576SOL    HW233342   5.399   3.144   0.038 -1.8493 -1.7893 -1.4683
10577SOL     OW33343   3.324   8.073   4.615 -0.2775 -0.4531 -0.1139
10577SOL    HW133344   3.237   8.108   4.593  0.5058 -0.4366 -3.8341
10577SOL    HW233345   3.385   8.141   4.587  1.0047 -1.3350  0.4771
10578SOL     OW33346   2.973   1.609   8.621 -0.3749 -0.4263  0.6037
10578SOL    HW133347   2.924   1.556   8.558 -1.7401 -0.4152  1.6063
10578SOL    HW233348   2.943   1.698   8.607  0.0196 -0.2815  0.6462
10579SOL     OW33349   8.933   0.316   5.290  0.0833  0.4713 -0.5702
10579SOL    HW133350   9.023   0.346   5.294 -0.0305  0.9236 -1.3272
10579SOL    HW233351   8.885   0.387   5.248 -0.5931  0.1553 -0.3563
10580SOL     OW33352   0.835   3.598   6.778 -0.3900 -0.3501 -0.1549
10580SOL    HW133353   0.843   3.601   6.682  0.0478 -1.1752 -0.1548
10580SOL    HW233354   0.798   3.511   6.796  0.1862 -0.4780  0.4584
10581SOL     OW33355   4.745   5.817   6.059  0.5145  0.4832  0.4025
10581SOL    HW133356   4.745   5.726   6.087  0.8504 -0.4055 -2.2194
10581SOL    HW233357   4.835   5.834   6.033  0.4515  1.5999  0.8258
10582SOL     OW33358   2.395   5.268   2.760  0.0624 -0.5898  0.1330
10582SOL    HW133359   2.400   5.179   2.793  2.8088 -0.3638  0.5598
10582SOL    HW233360   2.385   5.258   2.665 -0.8600 -1.3091  0.2952
10583SOL     OW33361   1.244   9.386   4.770  0.1566 -0.0191  0.2413
10583SOL    HW133362   1.184   9.458   4.754  0.1986 -0.1560 -0.5569
10583SOL    HW233363   1.293   9.376   4.688  2.2082  0.9548  1.2593
10584SOL     OW33364   5.838   2.326   4.204 -0.1467  0.0111 -0.0162
10584SOL    HW133365   5.852   2.421   4.204 -1.6932  0.2623 -0.0900
10584SOL    HW233366   5.806   2.306   4.116 -1.2911 -0.3143  0.4520
10585SOL     OW33367   4.742   8.784   9.158 -0.5243 -0.1007 -0.0477
10585SOL    HW133368   4.820   8.733   9.179  0.0644  1.2029  1.0826
10585SOL    HW233369   4.719   8.828   9.240 -1.3650  0.9515 -0.8177
10586SOL     OW33370   3.895   7.644   9.477  0.5935  0.0323 -0.3514
10586SOL    HW133371   3.974   7.699   9.470  1.6067 -1.3289  0.0602
10586SOL    HW233372   3.922   7.558   9.445 -0.3793 -0.8038  0.9598
10587SOL     OW33373   5.575   8.026   0.685 -0.1241  0.1883  0.3151
10587SOL    HW133374   5.664   8.055   0.668 -0.3347 -0.1692 -1.5427
10587SOL    HW233375   5.570   8.020   0.781  1.4210  1.4699  0.5201
10588SOL     OW33376   5.498   3.005   3.193  0.5995  0.3440  0.4712
10588SOL    HW133377   5.446   2.971   3.265  0.5728  1.6880  1.1183
10588SOL    HW233378   5.575   3.044   3.234  0.8010  0.7365 -0.2536
10589SOL     OW33379   6.283   8.109   1.754 -0.0509 -0.0800  0.0834
10589SOL    HW133380   6.231   8.153   1.687  1.7157  1.1432 -0.5624
10589SOL    HW233381   6.323   8.035   1.708 -0.2325 -0.2982  0.2702
10590SOL     OW33382   5.246   7.881   8.744  0.2856 -0.0035  0.6294
10590SOL    HW133383   5.202   7.963   8.768  0.6861  0.1960  0.6936
10590SOL    HW233384   5.329   7.884   8.791  0.7481  0.0389 -0.1665
10591SOL     OW33385   8.983   7.382   6.159 -0.0466  0.0812 -0.0516
10591SOL    HW133386   8.950   7.471   6.145 -0.5001 -0.4093 -2.5948
10591SOL    HW233387   9.060   7.375   6.102  0.0773 -1.0908  0.2363
10592SOL     OW33388   6.008   8.568   8.955  0.4050 -0.3499  0.4204
10592SOL    HW133389   6.007   8.477   8.985  1.6688 -0.1858  1.0653
10592SOL    HW233390   6.096   8.599   8.977 -0.0282  1.0579  0.2797
10593SOL     OW33391   6.293   0.176   1.949 -0.4646 -0.0360 -0.4216
10593SOL    HW133392   6.357   0.183   1.877 -0.1390 -1.0353 -0.2477
10593SOL    HW233393   6.287   0.264   1.984 -0.1859  0.3507 -1.3047
10594SOL     OW33394   5.089   6.349   7.990  0.0383  0.1309 -0.3886
10594SOL    HW133395   5.169   6.298   7.986 -0.8249 -1.3204  0.1227
10594SOL    HW233396   5.105   6.415   8.058 -0.0437 -1.7251  1.5236
10595SOL     OW33397   0.162   0.136   5.088  0.0304 -0.9884  0.4031
10595SOL    HW133398   0.213   0.132   5.008  0.8091  1.6170  0.6689
10595SOL    HW233399   0.092   0.198   5.070 -1.0694 -1.9605  1.1191
10596SOL     OW33400   9.541   4.097   5.576  0.1347  0.1304  0.8425
10596SOL    HW133401   9.523   4.128   5.487  0.4941 -1.3946  0.2171
10596SOL    HW233402   9.455   4.087   5.616 -0.2848 -2.5775 -0.5510
10597SOL     OW33403   3.827   3.817   9.332 -0.3508  0.0547 -0.1230
10597SOL    HW133404   3.892   3.754   9.362  2.5903  0.9618 -3.8217
10597SOL    HW233405   3.870   3.902   9.337 -1.1348  0.7050 -2.6661
10598SOL     OW33406   7.302   7.791   4.569  0.1858 -0.5249 -0.2055
10598SOL    HW133407   7.304   7.885   4.547 -0.3433 -0.6683 -0.8957
10598SOL    HW233408   7.378   7.754   4.523  0.0980 -0.5227 -0.3528
10599SOL     OW33409   6.157   6.042   9.496  0.2192 -0.9333  0.3836
10599SOL    HW133410   6.234   5.985   9.488  1.4218  0.6877 -0.0032
10599SOL    HW233411   6.182   6.122   9.451 -1.3535  0.0058  1.1189
10600SOL     OW33412   9.311   5.608   9.089  0.0028  0.4718 -0.2758
10600SOL    HW133413   9.252   5.533   9.084 -1.5626  1.6914 -0.6604
10600SOL    HW233414   9.337   5.625   8.999  1.3190 -0.2943 -0.0783
10601SOL     OW33415   7.654   4.320   0.826 -0.4767 -0.1515 -0.1229
10601SOL    HW133416   7.567   4.281   0.822 -0.6991  0.3911 -0.7996
10601SOL    HW233417   7.661   4.354   0.915 -1.7324  1.4977 -0.6051
10602SOL     OW33418   9.565   5.458   8.469  0.0223 -0.0854  0.0634
10602SOL    HW133419   9.575   5.441   8.376 -0.4326 -1.4394  0.2463
10602SOL    HW233420   9.472   5.445   8.487  0.0938  0.2268  0.6970
10603SOL     OW33421   8.354   6.864   7.173  0.1141  0.1363 -0.2299
10603SOL    HW133422   8.392   6.951   7.172  1.2651 -0.3499  0.0275
10603SOL    HW233423   8.418   6.808   7.128 -1.5757 -0.2200 -2.4242
10604SOL     OW33424   1.745   8.230   1.898 -0.7162 -0.4856 -0.0846
10604SOL    HW133425   1.807   8.290   1.857 -1.3137 -0.9027 -1.6416
10604SOL    HW233426   1.766   8.235   1.992  2.4520 -1.4745 -0.6251
10605SOL     OW33427   0.092   4.607   1.535  0.2822 -0.3423  0.1537
10605SOL    HW133428   0.184   4.617   1.512  0.4131  0.4911  0.9628
10605SOL    HW233429   0.046   4.660   1.470  0.4190 -0.2978  0.0923
10606SOL     OW33430   8.259   7.432   9.501  0.3691 -0.0803 -0.5577
10606SOL    HW133431   8.324   7.502   9.494 -0.9271  1.1750 -0.5691
10606SOL    HW233432   8.240   7.406   9.411  0.9246 -0.5419 -0.5498
10607SOL     OW33433   7.196   5.515   8.688 -0.4151  0.2198 -0.1484
10607SOL    HW133434   7.287   5.485   8.678 -0.0149  0.7720  1.5825
10607SOL    HW233435   7.204   5.607   8.714 -1.4518  0.1317  0.5380
10608SOL     OW33436   9.539   3.273   2.517  0.2134  0.2158 -0.5374
10608SOL    HW133437   9.591   3.239   2.444  0.2101  0.7214 -0.7802
10608SOL    HW233438   9.577   3.230   2.594 -0.8601 -1.6122 -0.9625
10609SOL     OW33439   0.976   3.187   6.023  0.0616  0.2701  0.3077
10609SOL    HW133440   0.896   3.180   6.075 -1.1377  1.1855 -1.3478
10609SOL    HW233441   0.970   3.116   5.960  1.0457 -0.2385  0.7589
10610SOL     OW33442   2.819   8.260   7.145  0.2018 -0.6071 -0.3827
10610SOL    HW133443   2.740   8.259   7.199 -0.0273 -0.5151 -0.7087
10610SOL    HW233444   2.877   8.196   7.186 -0.3044 -1.1689 -0.5262
10611SOL     OW33445   0.830   8.343   3.255  0.2782  0.3243  0.0667
10611SOL    HW133446   0.736   8.332   3.272  0.5662  1.0033  2.2850
10611SOL    HW233447   0.846   8.437   3.265  1.2922  0.1527  0.1394
10612SOL     OW33448   5.912   3.624   5.596  0.1034  0.1287  0.3579
10612SOL    HW133449   5.942   3.536   5.621  1.1787  0.7326  1.2686
10612SOL    HW233450   5.990   3.669   5.566 -0.6283  0.4646 -1.1519
10613SOL     OW33451   9.145   0.158   1.687  0.9710  0.3149  0.2624
10613SOL    HW133452   9.179   0.247   1.672  0.4948  0.1326 -2.2337
10613SOL    HW233453   9.217   0.101   1.660  0.4520 -0.0546 -0.3460
10614SOL     OW33454   2.729   0.943   8.074  0.1273 -0.3235  0.0896
10614SOL    HW133455   2.654   0.926   8.018 -0.7401  0.7056  0.9071
10614SOL    HW233456   2.781   1.008   8.027  0.7162 -1.2885 -0.6361
10615SOL     OW33457   9.195   0.933   4.505 -0.3320 -0.2808  0.5615
10615SOL    HW133458   9.250   0.987   4.448  0.8048 -0.9287  1.0068
10615SOL    HW233459   9.252   0.911   4.579 -0.6910 -2.2126  0.3273
10616SOL     OW33460   8.172   8.294   6.935  0.7037 -0.1312 -0.0381
10616SOL    HW133461   8.238   8.330   6.876  2.0570 -0.6995  1.0604
10616SOL    HW233462   8.223   8.254   7.006 -0.8125 -1.3556  0.4157
10617SOL     OW33463   4.368   7.798   2.258  0.0816  0.0024 -0.0789
10617SOL    HW133464   4.333   7.886   2.240 -2.2327 -0.6657  0.8816
10617SOL    HW233465   4.445   7.814   2.312  0.3875  1.4668 -0.8685
10618SOL     OW33466   3.500   8.976   0.791 -0.3952  0.3600 -0.3758
10618SOL    HW133467   3.526   8.889   0.759 -1.9734 -0.4649  0.4719
10618SOL    HW233468   3.521   8.974   0.885  2.7028  2.1796 -0.8729
10619SOL     OW33469   3.298   7.342   0.895  0.1029  0.0788 -0.5158
10619SOL    HW133470   3.341   7.353   0.980  0.6781 -1.4843 -0.5752
10619SOL    HW233471   3.329   7.416   0.843  1.3086 -0.0309  0.0117
10620SOL     OW33472   9.603   4.225   9.282  0.2332  0.5382 -0.1232
10620SOL    HW133473   9.594   4.146   9.336  0.6046  1.1088  0.8158
10620SOL    HW233474   9.682   4.209   9.230  0.0166  0.0774 -0.3108
10621SOL     OW33475   9.540   4.843   3.624  0.2039 -0.1768  0.0222
10621SOL    HW133476   9.500   4.846   3.537 -0.6720  0.5522  0.4336
10621SOL    HW233477   9.466   4.828   3.684  0.7629 -0.4171  0.6608
10622SOL     OW33478   1.005   1.422   5.312 -0.2707 -0.1312 -0.4852
10622SOL    HW133479   0.922   1.381   5.337  0.7692 -1.4553  0.9866
10622SOL    HW233480   0.999   1.431   5.217 -1.3555 -1.9262 -0.6459
10623SOL     OW33481   1.360   5.550   8.376  0.1786  0.3483 -0.0272
10623SOL    HW133482   1.339   5.643   8.369 -0.2842  0.4374  2.0751
10623SOL    HW233483   1.455   5.547   8.387  0.3685  0.4480 -1.4039
10624SOL     OW33484   8.506   4.769   3.161  0.0337 -0.0352 -0.2467
10624SOL    HW133485   8.507   4.828   3.086  1.1747  1.2840  0.7284
10624SOL    HW233486   8.565   4.698   3.137  1.6259  1.1684 -0.0685
10625SOL     OW33487   5.506   8.219   9.413  0.3049 -0.0516 -0.3365
10625SOL    HW133488   5.544   8.163   9.480  0.8446  0.7078 -0.0011
10625SOL    HW233489   5.460   8.158   9.355 -1.4692 -0.6216  1.5170
10626SOL     OW33490   1.656   1.039   3.803 -0.5355  0.2338  0.1131
10626SOL    HW133491   1.597   1.038   3.728 -0.0435  1.1057 -0.3069
10626SOL    HW233492   1.600   1.015   3.878 -1.3623  0.7813 -0.3104
10627SOL     OW33493   0.945   9.841   9.092 -0.1726  0.4430 -0.1733
10627SOL    HW133494   1.034   9.845   9.127 -0.5004 -0.4363  0.8443
10627SOL    HW233495   0.890   9.878   9.162 -0.8022 -0.9923  0.1291
10628SOL     OW33496   8.534   5.382   3.995 -0.4638 -0.8936 -0.1622
10628SOL    HW133497   8.463   5.318   3.990 -0.8758 -0.5139  0.6546
10628SOL    HW233498   8.585   5.366   3.916 -1.0232 -1.6818 -0.3859
10629SOL     OW33499   8.950   7.280   9.388  0.1844  0.3627  0.0566
10629SOL    HW133500   8.890   7.209   9.366  0.4712  0.2161 -0.2495
10629SOL    HW233501   8.930   7.300   9.479 -2.9693  2.8320 -0.9821
10630SOL     OW33502   2.291   8.099   4.393 -0.0536  0.0934  0.3306
10630SOL    HW133503   2.256   8.147   4.318 -0.9349  0.1914  0.7828
10630SOL    HW233504   2.225   8.031   4.410  1.1873 -1.3205 -0.3231
10631SOL     OW33505   7.117   4.703   3.549 -0.2962 -0.4649  0.5007
10631SOL    HW133506   7.068   4.778   3.583  0.3649 -0.3282  1.1912
10631SOL    HW233507   7.204   4.739   3.530  0.4715 -1.3073  2.1366
10632SOL     OW33508   2.787   1.582   6.557 -0.0102  0.2766 -0.1817
10632SOL    HW133509   2.695   1.558   6.552 -0.3581  1.4459  0.1545
10632SOL    HW233510   2.786   1.671   6.593  1.1897  0.7726 -1.2974
10633SOL     OW33511   5.242   8.778   5.356  0.0112  0.1237 -0.2960
10633SOL    HW133512   5.236   8.761   5.262  1.9080  2.0498 -0.8400
10633SOL    HW233513   5.200   8.863   5.368 -0.9303 -0.4579  0.7753
10634SOL     OW33514   3.745   7.689   8.344  0.8606  0.2033 -0.3332
10634SOL    HW133515   3.746   7.594   8.360  1.6022 -0.2799 -2.7770
10634SOL    HW233516   3.664   7.704   8.294  0.8813  0.8223 -0.1887
10635SOL     OW33517   6.538   4.213   3.475  0.7258 -0.4959  0.2089
10635SOL    HW133518   6.630   4.216   3.501  1.1754  1.5547 -1.3189
10635SOL    HW233519   6.531   4.134   3.422  1.5820 -0.7746  0.4942
10636SOL     OW33520   4.493   3.629   9.462  0.3815 -0.0716 -0.5749
10636SOL    HW133521   4.524   3.575   9.389  0.5898 -0.2285 -0.3735
10636SOL    HW233522   4.526   3.716   9.444  0.7324 -0.1833 -0.4946
10637SOL     OW33523   4.499   1.107   9.181  0.4433  0.0870 -0.1274
10637SOL    HW133524   4.503   1.178   9.117  2.1143  0.6108  0.5129
10637SOL    HW233525   4.533   1.031   9.134  0.2501  0.1091 -0.3058
10638SOL     OW33526   6.196   8.331   8.819 -0.1962 -0.3365 -0.3046
10638SOL    HW133527   6.239   8.359   8.899 -1.1389  1.1295 -0.2731
10638SOL    HW233528   6.104   8.320   8.843 -0.3502 -0.6758 -1.0041
10639SOL     OW33529   7.978   0.324   8.946 -0.4843 -0.4415  0.2502
10639SOL    HW133530   7.916   0.352   9.013 -1.8554 -1.9429 -0.3328
10639SOL    HW233531   8.041   0.270   8.993  1.2134  2.0534  1.0719
10640SOL     OW33532   8.022   6.009   5.267 -0.2810  0.0381  0.1119
10640SOL    HW133533   8.109   6.048   5.267 -1.0466  1.8629  0.7547
10640SOL    HW233534   8.008   5.983   5.358 -0.0725 -1.0685 -0.1678
10641SOL     OW33535   2.154   8.530   7.389  0.1039 -0.4275 -0.1409
10641SOL    HW133536   2.117   8.552   7.303  0.1133  1.7079  0.3529
10641SOL    HW233537   2.085   8.552   7.451  0.6379 -0.5594  0.5059
10642SOL     OW33538   1.800   7.867   3.135  0.0393  0.2624  0.2695
10642SOL    HW133539   1.811   7.788   3.081 -0.7795 -0.1081  0.6239
10642SOL    HW233540   1.849   7.847   3.215  0.1457  0.2678  0.2062
10643SOL     OW33541   2.417   2.164   3.449 -0.7609 -0.1324 -0.0629
10643SOL    HW133542   2.427   2.103   3.523 -0.4201 -1.3690 -1.0996
10643SOL    HW233543   2.323   2.173   3.438 -0.8387 -1.4625 -0.6657
10644SOL     OW33544   2.659   7.248   8.619 -0.0122 -0.3188 -0.2139
10644SOL    HW133545   2.624   7.167   8.656 -0.1530  0.1921  0.8049
10644SOL    HW233546   2.581   7.302   8.604  0.2243  0.4179  1.0731
10645SOL     OW33547   7.666   1.428   9.575 -0.3569  0.0519 -0.2509
10645SOL    HW133548   7.727   1.373   9.526 -0.5230 -0.3392 -0.0333
10645SOL    HW233549   7.697   1.423   9.666 -0.3034  0.4167 -0.2497
10646SOL     OW33550   5.400   1.854   4.378 -0.1802 -0.1977  0.1943
10646SOL    HW133551   5.472   1.801   4.411  0.4959  1.0035  0.7419
10646SOL    HW233552   5.390   1.827   4.287  0.4648 -0.9041  0.3212
10647SOL     OW33553   0.378   8.303   6.242 -0.2768 -0.1598 -0.3263
10647SOL    HW133554   0.287   8.323   6.223 -0.1342  0.1516 -0.7048
10647SOL    HW233555   0.428   8.368   6.191  0.1229  0.4393  0.7876
10648SOL     OW33556   3.977   4.156   9.068  0.4592 -0.7144  0.4389
10648SOL    HW133557   3.978   4.189   9.157  1.6612  1.2922 -0.2464
10648SOL    HW233558   3.912   4.210   9.022  0.5237 -1.0995 -0.1272
10649SOL     OW33559   3.951   3.122   0.790  0.5163  0.2539 -1.2321
10649SOL    HW133560   3.867   3.110   0.747 -0.5359  1.2415  0.4544
10649SOL    HW233561   3.967   3.039   0.835 -1.0932  1.0218  0.9231
10650SOL     OW33562   9.318   1.722   2.700  0.4296 -0.2336  0.0779
10650SOL    HW133563   9.262   1.652   2.666  0.3421  0.0161 -0.2959
10650SOL    HW233564   9.396   1.676   2.733 -0.4763 -0.7118  1.6830
10651SOL     OW33565   6.547   0.865   2.561 -0.7142  0.7146  0.1401
10651SOL    HW133566   6.470   0.903   2.520 -1.6618  0.7238  1.8139
10651SOL    HW233567   6.532   0.875   2.655  0.1085 -1.6144  0.6102
10652SOL     OW33568   9.297   7.152   8.810 -0.0240  0.0097 -0.0909
10652SOL    HW133569   9.370   7.096   8.784 -1.3199 -1.2849 -1.1239
10652SOL    HW233570   9.288   7.137   8.905  1.0369  0.1929  0.0457
10653SOL     OW33571   8.146   2.862   6.646 -0.1756  0.2674 -0.1815
10653SOL    HW133572   8.190   2.947   6.636  0.9959 -0.2982  0.0030
10653SOL    HW233573   8.216   2.798   6.640 -0.9967 -0.6788  0.0817
10654SOL     OW33574   3.526   0.888   3.215 -0.0085 -0.3501 -0.1101
10654SOL    HW133575   3.540   0.845   3.300  0.9132 -0.5398 -0.3544
10654SOL    HW233576   3.470   0.827   3.167 -0.3616 -0.3402  0.2817
10655SOL     OW33577   7.374   2.066   8.031  0.4722  0.5065 -0.1734
10655SOL    HW133578   7.381   2.079   8.126  0.7334 -0.4291 -0.0562
10655SOL    HW233579   7.427   2.137   7.993  0.3254  0.9161  0.3720
10656SOL     OW33580   8.514   1.085   4.262 -0.0115 -0.1906 -0.4300
10656SOL    HW133581   8.485   1.001   4.226  0.3952 -0.3358 -0.4181
10656SOL    HW233582   8.475   1.151   4.203 -2.4301 -0.2540  0.9799
10657SOL     OW33583   0.368   6.153   8.343 -0.3143 -0.0542 -0.2490
10657SOL    HW133584   0.406   6.068   8.321  0.9132 -0.7368  3.6669
10657SOL    HW233585   0.279   6.133   8.372 -0.0290 -0.0587  0.6625
10658SOL     OW33586   6.618   5.575   8.941  0.4813  0.8274 -0.0965
10658SOL    HW133587   6.609   5.490   8.899  0.7562  1.1304 -0.7840
10658SOL    HW233588   6.625   5.637   8.869  5.1818  1.0014  0.2123
10659SOL     OW33589   3.302   7.111   7.175  0.1703 -0.0146  0.3863
10659SOL    HW133590   3.291   7.021   7.144  1.7775  0.0064 -0.3632
10659SOL    HW233591   3.339   7.158   7.100  1.0324  0.8449  1.3113
10660SOL     OW33592   8.198   5.655   0.293 -0.6843 -0.0481 -0.0587
10660SOL    HW133593   8.104   5.669   0.306 -0.2147  2.1128  1.7040
10660SOL    HW233594   8.224   5.723   0.230 -0.2377 -0.4060 -0.2656
10661SOL     OW33595   6.318   8.780   2.115  0.5370 -1.3650  0.0362
10661SOL    HW133596   6.403   8.768   2.073 -0.1444  0.0873 -1.9219
10661SOL    HW233597   6.290   8.691   2.138  1.6202 -2.0935 -1.3292
10662SOL     OW33598   5.126   5.921   7.150  0.2426 -0.3483 -0.4300
10662SOL    HW133599   5.037   5.898   7.177 -0.3825  3.3890  1.2249
10662SOL    HW233600   5.164   5.965   7.226  0.9843  4.2336 -3.0998
10663SOL     OW33601   9.176   7.384   5.959  0.1107  0.0031  0.1280
10663SOL    HW133602   9.270   7.397   5.942  0.1602  2.0040  1.6459
10663SOL    HW233603   9.146   7.333   5.883  2.6138 -1.7497  0.1572
10664SOL     OW33604   3.860   4.366   7.184  0.2601 -0.1479  0.0692
10664SOL    HW133605   3.832   4.346   7.094  1.9851 -0.1216 -0.5043
10664SOL    HW233606   3.919   4.440   7.175  1.9098 -1.2888  0.9769
10665SOL     OW33607   1.362   4.559   2.788 -0.9762  0.6550  0.4686
10665SOL    HW133608   1.442   4.607   2.767 -0.4731  0.0929  1.0367
10665SOL    HW233609   1.333   4.524   2.704 -1.0121  1.4324  0.1495
10666SOL     OW33610   1.159   0.839   9.065  0.5991 -0.2812  0.4733
10666SOL    HW133611   1.103   0.816   9.139 -0.1345 -1.7571 -0.4854
10666SOL    HW233612   1.100   0.839   8.989  1.5035  0.2643 -0.2617
10667SOL     OW33613   3.426   9.207   3.951  0.4077 -0.4233  0.2173
10667SOL    HW133614   3.401   9.262   3.876 -0.5969 -2.0705 -0.7248
10667SOL    HW233615   3.370   9.238   4.022 -0.6450 -0.6610 -0.4822
10668SOL     OW33616   1.806   6.331   1.277  0.3372  0.5326 -0.1736
10668SOL    HW133617   1.802   6.426   1.283  0.5722  0.5313  0.0253
10668SOL    HW233618   1.790   6.311   1.185  0.6424  0.7852 -0.2815
10669SOL     OW33619   4.969   7.432   3.380  0.6963 -0.8024 -0.0150
10669SOL    HW133620   4.953   7.523   3.405  0.4507 -0.6194 -0.7990
10669SOL    HW233621   5.037   7.402   3.439  0.8411 -0.0777  0.1946
10670SOL     OW33622   2.991   7.104   7.033  0.0344 -0.2841  0.0247
10670SOL    HW133623   3.007   7.087   6.940  1.0249  0.2076  0.0825
10670SOL    HW233624   3.058   7.052   7.079 -0.8837 -1.0668  0.5085
10671SOL     OW33625   0.336   6.760   0.130  0.0415 -0.2141 -0.2264
10671SOL    HW133626   0.343   6.809   0.212 -2.4864  0.1669 -0.1469
10671SOL    HW233627   0.294   6.821   0.070  0.6127 -0.9437 -1.3897
10672SOL     OW33628   7.787   6.987   4.292 -0.2462 -0.1294 -0.3739
10672SOL    HW133629   7.851   7.002   4.362 -0.2049  1.0167 -0.6256
10672SOL    HW233630   7.709   7.036   4.320 -1.3746 -2.2212  0.3526
10673SOL     OW33631   7.720   8.258   2.244 -0.1771 -0.0906  0.1780
10673SOL    HW133632   7.635   8.295   2.221 -0.6358 -1.2126  0.0030
10673SOL    HW233633   7.737   8.192   2.177  0.6947 -0.1041  0.3904
10674SOL     OW33634   2.884   7.748   4.167  0.6312 -0.2211  0.1172
10674SOL    HW133635   2.811   7.695   4.199  0.1544 -0.0342 -0.6483
10674SOL    HW233636   2.843   7.824   4.126  1.2759  0.1931  0.2110
10675SOL     OW33637   3.908   3.052   7.613 -0.1662 -0.4091  0.2546
10675SOL    HW133638   3.893   3.104   7.692  1.5676  1.2460 -0.4286
10675SOL    HW233639   3.827   3.063   7.562 -0.5577  0.0489  0.9570
10676SOL     OW33640   1.256   8.483   7.957  0.2140 -0.0693 -0.4036
10676SOL    HW133641   1.320   8.460   8.024 -1.7262  0.2458  1.7043
10676SOL    HW233642   1.218   8.566   7.986 -3.6275 -1.9037  0.5595
10677SOL     OW33643   6.371   5.237   0.771  0.0250  0.2895 -0.2169
10677SOL    HW133644   6.411   5.269   0.853  0.2727  0.2523 -0.3222
10677SOL    HW233645   6.414   5.154   0.755 -0.0608  0.2734 -0.3617
10678SOL     OW33646   6.860   1.461   7.219 -0.0500  0.6170 -0.0469
10678SOL    HW133647   6.839   1.382   7.169  0.1751  0.9982 -0.7463
10678SOL    HW233648   6.903   1.428   7.298 -0.2627  0.0215 -0.1711
10679SOL     OW33649   4.390   3.248   0.047  0.2569 -0.5050 -0.0849
10679SOL    HW133650   4.378   3.218  -0.044  1.3711  0.5996 -0.6318
10679SOL    HW233651   4.470   3.203   0.076 -0.3692 -1.2348  0.5329
10680SOL     OW33652   6.821   9.752   2.183  0.3899  0.4143  0.7933
10680SOL    HW133653   6.746   9.783   2.132  0.2440 -1.8592 -0.5392
10680SOL    HW233654   6.896   9.760   2.123  0.6059 -0.3502  0.9499
10681SOL     OW33655   1.836   8.944   9.118 -0.4199 -0.0832 -0.6192
10681SOL    HW133656   1.795   9.008   9.175  1.1947 -0.2337  0.7911
10681SOL    HW233657   1.891   8.891   9.176  2.5157  0.7048 -2.4257
10682SOL     OW33658   3.645   4.872   0.606 -0.0704  0.6394  0.2722
10682SOL    HW133659   3.694   4.792   0.620  1.2422  1.1446 -1.0972
10682SOL    HW233660   3.707   4.942   0.628 -0.6557  1.2886 -0.1095
10683SOL     OW33661   4.324   4.396   1.032  0.1645 -0.3299 -0.0313
10683SOL    HW133662   4.393   4.438   1.083  1.7453 -2.2571 -0.4625
10683SOL    HW233663   4.284   4.334   1.093 -0.1453 -0.3210 -0.2225
10684SOL     OW33664   9.667   4.720   9.736  0.1786  0.5829  0.2054
10684SOL    HW133665   9.583   4.702   9.693  0.3845 -1.3682  0.5077
10684SOL    HW233666   9.712   4.780   9.677 -0.7568  0.3036 -0.8230
10685SOL     OW33667   8.962   1.294   8.655 -0.6450 -0.1839 -0.2492
10685SOL    HW133668   9.001   1.208   8.642 -0.9360 -0.6950  1.8360
10685SOL    HW233669   9.033   1.348   8.690 -0.6281  0.2429 -0.9335
10686SOL     OW33670   0.992   4.291   4.190 -0.4351 -0.4265  0.0106
10686SOL    HW133671   0.933   4.327   4.124  0.3640  2.1534  0.6169
10686SOL    HW233672   1.057   4.359   4.205  2.0537 -2.6723  0.2623
10687SOL     OW33673   9.746   6.284   3.839 -0.1893 -0.3597 -0.0499
10687SOL    HW133674   9.765   6.280   3.745  1.0750 -0.0668  0.1715
10687SOL    HW233675   9.720   6.195   3.862 -0.7099 -0.3824 -0.7168
10688SOL     OW33676   6.365   5.793   9.054  0.2334  0.2059 -0.0382
10688SOL    HW133677   6.339   5.715   9.005  2.2529 -0.9993  0.7107
10688SOL    HW233678   6.418   5.760   9.126  0.0204  2.2009  1.0961
10689SOL     OW33679   2.140   8.368   8.207  0.4007 -0.0641  0.0246
10689SOL    HW133680   2.104   8.287   8.243  0.8049  0.1876  1.0375
10689SOL    HW233681   2.231   8.368   8.236  0.5429  0.4985 -0.4167
10690SOL     OW33682   6.396   4.513   7.669 -0.2106 -0.2540 -0.2150
10690SOL    HW133683   6.303   4.533   7.675 -0.1205  0.5892 -1.3476
10690SOL    HW233684   6.401   4.441   7.607 -0.2320 -1.5140  1.1909
10691SOL     OW33685   0.047   1.787   4.582 -0.2241  0.4775  0.2502
10691SOL    HW133686   0.059   1.842   4.504  0.3739  2.2798  1.5283
10691SOL    HW233687   0.119   1.723   4.577  0.4102  1.1988 -0.1892
10692SOL     OW33688   8.941   4.908   6.667  0.0412  0.2081  0.3228
10692SOL    HW133689   8.997   4.985   6.672  0.2460  0.0486  0.5456
10692SOL    HW233690   8.972   4.860   6.590  0.5039 -0.0985  0.6898
10693SOL     OW33691   5.887   2.472   2.739 -0.4481 -0.3324 -0.1233
10693SOL    HW133692   5.918   2.491   2.651  0.7617  0.9606  0.5454
10693SOL    HW233693   5.932   2.535   2.795 -0.8327 -1.4112  1.4833
10694SOL     OW33694   9.305   1.751   8.463  0.4043 -0.5094 -0.0420
10694SOL    HW133695   9.373   1.818   8.466  1.1600 -1.2916  1.7930
10694SOL    HW233696   9.267   1.751   8.551  0.0217 -2.0790 -0.1755
10695SOL     OW33697   3.239   0.981   5.593 -0.1620  0.0439 -0.3109
10695SOL    HW133698   3.258   0.892   5.564 -1.6703 -0.3239 -0.2533
10695SOL    HW233699   3.166   0.971   5.655  1.9826  0.9299  2.5637
10696SOL     OW33700   6.437   7.249   8.869 -0.1607  0.1727  0.6542
10696SOL    HW133701   6.517   7.268   8.918  0.7313  0.2558 -0.7717
10696SOL    HW233702   6.468   7.210   8.788 -1.4823  1.4786 -0.5292
10697SOL     OW33703   9.751   9.642   0.052 -0.0337 -0.0686  0.3122
10697SOL    HW133704   9.757   9.600   0.138 -1.1252 -0.4119  0.2337
10697SOL    HW233705   9.780   9.732   0.067 -0.3327 -0.0953  1.0708
10698SOL     OW33706   2.554   3.945   3.863 -0.8424  0.0083  0.6299
10698SOL    HW133707   2.545   3.877   3.796  0.1878  2.1298 -1.8433
10698SOL    HW233708   2.474   3.996   3.857 -0.7453  0.2073  1.0085
10699SOL     OW33709   6.957   9.391   6.299  0.5243 -0.3409  0.2710
10699SOL    HW133710   7.039   9.358   6.262  0.5729 -0.1199  0.1819
10699SOL    HW233711   6.983   9.426   6.385  0.9690  1.8583 -0.6847
10700SOL     OW33712   3.759   1.468   2.972  0.3675  0.7890  0.3445
10700SOL    HW133713   3.848   1.465   3.007  0.5424  0.2648 -0.1179
10700SOL    HW233714   3.770   1.462   2.877 -0.2025 -0.9871  0.3391
10701SOL     OW33715   1.635   7.062   9.563  0.3797 -0.6731  0.1605
10701SOL    HW133716   1.720   7.023   9.581 -0.6906 -2.7472  1.1052
10701SOL    HW233717   1.654   7.141   9.513  2.8722 -0.7051  0.9654
10702SOL     OW33718   1.922   3.071   2.494 -0.0207 -0.4370  0.1340
10702SOL    HW133719   1.833   3.106   2.488 -0.4157 -0.7200  3.1119
10702SOL    HW233720   1.976   3.148   2.510  0.3504 -0.2525 -1.7772
10703SOL     OW33721   0.023   9.712   2.729  0.1231  0.3161 -0.1127
10703SOL    HW133722  -0.016   9.718   2.816  1.4226 -2.2496  0.7263
10703SOL    HW233723   0.105   9.760   2.736  0.6267 -0.6001  0.3431
10704SOL     OW33724   5.186   1.132   7.513  0.7716  0.6083  0.4457
10704SOL    HW133725   5.143   1.153   7.596  1.0694  1.2762  0.4324
10704SOL    HW233726   5.115   1.126   7.449  0.4944 -0.3160  0.8179
10705SOL     OW33727   8.385   5.681   8.486 -0.7228  0.3839  0.1607
10705SOL    HW133728   8.455   5.657   8.546 -0.4973  0.7337  0.0372
10705SOL    HW233729   8.311   5.704   8.543 -1.0549 -0.8961  0.2866
10706SOL     OW33730   8.107   7.421   6.246 -0.3963  0.0803  0.5207
10706SOL    HW133731   8.062   7.472   6.314 -0.8665  0.0083  0.2679
10706SOL    HW233732   8.197   7.414   6.277  0.0438  2.2619 -0.0780
10707SOL     OW33733   4.785   8.574   6.206 -0.5376 -0.1419 -0.2273
10707SOL    HW133734   4.849   8.635   6.168 -0.1295  0.0714  0.7776
10707SOL    HW233735   4.711   8.629   6.230 -0.2801 -0.0693  0.4271
10708SOL     OW33736   2.606   4.630   0.623  0.3763 -0.0602  0.1621
10708SOL    HW133737   2.573   4.701   0.677  0.0670 -0.2274  0.1932
10708SOL    HW233738   2.666   4.672   0.562 -0.0796  0.2816 -0.0566
10709SOL     OW33739   1.929   8.574   6.945 -0.3258  0.4115  0.0080
10709SOL    HW133740   1.944   8.489   6.904 -1.1686  1.3464 -2.4304
10709SOL    HW233741   1.843   8.567   6.986  0.8010 -0.7428  2.3692
10710SOL     OW33742   0.120   7.692   5.028 -1.0564  0.1074 -0.7499
10710SOL    HW133743   0.026   7.710   5.035 -1.2097 -1.0984  1.2608
10710SOL    HW233744   0.126   7.610   4.979 -1.1311 -0.2595 -0.1568
10711SOL     OW33745   3.262   5.569   3.139  0.1954 -0.7056 -0.5897
10711SOL    HW133746   3.295   5.504   3.201  2.2908 -0.8806 -1.7781
10711SOL    HW233747   3.298   5.652   3.169 -2.0416 -0.0954  0.6196
10712SOL     OW33748   3.910   7.296   0.239  0.2465  0.1506 -0.2006
10712SOL    HW133749   3.857   7.375   0.228 -1.5278 -0.8668  0.4863
10712SOL    HW233750   3.947   7.279   0.153 -1.4757  0.3304 -1.0137
10713SOL     OW33751   7.238   4.139   7.989  0.2258  0.1287 -0.4080
10713SOL    HW133752   7.292   4.123   7.912  0.6806 -1.0789  0.1300
10713SOL    HW233753   7.282   4.210   8.035  1.2363 -0.6711 -0.1058
10714SOL     OW33754   5.129   4.411   7.858  0.2796 -0.4496 -0.1420
10714SOL    HW133755   5.161   4.325   7.885 -0.0440 -1.4603 -2.7555
10714SOL    HW233756   5.083   4.396   7.776 -0.2336  2.1580 -0.4326
10715SOL     OW33757   7.405   8.162   5.367 -0.4577  0.1038 -0.1253
10715SOL    HW133758   7.433   8.254   5.372  1.6035 -0.5128  0.6012
10715SOL    HW233759   7.443   8.129   5.286 -1.3243 -0.0735 -0.4638
10716SOL     OW33760   2.199   9.801   2.063 -0.7204  0.3621 -0.0952
10716SOL    HW133761   2.180   9.719   2.108 -0.5964  0.1560 -0.4159
10716SOL    HW233762   2.114   9.844   2.054 -1.2012 -0.8841 -2.1652
10717SOL     OW33763   8.402   2.821   4.885 -0.4454 -0.1172  0.1371
10717SOL    HW133764   8.330   2.827   4.821 -0.1069  2.0779 -0.1241
10717SOL    HW233765   8.393   2.733   4.923 -2.6905 -0.2541 -0.5437
10718SOL     OW33766   5.943   0.027   3.705 -0.1470 -0.4882 -0.1602
10718SOL    HW133767   6.032   0.039   3.674 -0.3721 -2.0664 -1.5298
10718SOL    HW233768   5.948   0.043   3.799  1.3180  0.6438 -0.4039
10719SOL     OW33769   7.270   4.873   8.538  0.2682  0.0178  0.2349
10719SOL    HW133770   7.324   4.938   8.494 -0.6689  1.1831  0.7554
10719SOL    HW233771   7.189   4.919   8.559 -0.3930 -1.2988  0.6865
10720SOL     OW33772   5.049   6.052   5.701  0.5288  0.1592 -0.6144
10720SOL    HW133773   5.081   6.134   5.738  0.9389 -0.4872  0.4991
10720SOL    HW233774   4.954   6.057   5.708  0.6033 -0.1290  0.9778
10721SOL     OW33775   1.326   0.731   2.891  0.2973  0.2329 -0.1988
10721SOL    HW133776   1.338   0.809   2.837  0.3800 -0.1941 -0.8115
10721SOL    HW233777   1.333   0.658   2.829 -0.2856 -0.2412  0.2803
10722SOL     OW33778   1.482   1.397   7.267  0.2518  0.2016 -0.4341
10722SOL    HW133779   1.427   1.405   7.189 -1.8875  0.1371  0.9829
10722SOL    HW233780   1.559   1.451   7.248 -0.2389  0.2603 -2.5199
10723SOL     OW33781   5.957   4.388   4.908 -0.7387  0.2465  0.7317
10723SOL    HW133782   5.862   4.381   4.907 -0.6526 -1.3585  0.8397
10723SOL    HW233783   5.980   4.397   5.001 -0.7270 -0.9511  0.8654
10724SOL     OW33784   4.177   7.698   9.359 -0.0371 -0.5080  0.2211
10724SOL    HW133785   4.152   7.778   9.405  0.5305 -0.1777 -0.0329
10724SOL    HW233786   4.271   7.690   9.375  0.7454  0.9578 -2.8525
10725SOL     OW33787   4.642   8.927   4.120 -0.0197  0.0833  0.3391
10725SOL    HW133788   4.549   8.920   4.098  0.2238  0.9133 -1.0941
10725SOL    HW233789   4.645   8.913   4.215 -1.2869 -2.4896  0.0890
10726SOL     OW33790   2.769   0.183   9.706  0.6834  0.2352 -0.0389
10726SOL    HW133791   2.831   0.250   9.677  0.7561  0.7350  1.1951
10726SOL    HW233792   2.799   0.102   9.666  1.2424  0.7503 -0.6721
10727SOL     OW33793   2.519   0.236   0.736  0.2270 -0.3866  0.0348
10727SOL    HW133794   2.595   0.276   0.692  1.9818 -3.2064  0.2454
10727SOL    HW233795   2.514   0.282   0.820  0.7949  0.8224 -0.5635
10728SOL     OW33796   1.525   1.079   4.790 -0.6640  0.4508 -0.6516
10728SOL    HW133797   1.521   1.010   4.857 -1.6746  0.7336 -0.3907
10728SOL    HW233798   1.453   1.058   4.730 -1.7652  1.8875  0.0790
10729SOL     OW33799   2.018   7.810   4.843  0.5867 -0.2632  0.2954
10729SOL    HW133800   2.073   7.854   4.908  0.9620  0.2098 -0.3373
10729SOL    HW233801   2.014   7.871   4.770 -3.1991  1.1121  1.3899
10730SOL     OW33802   0.741   9.440   8.414 -0.2890  0.0386  0.1676
10730SOL    HW133803   0.763   9.514   8.471  0.9985 -0.4093  0.2680
10730SOL    HW233804   0.730   9.366   8.474  1.6800 -0.5746 -0.1816
10731SOL     OW33805   2.971   9.337   5.212  0.4787  0.1107  0.6868
10731SOL    HW133806   2.936   9.291   5.288 -0.7243  1.0752  0.7515
10731SOL    HW233807   2.900   9.333   5.148  1.9853 -1.9716 -0.9982
10732SOL     OW33808   4.766   4.003   2.485  0.4028 -0.0974 -0.2890
10732SOL    HW133809   4.795   4.072   2.545  0.5765 -0.0919 -0.3771
10732SOL    HW233810   4.825   3.929   2.503  0.2917 -0.1824 -0.2752
10733SOL     OW33811   4.590   5.278   7.585  0.1993 -0.2210 -0.3467
10733SOL    HW133812   4.554   5.227   7.657  0.2446  1.7064  1.1411
10733SOL    HW233813   4.682   5.291   7.608  0.2928  0.1466 -0.9076
10734SOL     OW33814   8.421   5.029   2.202  0.3107  0.5616 -0.8007
10734SOL    HW133815   8.385   5.118   2.208 -0.4021  0.2406 -0.0585
10734SOL    HW233816   8.345   4.972   2.215  1.1704 -0.1309  1.7292
10735SOL     OW33817   7.859   3.402   5.968 -0.4012  0.7420  0.2948
10735SOL    HW133818   7.814   3.428   5.887 -1.2030  0.3514  0.5997
10735SOL    HW233819   7.821   3.317   5.989  1.0832  0.0117  0.1250
10736SOL     OW33820   0.006   1.373   5.967  0.3244  0.5187  0.2110
10736SOL    HW133821   0.073   1.310   5.992  2.5641  1.9812 -1.6159
10736SOL    HW233822   0.006   1.437   6.039 -0.5028 -0.4301  1.0933
10737SOL     OW33823   4.238   4.125   4.864  0.0764  0.1422  0.7564
10737SOL    HW133824   4.164   4.169   4.822  0.0356 -0.6372 -0.0359
10737SOL    HW233825   4.307   4.191   4.866  0.0131  0.2784 -0.3884
10738SOL     OW33826   8.687   7.875   7.711 -0.1471  0.2257  0.7718
10738SOL    HW133827   8.753   7.941   7.688 -1.2813  1.3662  0.7060
10738SOL    HW233828   8.686   7.816   7.636 -0.7908  1.5034 -0.2699
10739SOL     OW33829   1.841   5.951   8.774  0.1544  0.0784  0.1094
10739SOL    HW133830   1.794   5.885   8.824 -0.2418  0.4786  0.2685
10739SOL    HW233831   1.933   5.939   8.800  0.3222 -1.4821 -1.0912
10740SOL     OW33832   7.386   6.632   8.005 -0.2773 -0.4261 -0.4719
10740SOL    HW133833   7.475   6.641   8.039 -0.1350 -0.6616 -0.7814
10740SOL    HW233834   7.349   6.560   8.055 -1.0659  1.0899  1.2642
10741SOL     OW33835   4.666   3.166   1.148  0.1916  0.4170 -0.3421
10741SOL    HW133836   4.607   3.234   1.182  1.5753  1.9884 -0.9485
10741SOL    HW233837   4.752   3.190   1.181  0.4484 -2.4352  1.3959
10742SOL     OW33838   0.272   6.981   7.819 -0.0624  0.2729 -0.0248
10742SOL    HW133839   0.239   6.962   7.732  1.0043 -0.1690 -0.3505
10742SOL    HW233840   0.278   7.076   7.823 -0.9831  0.3423 -0.0892
10743SOL     OW33841   8.206   3.867   6.832 -0.4922 -0.7379 -0.3142
10743SOL    HW133842   8.300   3.852   6.820 -0.5129 -0.1997 -1.2822
10743SOL    HW233843   8.166   3.836   6.750 -0.8712  1.3418 -0.9883
10744SOL     OW33844   0.132   6.077   8.465 -0.3574 -1.1098 -0.0567
10744SOL    HW133845   0.043   6.055   8.435 -0.4166 -2.2673  0.8767
10744SOL    HW233846   0.118   6.124   8.547 -0.1147 -1.1431  0.0023
10745SOL     OW33847   5.595   9.461   5.795  0.4968  0.7099  0.2852
10745SOL    HW133848   5.568   9.521   5.725 -2.6297  0.5496  1.1784
10745SOL    HW233849   5.560   9.500   5.875  2.7220  0.1416  1.6076
10746SOL     OW33850   6.819   2.483   2.565  0.2220  0.0182 -0.6174
10746SOL    HW133851   6.911   2.486   2.540  0.3739  1.7394 -0.0156
10746SOL    HW233852   6.820   2.456   2.657  0.2112  0.8426 -0.3636
10747SOL     OW33853   7.138   7.680   9.239 -0.1442  0.1183 -0.0744
10747SOL    HW133854   7.060   7.733   9.222  0.5123  2.3004  2.8067
10747SOL    HW233855   7.202   7.709   9.173 -0.6159  1.0985 -0.1153
10748SOL     OW33856   9.649   6.986   4.412  0.1832 -0.5875  0.4069
10748SOL    HW133857   9.727   6.956   4.365  0.0918 -0.0333 -0.1134
10748SOL    HW233858   9.608   6.906   4.445  0.4830 -0.9541 -0.1035
10749SOL     OW33859   4.028   9.349   0.820 -0.4373 -0.0061  0.4362
10749SOL    HW133860   3.980   9.415   0.771 -1.1646  0.0504  1.2005
10749SOL    HW233861   4.063   9.398   0.895 -0.5414 -0.3794  0.7277
10750SOL     OW33862   7.116   4.130   5.944 -0.1495 -0.2815  0.0443
10750SOL    HW133863   7.177   4.057   5.934 -0.2095 -0.4157  0.6448
10750SOL    HW233864   7.029   4.091   5.928 -0.1100 -0.1458 -0.5412
10751SOL     OW33865   5.079   9.384   7.180  0.1222 -0.6002  0.3166
10751SOL    HW133866   5.006   9.342   7.225 -0.7949 -0.6041 -1.1123
10751SOL    HW233867   5.045   9.470   7.154  0.4143 -0.8345 -0.8771
10752SOL     OW33868   1.471   6.137   1.791 -0.0082 -0.3428  0.2840
10752SOL    HW133869   1.481   6.107   1.882 -0.7392  0.1635  0.5473
10752SOL    HW233870   1.474   6.232   1.797 -0.8288 -0.2830 -0.1172
10753SOL     OW33871   3.972   0.257   5.825  0.1096  0.6510 -0.0710
10753SOL    HW133872   3.955   0.336   5.877 -0.7868  1.6916 -1.8360
10753SOL    HW233873   3.904   0.258   5.757  1.3029 -0.5318 -1.3478
10754SOL     OW33874   3.716   1.990   1.897  0.3156 -0.0035  0.0635
10754SOL    HW133875   3.691   2.067   1.948  1.1139 -0.3943  1.0673
10754SOL    HW233876   3.786   2.020   1.839 -0.8460  0.5335 -1.1203
10755SOL     OW33877   5.767   2.132   7.136 -0.4949 -0.0632  0.1984
10755SOL    HW133878   5.759   2.199   7.069  1.3973  0.4258  0.4034
10755SOL    HW233879   5.794   2.054   7.089 -2.6547 -0.7489 -0.0346
10756SOL     OW33880   0.034   9.088   2.240  0.0973  0.2835 -0.0377
10756SOL    HW133881   0.029   9.171   2.288  1.9021  0.5292 -0.2204
10756SOL    HW233882   0.011   9.110   2.150 -0.0148  0.4574  0.0329
10757SOL     OW33883   1.121   6.299   5.994  0.3918 -0.2942  0.0935
10757SOL    HW133884   1.081   6.378   6.030 -0.6400 -1.1414  0.8724
10757SOL    HW233885   1.164   6.257   6.069 -0.2705 -1.1780 -0.0026
10758SOL     OW33886   2.111   5.761   5.483  0.2315  0.2282  0.1009
10758SOL    HW133887   2.079   5.675   5.454 -1.6936  1.4651 -1.7773
10758SOL    HW233888   2.051   5.786   5.554  1.0596 -0.1319  0.9437
10759SOL     OW33889   5.296   3.770   1.925 -0.0085  0.2548  0.1925
10759SOL    HW133890   5.283   3.857   1.887 -1.8883 -0.9174 -2.1602
10759SOL    HW233891   5.211   3.748   1.963 -1.1336 -2.2276 -3.2835
10760SOL     OW33892   3.472   0.163   6.471  0.6727 -0.0735 -0.7771
10760SOL    HW133893   3.514   0.190   6.390  0.9000  0.6160 -0.4394
10760SOL    HW233894   3.424   0.083   6.448  0.5581  0.2320 -1.6334
10761SOL     OW33895   2.740   8.176   8.128 -0.4709 -0.7297 -0.2354
10761SOL    HW133896   2.762   8.178   8.035 -0.8290 -1.5363 -0.3462
10761SOL    HW233897   2.812   8.127   8.168 -0.8957 -1.3934 -0.2670
10762SOL     OW33898   5.301   2.361   9.080 -0.2851  0.6806  0.3064
10762SOL    HW133899   5.292   2.347   8.986  1.6081 -1.0436  0.3161
10762SOL    HW233900   5.298   2.456   9.091  3.8064  1.2994 -2.0673
10763SOL     OW33901   1.591   5.955   0.589 -0.4574 -0.0432 -0.3149
10763SOL    HW133902   1.503   5.930   0.617  0.4803 -1.7759  1.3895
10763SOL    HW233903   1.637   5.872   0.576  0.9353  0.8112 -1.1584
10764SOL     OW33904   8.252   2.287   8.049 -0.0543  0.2258 -0.1920
10764SOL    HW133905   8.228   2.328   7.966 -1.0550  0.6246  0.2752
10764SOL    HW233906   8.335   2.242   8.031 -0.3444  0.1647 -1.4367
10765SOL     OW33907   9.042   8.547   4.824  0.0307  0.6015  0.0914
10765SOL    HW133908   9.042   8.475   4.886  1.2621 -0.3277 -0.9240
10765SOL    HW233909   9.106   8.609   4.858  0.9911 -0.0885 -0.4209
10766SOL     OW33910   3.400   8.649   8.530  0.4127 -0.4030 -0.1356
10766SOL    HW133911   3.422   8.556   8.541  2.1519  0.1075  1.1678
10766SOL    HW233912   3.394   8.661   8.435  3.6796 -1.1914 -0.5852
10767SOL     OW33913   9.620   9.348   0.766 -0.7146 -0.2012 -0.0900
10767SOL    HW133914   9.689   9.410   0.742 -0.9048 -0.1291 -0.4737
10767SOL    HW233915   9.582   9.383   0.846 -1.8678  1.0600 -1.1384
10768SOL     OW33916   1.933   2.494   4.711 -0.4272  0.8577  0.2446
10768SOL    HW133917   2.005   2.455   4.661  0.1633  3.3141 -1.0229
10768SOL    HW233918   1.948   2.589   4.703 -2.5898  1.4042  1.8129
10769SOL     OW33919   4.064   3.108   4.792  0.1304  0.1237 -0.0785
10769SOL    HW133920   4.070   3.203   4.785  3.3685  0.0674  0.6394
10769SOL    HW233921   4.006   3.082   4.721  0.1543  2.5351 -1.0444
10770SOL     OW33922   1.961   0.102   8.704  0.3462  0.4351  0.1583
10770SOL    HW133923   1.889   0.158   8.674 -1.5436 -1.6360  0.5001
10770SOL    HW233924   1.918   0.035   8.758  2.7746  0.0110  1.7175
10771SOL     OW33925   0.086   5.586   8.416 -0.1600  0.2748 -0.1602
10771SOL    HW133926   0.155   5.645   8.448 -1.7049 -0.0909  4.6106
10771SOL    HW233927   0.019   5.644   8.381  0.1665  1.0269  0.4372
10772SOL     OW33928   6.931   7.685   3.099  0.1892 -0.2755 -0.2662
10772SOL    HW133929   6.915   7.748   3.169  0.8105 -1.4824  1.0169
10772SOL    HW233930   6.951   7.739   3.022  2.7434  1.1656  1.2312
10773SOL     OW33931   9.230   5.329   8.405 -0.5764  0.5447  0.0921
10773SOL    HW133932   9.260   5.391   8.339  1.1030 -1.3432 -1.0285
10773SOL    HW233933   9.154   5.287   8.366  1.0499 -1.3528 -1.2669
10774SOL     OW33934   5.108   4.075   3.725 -0.1722  0.9245  0.1915
10774SOL    HW133935   5.121   3.993   3.677 -1.5619 -0.2307  1.6926
10774SOL    HW233936   5.193   4.095   3.763  0.0902 -0.0045  0.0990
10775SOL     OW33937   1.580   6.953   3.499  0.3521 -0.5553  0.2867
10775SOL    HW133938   1.592   7.040   3.536 -0.5713  0.0692 -0.8162
10775SOL    HW233939   1.626   6.956   3.415 -2.2921  0.0002 -1.2834
10776SOL     OW33940   2.400   9.831   5.837 -0.0949 -0.2280  0.6763
10776SOL    HW133941   2.318   9.783   5.832 -1.1176  1.3120  1.7194
10776SOL    HW233942   2.379   9.918   5.804  1.0451  0.2634  1.1947
10777SOL     OW33943   2.120   1.170   8.753 -0.0079  0.1829 -0.2663
10777SOL    HW133944   2.159   1.158   8.667 -1.8256  0.1043 -1.1234
10777SOL    HW233945   2.121   1.082   8.792  0.5990  0.1752 -0.2903
10778SOL     OW33946   1.287   5.494   3.630 -0.1046 -0.1358  0.7796
10778SOL    HW133947   1.290   5.590   3.629  0.0253 -0.1239 -1.3578
10778SOL    HW233948   1.378   5.467   3.619  0.0402 -0.5692  2.6563
10779SOL     OW33949   4.094   4.607   5.978  0.2547 -0.3501  0.2889
10779SOL    HW133950   4.181   4.637   5.951 -0.1690 -1.9787 -3.6153
10779SOL    HW233951   4.101   4.511   5.977 -1.5960 -0.5088 -0.2542
10780SOL     OW33952   0.033   0.391   9.055 -0.0519 -0.4108  0.1291
10780SOL    HW133953   0.063   0.426   9.139 -0.0151 -0.3293  0.0818
10780SOL    HW233954   0.051   0.297   9.061  1.3007 -0.2002 -0.3584
10781SOL     OW33955   3.692   2.094   8.665  0.5263  0.1000  0.2947
10781SOL    HW133956   3.600   2.070   8.681 -0.5251  2.8210 -1.1428
10781SOL    HW233957   3.712   2.055   8.580  0.1185  0.9424 -0.1947
10782SOL     OW33958   2.096   9.111   2.659  0.0743  0.4277  0.0752
10782SOL    HW133959   2.069   9.197   2.692  2.2213  1.1064  0.2160
10782SOL    HW233960   2.145   9.130   2.579 -0.8746 -0.8331 -0.8519
10783SOL     OW33961   6.516   6.770   6.989  0.6376  0.5455 -0.0782
10783SOL    HW133962   6.478   6.751   6.904 -0.3835  0.9612  0.2691
10783SOL    HW233963   6.519   6.865   6.994  1.6413  0.5257 -0.0486
10784SOL     OW33964   3.845   5.599   8.801  0.3859  0.3760 -0.2380
10784SOL    HW133965   3.918   5.656   8.826 -1.4328  1.7325  2.4055
10784SOL    HW233966   3.821   5.554   8.882 -1.5333 -0.2636 -1.1016
10785SOL     OW33967   5.368   7.587   1.050 -0.2898 -0.0932 -0.1883
10785SOL    HW133968   5.443   7.644   1.064 -0.9668  0.5723  0.7310
10785SOL    HW233969   5.301   7.643   1.012 -1.0852 -0.1690  1.0528
10786SOL     OW33970   7.384   9.168   7.829 -0.2614  0.0565 -0.4901
10786SOL    HW133971   7.366   9.144   7.738 -0.4796 -0.4685 -0.3122
10786SOL    HW233972   7.377   9.085   7.878  1.7991 -0.0501 -0.2703
10787SOL     OW33973   6.548   5.029   4.098 -0.2093  0.2368 -0.3376
10787SOL    HW133974   6.619   4.996   4.043 -0.6927  0.7860 -1.3015
10787SOL    HW233975   6.575   5.118   4.122  0.1915 -0.1370  0.6828
10788SOL     OW33976   6.625   6.237   2.198 -0.4337 -0.2140  0.5910
10788SOL    HW133977   6.671   6.155   2.212 -0.4518 -0.5138 -0.9123
10788SOL    HW233978   6.655   6.268   2.112 -1.3002  0.7520  0.6071
10789SOL     OW33979   7.101   5.662   1.389 -0.3185  0.2644 -0.0357
10789SOL    HW133980   7.016   5.683   1.427  0.6743  0.0511  2.5470
10789SOL    HW233981   7.125   5.740   1.339 -0.6868  1.6477  1.8273
10790SOL     OW33982   8.008   7.911   8.830  0.1435  0.3841  0.7892
10790SOL    HW133983   8.065   7.975   8.873  1.1641  0.2006 -0.2402
10790SOL    HW233984   8.026   7.829   8.876  0.6706  0.3425  0.5213
10791SOL     OW33985   7.470   7.947   0.378 -0.1512  0.5475 -0.0353
10791SOL    HW133986   7.397   7.905   0.333 -0.7317  1.0044  0.4630
10791SOL    HW233987   7.548   7.911   0.335 -0.5503 -1.9257  1.1197
10792SOL     OW33988   9.039   9.696   2.367 -0.0272 -0.6375 -0.3472
10792SOL    HW133989   8.985   9.672   2.443 -1.3385 -1.0982 -1.3809
10792SOL    HW233990   9.071   9.783   2.387 -0.0515 -0.8981  0.8960
10793SOL     OW33991   7.859   3.635   6.952 -0.3224  0.3251  0.1698
10793SOL    HW133992   7.862   3.727   6.929  0.7217  0.2498 -0.0323
10793SOL    HW233993   7.868   3.589   6.868  0.3254  0.0497  0.3835
10794SOL     OW33994   7.056   5.990   8.559 -0.2795 -0.3030  0.3614
10794SOL    HW133995   7.117   5.968   8.489  0.3927 -1.0707  1.1593
10794SOL    HW233996   7.016   6.073   8.532 -0.6668 -1.0032 -1.3236
10795SOL     OW33997   9.082   6.146   7.569 -0.2797  0.1204  0.1661
10795SOL    HW133998   9.004   6.146   7.514  0.0121  0.1222 -0.2467
10795SOL    HW233999   9.050   6.177   7.654 -0.2851  2.4877 -0.6366
10796SOL     OW34000   5.244   2.993   2.578  0.5777  0.5574  0.1376
10796SOL    HW134001   5.262   3.029   2.492 -1.1079 -0.2372 -0.6064
10796SOL    HW234002   5.151   3.013   2.593  0.1906 -1.4369  0.6790
10797SOL     OW34003   6.850   8.820   9.395  0.4529  0.2393  0.0193
10797SOL    HW134004   6.798   8.847   9.319 -0.4058  0.5295  0.6869
10797SOL    HW234005   6.801   8.852   9.470 -0.4391 -2.7775  0.8833
10798SOL     OW34006   3.111   7.386   8.285 -0.4723  0.3901  0.2673
10798SOL    HW134007   3.141   7.446   8.217 -0.9659 -0.5839 -0.8433
10798SOL    HW234008   3.028   7.351   8.252 -0.4493 -0.5170  1.1184
10799SOL     OW34009   1.039   6.888   4.008  0.3367 -0.0763  0.1432
10799SOL    HW134010   1.044   6.898   4.103  0.4470 -2.3999  0.4408
10799SOL    HW234011   0.990   6.964   3.978 -0.8122  0.0601  2.2194
10800SOL     OW34012   1.779   5.275   4.250  0.1210  0.0331 -0.6728
10800SOL    HW134013   1.872   5.260   4.269  0.4309  0.3290 -1.8444
10800SOL    HW234014   1.744   5.188   4.231 -0.0413 -0.1804  0.5363
10801SOL     OW34015   8.975   3.706   3.980  0.1212  0.1804 -0.1280
10801SOL    HW134016   8.990   3.713   3.886  1.0973  2.2388  0.1129
10801SOL    HW234017   9.052   3.748   4.019 -0.4351 -0.3235  1.5778
10802SOL     OW34018   5.682   6.236   7.858 -0.1045  0.1611  0.0472
10802SOL    HW134019   5.737   6.312   7.874  1.3575 -1.4376  3.8164
10802SOL    HW234020   5.723   6.165   7.907 -3.0354 -2.3413 -0.7474
10803SOL     OW34021   8.484   5.919   2.619  0.1080  1.1445 -0.4841
10803SOL    HW134022   8.389   5.930   2.617  0.0447  0.8148  0.4685
10803SOL    HW234023   8.515   5.984   2.681  0.3677  0.3589  0.2236
10804SOL     OW34024   9.437   8.368   2.494  0.3693 -0.0459 -0.2733
10804SOL    HW134025   9.496   8.405   2.428  0.2365 -0.6289 -0.7218
10804SOL    HW234026   9.422   8.440   2.555  2.0881 -0.0644  0.2359
10805SOL     OW34027   8.677   0.722   4.125 -0.6535  0.4849 -0.4518
10805SOL    HW134028   8.772   0.737   4.125 -0.4732 -0.5357  0.6420
10805SOL    HW234029   8.662   0.664   4.051 -0.3051 -0.0104 -0.1388
10806SOL     OW34030   8.921   4.405   7.559 -0.1585 -0.1199  0.9301
10806SOL    HW134031   8.872   4.419   7.640  1.3438 -2.0801  2.2643
10806SOL    HW234032   8.955   4.316   7.566  2.0553  0.4933 -0.7462
10807SOL     OW34033   7.703   2.993   3.073 -0.2888 -0.4307  0.4537
10807SOL    HW134034   7.657   2.910   3.084 -0.7294 -0.3283 -0.4842
10807SOL    HW234035   7.742   3.011   3.158  2.0416 -2.8845  0.0412
10808SOL     OW34036   1.010   7.905   3.553  0.6605  0.0986 -0.1453
10808SOL    HW134037   0.972   7.915   3.640  2.1355  0.2585  0.5081
10808SOL    HW234038   1.096   7.865   3.568 -0.1864 -2.5563 -1.7688
10809SOL     OW34039   7.230   6.576   6.158  0.3024  0.2073 -0.1771
10809SOL    HW134040   7.177   6.502   6.187 -0.3027  0.6801 -0.0395
10809SOL    HW234041   7.187   6.653   6.196  1.3372  0.5765  0.2869
10810SOL     OW34042   1.232   4.114   5.840 -0.3946 -0.5383 -0.2246
10810SOL    HW134043   1.324   4.132   5.819 -0.6054 -0.2960 -0.9716
10810SOL    HW234044   1.203   4.192   5.888  0.5219 -1.7373  2.4951
10811SOL     OW34045   7.605   5.679   8.045  0.4053  0.0628 -0.7305
10811SOL    HW134046   7.556   5.607   8.005  0.7606  0.2605 -1.5463
10811SOL    HW234047   7.538   5.733   8.088  0.2340 -1.3385  0.8878
10812SOL     OW34048   1.539   7.647   2.085  0.0621  0.2787 -0.0938
10812SOL    HW134049   1.585   7.663   2.167 -0.1921  0.9177 -0.0666
10812SOL    HW234050   1.459   7.700   2.092  0.5207  1.1589 -1.1572
10813SOL     OW34051   4.959   0.834   8.514 -0.1527  0.5717 -0.2005
10813SOL    HW134052   4.997   0.917   8.543 -0.1048  0.1818  0.9098
10813SOL    HW234053   4.871   0.857   8.486 -0.5782  0.8211  1.2687
10814SOL     OW34054   0.053   0.415   2.374  0.2932  0.1757  0.0149
10814SOL    HW134055   0.138   0.440   2.409  0.7882 -1.1913 -0.1493
10814SOL    HW234056   0.071   0.388   2.284 -0.2378 -0.5769  0.1306
10815SOL     OW34057   7.231   6.400   7.719 -0.7040 -0.7589 -0.4460
10815SOL    HW134058   7.147   6.356   7.729 -1.0851 -0.5544 -2.3659
10815SOL    HW234059   7.294   6.343   7.762 -1.8958 -0.4856  1.8299
10816SOL     OW34060   5.168   7.376   3.819  0.6122 -0.1149 -0.7686
10816SOL    HW134061   5.158   7.314   3.892 -1.6358  3.1442  1.9520
10816SOL    HW234062   5.097   7.353   3.759 -1.2074  0.6347  0.9747
10817SOL     OW34063   0.904   4.355   1.510  0.1929 -0.0455  0.4212
10817SOL    HW134064   0.972   4.308   1.557  1.2402  1.2121  0.1842
10817SOL    HW234065   0.892   4.436   1.558 -1.1246 -0.2170  0.4285
10818SOL     OW34066   3.521   9.298   8.204 -0.3061  0.1541  0.7435
10818SOL    HW134067   3.430   9.267   8.204 -0.4111  0.2131 -1.7710
10818SOL    HW234068   3.513   9.393   8.200 -0.1473  0.1617  0.6117
10819SOL     OW34069   2.711   4.914   9.147 -0.1556 -0.6754  0.4158
10819SOL    HW134070   2.701   5.009   9.154  2.3579 -0.3078  0.1338
10819SOL    HW234071   2.630   4.884   9.106 -1.3675  1.2202  1.2795
10820SOL     OW34072   9.266   0.275   3.933  0.2295  0.7013  0.0319
10820SOL    HW134073   9.227   0.252   3.848 -1.0776  0.8044  0.5776
10820SOL    HW234074   9.203   0.337   3.971  0.5362  0.2457  1.3001
10821SOL     OW34075   7.263   6.429   5.293 -0.3067  0.0260 -0.1114
10821SOL    HW134076   7.319   6.355   5.270 -1.9008 -1.0015 -0.9815
10821SOL    HW234077   7.190   6.422   5.231 -1.4450  1.2113  1.0451
10822SOL     OW34078   0.547   7.573   9.520  0.3476  0.4352  0.1016
10822SOL    HW134079   0.572   7.615   9.603  2.4216 -1.3253  0.4521
10822SOL    HW234080   0.478   7.511   9.544  0.1250  0.7453  0.2781
10823SOL     OW34081   5.645   1.696   7.343  0.4699  0.2764  0.1619
10823SOL    HW134082   5.735   1.683   7.371  0.1137 -0.4110  1.0609
10823SOL    HW234083   5.616   1.608   7.317  0.7307  0.8581 -2.2730
10824SOL     OW34084   5.102   4.928   4.868  0.0132 -0.6702  0.2888
10824SOL    HW134085   5.091   4.968   4.781  0.0535  2.1386  1.4798
10824SOL    HW234086   5.013   4.915   4.900 -0.0208  1.0121  0.9452
10825SOL     OW34087   1.645   0.073   7.067 -0.0285 -0.6957  0.2108
10825SOL    HW134088   1.574   0.078   7.131 -0.6368  0.4209 -0.5081
10825SOL    HW234089   1.712   0.132   7.101 -0.6711  0.5014 -0.5203
10826SOL     OW34090   8.056   7.749   7.822  0.2149  0.0220 -0.0369
10826SOL    HW134091   8.096   7.681   7.767  0.9101  0.0956  0.3680
10826SOL    HW234092   7.991   7.702   7.874 -0.2560 -0.0978 -0.7105
10827SOL     OW34093   5.810   6.031   9.128 -0.0385 -0.7299  0.3547
10827SOL    HW134094   5.821   6.033   9.223  0.1884 -4.8285  0.5688
10827SOL    HW234095   5.724   6.073   9.113 -0.2270 -0.3032  2.3605
10828SOL     OW34096   5.736   9.721   0.527 -0.4451 -0.3650  0.0262
10828SOL    HW134097   5.651   9.692   0.494 -0.8284 -1.0344  1.5039
10828SOL    HW234098   5.760   9.655   0.592  0.4894  0.6124  0.7079
10829SOL     OW34099   9.755   7.895   5.415 -0.6935  0.4480  0.4108
10829SOL    HW134100   9.711   7.875   5.333  1.1649  0.1184 -0.5692
10829SOL    HW234101   9.713   7.974   5.447  0.1648  2.0910 -2.1950
10830SOL     OW34102   8.801   9.781   8.830 -0.2795 -0.3718  0.1094
10830SOL    HW134103   8.818   9.687   8.834  2.0951  0.0376  1.2524
10830SOL    HW234104   8.773   9.804   8.918 -0.2273  0.1066  0.0023
10831SOL     OW34105   4.768   5.596   6.244  0.0923  0.2776 -0.1936
10831SOL    HW134106   4.801   5.515   6.206 -0.1347 -0.1066  0.4121
10831SOL    HW234107   4.822   5.611   6.322 -0.8966 -0.1766  0.6117
10832SOL     OW34108   5.196   5.797   0.968 -0.4083  0.1751  0.5879
10832SOL    HW134109   5.249   5.814   1.046 -1.5537  1.7589  1.0804
10832SOL    HW234110   5.138   5.725   0.994 -0.9022  0.8090  1.2777
10833SOL     OW34111   3.334   7.710   3.387 -0.0070 -0.1213  0.3989
10833SOL    HW134112   3.297   7.792   3.419  0.2883  0.0132  0.4000
10833SOL    HW234113   3.291   7.695   3.303 -0.4142 -0.2159  0.6218
10834SOL     OW34114   8.729   7.633   1.406  0.4298 -0.4143  0.2903
10834SOL    HW134115   8.636   7.615   1.418  0.5095 -1.3456 -0.3995
10834SOL    HW234116   8.766   7.631   1.495  0.2613 -2.8355  0.3740
10835SOL     OW34117   7.189   5.977   3.706  0.0007  0.0466  0.3075
10835SOL    HW134118   7.267   6.016   3.745  0.1991 -1.0374  1.0550
10835SOL    HW234119   7.124   5.980   3.775 -0.5045  0.5948 -0.1889
10836SOL     OW34120   0.749   4.065   8.564  0.0298  0.0834  0.1094
10836SOL    HW134121   0.700   4.137   8.603  0.5702  0.7639 -0.4389
10836SOL    HW234122   0.721   3.988   8.612  0.7393  0.8909  1.9038
10837SOL     OW34123   8.378   2.326   7.729  0.3687  0.2403  0.4106
10837SOL    HW134124   8.443   2.344   7.661  1.0205  1.6238  1.3366
10837SOL    HW234125   8.373   2.231   7.733  1.6684  0.1135 -0.3226
10838SOL     OW34126   2.737   6.913   6.359 -0.0587  0.1168 -0.1874
10838SOL    HW134127   2.739   6.985   6.296  1.9576  0.1625 -0.1283
10838SOL    HW234128   2.736   6.834   6.305  2.5017  0.1319 -0.3900
10839SOL     OW34129   0.032   1.353   2.946  0.1208 -0.1209 -0.3812
10839SOL    HW134130  -0.062   1.373   2.950 -0.1322 -1.3295  0.0394
10839SOL    HW234131   0.045   1.286   3.012  1.3962  0.3990 -0.0793
10840SOL     OW34132   1.845   2.725   7.166 -0.0340 -0.3486  0.0033
10840SOL    HW134133   1.781   2.678   7.113 -1.0795 -0.7554  1.5611
10840SOL    HW234134   1.802   2.737   7.251  1.6549  0.1032  0.8403
10841SOL     OW34135   4.139   7.569   5.787  0.5723 -0.0950 -0.0097
10841SOL    HW134136   4.125   7.660   5.814 -2.0840 -0.6449  0.7945
10841SOL    HW234137   4.178   7.575   5.700  1.2789  1.7874  0.3932
10842SOL     OW34138   0.042   0.671   1.536  0.3542 -0.2957 -0.5935
10842SOL    HW134139   0.034   0.611   1.462  1.4159 -1.7645  0.4186
10842SOL    HW234140   0.128   0.711   1.525  0.2369 -0.0143 -0.5004
10843SOL     OW34141   4.464   5.062   6.594  0.2482  0.4157 -0.1088
10843SOL    HW134142   4.397   5.023   6.650  1.3644 -1.0113  0.2768
10843SOL    HW234143   4.487   5.144   6.638 -1.9933  1.5473 -0.8383
10844SOL     OW34144   0.594   1.449   1.968 -0.0608  0.2286 -0.2169
10844SOL    HW134145   0.548   1.489   2.041 -1.7189 -0.0370 -1.0655
10844SOL    HW234146   0.650   1.383   2.007 -1.1043 -0.0830  0.7873
10845SOL     OW34147   4.902   7.345   9.733  0.2168  0.2821 -0.0045
10845SOL    HW134148   4.859   7.261   9.716 -1.9507  1.1576  0.8083
10845SOL    HW234149   4.945   7.367   9.650  0.2609 -1.2833 -0.4363
10846SOL     OW34150   5.465   2.792   8.552 -0.3117 -0.7270 -0.1387
10846SOL    HW134151   5.369   2.785   8.550 -0.3658 -1.3995  2.2183
10846SOL    HW234152   5.483   2.882   8.524 -1.7957  0.1142  1.4362
10847SOL     OW34153   5.233   9.621   1.073  0.4262 -0.1969  0.0268
10847SOL    HW134154   5.243   9.710   1.106 -2.0207  0.6384 -1.2792
10847SOL    HW234155   5.282   9.620   0.991 -2.2785  1.1111 -1.7441
10848SOL     OW34156   0.630   4.549   2.672 -0.8025 -0.6476  0.7657
10848SOL    HW134157   0.542   4.510   2.664 -1.6332  0.9913  1.5032
10848SOL    HW234158   0.619   4.638   2.638  1.1207 -1.0902 -1.1985
10849SOL     OW34159   9.348   8.242   4.812 -0.5665 -0.2439 -0.1532
10849SOL    HW134160   9.264   8.267   4.774 -1.0785  0.1253  1.1683
10849SOL    HW234161   9.356   8.297   4.890  1.1645  0.1236 -0.5599
10850SOL     OW34162   8.245   5.978   4.141 -0.0695  0.3245 -0.0988
10850SOL    HW134163   8.150   5.978   4.128 -0.4766  0.1304  2.3942
10850SOL    HW234164   8.264   5.892   4.177  1.3962 -0.3386 -2.2736
10851SOL     OW34165   5.270   7.789   7.490 -0.4513 -0.3019 -0.3393
10851SOL    HW134166   5.308   7.703   7.507 -0.7580 -0.0129  2.1723
10851SOL    HW234167   5.220   7.778   7.409 -0.7886 -2.5994  0.1169
10852SOL     OW34168   4.425   3.504   0.934 -0.2655 -0.0771 -0.1879
10852SOL    HW134169   4.452   3.580   0.986 -0.4555  0.8732 -1.4480
10852SOL    HW234170   4.409   3.539   0.847  1.0557 -1.8258 -1.1861
10853SOL     OW34171   2.386   5.496   9.188  0.0341  0.4285  0.0481
10853SOL    HW134172   2.367   5.526   9.277 -1.4791  1.8021 -0.6990
10853SOL    HW234173   2.481   5.507   9.180  0.0329  1.4716  1.0821
10854SOL     OW34174   0.045   0.158   1.399 -0.0241 -0.9110 -0.3563
10854SOL    HW134175   0.017   0.067   1.391 -0.0272 -1.5913  4.3175
10854SOL    HW234176   0.140   0.155   1.396 -0.0458 -0.9183 -1.0938
10855SOL     OW34177   7.817   1.408   7.748 -0.1764 -0.5092 -0.0953
10855SOL    HW134178   7.811   1.384   7.656  2.0666  0.7670 -0.6356
10855SOL    HW234179   7.759   1.484   7.758  1.2815  0.7704 -1.0306
10856SOL     OW34180   8.470   1.398   6.375 -0.0864 -0.7428 -0.2437
10856SOL    HW134181   8.453   1.305   6.360  1.2776 -1.4465  2.1887
10856SOL    HW234182   8.565   1.404   6.385 -0.2728  0.6703  0.9967
10857SOL     OW34183   5.350   9.357   5.667 -0.0523  0.3227 -0.1816
10857SOL    HW134184   5.431   9.311   5.690  0.2758  0.1357 -1.6533
10857SOL    HW234185   5.363   9.446   5.701  0.1418 -0.0944  0.8925
10858SOL     OW34186   9.353   8.613   2.264  0.6531  0.2201  0.0888
10858SOL    HW134187   9.354   8.524   2.229 -4.5538 -0.4269  0.7696
10858SOL    HW234188   9.315   8.666   2.195  1.0280  1.3621  0.7278
10859SOL     OW34189   6.097   6.710   2.281  0.3670 -0.0911  0.1633
10859SOL    HW134190   6.079   6.777   2.215 -0.2058 -1.1784 -0.8094
10859SOL    HW234191   6.145   6.757   2.349 -0.4277  1.4148 -0.2621
10860SOL     OW34192   0.932   0.066   3.507 -0.3663  0.0458  0.1854
10860SOL    HW134193   0.890   0.079   3.592 -1.4358  1.3941 -0.5136
10860SOL    HW234194   0.900   0.138   3.453 -1.3068 -1.8933 -1.9823
10861SOL     OW34195   1.864   2.943   3.751  0.2502 -0.2004 -0.4869
10861SOL    HW134196   1.922   2.871   3.778 -0.3321 -1.3745 -2.1779
10861SOL    HW234197   1.895   2.967   3.664 -0.0538  1.1054 -0.2540
10862SOL     OW34198   3.301   9.128   0.648  0.2157  0.4590  0.1587
10862SOL    HW134199   3.350   9.209   0.655 -1.4006  1.4871  0.0982
10862SOL    HW234200   3.337   9.072   0.717  0.5643  1.6649  0.9829
10863SOL     OW34201   4.985   9.253   6.028  0.4006  0.2438 -0.1642
10863SOL    HW134202   4.968   9.171   5.981  2.3097 -0.3365  0.0880
10863SOL    HW234203   4.934   9.318   5.980  0.2409 -0.7723 -1.4537
10864SOL     OW34204   9.370   4.720   0.395 -0.4357  0.1430 -0.2441
10864SOL    HW134205   9.387   4.810   0.423  1.0034 -0.4863  1.1150
10864SOL    HW234206   9.308   4.686   0.460 -2.5210  0.6665 -1.8486
10865SOL     OW34207   0.528   7.461   8.993 -0.6874  0.7265 -0.1595
10865SOL    HW134208   0.435   7.441   8.986 -1.0213  2.7845 -2.6807
10865SOL    HW234209   0.562   7.451   8.904  1.7962 -0.9220  0.8375
10866SOL     OW34210   1.462   0.818   1.396 -0.3929  0.3606  0.0396
10866SOL    HW134211   1.448   0.723   1.397 -0.4081  0.3333 -1.0057
10866SOL    HW234212   1.394   0.853   1.453  0.0620 -0.3001  1.0057
10867SOL     OW34213   2.089   8.656   4.225  0.5307  0.5898  0.3280
10867SOL    HW134214   2.012   8.602   4.241  0.3095  0.4768 -0.9555
10867SOL    HW234215   2.064   8.743   4.258 -0.9755  1.0691 -1.8437
10868SOL     OW34216   2.982   7.854   6.586  0.6734 -0.2043 -0.1079
10868SOL    HW134217   2.935   7.937   6.575 -0.7513 -0.5848  2.3775
10868SOL    HW234218   3.012   7.831   6.497 -0.9877  1.7227 -1.2462
10869SOL     OW34219   0.369   4.275   6.409  0.2431  0.2929  0.1147
10869SOL    HW134220   0.308   4.205   6.385  1.8604 -1.1981  0.1583
10869SOL    HW234221   0.397   4.253   6.498 -0.3643  1.8738  0.7336
10870SOL     OW34222   6.350   3.640   6.947  0.1873  0.0029 -0.5258
10870SOL    HW134223   6.267   3.668   6.910 -0.3144 -1.3915 -0.5024
10870SOL    HW234224   6.365   3.700   7.021 -0.7064  0.3543 -0.6194
10871SOL     OW34225   8.892   3.115   0.571  0.0429  0.1016 -0.1563
10871SOL    HW134226   8.886   3.147   0.481 -3.8644 -1.2657 -0.6109
10871SOL    HW234227   8.833   3.172   0.620  1.6592  0.4436  1.4801
10872SOL     OW34228   5.393   9.376   4.204 -0.0574 -0.1268 -0.4873
10872SOL    HW134229   5.347   9.299   4.238 -1.8208  0.8205 -0.5846
10872SOL    HW234230   5.441   9.411   4.280 -0.7508 -0.2932  0.0439
10873SOL     OW34231   6.962   8.716   8.002  0.3020 -0.3464 -0.0649
10873SOL    HW134232   6.995   8.799   7.966  0.2517 -0.2622  0.0848
10873SOL    HW234233   6.868   8.729   8.009  0.4786  0.2251  1.6161
10874SOL     OW34234   1.475   9.353   5.227  0.2511  0.1333  0.3836
10874SOL    HW134235   1.393   9.385   5.263  0.5503  0.2379  0.9788
10874SOL    HW234236   1.519   9.430   5.192 -1.0258 -0.2403 -2.2898
10875SOL     OW34237   5.301   9.219   5.429  0.1932 -0.0161  0.7799
10875SOL    HW134238   5.391   9.206   5.400 -0.0695  1.2828 -0.7513
10875SOL    HW234239   5.307   9.282   5.501  0.4105  1.4238 -0.4559
10876SOL     OW34240   9.450   2.338   6.094  0.2856  0.6742  0.2422
10876SOL    HW134241   9.420   2.266   6.149  1.0893  0.5537  0.5347
10876SOL    HW234242   9.375   2.397   6.089 -0.0333  0.3360  0.8787
10877SOL     OW34243   3.451   7.758   3.121 -0.2483  0.2024  0.0189
10877SOL    HW134244   3.505   7.735   3.046 -1.6905 -0.1500 -0.9490
10877SOL    HW234245   3.493   7.715   3.195  1.5973  1.1422 -0.4319
10878SOL     OW34246   5.717   7.813   2.651  0.5670 -0.1084  0.0548
10878SOL    HW134247   5.764   7.739   2.613  2.1065 -0.9169  3.2366
10878SOL    HW234248   5.625   7.792   2.639  0.9793 -2.0862  0.0242
10879SOL     OW34249   0.262   0.898   7.607 -0.0031 -0.6102  0.1179
10879SOL    HW134250   0.249   0.977   7.555  1.7956 -0.4611 -0.1592
10879SOL    HW234251   0.173   0.862   7.618 -0.6261  0.2958 -1.5371
10880SOL     OW34252   9.054   6.380   0.741  0.2911 -0.1074  0.2594
10880SOL    HW134253   9.027   6.428   0.663  0.2793  1.0830  0.9794
10880SOL    HW234254   9.022   6.432   0.814  1.0174 -0.7761  1.0760
10881SOL     OW34255   5.727   6.059   0.890  0.6560  0.0597 -0.2892
10881SOL    HW134256   5.706   5.968   0.911  0.0178 -0.1386 -1.7080
10881SOL    HW234257   5.811   6.054   0.844 -0.1170  0.0076 -1.7306
10882SOL     OW34258   1.947   4.927   5.603 -0.4003 -0.7018  0.3048
10882SOL    HW134259   1.931   4.869   5.529 -0.8439 -2.8531  1.9999
10882SOL    HW234260   1.875   4.990   5.600 -0.2544 -0.5671 -1.2186
10883SOL     OW34261   8.327   6.891   6.491  0.2617 -0.3170 -0.1141
10883SOL    HW134262   8.281   6.912   6.410 -0.5464  2.5558  0.9609
10883SOL    HW234263   8.264   6.840   6.542 -1.8406  3.1361  1.1292
10884SOL     OW34264   5.314   3.963   7.143 -0.1904 -0.1014 -0.2582
10884SOL    HW134265   5.220   3.943   7.136 -0.2458  0.3037 -0.7852
10884SOL    HW234266   5.341   3.925   7.227 -0.1623 -2.8190 -1.3894
10885SOL     OW34267   6.265   5.025   1.857  0.0214 -0.6267 -0.5179
10885SOL    HW134268   6.202   4.966   1.815  1.1096 -0.5537 -2.3508
10885SOL    HW234269   6.240   5.112   1.827 -0.1254 -0.3813  0.2760
10886SOL     OW34270   1.343   7.154   6.402  0.2534 -0.0537  0.5459
10886SOL    HW134271   1.354   7.222   6.468  2.3251  0.8920 -0.6697
10886SOL    HW234272   1.255   7.167   6.368 -0.4215  0.1679  2.2781
10887SOL     OW34273   9.217   3.251   6.325 -0.0816  0.2226  0.2108
10887SOL    HW134274   9.229   3.332   6.276  2.1123  0.7837  1.5202
10887SOL    HW234275   9.162   3.276   6.399  1.9477  1.0324  1.5441
10888SOL     OW34276   5.984   8.215   1.369 -0.0043  0.4528  0.2149
10888SOL    HW134277   5.916   8.248   1.428 -0.7434 -1.4945  0.5445
10888SOL    HW234278   5.969   8.261   1.286 -0.3093  1.6504  0.9054
10889SOL     OW34279   8.480   4.827   8.950 -0.4461 -0.0477  0.0476
10889SOL    HW134280   8.567   4.837   8.990 -0.6861  0.7030  0.4060
10889SOL    HW234281   8.447   4.917   8.943 -0.9148 -0.2718 -0.7249
10890SOL     OW34282   5.397   5.904   1.694  0.1307 -0.0934 -0.2790
10890SOL    HW134283   5.458   5.835   1.722  1.1957  0.1961 -1.7503
10890SOL    HW234284   5.436   5.985   1.728  0.8771  0.1456 -1.6368
10891SOL     OW34285   0.103   5.158   1.571 -0.1728 -0.6030  0.0606
10891SOL    HW134286   0.047   5.139   1.496  0.5471  0.8847 -0.8975
10891SOL    HW234287   0.174   5.094   1.565  0.1651 -0.1450 -0.8342
10892SOL     OW34288   4.245   8.728   1.129 -0.1108 -0.3605  0.3685
10892SOL    HW134289   4.245   8.823   1.143  0.3453 -0.1827 -0.7516
10892SOL    HW234290   4.154   8.708   1.105  0.0786  0.0165 -0.7180
10893SOL     OW34291   8.096   3.389   5.154  0.0992  0.3911  0.5010
10893SOL    HW134292   8.010   3.357   5.180  0.3751 -0.0164  0.9329
10893SOL    HW234293   8.099   3.376   5.060  0.9767 -2.8858  0.8504
10894SOL     OW34294   8.754   4.904   1.595  0.1609  0.3535  0.1865
10894SOL    HW134295   8.662   4.918   1.574 -0.5020 -2.3562  0.8823
10894SOL    HW234296   8.759   4.911   1.690  0.8864  1.3619  0.0927
10895SOL     OW34297   9.590   6.875   2.702 -0.0932  0.2373 -0.2396
10895SOL    HW134298   9.503   6.842   2.681 -0.6408  0.3327  1.6979
10895SOL    HW234299   9.648   6.800   2.690 -0.6803 -0.2457 -0.0960
10896SOL     OW34300   0.446   5.269   3.272  0.7084 -0.9474  0.0384
10896SOL    HW134301   0.465   5.220   3.351  0.2208  0.3933  1.0185
10896SOL    HW234302   0.368   5.320   3.294  1.0513  0.0735 -1.0238
10897SOL     OW34303   2.957   3.359   2.714  0.0721 -0.2334 -0.7591
10897SOL    HW134304   2.989   3.384   2.628 -1.4700  0.8346 -1.0824
10897SOL    HW234305   2.947   3.442   2.761  0.2275 -0.7411  0.2092
10898SOL     OW34306   8.030   1.636   7.995  0.0698 -0.1431  0.8710
10898SOL    HW134307   8.042   1.647   8.089  3.1906 -1.4422  0.7585
10898SOL    HW234308   8.048   1.543   7.979  0.8515  0.2925 -1.1207
10899SOL     OW34309   1.447   1.092   6.868  0.3865  0.6030 -0.2129
10899SOL    HW134310   1.516   1.087   6.934  1.2701  0.6125 -1.1011
10899SOL    HW234311   1.484   1.149   6.800  0.0716 -0.5158 -1.3558
10900SOL     OW34312   4.410   0.529   5.596 -0.4639 -0.1175 -0.1098
10900SOL    HW134313   4.333   0.524   5.538 -1.2832 -1.8411  1.0604
10900SOL    HW234314   4.417   0.442   5.634 -0.7741  1.2595  3.4227
10901SOL     OW34315   6.367   9.713   0.235  0.1343 -0.2733  0.2906
10901SOL    HW134316   6.443   9.721   0.292 -0.3739 -0.4710  1.0129
10901SOL    HW234317   6.386   9.637   0.180  0.3239 -0.5029  0.6715
10902SOL     OW34318   4.651   6.020   8.345 -0.4036  0.1412  0.3451
10902SOL    HW134319   4.716   6.057   8.285 -0.6148  0.1805  0.1366
10902SOL    HW234320   4.688   5.937   8.373  0.3399  0.7742  1.2725
10903SOL     OW34321   6.101   8.834   1.410  0.2444 -0.0289 -0.3518
10903SOL    HW134322   6.184   8.788   1.396 -0.1327 -0.8789  0.0825
10903SOL    HW234323   6.039   8.792   1.350  0.3576  1.3113 -1.4428
10904SOL     OW34324   1.929   0.602   2.373  0.3036 -0.1244 -0.4970
10904SOL    HW134325   1.958   0.641   2.290 -1.5196  0.5463 -0.8859
10904SOL    HW234326   1.896   0.516   2.348  1.5129 -0.7171 -0.1270
10905SOL     OW34327   1.896   7.453   0.611 -0.4346  0.0466  0.4674
10905SOL    HW134328   1.841   7.376   0.594  0.4105 -0.7325  1.1862
10905SOL    HW234329   1.872   7.479   0.700 -0.6679  0.5847  0.2513
10906SOL     OW34330   2.741   5.253   2.494  0.4255  0.1703 -0.0259
10906SOL    HW134331   2.725   5.194   2.567 -0.5266 -0.0462 -0.3948
10906SOL    HW234332   2.827   5.228   2.461  0.5163 -0.2587  0.5196
10907SOL     OW34333   5.245   8.829   5.093  0.0201 -0.2277 -0.0019
10907SOL    HW134334   5.215   8.900   5.037 -0.8505  0.5542  1.3937
10907SOL    HW234335   5.330   8.860   5.127 -1.0250  0.9061  1.7791
10908SOL     OW34336   1.076   9.360   8.731 -0.1862  0.2189 -0.0617
10908SOL    HW134337   0.990   9.334   8.764  0.6459 -1.0799  1.2061
10908SOL    HW234338   1.132   9.284   8.746  0.8349  0.4297 -2.3797
10909SOL     OW34339   1.269   9.256   3.757  0.2131  0.2130  0.0172
10909SOL    HW134340   1.277   9.351   3.743  1.1677 -0.0114 -1.1188
10909SOL    HW234341   1.189   9.232   3.709  0.4945  0.3041 -0.5049
10910SOL     OW34342   6.928   9.083   8.672  0.0120 -0.1185  0.1355
10910SOL    HW134343   6.924   9.143   8.747 -1.2831 -0.4307  0.3504
10910SOL    HW234344   7.002   9.114   8.620 -0.2097  1.2574  0.5864
10911SOL     OW34345   6.959   3.085   5.496  0.1027 -0.1076  0.0345
10911SOL    HW134346   7.010   3.038   5.562  0.1891 -1.1340 -0.7552
10911SOL    HW234347   6.878   3.034   5.488 -1.1299  1.5020  1.2953
10912SOL     OW34348   3.303   3.455   2.335 -0.3322 -0.0692  0.1918
10912SOL    HW134349   3.347   3.540   2.329  1.1925 -0.6628  1.8493
10912SOL    HW234350   3.284   3.431   2.245  0.7172  1.2787 -0.4292
10913SOL     OW34351   0.689   8.626   9.477 -0.3895 -0.5892  0.0177
10913SOL    HW134352   0.782   8.601   9.478 -0.2396 -0.1991 -1.5063
10913SOL    HW234353   0.657   8.595   9.392 -1.7900 -1.1372  0.7120
10914SOL     OW34354   5.092   7.458   5.644  0.1066 -0.2859  0.0579
10914SOL    HW134355   5.058   7.496   5.563  0.6728 -0.1430 -0.1191
10914SOL    HW234356   5.180   7.428   5.621  0.6203  0.5631  0.8499
10915SOL     OW34357   8.710   6.077   8.426 -0.0077  0.1659  0.0517
10915SOL    HW134358   8.636   6.117   8.381  1.0722  1.6548 -0.4977
10915SOL    HW234359   8.671   6.017   8.488 -1.6028 -2.0033 -2.8032
10916SOL     OW34360   0.632   8.731   0.801 -0.6752 -0.0779  0.2321
10916SOL    HW134361   0.724   8.715   0.780 -0.2659  1.4061  0.7573
10916SOL    HW234362   0.631   8.740   0.897 -0.8223  2.7906  0.0494
10917SOL     OW34363   6.927   1.677   6.472  0.3540  0.4031  0.0185
10917SOL    HW134364   6.898   1.709   6.387  1.3199  1.4392  0.0507
10917SOL    HW234365   7.020   1.658   6.460  0.2908 -0.3592  0.6029
10918SOL     OW34366   8.719   3.765   2.825  0.2844  0.0660  0.6188
10918SOL    HW134367   8.668   3.793   2.901 -0.3007 -0.1530  0.3106
10918SOL    HW234368   8.810   3.781   2.850  0.0804  0.2404  1.2623
10919SOL     OW34369   4.750   9.486   3.361 -0.6250  0.1448 -0.0908
10919SOL    HW134370   4.803   9.561   3.335  0.6898 -1.4285 -2.3225
10919SOL    HW234371   4.696   9.467   3.285 -1.7765 -0.5388  0.8507
10920SOL     OW34372   9.558   8.455   6.363  0.8197 -0.0966 -0.2310
10920SOL    HW134373   9.472   8.415   6.350  0.7285  0.0537 -0.0920
10920SOL    HW234374   9.609   8.387   6.406  0.6691 -0.0729 -0.0101
10921SOL     OW34375   1.281   0.865   6.854 -0.0284 -0.3958 -0.0817
10921SOL    HW134376   1.363   0.914   6.846  1.2486 -2.3796  0.3077
10921SOL    HW234377   1.295   0.785   6.803 -2.2710 -0.1702 -1.2062
10922SOL     OW34378   1.205   8.904   1.649  0.2216  0.1080 -0.0139
10922SOL    HW134379   1.257   8.833   1.611  0.4208  0.4293 -0.3488
10922SOL    HW234380   1.126   8.861   1.681  2.8334 -1.5628  5.6633
10923SOL     OW34381   3.144   6.474   5.376 -0.3165 -0.1768 -0.1359
10923SOL    HW134382   3.237   6.458   5.390 -0.3281 -0.5965 -0.4953
10923SOL    HW234383   3.112   6.393   5.336 -0.5548  0.4413 -1.2429
10924SOL     OW34384   6.137   7.996   5.471  0.1540 -0.0198 -0.0465
10924SOL    HW134385   6.129   7.945   5.390  1.0286  0.0450 -0.1849
10924SOL    HW234386   6.091   7.944   5.536  1.3404 -1.2208 -0.0976
10925SOL     OW34387   9.388   9.423   7.858  0.4542  0.1089  0.2193
10925SOL    HW134388   9.466   9.477   7.854 -0.5773  1.7265  0.9204
10925SOL    HW234389   9.317   9.484   7.876 -0.9507 -1.3386 -0.1269
10926SOL     OW34390   2.544   4.750   2.391  0.1331  0.0359 -0.1052
10926SOL    HW134391   2.522   4.689   2.462  0.2405  1.2455  1.0090
10926SOL    HW234392   2.530   4.699   2.311  1.4554 -1.8694  0.7850
10927SOL     OW34393   5.295   4.136   7.518  0.0913  0.0631 -0.3685
10927SOL    HW134394   5.356   4.117   7.446  2.0700  2.0202  0.6581
10927SOL    HW234395   5.281   4.230   7.512  0.1493  0.2390  1.6759
10928SOL     OW34396   3.364   5.030   5.988 -0.0978  0.3415  0.2199
10928SOL    HW134397   3.406   5.105   5.946 -0.7757  1.1596  0.9657
10928SOL    HW234398   3.328   5.065   6.069  0.5982 -1.0506  1.1772
10929SOL     OW34399   4.942   1.841   4.479  0.6636  0.2514 -0.0199
10929SOL    HW134400   4.974   1.888   4.402 -2.5562  0.6003 -1.2965
10929SOL    HW234401   4.893   1.906   4.528 -0.8072 -0.8961  0.1071
10930SOL     OW34402   6.584   0.472   4.932  0.1592 -0.1576 -0.6380
10930SOL    HW134403   6.569   0.387   4.890 -3.1310 -1.5013  2.6777
10930SOL    HW234404   6.514   0.528   4.898 -0.9412 -0.4923  0.9454
10931SOL     OW34405   8.511   2.625   2.522 -0.4958 -0.1128 -0.1573
10931SOL    HW134406   8.502   2.595   2.612 -0.2833  3.0814  1.0578
10931SOL    HW234407   8.603   2.651   2.514 -0.3641 -0.9121 -1.5126
10932SOL     OW34408   6.195   9.351   6.925 -0.2565 -0.0340 -0.1266
10932SOL    HW134409   6.284   9.386   6.926 -0.8876  1.6993 -0.8411
10932SOL    HW234410   6.204   9.263   6.889  1.2660 -0.2081  0.6387
10933SOL     OW34411   6.625   1.266   1.618 -0.4064 -0.0852  0.1303
10933SOL    HW134412   6.657   1.239   1.704 -1.9391 -1.2044  0.3862
10933SOL    HW234413   6.568   1.194   1.590 -0.2713  0.4582 -1.6322
10934SOL     OW34414   0.760   5.160   1.745 -0.5097  0.3195 -0.1682
10934SOL    HW134415   0.721   5.109   1.816 -0.3958 -1.5336 -1.3953
10934SOL    HW234416   0.703   5.145   1.670  0.2826  0.9194 -0.9095
10935SOL     OW34417   6.039   4.565   2.974  0.0277  0.5818  0.3651
10935SOL    HW134418   6.020   4.471   2.978 -1.4608  0.8327 -0.2813
10935SOL    HW234419   6.135   4.569   2.967  0.0462 -0.9510 -0.9235
10936SOL     OW34420   0.592   3.015   3.125 -0.6573 -0.3940 -0.5447
10936SOL    HW134421   0.640   2.942   3.085  0.9563  0.2362  0.1657
10936SOL    HW234422   0.660   3.068   3.167 -2.0317  0.3531  0.8044
10937SOL     OW34423   7.020   1.657   8.549  0.0847  0.0770 -0.2026
10937SOL    HW134424   7.112   1.629   8.546 -0.1588 -0.8495  0.6073
10937SOL    HW234425   7.018   1.724   8.617  0.0084 -0.5585  0.4385
10938SOL     OW34426   2.483   4.812   0.794  0.1136  0.3772  0.3602
10938SOL    HW134427   2.457   4.870   0.722  2.1983  0.1195 -0.6667
10938SOL    HW234428   2.439   4.849   0.871 -1.0822  1.4665 -0.7820
10939SOL     OW34429   4.377   0.604   1.084 -0.0600  0.3926  0.1334
10939SOL    HW134430   4.310   0.544   1.051 -0.9097  2.1965 -1.6497
10939SOL    HW234431   4.456   0.580   1.035 -0.0317 -0.1345  0.4292
10940SOL     OW34432   4.129   5.699   8.435 -0.2588 -0.7415  0.3278
10940SOL    HW134433   4.128   5.769   8.369  0.9736 -0.4740  0.5656
10940SOL    HW234434   4.038   5.693   8.465 -0.2338  1.5015  1.0430
10941SOL     OW34435   6.795   3.310   6.789 -0.2881 -0.3177  0.0826
10941SOL    HW134436   6.878   3.267   6.807 -1.0254 -1.7209  0.2367
10941SOL    HW234437   6.745   3.302   6.870 -0.4730  0.8084  0.1011
10942SOL     OW34438   4.542   2.089   4.898 -0.8361  0.5790  0.1668
10942SOL    HW134439   4.479   2.129   4.838 -1.7610 -0.2991  0.5135
10942SOL    HW234440   4.554   2.000   4.864  1.0753  1.0593 -0.5131
10943SOL     OW34441   8.671   4.646   1.481 -0.3134 -0.2895 -0.4102
10943SOL    HW134442   8.640   4.736   1.490 -1.9041 -0.8102 -0.5172
10943SOL    HW234443   8.617   4.595   1.541 -1.6841 -1.6515 -2.6475
10944SOL     OW34444   8.882   1.205   0.577 -0.4557 -0.4813  0.1034
10944SOL    HW134445   8.889   1.286   0.527 -0.4550 -1.1580 -1.0306
10944SOL    HW234446   8.845   1.231   0.661 -0.3798  0.6974 -0.2194
10945SOL     OW34447   5.373   4.084   5.675 -0.0446  0.2174  0.8016
10945SOL    HW134448   5.420   4.133   5.743  1.1346 -0.7132  0.6965
10945SOL    HW234449   5.349   4.002   5.717 -1.5992  0.6706  0.8392
10946SOL     OW34450   2.543   9.022   1.078 -0.1926 -0.6878  0.1784
10946SOL    HW134451   2.600   8.949   1.104 -0.5619 -0.7811  0.7519
10946SOL    HW234452   2.580   9.098   1.121  0.1320 -0.5487 -0.3370
10947SOL     OW34453   2.163   9.140   9.165  0.1767  0.5250 -0.2639
10947SOL    HW134454   2.163   9.176   9.253  0.6191 -0.5439  0.1988
10947SOL    HW234455   2.121   9.054   9.175 -0.1141  0.5575 -1.1658
10948SOL     OW34456   4.261   3.321   1.933  0.6613  0.2792 -0.1810
10948SOL    HW134457   4.234   3.400   1.886 -0.3116 -1.3637 -2.5658
10948SOL    HW234458   4.346   3.299   1.895  0.1138 -0.7707 -0.8459
10949SOL     OW34459   8.599   3.329   9.532 -0.2980  0.2853 -0.1335
10949SOL    HW134460   8.624   3.421   9.548 -1.4477  0.5209  0.4468
10949SOL    HW234461   8.603   3.319   9.437  0.3065  0.7889 -0.1719
10950SOL     OW34462   5.758   7.721   1.793  0.0567  0.2832  0.1963
10950SOL    HW134463   5.847   7.749   1.815  0.7935 -1.0257 -0.9530
10950SOL    HW234464   5.717   7.705   1.877  0.9196  0.8480  0.7513
10951SOL     OW34465   5.377   2.181   3.663  0.5734 -0.0152  0.3542
10951SOL    HW134466   5.412   2.255   3.614  2.0784 -0.6878  0.3637
10951SOL    HW234467   5.288   2.207   3.686  0.9075  1.5713 -0.0754
10952SOL     OW34468   8.277   5.336   3.492 -0.4513 -0.7091  0.2256
10952SOL    HW134469   8.256   5.262   3.549  0.0480 -1.6261 -0.7430
10952SOL    HW234470   8.230   5.317   3.410 -0.2349 -0.0083 -0.0687
10953SOL     OW34471   0.655   9.226   8.872  0.3069 -0.2469  0.1348
10953SOL    HW134472   0.620   9.261   8.954 -0.1828 -0.9321  0.2225
10953SOL    HW234473   0.702   9.147   8.897  0.6195 -0.1639 -0.1788
10954SOL     OW34474   9.177   2.654   0.499  0.0875 -0.1665 -0.2259
10954SOL    HW134475   9.133   2.705   0.567  1.6729  1.9376 -0.6549
10954SOL    HW234476   9.108   2.601   0.459 -1.3294  0.3957  1.3889
10955SOL     OW34477   9.387   9.146   6.869 -0.1039 -0.5152 -0.2012
10955SOL    HW134478   9.396   9.072   6.809 -0.6767 -0.3306 -0.5199
10955SOL    HW234479   9.293   9.155   6.882  0.0396 -1.1376  1.4749
10956SOL     OW34480   1.358   8.140   5.459  0.3170  0.4507  0.5541
10956SOL    HW134481   1.272   8.167   5.489 -0.2023 -0.8766  0.3036
10956SOL    HW234482   1.409   8.221   5.455 -0.2908  0.9800  2.7054
10957SOL     OW34483   3.745   9.642   9.093  0.3766  0.0469 -0.0053
10957SOL    HW134484   3.763   9.735   9.081  0.7395 -0.0071  0.1023
10957SOL    HW234485   3.832   9.600   9.090  0.4842 -0.0253  2.3166
10958SOL     OW34486   2.467   0.607   6.831 -0.8130  0.2872  0.0213
10958SOL    HW134487   2.453   0.575   6.742  0.0941  0.7021 -0.2858
10958SOL    HW234488   2.432   0.696   6.831  0.9364  1.0243 -0.5155
10959SOL     OW34489   6.445   6.513   2.649 -0.7096 -0.0360  0.2391
10959SOL    HW134490   6.449   6.455   2.572  1.0764 -0.3512  0.5208
10959SOL    HW234491   6.445   6.453   2.724  2.2087  0.2122  0.5720
10960SOL     OW34492   0.234   3.321   8.871 -0.1401 -0.3215 -0.4548
10960SOL    HW134493   0.268   3.384   8.807 -0.6510 -0.4845 -0.8969
10960SOL    HW234494   0.304   3.256   8.879  0.1299 -0.0387 -0.4711
10961SOL     OW34495   7.093   4.594   5.392  0.5937 -0.2886  0.1226
10961SOL    HW134496   7.186   4.607   5.374  0.0060  2.4059 -1.5588
10961SOL    HW234497   7.080   4.629   5.480  1.1766 -0.8590  0.4449
10962SOL     OW34498   8.728   2.044   2.675  0.4124  0.0317 -0.3378
10962SOL    HW134499   8.792   2.112   2.653 -1.2560  1.8320  0.0964
10962SOL    HW234500   8.737   1.980   2.604  0.2966  1.9851 -2.2574
10963SOL     OW34501   6.761   0.818   4.113 -0.3190 -0.1558  0.0869
10963SOL    HW134502   6.808   0.763   4.176  0.2711  0.7150  0.4239
10963SOL    HW234503   6.762   0.767   4.032 -2.3567 -1.9623  1.0941
10964SOL     OW34504   0.382   0.536   7.355  0.5840 -0.2646 -0.2825
10964SOL    HW134505   0.432   0.532   7.273  2.1607  0.3264  0.6251
10964SOL    HW234506   0.353   0.446   7.369 -1.0415 -0.1332 -2.2487
10965SOL     OW34507   8.733   9.055   4.130  0.1191  0.3231 -0.9103
10965SOL    HW134508   8.772   9.003   4.061 -1.4097  0.1705 -1.7021
10965SOL    HW234509   8.670   9.112   4.085 -0.7739  0.3593  0.3227
10966SOL     OW34510   3.324   0.477   0.855 -0.4927  0.6291  0.2757
10966SOL    HW134511   3.317   0.571   0.838  0.5037  0.4502 -1.3631
10966SOL    HW234512   3.335   0.471   0.949  0.0383  2.2095  0.3526
10967SOL     OW34513   5.915   6.088   6.982 -0.0542  0.2768 -0.3941
10967SOL    HW134514   5.919   5.993   6.969 -0.3033  0.1202  0.6246
10967SOL    HW234515   5.930   6.100   7.075 -0.3014  1.2257 -0.4705
10968SOL     OW34516   2.076   1.501   8.514 -0.6897  0.2766  0.0178
10968SOL    HW134517   2.113   1.533   8.431 -3.1124  1.8475 -0.5742
10968SOL    HW234518   1.992   1.462   8.489  0.3652 -3.1736  1.2774
10969SOL     OW34519   8.181   6.551   8.222  0.3598  0.1855  0.0252
10969SOL    HW134520   8.107   6.506   8.261  0.2518 -1.6328 -2.0814
10969SOL    HW234521   8.203   6.620   8.285 -0.5232 -1.7535  2.6435
10970SOL     OW34522   9.280   7.428   0.855  0.1928 -0.3452  0.0999
10970SOL    HW134523   9.352   7.442   0.793 -0.5269  0.2627 -0.6282
10970SOL    HW234524   9.313   7.362   0.915  1.3562 -0.0954 -0.2263
10971SOL     OW34525   4.343   6.577   6.709  0.1178 -0.4743 -0.0330
10971SOL    HW134526   4.431   6.550   6.681  1.3943  0.6331  2.5599
10971SOL    HW234527   4.348   6.580   6.805 -2.5337  0.4044  0.1675
10972SOL     OW34528   7.166   9.255   2.982  0.4025  0.1692 -0.5174
10972SOL    HW134529   7.215   9.178   2.954  0.9104  0.7434 -1.2394
10972SOL    HW234530   7.148   9.303   2.901 -0.7910  0.2967 -0.1851
10973SOL     OW34531   4.373   6.027   6.541  1.4364  0.0833  0.2293
10973SOL    HW134532   4.376   6.034   6.637  0.1162  0.2148  0.2756
10973SOL    HW234533   4.344   5.937   6.525  0.6711  0.3625 -0.0124
10974SOL     OW34534   3.298   5.436   6.909  0.2207 -0.0623 -0.3599
10974SOL    HW134535   3.382   5.418   6.867  1.1029  0.4795  1.1203
10974SOL    HW234536   3.308   5.404   6.999 -1.1776 -0.0284 -0.1637
10975SOL     OW34537   2.982   6.262   0.599  0.2429 -0.1068  0.3256
10975SOL    HW134538   3.002   6.250   0.507 -0.1767  0.5218  0.1452
10975SOL    HW234539   3.057   6.223   0.645 -0.3716 -2.0306 -0.2178
10976SOL     OW34540   1.242   3.028   3.935 -0.4221 -0.0726 -0.1587
10976SOL    HW134541   1.301   3.101   3.951  0.4754 -0.7983 -0.0788
10976SOL    HW234542   1.299   2.952   3.926 -1.3551 -0.8547  0.2551
10977SOL     OW34543   6.022   4.043   1.769  0.1632  0.4850 -0.4920
10977SOL    HW134544   5.976   3.995   1.837  2.1389 -0.4829  0.2463
10977SOL    HW234545   6.040   3.977   1.702 -0.3178  1.0569 -1.1988
10978SOL     OW34546   8.803   5.437   0.183  0.3343 -0.2854 -0.1512
10978SOL    HW134547   8.776   5.516   0.230  1.3955  0.8172 -1.3488
10978SOL    HW234548   8.869   5.467   0.121 -0.6168 -1.7800 -1.9841
10979SOL     OW34549   0.910   7.550   8.058  0.1176  0.2461 -0.5521
10979SOL    HW134550   1.002   7.557   8.081 -0.1377 -1.4796  1.2652
10979SOL    HW234551   0.864   7.581   8.137 -0.8855  0.9905 -1.3952
10980SOL     OW34552   5.108   2.514   1.412 -0.2837  0.0194  0.1285
10980SOL    HW134553   5.037   2.544   1.354 -1.9398  0.7985  2.4324
10980SOL    HW234554   5.094   2.419   1.419  1.9273 -0.7299 -3.1777
10981SOL     OW34555   9.183   0.044   9.156  0.3154  0.1152 -0.5374
10981SOL    HW134556   9.171   0.069   9.064 -0.7963 -0.6836 -0.6290
10981SOL    HW234557   9.277   0.028   9.164  0.4893  0.5979 -1.4220
10982SOL     OW34558   4.448   8.932   9.047 -0.4747  0.5148  0.1274
10982SOL    HW134559   4.479   8.847   9.016 -1.3316  0.4845 -0.6844
10982SOL    HW234560   4.519   8.993   9.028  0.0734  0.0231  0.5561
10983SOL     OW34561   0.632   5.936   2.928  0.4052 -0.1717 -0.3446
10983SOL    HW134562   0.543   5.906   2.948  0.6156  0.2788  1.4434
10983SOL    HW234563   0.650   5.903   2.840 -0.5479 -2.5259  0.2827
10984SOL     OW34564   1.721   0.213   1.956  0.0937  0.4104 -0.2071
10984SOL    HW134565   1.642   0.207   2.009 -0.8678  1.4349 -1.4792
10984SOL    HW234566   1.737   0.307   1.946  1.1153  0.2221 -0.5100
10985SOL     OW34567   7.110   8.833   0.780 -0.2770  0.3826  0.6263
10985SOL    HW134568   7.111   8.908   0.840 -1.1975  0.9989 -0.1046
10985SOL    HW234569   7.035   8.781   0.809 -0.2088  0.2428  0.5459
10986SOL     OW34570   3.077   1.162   0.533  0.1707 -0.3771 -0.4596
10986SOL    HW134571   3.031   1.244   0.552  1.5945  0.0462  1.4257
10986SOL    HW234572   3.028   1.095   0.580  0.5694 -0.1591  0.2846
10987SOL     OW34573   7.069   3.292   5.082 -0.1645 -0.1406 -0.0559
10987SOL    HW134574   7.079   3.222   5.146 -0.7398 -0.7890 -0.6532
10987SOL    HW234575   6.990   3.339   5.109 -0.6634 -0.6878 -0.5161
10988SOL     OW34576   7.959   5.190   6.776  0.0852 -0.3806 -0.0029
10988SOL    HW134577   8.028   5.154   6.720  0.1773  0.2681 -0.3140
10988SOL    HW234578   7.981   5.159   6.864  1.1766  0.3860  0.0114
10989SOL     OW34579   6.914   6.324   1.109 -0.1814 -0.1697  0.5184
10989SOL    HW134580   6.861   6.397   1.143  0.3145  0.7081 -0.5327
10989SOL    HW234581   6.956   6.287   1.187 -1.9424 -0.6032  1.3311
10990SOL     OW34582   2.143   8.130   1.005 -0.0806 -0.5605  0.5306
10990SOL    HW134583   2.158   8.190   1.077  0.0472 -0.6725  0.5975
10990SOL    HW234584   2.205   8.058   1.020 -1.2369 -1.4380  1.2773
10991SOL     OW34585   9.445   3.540   7.384 -0.0098  0.3010  0.5555
10991SOL    HW134586   9.391   3.465   7.406  0.4713 -0.5940 -1.1299
10991SOL    HW234587   9.426   3.557   7.291  1.8842  0.5257  0.1642
10992SOL     OW34588   4.186   8.560   0.353 -0.1639  0.4590 -0.0241
10992SOL    HW134589   4.166   8.653   0.344  1.4056  0.7309 -1.0375
10992SOL    HW234590   4.160   8.539   0.442 -1.8887  1.5073 -0.2361
10993SOL     OW34591   5.047   5.639   8.521 -0.2763 -0.3116  0.0565
10993SOL    HW134592   5.098   5.558   8.524  0.8142  0.3751  0.6793
10993SOL    HW234593   5.038   5.659   8.428 -1.3974 -1.6439 -0.1519
10994SOL     OW34594   0.159   2.147   4.901  0.1703 -0.2366  0.2760
10994SOL    HW134595   0.188   2.058   4.880 -0.1972  0.1814 -2.2872
10994SOL    HW234596   0.072   2.135   4.939  0.4526 -1.0073  0.6977
10995SOL     OW34597   5.262   2.587   3.504  0.1553 -0.1965 -0.3674
10995SOL    HW134598   5.240   2.600   3.596 -0.4884 -0.7677 -0.4410
10995SOL    HW234599   5.188   2.539   3.467 -0.2687  1.2793 -1.5271
10996SOL     OW34600   1.616   2.809   1.385  0.0140 -0.3541 -0.3975
10996SOL    HW134601   1.563   2.791   1.308 -0.0513  0.5533 -0.5823
10996SOL    HW234602   1.552   2.832   1.453  0.1412  0.3089 -0.4973
10997SOL     OW34603   2.561   4.281   6.808  0.0964 -0.3789  0.5151
10997SOL    HW134604   2.555   4.375   6.826 -0.3138 -0.5500  1.3221
10997SOL    HW234605   2.650   4.269   6.775  0.3849  0.1861  1.0667
10998SOL     OW34606   5.395   8.082   4.789  0.4942  0.1741 -0.3679
10998SOL    HW134607   5.347   8.149   4.838  1.1593  0.1759  0.2927
10998SOL    HW234608   5.453   8.042   4.853  0.6663 -0.5091 -0.9356
10999SOL     OW34609   5.520   4.137   3.438  0.5163 -0.4566 -0.2358
10999SOL    HW134610   5.560   4.051   3.454  0.5755 -0.3043  0.4816
10999SOL    HW234611   5.467   4.153   3.516 -1.8865 -1.1546 -1.6210
11000SOL     OW34612   8.596   3.281   0.287  0.3766 -0.2122  0.7132
11000SOL    HW134613   8.540   3.237   0.223 -1.2591  0.2444  1.7567
11000SOL    HW234614   8.568   3.245   0.372  2.0380 -0.3326  1.2434
11001SOL     OW34615   9.766   1.595   5.200 -0.1550  0.0492 -0.6329
11001SOL    HW134616   9.823   1.529   5.239 -0.3002  0.4219  0.2210
11001SOL    HW234617   9.679   1.554   5.199  0.1773 -0.7107 -2.3874
11002SOL     OW34618   2.294   3.910   8.021  0.6202 -0.0288  0.0669
11002SOL    HW134619   2.307   3.995   8.062  1.0190 -0.3373  0.5967
11002SOL    HW234620   2.252   3.857   8.089 -0.9865  0.1623 -0.7353
11003SOL     OW34621   6.394   8.256   7.761 -0.3536  0.6785  0.0513
11003SOL    HW134622   6.484   8.225   7.766  0.1683  2.0150 -0.5965
11003SOL    HW234623   6.346   8.199   7.821  0.8364 -0.3098  0.1146
11004SOL     OW34624   5.966   8.846   8.827  0.6693 -0.4311 -0.0678
11004SOL    HW134625   6.037   8.841   8.763  1.4242 -1.8090  0.8232
11004SOL    HW234626   5.989   8.781   8.893 -1.1234 -0.4628  0.5715
11005SOL     OW34627   2.184   2.815   8.688 -0.6666 -0.2714 -0.0166
11005SOL    HW134628   2.145   2.801   8.775  0.0646 -2.9210 -0.0295
11005SOL    HW234629   2.271   2.851   8.706  0.2229 -2.5071  0.5552
11006SOL     OW34630   8.627   3.863   6.403 -0.0425  0.5574 -0.6241
11006SOL    HW134631   8.645   3.927   6.334  1.2145 -1.4483 -2.2591
11006SOL    HW234632   8.672   3.783   6.375 -0.8777 -0.8464  1.7202
11007SOL     OW34633   6.556   5.254   3.228  0.4770  0.0426  0.4451
11007SOL    HW134634   6.526   5.344   3.239 -2.5587 -1.0858  2.7014
11007SOL    HW234635   6.546   5.237   3.134 -2.5240  1.0268  0.4819
11008SOL     OW34636   6.595   7.187   2.154  0.2228 -0.6099 -0.2618
11008SOL    HW134637   6.593   7.118   2.220 -3.9346 -0.7072 -0.2461
11008SOL    HW234638   6.564   7.265   2.199  0.0160  0.0146 -1.4363
11009SOL     OW34639   3.266   7.605   9.001  0.3040 -0.1577  0.7214
11009SOL    HW134640   3.327   7.640   8.937 -0.3222  0.1481  0.2882
11009SOL    HW234641   3.302   7.631   9.086  0.4248  0.5918  0.4424
11010SOL     OW34642   3.801   3.322   5.518 -0.5459 -0.2396 -0.1545
11010SOL    HW134643   3.772   3.269   5.592  0.9906 -0.7686  0.1062
11010SOL    HW234644   3.828   3.259   5.452 -0.9878  0.2331 -0.8067
11011SOL     OW34645   5.655   4.654   2.329  0.2660  0.0132  0.3812
11011SOL    HW134646   5.629   4.746   2.334  0.6760  0.1589 -0.0624
11011SOL    HW234647   5.612   4.622   2.249 -0.8082 -0.4914  1.1414
11012SOL     OW34648   4.960   1.219   4.808  0.4229 -0.6592  0.5753
11012SOL    HW134649   4.975   1.289   4.871 -0.6129 -0.7037  0.8912
11012SOL    HW234650   5.031   1.158   4.821  1.9795  0.8367 -0.4372
11013SOL     OW34651   0.651   3.029   6.225 -0.4579 -0.0261  0.6294
11013SOL    HW134652   0.733   2.985   6.248 -0.2732 -0.1352 -0.2056
11013SOL    HW234653   0.676   3.119   6.206 -0.4181 -0.2283 -0.3044
11014SOL     OW34654   9.032   4.730   8.728 -0.2097 -0.2956 -0.6110
11014SOL    HW134655   9.110   4.717   8.674  1.0890  1.0222  0.8553
11014SOL    HW234656   9.052   4.684   8.810  0.7931  3.1517  1.2760
11015SOL     OW34657   7.708   2.468   5.140  0.5934  0.5788  0.4710
11015SOL    HW134658   7.719   2.497   5.231 -0.3278 -0.6651  0.9920
11015SOL    HW234659   7.614   2.454   5.131  0.8981 -1.3156 -0.0356
11016SOL     OW34660   7.596   5.733   8.768 -0.9121  0.1962  0.3699
11016SOL    HW134661   7.584   5.694   8.681  1.4041 -0.2815  0.1948
11016SOL    HW234662   7.616   5.659   8.825  1.1863  0.8291  0.5247
11017SOL     OW34663   0.342   8.960   4.874  0.2029 -0.2229  0.3184
11017SOL    HW134664   0.286   8.907   4.817 -0.1264  0.9102 -0.4362
11017SOL    HW234665   0.396   9.011   4.814  1.0311 -0.2362  1.0393
11018SOL     OW34666   3.752   2.715   6.676 -0.0781  0.0869  0.0602
11018SOL    HW134667   3.677   2.768   6.649 -0.0435  0.9220  1.4815
11018SOL    HW234668   3.792   2.686   6.594 -0.3671  1.9123 -0.7728
11019SOL     OW34669   4.226   7.669   5.502  0.6044 -0.4261  0.4452
11019SOL    HW134670   4.276   7.714   5.434 -2.0925 -0.8120 -1.9683
11019SOL    HW234671   4.219   7.578   5.471  0.8741 -1.1048  2.2364
11020SOL     OW34672   3.401   9.768   1.061 -0.9466  0.2679 -0.7327
11020SOL    HW134673   3.482   9.717   1.053 -0.7118  0.7405 -1.4631
11020SOL    HW234674   3.411   9.818   1.142 -0.6451  0.0894 -0.6600
11021SOL     OW34675   5.645   2.811   5.847 -0.3002  0.0670 -0.1480
11021SOL    HW134676   5.599   2.894   5.862 -0.2237 -0.0607  0.8712
11021SOL    HW234677   5.578   2.744   5.856 -0.5970  0.0514 -2.0982
11022SOL     OW34678   8.461   1.407   7.096 -0.4549  0.2721 -0.1198
11022SOL    HW134679   8.460   1.357   7.178 -0.4146  0.0193 -0.2734
11022SOL    HW234680   8.393   1.474   7.108 -1.8807 -1.0181 -0.6626
11023SOL     OW34681   7.731   2.018   0.570  0.5450  0.0331 -0.5767
11023SOL    HW134682   7.680   2.081   0.518 -1.4561  0.0123  1.2257
11023SOL    HW234683   7.721   1.935   0.522 -3.0468 -0.4736  0.6940
11024SOL     OW34684   8.645   2.481   0.261  0.0487 -0.2988  0.5700
11024SOL    HW134685   8.692   2.514   0.184 -2.2530 -1.4273 -1.4558
11024SOL    HW234686   8.554   2.506   0.245 -0.9117 -2.8818  1.5696
11025SOL     OW34687   1.972   6.000   6.213  0.4914 -0.0927 -0.0462
11025SOL    HW134688   2.056   6.046   6.218 -0.0472  0.9002  0.0995
11025SOL    HW234689   1.994   5.914   6.177  1.5919  0.0867  0.1557
11026SOL     OW34690   2.584   9.435   0.988 -0.8326 -0.1409  0.6899
11026SOL    HW134691   2.654   9.492   1.019 -0.8658  1.4354 -1.8767
11026SOL    HW234692   2.630   9.362   0.946 -0.7059  0.3411 -0.0303
11027SOL     OW34693   4.247   6.846   5.305 -0.5641 -0.6543 -0.4644
11027SOL    HW134694   4.338   6.822   5.289 -0.7070 -0.4054 -1.7606
11027SOL    HW234695   4.197   6.768   5.280 -0.6034 -2.0409  3.2833
11028SOL     OW34696   4.968   5.200   6.696  0.0830 -0.2979 -0.0134
11028SOL    HW134697   4.893   5.216   6.638 -0.4321 -1.3729  0.3345
11028SOL    HW234698   4.945   5.245   6.777  0.1472 -0.0250 -0.1436
11029SOL     OW34699   3.543   9.252   4.711  0.4457  0.1963 -0.0222
11029SOL    HW134700   3.456   9.215   4.697  0.4324 -0.0411  0.6427
11029SOL    HW234701   3.587   9.244   4.626 -0.2423  0.4953 -0.4168
11030SOL     OW34702   6.423   4.873   3.876 -0.4273  0.3437 -0.8822
11030SOL    HW134703   6.427   4.951   3.932 -2.0248  0.0323 -0.2850
11030SOL    HW234704   6.330   4.861   3.857 -0.1143 -0.8292 -1.8078
11031SOL     OW34705   0.349   5.563   4.774  0.3454  0.5189 -0.2819
11031SOL    HW134706   0.402   5.642   4.782  2.3570 -0.8453  0.5215
11031SOL    HW234707   0.286   5.568   4.846  1.6037  0.5661  0.8294
11032SOL     OW34708   7.374   4.156   8.930  0.3558 -0.1398  0.1049
11032SOL    HW134709   7.425   4.084   8.966 -1.0055 -0.6314  1.1353
11032SOL    HW234710   7.349   4.126   8.842  2.8698  0.6633 -0.9918
11033SOL     OW34711   3.522   5.204   2.843  0.3576  0.1390 -0.1208
11033SOL    HW134712   3.507   5.293   2.811  0.5399  0.5526  0.8898
11033SOL    HW234713   3.509   5.211   2.938 -0.0894 -1.0124 -0.0793
11034SOL     OW34714   0.921   6.627   5.298  0.0344  0.1278  0.4399
11034SOL    HW134715   0.883   6.614   5.211 -0.0478 -0.5615  0.5675
11034SOL    HW234716   0.845   6.629   5.357  0.0231  1.5508  0.4070
11035SOL     OW34717   8.853   8.700   0.037 -0.0522 -0.4891  0.8754
11035SOL    HW134718   8.849   8.733  -0.053  1.2382  0.2577  1.0742
11035SOL    HW234719   8.776   8.643   0.045 -0.5137 -0.0949 -0.5055
11036SOL     OW34720   5.668   4.358   3.998 -0.0243  0.0943  0.0994
11036SOL    HW134721   5.623   4.317   3.925  0.6020 -0.7528  0.1687
11036SOL    HW234722   5.714   4.433   3.960 -1.8696  1.2875  0.1208
11037SOL     OW34723   1.263   3.491   2.947 -0.3730 -0.1376  0.2839
11037SOL    HW134724   1.231   3.451   3.028  0.9116 -0.4450  0.6665
11037SOL    HW234725   1.357   3.503   2.962  0.2486 -1.7962 -1.7758
11038SOL     OW34726   6.317   8.757   7.687  0.4463  0.3729  0.0534
11038SOL    HW134727   6.310   8.663   7.675 -0.7995  0.6919 -2.2794
11038SOL    HW234728   6.376   8.786   7.616  4.5481  0.9589  3.3075
11039SOL     OW34729   0.981   1.582   9.698 -0.0525 -0.2146  0.5888
11039SOL    HW134730   0.991   1.674   9.720  0.9630 -0.6347  2.0836
11039SOL    HW234731   0.905   1.553   9.748  0.7227 -0.5883  1.5745
11040SOL     OW34732   4.545   5.535   5.256 -0.1673  0.3115 -0.2956
11040SOL    HW134733   4.533   5.516   5.163 -1.4597 -0.7554  0.0603
11040SOL    HW234734   4.638   5.518   5.272  0.4555  2.0276 -1.6943
11041SOL     OW34735   9.588   6.036   8.138  0.5014 -0.3775 -0.0925
11041SOL    HW134736   9.639   6.080   8.069  0.2656 -0.1434 -0.1169
11041SOL    HW234737   9.560   5.954   8.097  1.6074 -0.9252  0.2134
11042SOL     OW34738   6.810   0.282   9.367 -0.0354 -0.1740  0.2479
11042SOL    HW134739   6.897   0.321   9.369 -0.0891  0.0415 -0.7276
11042SOL    HW234740   6.780   0.297   9.277 -0.1401 -2.3069 -0.1354
11043SOL     OW34741   1.389   6.477   4.083  0.4254  0.1310  0.4280
11043SOL    HW134742   1.480   6.500   4.063  0.5006 -0.8267 -0.3873
11043SOL    HW234743   1.340   6.557   4.062  1.2944  1.4928  3.1348
11044SOL     OW34744   4.244   4.982   2.787 -0.2643  0.0309 -0.5960
11044SOL    HW134745   4.253   5.049   2.720 -0.8972  0.2565 -0.4658
11044SOL    HW234746   4.202   5.026   2.860 -0.5090 -0.4581 -0.4341
11045SOL     OW34747   3.657   3.035   5.943 -0.5338  0.3494 -0.5255
11045SOL    HW134748   3.709   3.092   5.886 -0.0288  0.0822 -0.3384
11045SOL    HW234749   3.716   2.963   5.965 -0.7693  0.3825  0.2290
11046SOL     OW34750   2.446   0.903   5.492  0.2711 -0.2805 -0.0512
11046SOL    HW134751   2.480   0.983   5.453 -0.6685  0.4360  0.5585
11046SOL    HW234752   2.373   0.932   5.546  0.9288 -1.3609  1.4801
11047SOL     OW34753   6.020   4.641   4.824 -0.0387 -0.1566  0.0331
11047SOL    HW134754   6.093   4.626   4.763 -0.3387  0.2121 -0.4287
11047SOL    HW234755   5.997   4.554   4.856 -0.2175 -0.4298 -0.7905
11048SOL     OW34756   3.912   8.705   2.616 -0.4689 -0.6500  0.3298
11048SOL    HW134757   3.957   8.639   2.668 -0.2155  0.1104  1.0988
11048SOL    HW234758   3.859   8.754   2.680  0.2645  0.6495 -0.0245
11049SOL     OW34759   8.027   8.910   3.061 -0.2503 -0.1794  0.0198
11049SOL    HW134760   7.982   8.988   3.028  0.5512  0.0994 -0.4250
11049SOL    HW234761   8.007   8.909   3.154 -1.1733 -0.0546 -0.1646
11050SOL     OW34762   5.600   1.543   8.241  0.7285  0.2323  0.1137
11050SOL    HW134763   5.661   1.558   8.313 -0.0171  1.7071  0.4734
11050SOL    HW234764   5.603   1.624   8.190 -1.1949  0.4963  0.3646
11051SOL     OW34765   3.995   6.987   4.271 -0.1863  0.8757 -0.5567
11051SOL    HW134766   3.916   7.033   4.298 -1.8563 -1.0188 -1.9850
11051SOL    HW234767   4.065   7.028   4.323 -2.2576  1.6686  1.7866
11052SOL     OW34768   4.072   4.668   6.834  0.3727 -0.1689  0.0715
11052SOL    HW134769   4.160   4.668   6.795  0.3386 -0.9611 -0.0196
11052SOL    HW234770   4.061   4.579   6.869 -0.6701 -0.3216 -0.5796
11053SOL     OW34771   3.417   3.382   9.661 -0.2738 -0.3240  0.2904
11053SOL    HW134772   3.436   3.343   9.577 -0.7988  0.8058 -0.3819
11053SOL    HW234773   3.501   3.417   9.692 -0.0744 -0.7772  0.2579
11054SOL     OW34774   5.745   4.022   1.095 -0.6465  0.4380  0.1068
11054SOL    HW134775   5.724   3.997   1.005  0.4456  0.2967 -0.1326
11054SOL    HW234776   5.841   4.022   1.097 -0.6336  1.8380  0.8798
11055SOL     OW34777   7.212   8.002   3.309  0.3304  0.0944  0.5701
11055SOL    HW134778   7.136   7.984   3.254  0.4218  1.4178 -0.0307
11055SOL    HW234779   7.287   7.987   3.252  0.5012 -0.2659  0.8807
11056SOL     OW34780   6.309   3.362   5.266  0.5224  0.4333  0.1075
11056SOL    HW134781   6.228   3.332   5.306  0.9383 -0.7961  0.0736
11056SOL    HW234782   6.320   3.305   5.190  1.9784 -0.1736  0.7382
11057SOL     OW34783   3.122   1.658   7.065 -0.1580 -0.0550  0.2197
11057SOL    HW134784   3.188   1.609   7.016 -2.4397 -1.7375 -1.4390
11057SOL    HW234785   3.116   1.613   7.149  0.2227 -0.4521  0.0388
11058SOL     OW34786   2.081   0.077   9.742  0.0381  0.0498 -0.0215
11058SOL    HW134787   2.124   0.142   9.685  1.2459  1.3272  2.2163
11058SOL    HW234788   2.136  -0.001   9.735  0.1649  0.1789 -0.5900
11059SOL     OW34789   5.837   4.589   6.080 -0.3830 -0.0920  0.2296
11059SOL    HW134790   5.881   4.674   6.081 -1.0460  0.2797 -0.4410
11059SOL    HW234791   5.750   4.608   6.044 -0.0117 -1.2928 -1.4193
11060SOL     OW34792   4.257   5.601   3.979 -0.1374  0.4350  0.3956
11060SOL    HW134793   4.291   5.680   4.019 -0.6654  0.7289  0.2780
11060SOL    HW234794   4.168   5.593   4.014  0.3012 -0.7394  1.3129
11061SOL     OW34795   6.229   5.348   2.679  0.0767  0.0161 -0.1998
11061SOL    HW134796   6.201   5.271   2.728  1.8965 -1.1973 -0.9379
11061SOL    HW234797   6.261   5.313   2.596  0.2684  1.6657 -0.8641
11062SOL     OW34798   4.029   3.737   4.436  0.2614  0.6952 -0.0665
11062SOL    HW134799   4.039   3.721   4.530  1.4089 -0.5089 -0.3731
11062SOL    HW234800   3.935   3.753   4.425  0.1134  0.9067  1.2803
11063SOL     OW34801   4.808   3.493   2.201 -0.0758  0.0025  0.2652
11063SOL    HW134802   4.879   3.449   2.248 -0.5737 -0.1621  0.8829
11063SOL    HW234803   4.844   3.579   2.177  0.5423 -0.3245 -0.0049
11064SOL     OW34804   5.411   6.775   5.238  0.2659  0.2863  0.1590
11064SOL    HW134805   5.326   6.796   5.277 -0.5556 -1.4156 -0.5942
11064SOL    HW234806   5.475   6.803   5.303 -0.9273  0.3680  1.3440
11065SOL     OW34807   5.438   0.482   8.175 -0.0104 -0.8129  0.0153
11065SOL    HW134808   5.516   0.533   8.200 -0.3978  0.0790 -0.5109
11065SOL    HW234809   5.448   0.399   8.220 -0.2680  0.3783  2.4544
11066SOL     OW34810   3.785   1.899   7.958 -0.2979 -0.2058 -0.0531
11066SOL    HW134811   3.860   1.933   8.007  2.0075 -3.3664 -1.0589
11066SOL    HW234812   3.765   1.967   7.894  2.5578  0.2982 -0.5288
11067SOL     OW34813   9.761   1.204   6.383 -0.2873  0.3188  0.1507
11067SOL    HW134814   9.708   1.258   6.324  0.5779  1.0388 -0.0062
11067SOL    HW234815   9.852   1.227   6.360  0.1029  1.6202  2.6237
11068SOL     OW34816   2.027   7.373   7.532 -0.1312 -0.4004  0.2103
11068SOL    HW134817   1.952   7.313   7.527 -1.6937  1.4205  0.8192
11068SOL    HW234818   2.014   7.422   7.613  0.0361  2.0729 -1.1529
11069SOL     OW34819   4.727   7.593   7.990 -0.1124 -0.3013 -0.1105
11069SOL    HW134820   4.686   7.557   7.911  1.1421 -1.0485 -0.4378
11069SOL    HW234821   4.653   7.617   8.046 -1.0217 -3.2128  0.0619
11070SOL     OW34822   2.580   8.423   0.269 -0.3544 -0.0473 -0.7234
11070SOL    HW134823   2.514   8.390   0.330  0.1549  0.7545  0.2928
11070SOL    HW234824   2.607   8.345   0.219  1.6941 -1.5796  2.4164
11071SOL     OW34825   9.203   4.503   1.912 -0.2027  0.9337 -0.1452
11071SOL    HW134826   9.176   4.425   1.864 -0.8998  1.3055 -0.3816
11071SOL    HW234827   9.239   4.562   1.846  0.1779  0.8751  0.0075
11072SOL     OW34828   5.947   2.382   7.358  0.2972  0.3229  0.5457
11072SOL    HW134829   5.908   2.331   7.428 -0.9439 -0.2203 -0.5021
11072SOL    HW234830   5.999   2.319   7.308 -0.0971  0.3568  0.0782
11073SOL     OW34831   8.316   7.924   3.117  0.1328  0.6014  0.0653
11073SOL    HW134832   8.365   7.980   3.178  0.8502  1.0160 -0.8779
11073SOL    HW234833   8.355   7.838   3.128 -0.0631  0.5637  0.5244
11074SOL     OW34834   5.951   2.790   7.436 -0.3440  0.3149 -0.7756
11074SOL    HW134835   5.907   2.848   7.498 -0.9629 -1.7153  0.7965
11074SOL    HW234836   5.879   2.755   7.382 -0.1193  0.2120 -1.0082
11075SOL     OW34837   5.150   2.113   9.063  0.7363 -0.2247  0.5299
11075SOL    HW134838   5.228   2.159   9.030  1.3905 -1.7748 -0.1527
11075SOL    HW234839   5.184   2.055   9.131 -0.0063 -0.1177  0.9993
11076SOL     OW34840   1.860   4.719   2.842 -0.0862  0.4940  0.4075
11076SOL    HW134841   1.950   4.711   2.810 -0.2199 -1.4477  0.3865
11076SOL    HW234842   1.850   4.646   2.902 -1.4034  1.1870  1.0523
11077SOL     OW34843   3.227   7.082   5.256  0.1126 -0.1514 -0.3136
11077SOL    HW134844   3.232   7.034   5.338 -3.3678  1.7180  1.2122
11077SOL    HW234845   3.151   7.045   5.211  1.3368 -0.4223 -2.2293
11078SOL     OW34846   4.169   0.546   5.952 -0.5149  0.8210 -0.3314
11078SOL    HW134847   4.218   0.515   6.029 -0.2211 -0.7055 -1.0810
11078SOL    HW234848   4.078   0.526   5.973 -0.4218  0.2826 -0.4160
11079SOL     OW34849   6.739   6.292   2.565 -0.0716 -0.1037 -0.4016
11079SOL    HW134850   6.657   6.266   2.524 -1.2158  1.2089  0.9633
11079SOL    HW234851   6.784   6.209   2.582 -1.6633 -0.9356 -0.0542
11080SOL     OW34852   3.529   2.731   5.786  0.4043 -0.0213 -0.6206
11080SOL    HW134853   3.554   2.641   5.769  1.8024  0.0695  0.7726
11080SOL    HW234854   3.611   2.779   5.792 -0.3186  1.5959 -2.3624
11081SOL     OW34855   8.728   8.570   5.013 -0.3899  0.1282  0.2702
11081SOL    HW134856   8.691   8.541   4.930 -1.0709  0.2137  0.5423
11081SOL    HW234857   8.823   8.556   5.003 -0.2857  1.6030 -1.0892
11082SOL     OW34858   6.605   2.257   8.379  0.2733 -0.2416  0.0937
11082SOL    HW134859   6.560   2.318   8.322 -0.8146 -1.1130 -0.0085
11082SOL    HW234860   6.576   2.171   8.349  0.6642 -0.7540  1.1553
11083SOL     OW34861   7.226   4.767   7.591  0.7139  0.0995 -0.2824
11083SOL    HW134862   7.275   4.811   7.660  1.3722  0.2482 -0.8294
11083SOL    HW234863   7.134   4.781   7.614  0.9126 -0.2825  0.8252
11084SOL     OW34864   9.708   5.899   9.493  0.0358 -0.0439  0.3255
11084SOL    HW134865   9.794   5.917   9.530  0.6250 -0.2532 -0.8881
11084SOL    HW234866   9.718   5.918   9.400 -1.3327  0.2464  0.2247
11085SOL     OW34867   9.025   9.579   0.902 -0.4748 -0.1715 -0.0309
11085SOL    HW134868   9.012   9.654   0.960  3.1125  1.3517 -0.9160
11085SOL    HW234869   9.093   9.527   0.945  1.3335  0.3183 -2.0932
11086SOL     OW34870   6.633   8.709   5.671 -0.0182 -0.5133  0.4093
11086SOL    HW134871   6.539   8.694   5.670 -0.1266 -0.0991 -1.8994
11086SOL    HW234872   6.646   8.784   5.611  1.8634 -1.3667 -0.3383
11087SOL     OW34873   6.178   1.899   3.373 -0.0016 -0.5660 -0.4076
11087SOL    HW134874   6.176   1.895   3.278  0.5871  0.4105 -0.4852
11087SOL    HW234875   6.095   1.941   3.397  0.2666  0.0712 -0.5674
11088SOL     OW34876   0.892   9.229   8.116 -0.3355 -0.7906  0.5559
11088SOL    HW134877   0.854   9.317   8.124  2.4195  0.5563 -0.0184
11088SOL    HW234878   0.908   9.202   8.206  0.9700  0.3918  0.7239
11089SOL     OW34879   2.930   0.950   0.644  0.5088  0.0973  0.2339
11089SOL    HW134880   2.856   0.901   0.679  0.4580 -0.8359 -1.1344
11089SOL    HW234881   2.997   0.884   0.626  0.0217  0.2842 -2.7451
11090SOL     OW34882   3.835   0.243   8.430  0.2854  0.3663  0.6200
11090SOL    HW134883   3.916   0.205   8.396 -0.9191 -1.2208 -0.6499
11090SOL    HW234884   3.832   0.331   8.391  0.7166 -0.0887 -0.4745
11091SOL     OW34885   5.995   2.666   2.907  0.4543  0.1410  0.3256
11091SOL    HW134886   5.986   2.747   2.957 -0.5698 -0.5286  1.2820
11091SOL    HW234887   6.069   2.620   2.947  0.6748  0.3447  0.1524
11092SOL     OW34888   2.379   6.001   7.225 -0.5127 -0.0465 -0.3425
11092SOL    HW134889   2.436   6.078   7.233  0.0004 -0.3336 -1.1066
11092SOL    HW234890   2.318   6.009   7.298  0.3755  0.3740  0.3695
11093SOL     OW34891   1.860   8.103   6.905 -0.2694  0.1025  0.3479
11093SOL    HW134892   1.936   8.065   6.950 -0.4238 -0.3021  0.2765
11093SOL    HW234893   1.877   8.086   6.812  0.8421  2.3676  0.0590
11094SOL     OW34894   5.504   8.557   3.689  0.4074  0.1485  0.2899
11094SOL    HW134895   5.553   8.537   3.769  1.1223  0.0598 -0.1630
11094SOL    HW234896   5.570   8.588   3.628  0.3793 -2.5954 -1.2778
11095SOL     OW34897   8.215   6.719   5.919 -0.5443 -0.5299 -0.3480
11095SOL    HW134898   8.128   6.755   5.931  0.0755  1.3083 -1.0548
11095SOL    HW234899   8.275   6.791   5.943  0.7814 -1.6584 -0.1140
11096SOL     OW34900   5.597   2.306   9.740  0.3738  0.1546 -0.1556
11096SOL    HW134901   5.536   2.379   9.735 -1.9274 -1.7059 -0.7089
11096SOL    HW234902   5.650   2.315   9.660 -1.6888 -0.2358 -1.6524
11097SOL     OW34903   5.911   1.720   6.748  0.0121 -0.6257 -0.1081
11097SOL    HW134904   5.953   1.634   6.753  0.4033 -0.3985  0.5583
11097SOL    HW234905   5.969   1.772   6.692 -0.3361 -0.8462 -0.6914
11098SOL     OW34906   3.727   8.750   1.538  0.0506  0.1048 -0.2338
11098SOL    HW134907   3.679   8.762   1.619 -2.1163 -0.3432 -1.3790
11098SOL    HW234908   3.777   8.830   1.527  0.9023 -0.0951  1.8315
11099SOL     OW34909   4.080   1.908   3.425 -0.4320 -0.2172  0.0026
11099SOL    HW134910   4.164   1.892   3.383 -0.3746  0.2292 -0.0615
11099SOL    HW234911   4.055   1.996   3.395 -1.2687 -0.6294 -0.5763
11100SOL     OW34912   0.835   7.991   6.006 -0.0040  0.7341  0.1037
11100SOL    HW134913   0.866   8.023   6.091 -0.6190  0.9412  0.2571
11100SOL    HW234914   0.744   7.965   6.022 -0.2156  1.0403 -0.5584
11101SOL     OW34915   2.442   3.867   1.351  0.0034 -0.0381  0.1782
11101SOL    HW134916   2.503   3.888   1.422  0.3290 -1.4663  0.3538
11101SOL    HW234917   2.366   3.829   1.396  0.5822 -1.8031 -0.2394
11102SOL     OW34918   5.289   8.184   5.988  0.5052 -0.0797 -0.0026
11102SOL    HW134919   5.279   8.247   5.916 -1.2653 -1.4074 -0.9970
11102SOL    HW234920   5.274   8.099   5.947  1.6837 -1.0744  1.5395
11103SOL     OW34921   6.790   4.223   6.597  0.0791  0.2402 -0.1433
11103SOL    HW134922   6.850   4.149   6.582 -0.2201 -0.0530  0.0839
11103SOL    HW234923   6.780   4.263   6.511  0.5392  0.2395 -0.1977
11104SOL     OW34924   3.727   5.671   4.791  1.1618  0.6780  0.2495
11104SOL    HW134925   3.744   5.646   4.700 -0.2142  1.6170 -0.3118
11104SOL    HW234926   3.781   5.612   4.843  1.4859 -0.3221 -1.1541
11105SOL     OW34927   8.691   7.893   6.596  0.0510  0.4199 -0.0050
11105SOL    HW134928   8.780   7.919   6.571  1.0215 -1.5008  1.2477
11105SOL    HW234929   8.685   7.912   6.689 -0.5308 -0.3116  0.1166
11106SOL     OW34930   7.358   8.769   8.434 -0.1256 -0.4971  0.1659
11106SOL    HW134931   7.449   8.745   8.451  0.6717  2.1044 -0.0592
11106SOL    HW234932   7.329   8.811   8.515 -1.5972 -2.4057  0.7006
11107SOL     OW34933   5.824   0.851   3.192  0.1772  0.0810  0.3984
11107SOL    HW134934   5.817   0.765   3.234 -1.1241  0.3701  0.8028
11107SOL    HW234935   5.822   0.832   3.098 -0.0627 -0.3337  0.4849
11108SOL     OW34936   8.758   5.224   1.804 -0.1667  0.4961  0.1999
11108SOL    HW134937   8.806   5.237   1.886  1.9789 -1.4692 -0.6317
11108SOL    HW234938   8.705   5.146   1.820 -0.8038  0.9122  0.1406
11109SOL     OW34939   9.020   9.286   1.024 -0.3815 -0.0544 -0.1897
11109SOL    HW134940   8.961   9.252   0.957 -0.7213 -0.0201  0.0860
11109SOL    HW234941   9.005   9.229   1.100 -0.7127  0.4981  0.1673
11110SOL     OW34942   2.431   9.401   0.149  0.2571  0.4074 -0.4765
11110SOL    HW134943   2.480   9.448   0.216  0.8514 -1.2541  0.3066
11110SOL    HW234944   2.349   9.450   0.140  1.0356  1.8309 -0.0499
11111SOL     OW34945   1.634   8.748   2.277  0.0583  0.1161  0.0540
11111SOL    HW134946   1.561   8.808   2.263 -1.0331 -1.2642 -0.4271
11111SOL    HW234947   1.658   8.760   2.370 -0.5543  0.8002  0.1319
11112SOL     OW34948   4.509   3.748   4.713  0.2250  0.4362  0.3331
11112SOL    HW134949   4.431   3.803   4.724 -0.2552  0.0581 -0.9482
11112SOL    HW234950   4.479   3.660   4.735 -0.0748  0.0898 -1.3194
11113SOL     OW34951   5.725   4.227   0.543  0.3956  0.1976  0.3646
11113SOL    HW134952   5.724   4.215   0.638  0.3777 -0.6170  0.2722
11113SOL    HW234953   5.758   4.143   0.509 -0.1940  0.2538 -0.3784
11114SOL     OW34954   3.652   5.437   1.982  0.2433  0.3933  0.4797
11114SOL    HW134955   3.695   5.523   1.979  1.2046 -0.0815  0.2614
11114SOL    HW234956   3.568   5.454   2.024 -0.1246  1.6654 -0.6988
11115SOL     OW34957   7.273   5.483   8.270 -0.6207 -0.2354  0.5117
11115SOL    HW134958   7.277   5.537   8.192 -1.2759  0.8714  1.2231
11115SOL    HW234959   7.311   5.399   8.243  0.3214  0.5295 -0.6378
11116SOL     OW34960   0.825   5.411   1.640 -0.8932  0.2190  0.0359
11116SOL    HW134961   0.753   5.462   1.602 -0.9802 -0.1292 -0.2726
11116SOL    HW234962   0.783   5.334   1.679 -0.7122  0.1297  0.0553
11117SOL     OW34963   5.554   5.300   0.201  0.2887 -0.3728 -0.7687
11117SOL    HW134964   5.637   5.278   0.160  0.6457 -0.3929 -0.0452
11117SOL    HW234965   5.488   5.267   0.140  0.8014 -2.5986 -0.1944
11118SOL     OW34966   7.869   4.040   4.767  0.1823 -0.1794  0.0066
11118SOL    HW134967   7.900   4.033   4.676 -0.0248  1.3096 -0.1933
11118SOL    HW234968   7.897   3.958   4.807  0.6305 -0.6981 -1.2958
11119SOL     OW34969   7.954   3.383   7.315  0.5429 -0.5462  0.6382
11119SOL    HW134970   7.939   3.473   7.288  1.8301 -0.4037  0.3194
11119SOL    HW234971   7.868   3.342   7.311  0.1502  0.3339 -0.4849
11120SOL     OW34972   8.187   8.474   5.130  0.1227 -0.2120  0.0744
11120SOL    HW134973   8.260   8.509   5.181 -0.5399  0.7476  0.4009
11120SOL    HW234974   8.126   8.441   5.196  0.3859 -1.2822 -0.2060
11121SOL     OW34975   4.735   2.246   8.474  0.4318 -0.6110  0.0476
11121SOL    HW134976   4.659   2.192   8.448  0.0865  0.9312 -2.5085
11121SOL    HW234977   4.804   2.182   8.490  0.5474 -2.0094 -4.5071
11122SOL     OW34978   8.013   1.989   6.623  0.6020 -0.0948 -0.9735
11122SOL    HW134979   7.925   1.962   6.647 -0.2966  3.8444  1.0827
11122SOL    HW234980   8.000   2.060   6.560  2.2620  0.7015 -0.4857
11123SOL     OW34981   6.031   8.073   5.000 -0.4936  0.5859  0.3673
11123SOL    HW134982   6.055   8.000   5.057  1.9881 -0.3727 -1.7000
11123SOL    HW234983   5.943   8.051   4.969  0.0381 -1.3915  0.0864
11124SOL     OW34984   7.737   2.265   3.496 -0.2125  0.2493 -0.1615
11124SOL    HW134985   7.809   2.203   3.494 -0.0394  0.3885  1.0762
11124SOL    HW234986   7.664   2.220   3.454 -0.0403 -0.7260  0.5655
11125SOL     OW34987   0.929   3.734   7.735  0.9859 -0.6752 -0.3951
11125SOL    HW134988   0.946   3.790   7.660 -0.2722  1.9620  1.1312
11125SOL    HW234989   0.833   3.726   7.738  1.0704 -1.5888  0.3446
11126SOL     OW34990   3.324   0.107   8.554  1.2277 -0.3737 -0.5209
11126SOL    HW134991   3.381   0.177   8.587  2.0092 -1.6884  1.0407
11126SOL    HW234992   3.358   0.027   8.594 -2.7659 -1.0874  1.9987
11127SOL     OW34993   6.449   1.260   4.750  0.3089  0.2005  0.4655
11127SOL    HW134994   6.469   1.349   4.779  0.3801  1.3490 -2.7377
11127SOL    HW234995   6.531   1.212   4.763  0.0256  0.2863  3.0217
11128SOL     OW34996   4.866   3.720   4.494  0.2742 -0.1788 -0.5911
11128SOL    HW134997   4.888   3.709   4.401 -1.4208  0.9379 -1.1765
11128SOL    HW234998   4.849   3.631   4.525  0.6765 -0.5482 -1.3923
11129SOL     OW34999   4.056   8.001   6.695  0.0203 -0.5419 -0.3226
11129SOL    HW135000   4.136   7.989   6.643  0.4761  1.3928 -0.1208
11129SOL    HW235001   4.083   7.985   6.785  0.7207  1.9982 -0.0071
11130SOL     OW35002   0.033   8.774   1.831  0.6963 -0.2577 -0.6624
11130SOL    HW135003   0.081   8.815   1.758  3.0722 -0.7892  0.4953
11130SOL    HW235004   0.028   8.682   1.808 -1.1816 -0.0014 -1.4543
11131SOL     OW35005   9.092   1.397   6.314  0.2380 -0.0771 -0.0228
11131SOL    HW135006   9.012   1.407   6.366  0.2308 -0.7649  0.1060
11131SOL    HW235007   9.063   1.399   6.223  0.2315  0.9731 -0.0075
11132SOL     OW35008   6.186   7.917   7.145 -0.4280  0.1594  0.1733
11132SOL    HW135009   6.137   7.993   7.174  0.2019  0.3295  0.8205
11132SOL    HW235010   6.278   7.941   7.157 -0.1810 -1.5763  2.9214
11133SOL     OW35011   1.288   6.884   3.426  0.1804 -0.0578 -0.0264
11133SOL    HW135012   1.382   6.878   3.443  0.4529 -1.3483 -1.6957
11133SOL    HW235013   1.270   6.978   3.425  1.5820  0.2333 -0.2675
11134SOL     OW35014   8.693   5.548   2.245  0.0684 -0.3660 -0.4203
11134SOL    HW135015   8.685   5.455   2.224 -0.9932 -0.1160 -1.1726
11134SOL    HW235016   8.613   5.587   2.212  0.1464  0.7003  0.5879
11135SOL     OW35017   3.036   7.823   3.191  0.6637 -0.5481  0.2340
11135SOL    HW135018   3.001   7.902   3.233  1.2842 -0.3084  0.3105
11135SOL    HW235019   2.958   7.772   3.168  0.1487  0.8573 -1.3792
11136SOL     OW35020   8.298   6.883   4.691 -0.0875 -0.0091 -0.3271
11136SOL    HW135021   8.265   6.884   4.601 -0.4065 -0.2915 -0.2152
11136SOL    HW235022   8.309   6.975   4.714  2.7476  0.0754 -1.6568
11137SOL     OW35023   9.381   9.423   0.385  0.0718 -0.4807  0.6229
11137SOL    HW135024   9.394   9.348   0.443 -1.3350  0.1186  1.7829
11137SOL    HW235025   9.299   9.404   0.339 -0.4505  0.4353  1.1358
11138SOL     OW35026   0.447   6.724   3.195  0.5437 -0.1405 -0.5621
11138SOL    HW135027   0.530   6.750   3.156  2.2484 -1.9283  1.6078
11138SOL    HW235028   0.467   6.643   3.242 -2.3460 -0.4254  0.3572
11139SOL     OW35029   6.440   1.443   7.513  0.5309  0.2831  0.9079
11139SOL    HW135030   6.439   1.473   7.422 -0.1807 -0.1209  0.7754
11139SOL    HW235031   6.512   1.492   7.553 -0.1844  1.7244  0.5397
11140SOL     OW35032   2.775   9.719   5.228 -0.1565 -0.6410  0.2046
11140SOL    HW135033   2.689   9.697   5.194  0.7320 -2.0295 -1.2982
11140SOL    HW235034   2.799   9.800   5.183  0.3223 -1.5831 -1.2904
11141SOL     OW35035   9.600   7.550   1.181  0.4988  0.2970 -0.2525
11141SOL    HW135036   9.524   7.597   1.215  0.5031  1.4517 -1.7197
11141SOL    HW235037   9.574   7.523   1.092  1.7249  0.5839 -0.7222
11142SOL     OW35038   5.184   8.370   6.753  0.0687  0.5265 -0.0118
11142SOL    HW135039   5.247   8.308   6.716 -0.5487 -0.0932 -0.0468
11142SOL    HW235040   5.105   8.358   6.701  0.0189  1.5322 -0.1780
11143SOL     OW35041   7.024   7.308   9.004 -0.3420 -0.4136  0.8520
11143SOL    HW135042   7.042   7.339   9.093 -1.0793  0.3064  0.7587
11143SOL    HW235043   6.993   7.219   9.017  2.3197 -1.4179  1.0819
11144SOL     OW35044   6.875   2.741   9.560 -0.3364  0.4096  0.6191
11144SOL    HW135045   6.818   2.792   9.503  0.0474  0.9001  0.6738
11144SOL    HW235046   6.824   2.730   9.640 -0.6533  0.1930  0.3958
11145SOL     OW35047   4.544   8.404   6.828 -0.3345 -0.2542 -0.2623
11145SOL    HW135048   4.615   8.415   6.764 -0.8593  1.2307 -0.6332
11145SOL    HW235049   4.520   8.493   6.852 -2.0204 -0.7235 -0.0841
11146SOL     OW35050   4.746   9.232   1.447  0.0781  0.1182  0.6716
11146SOL    HW135051   4.734   9.269   1.359  0.7228  0.2702  0.6382
11146SOL    HW235052   4.840   9.238   1.462  0.1152 -0.9646  0.9160
11147SOL     OW35053   8.950   3.848   6.396  0.0821  0.5206  0.5449
11147SOL    HW135054   9.004   3.925   6.411 -0.4594  0.8243  0.9751
11147SOL    HW235055   8.938   3.810   6.483 -0.8967  0.8007  0.5404
11148SOL     OW35056   5.146   7.863   4.154  0.8034  0.1348  0.5472
11148SOL    HW135057   5.115   7.810   4.080  2.1710  0.4863 -0.3226
11148SOL    HW235058   5.093   7.942   4.152  0.6770  0.0407  0.0682
11149SOL     OW35059   2.269   0.456   5.478 -0.8256 -0.3718  0.3583
11149SOL    HW135060   2.293   0.536   5.523 -0.0841  0.6181 -1.6840
11149SOL    HW235061   2.208   0.484   5.410 -1.3387 -1.6893  0.2465
11150SOL     OW35062   7.279   1.719   5.101  0.2294  0.0001 -0.1397
11150SOL    HW135063   7.318   1.672   5.027  0.0261 -0.3392 -0.0339
11150SOL    HW235064   7.279   1.810   5.074  1.0689 -0.0020 -0.1503
11151SOL     OW35065   3.154   7.043   6.253  0.7245  0.1292 -0.1243
11151SOL    HW135066   3.129   6.954   6.274  0.7476  0.0141 -0.5590
11151SOL    HW235067   3.076   7.081   6.212  0.8987  0.1223 -0.4679
11152SOL     OW35068   3.061   5.524   3.980  0.5804 -0.0726 -0.1727
11152SOL    HW135069   2.995   5.540   4.048  1.5205 -1.1166  1.0411
11152SOL    HW235070   3.113   5.451   4.014  1.8525  0.1814 -1.4767
11153SOL     OW35071   6.400   9.525   9.487 -0.1879  0.3395 -0.2120
11153SOL    HW135072   6.353   9.495   9.409  2.5776 -1.4775 -1.3269
11153SOL    HW235073   6.381   9.460   9.554  0.0442  0.0668 -0.4074
11154SOL     OW35074   4.411   2.686   3.830  0.4804  0.3069  0.2660
11154SOL    HW135075   4.492   2.729   3.859  0.8344  0.7813 -1.2954
11154SOL    HW235076   4.387   2.733   3.750 -1.1125 -0.1205  0.4720
11155SOL     OW35077   9.686   7.921   2.301  0.1460 -0.0077 -0.2588
11155SOL    HW135078   9.658   7.934   2.391 -0.5756 -1.0711 -0.3144
11155SOL    HW235079   9.618   7.965   2.249  0.7584  0.9298 -0.2878
11156SOL     OW35080   3.666   9.701   5.106 -0.0548  0.1317 -0.4520
11156SOL    HW135081   3.711   9.632   5.156  1.4910  0.6209 -1.1184
11156SOL    HW235082   3.650   9.661   5.021 -0.6922  0.0410 -0.2919
11157SOL     OW35083   6.160   9.650   3.542  0.3105 -0.1930  0.0015
11157SOL    HW135084   6.150   9.726   3.483 -3.5557  0.3090  1.0235
11157SOL    HW235085   6.128   9.681   3.626 -0.2361 -2.6462  0.7694
11158SOL     OW35086   5.694   6.235   8.942  0.0268  0.2920  0.0505
11158SOL    HW135087   5.659   6.274   8.861 -1.0026  1.6644  1.1144
11158SOL    HW235088   5.699   6.141   8.922 -0.6546  0.5320 -1.4529
11159SOL     OW35089   6.486   2.307   6.324  0.3365 -0.0418 -0.4129
11159SOL    HW135090   6.462   2.293   6.232  0.0127  0.5540 -0.4246
11159SOL    HW235091   6.513   2.221   6.355 -0.2308 -0.3943 -0.8776
11160SOL     OW35092   5.847   2.574   0.185  0.0638 -0.1784 -0.4463
11160SOL    HW135093   5.824   2.482   0.182 -2.0716  0.3147 -1.9001
11160SOL    HW235094   5.818   2.604   0.271  0.8220 -0.8505  0.0555
11161SOL     OW35095   7.807   3.582   5.237  0.1544 -0.1206  0.2660
11161SOL    HW135096   7.874   3.561   5.303 -1.2121 -0.0830  1.7295
11161SOL    HW235097   7.733   3.526   5.260 -0.7476  0.6928 -0.5751
11162SOL     OW35098   8.696   6.666   6.259 -0.2312 -0.1801 -0.5601
11162SOL    HW135099   8.638   6.737   6.284 -0.8427 -0.4142 -1.2974
11162SOL    HW235100   8.783   6.697   6.284 -0.5618  0.5592 -0.2910
11163SOL     OW35101   5.792   1.978   2.702 -0.5509 -0.1423 -0.3945
11163SOL    HW135102   5.801   2.007   2.611 -1.5740  1.4764 -0.0251
11163SOL    HW235103   5.829   2.050   2.753 -0.1046 -0.9834  0.4972
11164SOL     OW35104   1.616   9.368   5.575 -0.4116 -0.3392  0.1108
11164SOL    HW135105   1.659   9.452   5.559  0.2639 -0.6095  0.4538
11164SOL    HW235106   1.533   9.374   5.528  0.1174  0.0907 -0.7972
11165SOL     OW35107   7.191   8.878   5.024 -0.1293 -0.1770 -0.3150
11165SOL    HW135108   7.244   8.922   5.091 -0.7488 -0.2910  0.2542
11165SOL    HW235109   7.218   8.787   5.028  1.6665  0.2250 -1.9775
11166SOL     OW35110   9.477   8.244   6.017  0.5557  0.2441 -0.2236
11166SOL    HW135111   9.383   8.264   6.024  0.5272  0.5219 -1.2236
11166SOL    HW235112   9.494   8.186   6.091 -0.9600 -1.7346 -1.2998
11167SOL     OW35113   7.314   9.378   7.357  0.4087  0.5248 -0.0071
11167SOL    HW135114   7.299   9.319   7.283  1.3745 -0.7748  0.7873
11167SOL    HW235115   7.232   9.375   7.406  1.4288 -2.8666  1.7981
11168SOL     OW35116   8.721   2.701   5.028  0.5854 -0.4081  0.2445
11168SOL    HW135117   8.667   2.766   4.984  1.5213 -0.6699 -1.3943
11168SOL    HW235118   8.810   2.722   5.001  0.9095 -2.3694 -0.3828
11169SOL     OW35119   6.137   7.313   9.389  0.0040  0.0598 -0.3633
11169SOL    HW135120   6.118   7.392   9.440  0.8336 -0.9822  1.6997
11169SOL    HW235121   6.134   7.342   9.298  0.5197  2.5119  0.3154
11170SOL     OW35122   7.405   8.954   1.484 -0.2325  0.3982 -0.0962
11170SOL    HW135123   7.362   8.980   1.565  0.8028 -0.8832  0.9202
11170SOL    HW235124   7.475   9.019   1.473 -1.6529  1.8422 -1.1748
11171SOL     OW35125   5.455   9.834   8.909  0.0821  0.6630  0.1613
11171SOL    HW135126   5.541   9.794   8.903 -0.3674 -0.2993 -0.1325
11171SOL    HW235127   5.439   9.869   8.821 -0.1160  0.2035  0.0097
11172SOL     OW35128   0.454   6.184   0.774  0.3400  0.2475  0.4506
11172SOL    HW135129   0.447   6.114   0.838  1.8623 -0.7872 -0.4727
11172SOL    HW235130   0.363   6.206   0.753 -0.1687 -1.3258  0.8815
11173SOL     OW35131   4.028   3.532   5.902  0.1034  0.0937 -0.1221
11173SOL    HW135132   3.996   3.540   5.812 -0.6357 -0.6118  0.0672
11173SOL    HW235133   4.030   3.438   5.918 -0.7881  0.2376  0.9560
11174SOL     OW35134   0.828   7.144   2.700 -0.0157 -0.0692 -0.1133
11174SOL    HW135135   0.863   7.198   2.629  2.3893  0.9992  1.7636
11174SOL    HW235136   0.812   7.206   2.771 -1.0946 -1.3064  0.7660
11175SOL     OW35137   2.606   7.498   4.494  0.1030 -0.5819  0.0230
11175SOL    HW135138   2.663   7.441   4.545  0.1235 -2.1560 -1.6680
11175SOL    HW235139   2.563   7.440   4.431 -1.3593  0.9733 -0.5108
11176SOL     OW35140   4.049   6.807   0.580  0.3452 -0.5789  0.1634
11176SOL    HW135141   4.094   6.775   0.658 -0.5365 -1.4353  0.3577
11176SOL    HW235142   4.117   6.848   0.527  0.7802  1.0961  1.8970
11177SOL     OW35143   3.661   5.553   5.437 -0.2529  0.0415 -0.2218
11177SOL    HW135144   3.620   5.473   5.405 -1.7292  0.6325  0.0875
11177SOL    HW235145   3.682   5.603   5.358 -0.7198 -0.0045 -0.3817
11178SOL     OW35146   2.085   5.401   7.598  0.0477 -0.4205 -0.1144
11178SOL    HW135147   2.118   5.362   7.680  0.7244  0.8060  0.2283
11178SOL    HW235148   2.164   5.428   7.551 -0.3816  0.0283 -0.5909
11179SOL     OW35149   1.633   1.950   8.692 -0.3069  0.6663 -0.3409
11179SOL    HW135150   1.683   1.885   8.743 -1.6990 -0.5036 -0.3929
11179SOL    HW235151   1.695   2.021   8.676  0.7844  0.1083  1.1789
11180SOL     OW35152   1.883   4.761   8.699  0.6972 -0.2820 -0.0221
11180SOL    HW135153   1.788   4.763   8.692  0.7715  0.3845 -1.0501
11180SOL    HW235154   1.913   4.714   8.620  1.2651  0.7193 -0.4238
11181SOL     OW35155   3.133   0.818   3.850 -0.1142  0.0881  0.4027
11181SOL    HW135156   3.149   0.875   3.775 -0.6150 -1.0369 -0.5991
11181SOL    HW235157   3.080   0.871   3.909 -0.8634  0.5669 -0.6654
11182SOL     OW35158   8.629   1.305   5.287 -0.4817 -0.2527  0.3941
11182SOL    HW135159   8.595   1.217   5.299  1.8689 -1.5556 -1.5664
11182SOL    HW235160   8.574   1.344   5.219 -0.6919 -0.7160  0.2969
11183SOL     OW35161   4.266   4.184   6.392 -0.8010 -0.3804  0.2636
11183SOL    HW135162   4.205   4.257   6.380  0.2992  0.2898 -1.5651
11183SOL    HW235163   4.335   4.199   6.328  0.8982 -1.5487  1.7191
11184SOL     OW35164   3.720   4.196   0.524 -0.0696 -0.5589  0.5772
11184SOL    HW135165   3.774   4.268   0.490  0.8460 -1.3281  0.3648
11184SOL    HW235166   3.680   4.232   0.603  1.1407 -0.1083  1.0119
11185SOL     OW35167   3.830   4.039   5.518 -0.0932 -0.1778  0.1304
11185SOL    HW135168   3.909   4.042   5.465 -0.2450  0.9547 -0.0620
11185SOL    HW235169   3.828   3.950   5.553  2.1379  0.2116  1.4729
11186SOL     OW35170   0.731   3.829   6.318  0.1019  0.0382  0.1837
11186SOL    HW135171   0.784   3.902   6.349 -1.1532  0.9757  0.1879
11186SOL    HW235172   0.685   3.863   6.241  1.6270 -1.6279 -1.5725
11187SOL     OW35173   4.318   8.949   4.321 -0.4696 -0.0771  0.7293
11187SOL    HW135174   4.357   8.908   4.399  0.1252 -1.2659 -0.1646
11187SOL    HW235175   4.226   8.963   4.346  0.1885  1.6810  2.4391
11188SOL     OW35176   4.889   0.305   4.487  0.3057 -0.4992  0.1488
11188SOL    HW135177   4.876   0.287   4.580 -2.4737  2.4295  0.5142
11188SOL    HW235178   4.824   0.250   4.443 -0.3549  0.2034  0.2306
11189SOL     OW35179   9.843   8.551   8.898  0.7595 -0.7791  0.1903
11189SOL    HW135180   9.923   8.601   8.883  0.2816 -0.1610 -0.4369
11189SOL    HW235181   9.872   8.463   8.918  1.5859 -0.7305 -0.7168
11190SOL     OW35182   8.934   7.280   0.810  0.3662 -0.1704  0.2438
11190SOL    HW135183   8.966   7.200   0.768  0.3627 -0.4504  0.7690
11190SOL    HW235184   8.917   7.255   0.901 -1.1933 -0.0013  0.0253
11191SOL     OW35185   5.337   3.096   4.627  0.0124  0.5445  0.2636
11191SOL    HW135186   5.351   3.081   4.721 -2.4756  1.5001  0.8656
11191SOL    HW235187   5.402   3.162   4.604  2.4433 -1.5637  0.5996
11192SOL     OW35188   8.143   1.985   7.614  0.0495  0.9053  0.4335
11192SOL    HW135189   8.171   1.948   7.530  0.9633 -0.9061  1.4661
11192SOL    HW235190   8.141   1.910   7.674  1.9724  2.4809  2.6764
11193SOL     OW35191   0.602   5.730   0.519  0.0546  0.1793  0.5824
11193SOL    HW135192   0.627   5.786   0.592 -0.1825  2.0256 -0.6796
11193SOL    HW235193   0.684   5.693   0.487  0.0719 -1.4349  2.3175
11194SOL     OW35194   2.937   7.804   4.575  0.4503 -0.2220 -0.6850
11194SOL    HW135195   2.860   7.854   4.549 -1.2203 -1.5415  1.3921
11194SOL    HW235196   2.924   7.785   4.668  3.0960 -0.8832 -0.3514
11195SOL     OW35197   2.323   2.139   5.951 -1.1006 -0.5268  0.0304
11195SOL    HW135198   2.308   2.140   6.046 -2.2172 -0.5564 -0.1268
11195SOL    HW235199   2.246   2.182   5.914 -1.0161 -1.1435 -0.9004
11196SOL     OW35200   7.128   9.654   3.012  0.0247 -0.2620 -0.3941
11196SOL    HW135201   7.176   9.657   2.929  1.0616 -0.9306  0.1519
11196SOL    HW235202   7.196   9.636   3.077 -0.7164  0.6440  0.6553
11197SOL     OW35203   2.863   0.829   3.611 -0.2807 -0.0350 -0.1025
11197SOL    HW135204   2.842   0.746   3.653 -1.1197  0.0708 -0.2927
11197SOL    HW235205   2.947   0.814   3.567  0.2998 -0.3253  1.0882
11198SOL     OW35206   5.138   5.152   5.781  0.0832 -0.1364  0.1171
11198SOL    HW135207   5.174   5.095   5.849  2.3237 -0.1993 -1.0193
11198SOL    HW235208   5.056   5.111   5.756  0.3474 -1.3740  1.1867
11199SOL     OW35209   5.632   1.150   8.341 -0.1471 -0.3486  0.4288
11199SOL    HW135210   5.703   1.206   8.308 -0.8439  0.6540  0.5799
11199SOL    HW235211   5.664   1.121   8.426 -0.5964  1.5109  1.2878
11200SOL     OW35212   7.600   7.207   0.050 -0.4194 -0.4521 -0.2762
11200SOL    HW135213   7.660   7.149   0.004  0.5006 -1.9106  2.4930
11200SOL    HW235214   7.655   7.255   0.112 -1.6774  0.6411  0.0602
11201SOL     OW35215   0.480   2.968   6.436 -0.6059  0.4109 -0.1046
11201SOL    HW135216   0.530   2.999   6.361 -0.9571  0.1826 -0.4342
11201SOL    HW235217   0.479   2.872   6.427 -2.5469  0.4746 -1.0453
11202SOL     OW35218   1.321   2.755   0.106  0.1359 -0.2700  0.3523
11202SOL    HW135219   1.415   2.735   0.102  0.4471  1.1101  0.1578
11202SOL    HW235220   1.313   2.817   0.178 -0.3796  0.7946 -0.5886
11203SOL     OW35221   0.968   8.658   7.759  0.5476 -0.1710 -0.0483
11203SOL    HW135222   0.903   8.634   7.825 -2.1255  1.8795 -1.6978
11203SOL    HW235223   1.004   8.741   7.790  1.4331 -0.6360  0.1978
11204SOL     OW35224   1.403   6.564   2.443  0.6571  0.6251  0.1649
11204SOL    HW135225   1.443   6.481   2.468 -1.0949  0.0588  1.2886
11204SOL    HW235226   1.417   6.621   2.518 -1.3559  0.1077  1.0222
11205SOL     OW35227   4.613   5.676   6.796 -0.8574  0.1156  0.4132
11205SOL    HW135228   4.661   5.756   6.819 -2.2336  1.2029 -0.3675
11205SOL    HW235229   4.600   5.682   6.702 -0.5254 -1.3259  0.2519
11206SOL     OW35230   0.335   9.647   5.111  0.2083  0.6634 -0.0920
11206SOL    HW135231   0.428   9.633   5.124  0.3016  1.9393  0.7954
11206SOL    HW235232   0.297   9.641   5.199 -0.5394  0.2546 -0.4306
11207SOL     OW35233   1.427   7.498   0.932  0.2243  0.2621  0.1887
11207SOL    HW135234   1.418   7.506   1.027 -0.1205 -0.0511  0.1868
11207SOL    HW235235   1.485   7.423   0.920  0.7085  0.6392  0.1588
11208SOL     OW35236   5.641   6.605   8.991 -0.0898 -0.2499 -0.1511
11208SOL    HW135237   5.700   6.675   9.018 -1.2881  0.0065  2.0567
11208SOL    HW235238   5.663   6.532   9.049 -0.5226 -0.8402 -0.7244
11209SOL     OW35239   7.299   2.883   2.113 -0.3254 -0.4162  0.1983
11209SOL    HW135240   7.378   2.831   2.124 -0.4860 -1.0321 -1.3576
11209SOL    HW235241   7.296   2.939   2.191  1.5647 -0.4740  0.3463
11210SOL     OW35242   4.398   3.938   1.175  0.0131 -0.3971 -0.4610
11210SOL    HW135243   4.333   4.003   1.148 -1.1167 -1.2000  0.2668
11210SOL    HW235244   4.468   3.990   1.216 -0.7480  0.3818 -0.1277
11211SOL     OW35245   0.811   6.570   7.042 -0.4826  0.2322  0.4997
11211SOL    HW135246   0.758   6.502   7.084 -1.5182 -0.0161 -1.1069
11211SOL    HW235247   0.872   6.521   6.986  1.3802  0.5252  2.1535
11212SOL     OW35248   9.735   4.489   6.100 -0.3808  0.5098  0.1749
11212SOL    HW135249   9.674   4.541   6.048 -0.8256 -0.7778 -0.6395
11212SOL    HW235250   9.809   4.474   6.041 -0.6405 -0.4928  0.0937
11213SOL     OW35251   4.133   8.788   3.971  0.4643  0.1433  0.1485
11213SOL    HW135252   4.081   8.830   3.903  1.8685  2.7020  0.4980
11213SOL    HW235253   4.069   8.762   4.038 -0.5495  1.7254 -0.1480
11214SOL     OW35254   7.846   6.750   0.837  0.2111  0.0361  0.5470
11214SOL    HW135255   7.761   6.737   0.879  0.5341 -0.3813  1.0957
11214SOL    HW235256   7.848   6.686   0.766  0.9832 -1.6419  1.9885
11215SOL     OW35257   3.922   0.450   5.992  0.2616  0.7563 -0.6054
11215SOL    HW135258   3.867   0.386   6.036  0.0714  0.4019 -1.3377
11215SOL    HW235259   3.867   0.529   5.986 -1.1899 -0.3266 -3.5471
11216SOL     OW35260   6.080   9.842   3.354 -0.4511  1.0323 -0.2713
11216SOL    HW135261   6.062   9.759   3.310  1.5426  0.1010  0.5257
11216SOL    HW235262   6.062   9.909   3.288  2.6744 -0.3032 -2.7369
11217SOL     OW35263   6.376   9.024   1.823  0.0828  0.2363  0.2111
11217SOL    HW135264   6.298   9.034   1.878  0.7245 -0.3418  1.2702
11217SOL    HW235265   6.446   9.070   1.871  0.7813 -0.7311  0.1514
11218SOL     OW35266   9.794   0.440   7.465  0.0378 -0.4605  0.5612
11218SOL    HW135267   9.860   0.510   7.462 -0.6132  0.1230 -0.4690
11218SOL    HW235268   9.784   0.421   7.558 -1.1932  2.1823  1.0362
11219SOL     OW35269   1.382   6.955   4.055  0.1044 -0.0829  0.0765
11219SOL    HW135270   1.356   6.882   4.110  0.3768 -1.1152 -1.1178
11219SOL    HW235271   1.472   6.975   4.082 -0.3588  0.5976  1.1916
11220SOL     OW35272   4.254   8.089   4.456 -0.0519 -0.0833  0.1778
11220SOL    HW135273   4.349   8.091   4.442  0.1544 -0.0722  1.4386
11220SOL    HW235274   4.226   8.006   4.416  0.3753  0.2347 -0.8034
11221SOL     OW35275   0.251   5.862   1.073  0.1193 -0.6110 -0.3777
11221SOL    HW135276   0.217   5.936   1.023 -1.9775 -1.6440 -0.5894
11221SOL    HW235277   0.268   5.897   1.160 -0.3885  0.2212 -0.6033
11222SOL     OW35278   0.664   1.119   2.637 -0.3957 -0.1529 -0.1944
11222SOL    HW135279   0.691   1.044   2.692 -2.2579 -2.0660 -1.7075
11222SOL    HW235280   0.695   1.096   2.549 -0.1168  1.3868 -0.5159
11223SOL     OW35281   3.859   7.933   0.691  0.3576 -0.1435  0.1989
11223SOL    HW135282   3.790   7.890   0.640 -1.0963  1.6297  0.5818
11223SOL    HW235283   3.924   7.960   0.625  0.1291 -0.8187 -0.3099
11224SOL     OW35284   2.843   6.606   1.654 -0.8067 -0.2610  0.3061
11224SOL    HW135285   2.771   6.547   1.676  0.5542 -1.9115  0.5933
11224SOL    HW235286   2.852   6.598   1.559 -0.9539 -0.1057  0.2786
11225SOL     OW35287   8.775   5.611   9.654 -0.3206  0.6419  0.2471
11225SOL    HW135288   8.853   5.633   9.705 -0.0151  3.2777 -1.2107
11225SOL    HW235289   8.809   5.561   9.580 -0.1399  1.0555  0.0535
11226SOL     OW35290   1.452   4.465   1.887 -0.1866 -0.0523  0.1275
11226SOL    HW135291   1.515   4.498   1.951  0.7384  1.5447 -1.5001
11226SOL    HW235292   1.366   4.488   1.922  0.3427  1.6881  0.3698
11227SOL     OW35293   3.762   2.821   5.703  0.2762  0.3280 -0.4431
11227SOL    HW135294   3.772   2.726   5.707  1.0683  0.4140 -0.1673
11227SOL    HW235295   3.802   2.845   5.619 -1.0965  0.2965 -1.1418
11228SOL     OW35296   1.724   0.314   1.701 -0.3449 -0.1271 -0.2264
11228SOL    HW135297   1.707   0.239   1.758  0.8084 -0.1754  0.0869
11228SOL    HW235298   1.816   0.305   1.676 -0.6914  0.1900 -1.6874
11229SOL     OW35299   8.860   1.459   0.991  0.2558 -0.0353 -0.2105
11229SOL    HW135300   8.882   1.536   0.939  0.7983  0.0499  0.1315
11229SOL    HW235301   8.922   1.392   0.962  0.5887  0.0230  0.3299
11230SOL     OW35302   4.463   1.713   9.243  0.2065 -0.0035 -0.4353
11230SOL    HW135303   4.403   1.710   9.318  0.4394 -0.2651 -0.2585
11230SOL    HW235304   4.510   1.630   9.246 -0.6268 -0.5528 -1.5726
11231SOL     OW35305   8.375   8.030   0.768 -0.3762 -0.7756 -0.1738
11231SOL    HW135306   8.376   8.009   0.674  0.1484  0.7219 -0.5238
11231SOL    HW235307   8.352   8.123   0.771 -0.5031 -0.8425  1.1992
11232SOL     OW35308   1.731   2.991   7.918 -0.0216 -0.2963  0.2827
11232SOL    HW135309   1.809   3.046   7.925  0.8657 -1.2464 -1.5421
11232SOL    HW235310   1.659   3.053   7.904  0.7260  0.4798 -0.1798
11233SOL     OW35311   4.071   6.717   8.293  0.1351 -0.3801  0.0429
11233SOL    HW135312   4.102   6.737   8.381  0.6338  0.5805 -0.3414
11233SOL    HW235313   4.026   6.633   8.302 -0.9752  0.3286  1.4662
11234SOL     OW35314   6.774   3.363   1.829 -0.4006 -0.6920  0.0314
11234SOL    HW135315   6.717   3.391   1.901 -1.2383 -0.0812 -0.8369
11234SOL    HW235316   6.753   3.271   1.816 -1.1449 -0.4956 -0.2205
11235SOL     OW35317   3.193   5.521   9.562 -0.1331  0.5921 -0.1560
11235SOL    HW135318   3.196   5.553   9.471 -2.4004  0.5177 -0.3003
11235SOL    HW235319   3.118   5.462   9.564 -0.6589  1.2718  1.9947
11236SOL     OW35320   0.265   9.818   2.713 -0.0475  0.0226 -0.0471
11236SOL    HW135321   0.351   9.859   2.721 -0.8503  1.5646  1.3249
11236SOL    HW235322   0.282   9.736   2.665  1.9499  0.9070 -0.9912
11237SOL     OW35323   9.254   7.734   2.068 -0.7082 -0.1650  0.4265
11237SOL    HW135324   9.276   7.816   2.112  2.5427  0.7614 -2.4699
11237SOL    HW235325   9.183   7.757   2.008 -0.1712  0.4074  0.0024
11238SOL     OW35326   9.340   0.468   3.145  0.2425  0.7508 -0.2997
11238SOL    HW135327   9.297   0.413   3.210  1.6815  0.3445  0.3266
11238SOL    HW235328   9.290   0.453   3.064 -0.6386  0.1202  0.3433
11239SOL     OW35329   5.706   4.989   8.663  0.4090  0.2396  0.7470
11239SOL    HW135330   5.718   4.897   8.639  0.3478  0.2192  0.7938
11239SOL    HW235331   5.652   5.025   8.592  2.4974  0.8716 -0.6207
11240SOL     OW35332   6.907   7.527   1.175  0.1050  0.0307 -0.4310
11240SOL    HW135333   6.832   7.504   1.119  0.5380 -1.7149 -0.3383
11240SOL    HW235334   6.911   7.623   1.170 -2.5911  0.2673  0.1529
11241SOL     OW35335   9.393   0.781   5.940  0.6688  0.3234 -0.6250
11241SOL    HW135336   9.441   0.717   5.886 -1.4319 -1.8175 -0.1523
11241SOL    HW235337   9.353   0.840   5.877  1.2838  0.1406 -1.2002
11242SOL     OW35338   5.159   9.750   8.977 -0.1806  0.3989 -0.3778
11242SOL    HW135339   5.221   9.749   8.904 -0.3429  1.6479 -0.5564
11242SOL    HW235340   5.207   9.789   9.050 -0.7629  1.4519 -0.5415
11243SOL     OW35341   3.202   6.250   8.555  0.0035  0.2918 -0.0303
11243SOL    HW135342   3.278   6.303   8.581  1.9209 -1.5514 -1.4667
11243SOL    HW235343   3.223   6.162   8.587 -0.5126 -0.6828 -2.2007
11244SOL     OW35344   4.768   9.133   3.979 -0.1334  0.1696 -0.3773
11244SOL    HW135345   4.754   9.186   4.057 -0.2158 -0.3181 -0.0533
11244SOL    HW235346   4.721   9.051   3.997 -1.6029  0.6834 -1.6357
11245SOL     OW35347   7.949   0.731   4.824 -0.1510  0.3934  0.1682
11245SOL    HW135348   7.865   0.774   4.807 -0.0870  0.4798  0.0608
11245SOL    HW235349   7.990   0.724   4.737 -0.4107 -0.4134  0.1084
11246SOL     OW35350   3.692   6.494   6.369 -0.1940 -0.1384 -0.1350
11246SOL    HW135351   3.624   6.555   6.396  1.4127  3.4319 -3.1494
11246SOL    HW235352   3.645   6.414   6.348 -3.2560  1.5449 -0.3406
11247SOL     OW35353   8.657   5.973   0.193 -0.1811  0.0421  0.0024
11247SOL    HW135354   8.709   6.041   0.235  1.5432  0.7217 -2.9154
11247SOL    HW235355   8.586   6.022   0.149 -0.6820 -0.3980  0.3095
11248SOL     OW35356   1.072   5.975   6.578 -0.1442  0.5685  0.4409
11248SOL    HW135357   1.085   6.061   6.618  0.5022  0.5599  0.2555
11248SOL    HW235358   1.014   5.929   6.638  0.8924  0.5187  1.4396
11249SOL     OW35359   5.097   3.405   2.974 -0.0742 -0.1132  0.0571
11249SOL    HW135360   5.100   3.311   2.987  0.6890 -0.1367 -0.2513
11249SOL    HW235361   5.079   3.417   2.881 -1.6198  0.0567  0.3538
11250SOL     OW35362   3.234   5.360   7.923  0.1656  0.4338  0.5047
11250SOL    HW135363   3.314   5.338   7.875  0.3914  0.8534  0.6891
11250SOL    HW235364   3.214   5.281   7.973  0.7563  0.5043  0.8634
11251SOL     OW35365   5.956   3.895   7.308  0.1450 -0.4913  0.6252
11251SOL    HW135366   5.912   3.821   7.266  0.5299 -0.5147  0.2428
11251SOL    HW235367   5.886   3.954   7.335 -0.1999 -1.2821  1.4979
11252SOL     OW35368   6.925   4.587   6.062  0.0897 -0.1611 -0.6959
11252SOL    HW135369   6.841   4.631   6.069 -0.5603 -1.5840  1.7690
11252SOL    HW235370   6.981   4.633   6.126  0.1407 -1.2654  0.0817
11253SOL     OW35371   9.444   9.490   5.044  0.3003 -0.1763 -0.3591
11253SOL    HW135372   9.472   9.432   5.115 -0.5038 -0.4152 -0.2161
11253SOL    HW235373   9.524   9.511   4.996  0.7860 -0.3876  0.3441
11254SOL     OW35374   6.578   3.109   7.279  0.3636  0.0789 -0.1527
11254SOL    HW135375   6.568   3.159   7.198  1.0655 -0.6138 -0.6805
11254SOL    HW235376   6.673   3.099   7.290  0.2549 -0.5970  0.2624
11255SOL     OW35377   0.791   7.650   4.145  0.1049  0.6988 -0.6278
11255SOL    HW135378   0.794   7.555   4.138 -0.1931  0.6678 -0.3367
11255SOL    HW235379   0.883   7.677   4.137  0.2319  0.3620 -0.3417
11256SOL     OW35380   5.866   3.372   4.397  0.4498  0.2946  0.8917
11256SOL    HW135381   5.859   3.450   4.343  1.1840  0.3108  0.8192
11256SOL    HW235382   5.886   3.405   4.485  2.3971  0.1443  0.5527
11257SOL     OW35383   5.705   9.022   6.819  0.0962  0.4780 -0.6109
11257SOL    HW135384   5.684   8.935   6.785  1.5541 -0.1939  0.0872
11257SOL    HW235385   5.631   9.046   6.873  0.4094 -1.1280  0.6011
11258SOL     OW35386   3.362   7.340   8.897 -0.3409 -0.8181 -0.3487
11258SOL    HW135387   3.455   7.359   8.885  0.0258 -0.9025  1.9121
11258SOL    HW235388   3.323   7.424   8.922 -0.2985 -1.3309  1.5356
11259SOL     OW35389   5.970   5.594   8.104  0.5206  0.6490  0.3821
11259SOL    HW135390   5.950   5.678   8.145 -1.4230  1.8261 -2.6190
11259SOL    HW235391   5.916   5.531   8.152  1.5456  1.1276  2.2826
11260SOL     OW35392   5.967   6.277   9.810 -0.1082 -0.2172  0.1206
11260SOL    HW135393   5.908   6.218   9.856 -0.0380 -1.9495 -1.8937
11260SOL    HW235394   5.988   6.345   9.875 -0.7541 -1.9845  2.3089
11261SOL     OW35395   5.625   1.784   1.431  0.0101 -0.4364 -0.3108
11261SOL    HW135396   5.699   1.730   1.403 -0.6697 -3.2054  2.5995
11261SOL    HW235397   5.626   1.778   1.527 -2.2606  1.9232 -0.0324
11262SOL     OW35398   8.226   6.685   2.537 -0.4648 -0.2124 -0.3684
11262SOL    HW135399   8.169   6.629   2.590 -1.9459  0.7864 -0.8692
11262SOL    HW235400   8.169   6.720   2.469  0.6527  1.1672 -0.6284
11263SOL     OW35401   2.095   9.326   9.763  0.6160  0.0418 -0.4440
11263SOL    HW135402   2.176   9.377   9.759  0.3758  0.6859  1.6228
11263SOL    HW235403   2.096   9.286   9.850 -0.7806 -0.8148 -0.7948
11264SOL     OW35404   1.594   7.291   0.948 -0.0140 -0.3625 -0.2381
11264SOL    HW135405   1.647   7.287   1.028  1.6209 -0.6263 -1.2848
11264SOL    HW235406   1.562   7.202   0.935 -1.7491  0.0265  1.0152
11265SOL     OW35407   1.841   2.564   0.219  0.5914  0.2248 -0.1375
11265SOL    HW135408   1.929   2.600   0.207  1.6392 -1.2406  2.4081
11265SOL    HW235409   1.855   2.472   0.240 -1.4622  0.1653  1.3127
11266SOL     OW35410   1.776   1.280   8.148  0.0579  0.1649  0.4663
11266SOL    HW135411   1.681   1.270   8.158  0.2696 -1.9778  0.7122
11266SOL    HW235412   1.803   1.202   8.098  1.6742  0.8314  0.2450
11267SOL     OW35413   8.998   6.026   6.711  0.1248  0.3027 -0.1448
11267SOL    HW135414   8.999   5.953   6.773 -0.0133  0.5795  0.1871
11267SOL    HW235415   8.905   6.044   6.697  0.1578  0.6316  0.0370
11268SOL     OW35416   3.955   8.584   1.354 -0.5659  0.1033 -0.2177
11268SOL    HW135417   3.945   8.589   1.449  2.9639 -1.3421  0.3906
11268SOL    HW235418   3.981   8.672   1.328 -0.5749  0.2741  0.3400
11269SOL     OW35419   6.877   8.144   6.162  0.6550  0.3973 -0.7112
11269SOL    HW135420   6.922   8.159   6.245 -0.0047  2.1498 -0.6296
11269SOL    HW235421   6.943   8.162   6.095  0.7931  0.3653 -0.5834
11270SOL     OW35422   4.804   4.120   1.611  0.0339  0.3343  0.4027
11270SOL    HW135423   4.844   4.080   1.688  0.3462  0.7753  0.4771
11270SOL    HW235424   4.781   4.209   1.640  0.2526  0.5383 -0.0458
11271SOL     OW35425   1.211   9.609   5.692 -0.0019  0.1507  0.2983
11271SOL    HW135426   1.143   9.563   5.642 -0.6007 -1.2522  2.2499
11271SOL    HW235427   1.222   9.555   5.771  0.6510  2.3966  1.8323
11272SOL     OW35428   6.735   6.039   9.763  0.4946  0.3452  0.0128
11272SOL    HW135429   6.685   6.085   9.830 -0.2652  0.3024 -0.5204
11272SOL    HW235430   6.713   5.946   9.775  0.0209  0.3778 -0.5655
11273SOL     OW35431   2.467   5.790   6.605  0.0235 -0.4149  0.5494
11273SOL    HW135432   2.553   5.821   6.634  0.6182 -1.5033  0.0311
11273SOL    HW235433   2.487   5.715   6.549 -1.0752  1.2326 -2.2480
11274SOL     OW35434   3.692   6.502   8.848  0.4997  0.1159 -0.1626
11274SOL    HW135435   3.665   6.587   8.812  2.1078  1.1930  1.0245
11274SOL    HW235436   3.788   6.507   8.850  0.6533 -1.9595 -0.5445
11275SOL     OW35437   5.211   1.085   3.938 -0.0901  0.6746  0.3715
11275SOL    HW135438   5.204   1.174   3.973 -1.5896  0.6250  0.2296
11275SOL    HW235439   5.254   1.035   4.008 -3.3765  0.4762  2.4301
11276SOL     OW35440   6.422   8.641   9.525  0.0773  0.3041  0.7942
11276SOL    HW135441   6.454   8.720   9.482 -0.1971 -1.8458 -3.9819
11276SOL    HW235442   6.337   8.666   9.561 -0.7346  1.9448 -1.9247
11277SOL     OW35443   2.638   5.887   9.788 -0.9783  0.3731  0.0780
11277SOL    HW135444   2.672   5.819   9.731 -0.6687  0.4741  0.1414
11277SOL    HW235445   2.596   5.840   9.860 -0.4199  0.2462  0.3250
11278SOL     OW35446   1.304   5.663   4.842 -0.4028  0.4378  0.2131
11278SOL    HW135447   1.303   5.736   4.781 -0.9557 -0.1535 -0.5147
11278SOL    HW235448   1.392   5.663   4.879 -0.2115  1.0992 -0.2257
11279SOL     OW35449   2.502   9.319   0.545  0.4358 -0.3562 -0.5837
11279SOL    HW135450   2.515   9.288   0.635  0.8686  1.4593  0.0271
11279SOL    HW235451   2.496   9.239   0.493  2.1088 -1.4582  0.7864
11280SOL     OW35452   5.862   7.659   6.128  0.1015 -0.2794 -0.9927
11280SOL    HW135453   5.956   7.678   6.128 -0.0883  0.8919  0.7836
11280SOL    HW235454   5.853   7.582   6.185 -0.0685 -0.0575 -0.7184
11281SOL     OW35455   1.504   4.625   6.894 -0.3213  0.4508  0.0846
11281SOL    HW135456   1.430   4.569   6.914  0.6931 -0.8770  0.2818
11281SOL    HW235457   1.578   4.565   6.884  0.8530  1.7606  0.4805
11282SOL     OW35458   7.382   8.869   9.564 -0.3909 -0.3463  0.3665
11282SOL    HW135459   7.364   8.822   9.483 -1.7242  0.2450  0.2927
11282SOL    HW235460   7.311   8.934   9.571  0.6458  0.7482  1.1407
11283SOL     OW35461   4.579   9.270   6.722  0.0219 -0.1413  0.5373
11283SOL    HW135462   4.547   9.315   6.644  1.0828  0.7577  0.5947
11283SOL    HW235463   4.517   9.295   6.791  0.1919  0.6756  0.4093
11284SOL     OW35464   6.484   9.297   7.361  0.7578  0.4023 -0.3900
11284SOL    HW135465   6.439   9.291   7.445 -0.0770 -0.2730 -0.8694
11284SOL    HW235466   6.438   9.367   7.314 -0.1735 -0.6319 -1.0782
11285SOL     OW35467   5.793   6.558   7.377 -0.6074  0.0886  0.0862
11285SOL    HW135468   5.863   6.620   7.399 -1.5526  0.9575  0.7351
11285SOL    HW235469   5.812   6.481   7.431 -0.4126  0.5069  0.6253
11286SOL     OW35470   2.601   6.907   0.596 -0.3885  0.0792 -0.1810
11286SOL    HW135471   2.616   6.818   0.563  0.5137  0.2726 -0.3233
11286SOL    HW235472   2.686   6.933   0.632 -0.4065  1.2219 -0.9468
11287SOL     OW35473   8.745   5.580   1.218 -0.2898 -0.7703 -0.0102
11287SOL    HW135474   8.666   5.540   1.256 -0.3754 -0.7095 -0.1222
11287SOL    HW235475   8.745   5.550   1.127  0.3486 -1.5676  0.2367
11288SOL     OW35476   6.669   3.154   8.057 -0.2419 -0.2668  0.0642
11288SOL    HW135477   6.718   3.072   8.056 -0.3231 -0.3195  0.3429
11288SOL    HW235478   6.578   3.128   8.074 -0.8058 -0.3808 -2.6673
11289SOL     OW35479   8.184   3.639   9.395 -0.0851 -0.2634 -0.7144
11289SOL    HW135480   8.125   3.568   9.420  0.0481 -1.5706 -3.6568
11289SOL    HW235481   8.255   3.635   9.459 -0.6001 -2.1178 -0.1982
11290SOL     OW35482   7.100   2.448   6.829 -0.2074 -0.0417 -0.5189
11290SOL    HW135483   7.024   2.397   6.856 -2.2038  1.8376 -2.1879
11290SOL    HW235484   7.129   2.493   6.909 -1.9231  0.4836 -0.1570
11291SOL     OW35485   7.940   3.481   6.661 -0.0423 -0.2545 -0.0154
11291SOL    HW135486   7.970   3.516   6.576  0.8356 -0.9349 -0.0065
11291SOL    HW235487   7.848   3.506   6.666 -1.1794 -3.2224 -2.8195
11292SOL     OW35488   2.879   4.519   9.163 -0.6136 -0.7880  0.4716
11292SOL    HW135489   2.831   4.552   9.087  1.4106  0.2000 -0.4750
11292SOL    HW235490   2.883   4.424   9.150 -0.4283 -0.6498 -0.6007
11293SOL     OW35491   0.456   3.541   8.105 -0.2371 -0.5648  0.0951
11293SOL    HW135492   0.460   3.489   8.186  0.5560 -0.0633  0.3888
11293SOL    HW235493   0.453   3.476   8.035  0.8430 -1.0315  0.4523
11294SOL     OW35494   8.367   7.718   5.901  0.0001  0.3721 -0.0607
11294SOL    HW135495   8.294   7.657   5.902  0.3487 -0.0618 -0.6341
11294SOL    HW235496   8.357   7.769   5.982  1.1221 -2.1445  1.7971
11295SOL     OW35497   4.122   4.369   6.946 -0.5283 -0.2929 -0.1633
11295SOL    HW135498   4.209   4.397   6.916 -0.3983 -0.6714 -0.1437
11295SOL    HW235499   4.136   4.343   7.037 -0.6057 -0.6160 -0.2444
11296SOL     OW35500   8.627   2.571   0.976  0.5382 -0.1824  0.4127
11296SOL    HW135501   8.618   2.477   0.958 -0.9182 -0.1598  0.8773
11296SOL    HW235502   8.575   2.584   1.056 -0.4910  1.2806 -0.4677
11297SOL     OW35503   7.867   1.010   0.873  0.6462  0.4228  0.0830
11297SOL    HW135504   7.935   0.977   0.814  1.0981  1.3900  0.0456
11297SOL    HW235505   7.896   0.983   0.961  0.2778 -0.4955 -0.0610
11298SOL     OW35506   6.878   3.628   1.940  0.3804  0.7519  0.0494
11298SOL    HW135507   6.841   3.541   1.930 -0.2492  0.6932  2.2661
11298SOL    HW235508   6.872   3.667   1.853 -3.4707  0.1571 -0.1378
11299SOL     OW35509   3.514   8.880   8.639  0.6820 -0.1330  0.3596
11299SOL    HW135510   3.548   8.934   8.567  0.3407 -0.0735  0.2430
11299SOL    HW235511   3.473   8.805   8.595 -0.3304  0.3577  0.4529
11300SOL     OW35512   6.310   3.453   4.175  0.6435  0.2927 -0.3440
11300SOL    HW135513   6.313   3.525   4.112 -0.4307  1.1247  0.5079
11300SOL    HW235514   6.282   3.377   4.125 -0.9481  1.1051 -0.7554
11301SOL     OW35515   5.885   8.116   8.751  0.4113  0.2241 -0.1065
11301SOL    HW135516   5.802   8.119   8.703  0.7306 -0.7721 -0.7496
11301SOL    HW235517   5.952   8.132   8.684  0.7847  0.2626  0.2719
11302SOL     OW35518   5.158   3.253   7.961  0.3677 -0.0493  0.1350
11302SOL    HW135519   5.161   3.158   7.968  1.2814 -0.0685 -0.4027
11302SOL    HW235520   5.228   3.284   8.020  0.0744  0.2951  0.3098
11303SOL     OW35521   8.154   8.220   8.205 -0.1795  0.3921 -0.7460
11303SOL    HW135522   8.162   8.289   8.271  0.1746 -0.4738  0.1366
11303SOL    HW235523   8.190   8.142   8.247 -0.5418 -0.3318 -1.7418
11304SOL     OW35524   8.520   5.666   9.389 -0.3849 -0.8657 -0.3269
11304SOL    HW135525   8.428   5.668   9.363  0.1851 -0.1094 -2.5634
11304SOL    HW235526   8.521   5.618   9.472 -2.5949 -2.3003 -1.0435
11305SOL     OW35527   5.172   4.596   5.091  0.0921  0.2075 -0.3621
11305SOL    HW135528   5.197   4.667   5.151  0.7630  1.3522 -1.9446
11305SOL    HW235529   5.202   4.625   5.005  0.0895 -1.8713 -1.1197
11306SOL     OW35530   3.471   7.983   2.423  0.3464 -0.0689  0.0603
11306SOL    HW135531   3.477   8.071   2.385 -0.4467 -0.1574 -0.2833
11306SOL    HW235532   3.487   7.924   2.349 -1.4285 -0.2461 -0.2164
11307SOL     OW35533   0.982   4.007   8.901 -0.4718 -0.2670  0.2847
11307SOL    HW135534   0.938   4.049   8.975 -2.0279  0.8007 -1.1935
11307SOL    HW235535   1.071   3.992   8.933 -1.1262  0.0292  2.4170
11308SOL     OW35536   7.617   0.149   8.602  0.1118 -0.6825 -0.0576
11308SOL    HW135537   7.696   0.169   8.650 -0.4228 -1.0200  0.9882
11308SOL    HW235538   7.567   0.231   8.601  0.0487 -0.7196  0.1019
11309SOL     OW35539   1.412   3.401   5.708  0.3764 -0.2711  0.1817
11309SOL    HW135540   1.364   3.328   5.746 -0.6799  0.3393  0.0594
11309SOL    HW235541   1.347   3.471   5.700  0.9588  0.1486 -1.2260
11310SOL     OW35542   2.809   5.822   4.358  0.0526 -0.3003 -0.6448
11310SOL    HW135543   2.820   5.909   4.396  0.9236 -0.3844 -0.6834
11310SOL    HW235544   2.715   5.804   4.366 -0.6067  1.6500 -2.8551
11311SOL     OW35545   3.068   4.709   9.068 -0.6803 -0.6222  0.2325
11311SOL    HW135546   3.035   4.793   9.035 -1.8633 -1.3945 -0.6484
11311SOL    HW235547   2.994   4.671   9.115  0.1666 -0.7418  1.5248
11312SOL     OW35548   3.772   4.534   1.986 -0.0984 -0.1921 -0.4194
11312SOL    HW135549   3.831   4.552   1.913 -0.5937 -1.0823 -1.0594
11312SOL    HW235550   3.690   4.507   1.945 -1.0863  1.3323  0.4569
11313SOL     OW35551   5.319   1.005   4.623 -0.0535  0.0314 -0.5200
11313SOL    HW135552   5.403   0.999   4.579  0.1538  1.2606 -0.3166
11313SOL    HW235553   5.266   1.063   4.567 -0.1599  0.6976  0.2519
11314SOL     OW35554   5.386   5.982   0.754  0.4714 -0.1307 -0.1422
11314SOL    HW135555   5.470   5.989   0.708  0.3332  1.3995 -0.2405
11314SOL    HW235556   5.327   5.942   0.690  1.3683 -2.3038  0.3175
11315SOL     OW35557   8.193   7.190   2.097 -0.0237  0.2297 -0.0258
11315SOL    HW135558   8.207   7.237   2.014 -0.1001  0.4134  0.0657
11315SOL    HW235559   8.133   7.119   2.074  1.2416 -0.7191 -0.4737
11316SOL     OW35560   7.964   4.429   8.967  0.5656 -0.6565  0.4564
11316SOL    HW135561   8.025   4.402   8.898 -0.4111 -0.3600 -0.5361
11316SOL    HW235562   7.888   4.463   8.921  0.7180  1.4916  1.6723
11317SOL     OW35563   1.093   7.203   3.877 -0.1413 -0.6795 -0.0970
11317SOL    HW135564   1.041   7.268   3.829  1.4200  0.9053  0.2195
11317SOL    HW235565   1.065   7.212   3.968  0.9855  0.5836  0.1680
11318SOL     OW35566   0.601   9.288   7.195 -0.0904  0.2816 -0.1676
11318SOL    HW135567   0.682   9.245   7.223  0.6571  1.6621 -0.1125
11318SOL    HW235568   0.533   9.223   7.210  0.6440 -0.0333  2.2519
11319SOL     OW35569   0.685   6.251   3.690 -0.8028  0.1118 -0.1273
11319SOL    HW135570   0.729   6.226   3.608  0.8352 -1.8386  1.2458
11319SOL    HW235571   0.698   6.346   3.696 -1.6981  0.4544 -2.4823
11320SOL     OW35572   0.945   0.343   6.621 -0.0013  0.0100  0.0177
11320SOL    HW135573   0.867   0.354   6.676 -0.1740 -0.0790 -0.2098
11320SOL    HW235574   0.990   0.267   6.659  0.7738  0.9766  1.0918
11321SOL     OW35575   8.376   3.796   8.004 -0.2003 -0.4668 -0.0491
11321SOL    HW135576   8.363   3.854   7.929 -1.1007 -0.6476 -0.0480
11321SOL    HW235577   8.288   3.763   8.024  0.1651 -1.1187  0.5212
11322SOL     OW35578   2.904   4.181   5.312 -0.0697 -0.8353 -0.7045
11322SOL    HW135579   2.879   4.122   5.241 -1.0559 -2.0874  0.6121
11322SOL    HW235580   2.830   4.177   5.373  1.0529 -0.3742  0.7346
11323SOL     OW35581   0.629   2.469   4.161 -0.5796 -0.0505 -0.3595
11323SOL    HW135582   0.664   2.409   4.227 -0.0907 -0.4964 -1.0103
11323SOL    HW235583   0.672   2.553   4.180  0.1085 -0.3553 -0.5565
11324SOL     OW35584   0.816   3.843   2.136 -0.1471 -0.1235  0.0778
11324SOL    HW135585   0.874   3.919   2.137 -2.4469  1.7745 -0.7041
11324SOL    HW235586   0.751   3.861   2.205 -0.2766 -1.8178  0.4580
11325SOL     OW35587   7.795   6.726   5.665  0.1018 -0.2959  0.2817
11325SOL    HW135588   7.787   6.659   5.732  0.3614 -3.0564 -2.2644
11325SOL    HW235589   7.733   6.701   5.597  2.2455  0.3053 -2.0701
11326SOL     OW35590   2.982   3.398   4.083  0.1757  0.1224 -0.7923
11326SOL    HW135591   3.030   3.470   4.124  0.9424 -0.5267 -0.5246
11326SOL    HW235592   2.925   3.365   4.152  0.1272  0.2035 -0.7928
11327SOL     OW35593   0.262   4.805   1.829 -0.4966  0.3204 -0.3829
11327SOL    HW135594   0.201   4.764   1.891 -0.1259  0.6507  0.2072
11327SOL    HW235595   0.286   4.887   1.871  0.4924  0.1084 -0.5240
11328SOL     OW35596   6.455   5.298   4.856 -0.0718  0.3245  0.7626
11328SOL    HW135597   6.381   5.354   4.831 -0.5814 -0.8675 -0.4957
11328SOL    HW235598   6.416   5.229   4.909 -0.0535 -0.8858 -0.7603
11329SOL     OW35599   8.909   8.522   1.260 -0.0685  0.3740 -0.7958
11329SOL    HW135600   8.872   8.490   1.178 -2.2647  1.3370 -0.2553
11329SOL    HW235601   8.925   8.615   1.244  0.8027  0.2687 -0.5609
11330SOL     OW35602   4.875   0.145   9.635  0.2181 -0.0655 -0.0465
11330SOL    HW135603   4.965   0.165   9.660  0.1669  0.8041 -0.5253
11330SOL    HW235604   4.826   0.155   9.717  0.2966  1.1931 -0.1338
11331SOL     OW35605   3.724   2.103   9.555  0.4644  1.0211  0.2027
11331SOL    HW135606   3.668   2.163   9.504  1.0745  2.2168  0.8836
11331SOL    HW235607   3.672   2.081   9.632  0.6380  1.5859  0.4953
11332SOL     OW35608   0.260   0.672   8.348  0.4053  0.1343 -0.0766
11332SOL    HW135609   0.215   0.612   8.406  0.8745  0.1597  0.3221
11332SOL    HW235610   0.266   0.626   8.265 -1.2946  0.5471 -0.4575
11333SOL     OW35611   4.260   1.107   6.800 -0.6298  0.6842 -0.9844
11333SOL    HW135612   4.262   1.202   6.806 -0.6446  0.6065  1.0671
11333SOL    HW235613   4.172   1.086   6.769 -0.7343  1.3145 -1.1349
11334SOL     OW35614   9.691   9.073   7.244  0.2770  0.4986 -0.6438
11334SOL    HW135615   9.619   9.102   7.189 -0.3671 -1.2312 -0.7520
11334SOL    HW235616   9.740   9.011   7.189  0.3488 -0.2904  0.2835
11335SOL     OW35617   5.278   7.494   6.538  0.4902 -0.2899 -0.4394
11335SOL    HW135618   5.359   7.503   6.589 -0.2010 -0.3750  0.7143
11335SOL    HW235619   5.299   7.531   6.452  1.3116  1.0707  0.3109
11336SOL     OW35620   7.717   8.905   4.879 -0.3294 -0.0669 -0.0392
11336SOL    HW135621   7.638   8.945   4.914 -0.3225  0.1205 -0.2370
11336SOL    HW235622   7.759   8.865   4.955 -1.1997 -1.1718 -0.1130
11337SOL     OW35623   8.986   4.179   6.163  1.0227  0.4729  0.0165
11337SOL    HW135624   9.052   4.170   6.094 -0.0905 -1.3887 -0.8811
11337SOL    HW235625   8.929   4.103   6.151 -0.1981  1.0328  1.9406
11338SOL     OW35626   1.769   2.775   2.218  0.2469  0.7522 -1.1489
11338SOL    HW135627   1.744   2.707   2.155 -0.8393  0.4488 -0.4270
11338SOL    HW235628   1.830   2.830   2.170 -0.7159  0.6571 -2.5632
11339SOL     OW35629   7.658   2.265   6.825 -0.3883 -0.1241 -0.2942
11339SOL    HW135630   7.638   2.179   6.787 -3.4386  0.2170  0.2934
11339SOL    HW235631   7.721   2.304   6.764 -1.0858 -1.6672 -2.1139
11340SOL     OW35632   9.549   4.748   6.342  0.0191  0.3097  0.2987
11340SOL    HW135633   9.617   4.681   6.341 -0.1929  0.0439  1.7101
11340SOL    HW235634   9.548   4.781   6.432 -0.2431  1.8496 -0.2362
11341SOL     OW35635   6.547   6.079   4.221  0.4095 -0.0775 -0.7775
11341SOL    HW135636   6.600   6.148   4.261  1.5542 -1.3862  0.0610
11341SOL    HW235637   6.458   6.096   4.254  0.8123  0.5301  0.0541
11342SOL     OW35638   1.788   4.447   2.941  0.3187 -0.0558  0.1334
11342SOL    HW135639   1.693   4.455   2.947  0.4286  1.4583  0.1382
11342SOL    HW235640   1.803   4.353   2.927 -1.1904 -0.2533 -0.3421
11343SOL     OW35641   0.182   7.341   4.628  0.4007 -0.5549  0.2491
11343SOL    HW135642   0.117   7.281   4.595  2.5333 -2.2291 -1.1754
11343SOL    HW235643   0.249   7.285   4.668  2.0232  0.9012 -0.3010
11344SOL     OW35644   6.005   4.440   8.516  0.2874 -0.6327  0.3955
11344SOL    HW135645   5.915   4.451   8.546 -0.1822 -1.9473 -0.4222
11344SOL    HW235646   6.042   4.528   8.516 -1.6853  0.2824 -1.4074
11345SOL     OW35647   9.650   0.781   1.391 -0.2930 -0.0039  0.0734
11345SOL    HW135648   9.583   0.724   1.429 -1.2985  1.6207  0.8429
11345SOL    HW235649   9.727   0.768   1.446 -0.8724  0.2400  0.9478
11346SOL     OW35650   3.849   0.460   5.358  0.3600  0.1229  0.1932
11346SOL    HW135651   3.818   0.373   5.382 -0.7338  0.3464 -0.3480
11346SOL    HW235652   3.818   0.517   5.429  1.6544 -0.0188  0.8914
11347SOL     OW35653   5.324   6.463   6.324 -0.6557  0.3709  0.2545
11347SOL    HW135654   5.236   6.489   6.351  0.1954  2.8432  0.9094
11347SOL    HW235655   5.380   6.486   6.398  0.7428  0.3078 -0.7414
11348SOL     OW35656   0.813   5.743   1.360 -0.4027 -0.4759 -0.4372
11348SOL    HW135657   0.827   5.811   1.294 -1.6648  0.2851  0.0531
11348SOL    HW235658   0.729   5.764   1.399  0.5433 -0.6129  1.7927
11349SOL     OW35659   4.917   2.932   0.920 -0.1893 -0.3206 -0.0516
11349SOL    HW135660   4.987   2.974   0.969  0.0933 -0.4296 -0.3531
11349SOL    HW235661   4.960   2.858   0.877 -1.0714 -2.2311  2.1532
11350SOL     OW35662   9.412   0.679   2.275  0.3963 -0.1456  0.3219
11350SOL    HW135663   9.503   0.680   2.304  0.1458 -2.2797  1.3633
11350SOL    HW235664   9.370   0.611   2.328 -1.8781  0.9288  0.0280
11351SOL     OW35665   5.735   0.420   2.392  0.3575 -0.1814 -0.6031
11351SOL    HW135666   5.682   0.359   2.341 -0.6314 -0.2829  0.5005
11351SOL    HW235667   5.793   0.461   2.328  0.4086 -1.6070 -1.5026
11352SOL     OW35668   5.584   5.637   5.493 -0.0526  0.4519  0.3142
11352SOL    HW135669   5.666   5.598   5.464 -0.7852 -1.5191  0.7695
11352SOL    HW235670   5.533   5.647   5.413  0.1878  0.6476  0.1811
11353SOL     OW35671   6.553   6.173   0.067 -0.2653  0.0666  0.1181
11353SOL    HW135672   6.521   6.263   0.074 -2.2951 -0.5622 -0.3659
11353SOL    HW235673   6.495   6.132   0.003  0.9315 -1.4723 -0.0377
11354SOL     OW35674   9.648   4.046   8.804  0.3685  0.4048 -0.2258
11354SOL    HW135675   9.575   4.051   8.865 -1.3809  0.7735 -2.2341
11354SOL    HW235676   9.648   3.955   8.775  1.0501  0.2843  0.1400
11355SOL     OW35677   9.790   3.672   0.998  0.1368  0.0416 -0.3144
11355SOL    HW135678   9.754   3.740   1.054  0.7972  0.6830 -0.6419
11355SOL    HW235679   9.867   3.712   0.957  0.7792 -1.0251 -0.2125
11356SOL     OW35680   8.285   3.138   4.801 -0.1837  0.0270  0.5375
11356SOL    HW135681   8.252   3.099   4.882  0.6331 -1.3031  0.2752
11356SOL    HW235682   8.378   3.116   4.800  0.0516  0.9874 -0.2308
11357SOL     OW35683   1.843   8.590   6.533  0.2284  0.4540  0.0103
11357SOL    HW135684   1.936   8.572   6.550  0.5118  1.9744  0.1830
11357SOL    HW235685   1.797   8.556   6.610  0.8409  1.4325  0.8205
11358SOL     OW35686   1.211   0.337   6.931  0.2370 -0.2687 -0.1184
11358SOL    HW135687   1.266   0.294   6.996  2.5892  1.1289 -1.0494
11358SOL    HW235688   1.235   0.295   6.848  1.7098  1.8594 -0.8699
11359SOL     OW35689   2.706   4.061   0.598  0.3453 -0.0942  0.0271
11359SOL    HW135690   2.730   3.984   0.650  0.5523  0.7054  1.1640
11359SOL    HW235691   2.789   4.090   0.560  0.0320 -1.2962 -1.6757
11360SOL     OW35692   3.735   6.598   5.959  0.1781 -0.8090  0.1789
11360SOL    HW135693   3.780   6.566   5.880  2.3835  0.8049  0.6936
11360SOL    HW235694   3.654   6.637   5.926  0.4089 -1.3518 -1.1127
11361SOL     OW35695   7.936   1.675   5.300  0.1875 -0.1683  0.7036
11361SOL    HW135696   7.939   1.603   5.363 -1.0033 -0.2333  0.7097
11361SOL    HW235697   7.949   1.633   5.215 -1.0675 -0.4880  0.6527
11362SOL     OW35698   6.958   3.336   3.708 -0.2307 -0.2124 -0.0385
11362SOL    HW135699   7.015   3.311   3.635  1.5135  0.7621  0.9134
11362SOL    HW235700   6.901   3.404   3.672  0.0781 -0.2945 -0.6951
11363SOL     OW35701   8.214   3.013   5.360 -0.3969 -0.3959 -0.1976
11363SOL    HW135702   8.290   2.970   5.399 -0.6094 -1.6227 -1.0958
11363SOL    HW235703   8.239   3.031   5.270 -1.4511 -1.6073 -0.7612
11364SOL     OW35704   4.938   2.624   1.220 -0.0196  0.1360  0.7220
11364SOL    HW135705   4.845   2.622   1.199  0.1773 -0.0390 -0.1848
11364SOL    HW235706   4.956   2.717   1.239 -0.5833  0.0121  1.9573
11365SOL     OW35707   1.878   5.463   8.323  0.0808 -0.2996  0.7859
11365SOL    HW135708   1.924   5.422   8.396  3.0050 -0.1724 -0.7969
11365SOL    HW235709   1.896   5.405   8.248 -0.8144  0.7585 -0.2902
11366SOL     OW35710   1.424   3.439   1.905 -0.2406 -0.0814 -0.3130
11366SOL    HW135711   1.451   3.447   1.813 -0.5194 -1.7719 -0.5777
11366SOL    HW235712   1.329   3.446   1.903 -0.1269  2.5711  0.2217
11367SOL     OW35713   7.035   4.527   2.046  0.2372 -0.0146 -0.1814
11367SOL    HW135714   7.084   4.462   2.095  1.4449  0.3401 -0.8815
11367SOL    HW235715   7.068   4.611   2.079 -1.6574  0.3092  1.0809
11368SOL     OW35716   7.520   9.404   7.900  0.3258 -0.0873  0.2423
11368SOL    HW135717   7.446   9.347   7.880 -0.7272  0.9973  0.9784
11368SOL    HW235718   7.542   9.384   7.991 -0.0595  0.6651  0.5115
11369SOL     OW35719   1.742   1.196   1.896  0.5890 -0.0430 -0.2389
11369SOL    HW135720   1.790   1.278   1.911 -0.8785  0.6991  0.7055
11369SOL    HW235721   1.793   1.130   1.942  0.6221  0.7616  0.9424
11370SOL     OW35722   6.900   5.061   8.688 -0.2931 -0.0502 -0.0112
11370SOL    HW135723   6.920   5.107   8.606 -0.5807  0.6439  0.3013
11370SOL    HW235724   6.961   5.098   8.752  0.0924 -0.7629  0.0444
11371SOL     OW35725   5.482   9.512   9.536 -0.3141  0.4682  0.5470
11371SOL    HW135726   5.396   9.474   9.516 -0.2758  1.2832 -1.3928
11371SOL    HW235727   5.482   9.522   9.631 -2.6606  1.0774  0.5518
11372SOL     OW35728   3.483   0.911   8.259  0.3015 -0.0745 -0.0356
11372SOL    HW135729   3.517   0.998   8.236 -2.6081  0.6355 -2.2793
11372SOL    HW235730   3.559   0.854   8.259  1.9832  2.0451 -0.8490
11373SOL     OW35731   5.509   2.890   2.367  0.0669  0.2082  0.0524
11373SOL    HW135732   5.550   2.951   2.428  0.6001  1.2647 -1.3087
11373SOL    HW235733   5.436   2.939   2.330  0.8397  0.2583 -1.4694
11374SOL     OW35734   7.809   8.200   8.557  0.4202 -0.1328 -0.0867
11374SOL    HW135735   7.748   8.148   8.611 -1.0115  0.5517 -0.9676
11374SOL    HW235736   7.888   8.146   8.552  0.6777 -0.1459  2.7857
11375SOL     OW35737   4.999   1.778   0.061  0.1435  0.0843 -0.0875
11375SOL    HW135738   5.021   1.824   0.142 -0.1987  0.2591 -0.0931
11375SOL    HW235739   5.016   1.843  -0.008  0.0151  0.0794 -0.1233
11376SOL     OW35740   3.376   4.253   6.529  0.2389  0.4924 -0.0747
11376SOL    HW135741   3.388   4.260   6.624 -1.2098  1.6310  0.0604
11376SOL    HW235742   3.347   4.162   6.516 -0.7633  0.6763  0.7396
11377SOL     OW35743   9.201   2.335   8.256  0.5038 -0.1181 -0.3897
11377SOL    HW135744   9.138   2.279   8.300  1.8265  0.0670  1.9014
11377SOL    HW235745   9.284   2.287   8.260  1.7240  1.8924  1.8159
11378SOL     OW35746   8.163   2.702   1.574  0.1107  0.7863  0.5635
11378SOL    HW135747   8.123   2.649   1.643  1.6300 -2.0948 -0.5761
11378SOL    HW235748   8.250   2.723   1.607  0.0478  1.3116  0.3994
11379SOL     OW35749   7.924   5.989   2.357 -0.2459  0.2364  0.4457
11379SOL    HW135750   7.902   6.077   2.327 -0.3413  0.1456  0.2410
11379SOL    HW235751   7.849   5.935   2.330  1.0006 -0.4364 -1.9723
11380SOL     OW35752   1.030   5.751   1.550  0.0777 -0.1024  0.1240
11380SOL    HW135753   0.964   5.721   1.487  0.9208 -1.6210 -0.0725
11380SOL    HW235754   1.075   5.822   1.505 -2.1060  1.7853  0.6887
11381SOL     OW35755   4.543   3.206   5.527  0.1044  0.5494 -0.2556
11381SOL    HW135756   4.496   3.210   5.444 -2.0692 -0.2114  0.8551
11381SOL    HW235757   4.604   3.133   5.517 -1.0504 -0.3813 -0.7772
11382SOL     OW35758   3.507   8.196   3.020  0.0215  0.2061  0.5319
11382SOL    HW135759   3.510   8.282   2.977 -1.1007  0.0129  0.0220
11382SOL    HW235760   3.564   8.141   2.965 -0.9299  0.1117 -0.3950
11383SOL     OW35761   7.310   2.924   0.148 -0.6106  0.0612 -0.1348
11383SOL    HW135762   7.361   2.887   0.220 -1.2279 -0.2949  0.1260
11383SOL    HW235763   7.265   2.849   0.109  1.0535 -0.0485 -2.0184
11384SOL     OW35764   6.312   6.065   7.215  0.3006 -0.3137 -0.1994
11384SOL    HW135765   6.227   6.025   7.198  0.2218 -0.0979 -0.3203
11384SOL    HW235766   6.309   6.091   7.307  0.1943 -0.2082 -0.2326
11385SOL     OW35767   6.147   8.605   3.614 -0.6064  0.5909  0.5380
11385SOL    HW135768   6.128   8.540   3.682 -0.1479  0.0172  0.1246
11385SOL    HW235769   6.134   8.689   3.658 -0.6975  0.2306  1.2258
11386SOL     OW35770   8.059   0.905   4.388 -0.0243  0.1718 -0.5100
11386SOL    HW135771   8.146   0.876   4.361  0.1193 -0.4322  0.5251
11386SOL    HW235772   8.005   0.899   4.309  0.4200 -1.2938 -0.7327
11387SOL     OW35773   1.173   3.649   8.042  0.4262  0.4387  0.4281
11387SOL    HW135774   1.119   3.616   8.114  1.9803  1.6445  2.2368
11387SOL    HW235775   1.142   3.738   8.027  0.7443  0.5206  0.2521
11388SOL     OW35776   5.141   4.696   7.081  0.4976 -0.4445  0.2472
11388SOL    HW135777   5.210   4.744   7.035 -0.7348  1.3414  0.1983
11388SOL    HW235778   5.081   4.668   7.012  0.7378 -1.3116  0.3765
11389SOL     OW35779   7.979   5.511   3.497  0.3166  0.5094  0.3822
11389SOL    HW135780   7.929   5.524   3.417  0.6750 -0.3783  0.0044
11389SOL    HW235781   8.032   5.590   3.505  0.7238  0.3507 -0.5844
11390SOL     OW35782   3.291   3.516   8.137 -0.2756  0.1995 -0.2971
11390SOL    HW135783   3.327   3.474   8.215 -0.2582  2.8977  1.2367
11390SOL    HW235784   3.356   3.581   8.112 -0.6472 -0.0788 -2.1426
11391SOL     OW35785   9.359   0.810   8.212 -0.0013 -0.1351 -0.2901
11391SOL    HW135786   9.306   0.871   8.160  1.9170  1.2045 -0.7520
11391SOL    HW235787   9.341   0.724   8.173 -1.8384  0.2457 -0.3909
11392SOL     OW35788   0.627   6.278   4.660 -0.0920  0.2971  0.0266
11392SOL    HW135789   0.628   6.195   4.707  0.3320 -0.4783 -1.3179
11392SOL    HW235790   0.661   6.258   4.573 -1.1755  1.6209 -0.7538
11393SOL     OW35791   3.989   5.528   4.060  0.4226  0.5220 -0.2642
11393SOL    HW135792   3.978   5.471   4.136  0.3673  0.3526 -0.3968
11393SOL    HW235793   3.904   5.525   4.016  0.6427  0.1241 -0.6683
11394SOL     OW35794   7.401   2.879   8.794 -0.4277 -0.1526  0.5554
11394SOL    HW135795   7.389   2.786   8.811 -1.4415 -0.5207 -1.7481
11394SOL    HW235796   7.313   2.917   8.805 -0.4514  0.1299 -0.4922
11395SOL     OW35797   2.272   0.445   7.870  0.3025 -0.0519 -0.0107
11395SOL    HW135798   2.276   0.452   7.966 -0.1458  0.4869 -0.0288
11395SOL    HW235799   2.186   0.479   7.847  0.0085 -1.1110 -0.5354
11396SOL     OW35800   6.299   0.079   2.574 -0.3511  0.0523 -0.6576
11396SOL    HW135801   6.381   0.096   2.528 -0.1941 -0.0307 -0.4099
11396SOL    HW235802   6.241   0.043   2.507 -0.0070 -0.4128 -0.7092
11397SOL     OW35803   0.703   3.545   8.520  0.0524 -0.1729  0.1696
11397SOL    HW135804   0.718   3.489   8.597 -1.0480 -0.2261  0.3588
11397SOL    HW235805   0.774   3.609   8.523  1.7284 -1.9024 -0.3906
11398SOL     OW35806   6.724   7.524   5.536 -0.1519 -0.5844 -0.0765
11398SOL    HW135807   6.765   7.482   5.460 -0.9316 -0.1334 -0.7677
11398SOL    HW235808   6.795   7.573   5.577  0.3910 -1.2273 -0.2192
11399SOL     OW35809   0.624   1.760   2.207 -0.1900  0.4936  0.1657
11399SOL    HW135810   0.592   1.672   2.188  3.1681 -0.8070 -0.0883
11399SOL    HW235811   0.643   1.798   2.121 -0.1567  0.8661  0.3364
11400SOL     OW35812   0.648   3.502   3.731 -0.0163 -0.3044  0.5424
11400SOL    HW135813   0.728   3.461   3.762  1.4285  1.3379 -0.8026
11400SOL    HW235814   0.671   3.540   3.646 -2.0522  0.7708  0.3931
11401SOL     OW35815   0.052   1.435   1.046 -0.2127  0.5279  0.3435
11401SOL    HW135816  -0.030   1.403   1.082  0.3063 -2.5638 -0.8148
11401SOL    HW235817   0.119   1.403   1.107  0.2724  0.3956 -0.2400
11402SOL     OW35818   3.491   5.109   3.488 -0.3675 -0.2852 -0.1858
11402SOL    HW135819   3.520   5.088   3.577  1.0618 -0.8521 -0.7642
11402SOL    HW235820   3.505   5.029   3.438 -1.2739 -0.0098 -0.9227
11403SOL     OW35821   8.192   3.614   3.959 -0.5402  0.4057  0.8743
11403SOL    HW135822   8.151   3.532   3.984 -2.1400  0.0965 -2.2630
11403SOL    HW235823   8.262   3.589   3.898 -1.5190  1.3254 -0.6898
11404SOL     OW35824   9.031   0.440   3.996 -0.0173  0.0842  0.4313
11404SOL    HW135825   8.999   0.529   3.983  1.3547  0.7509  1.3234
11404SOL    HW235826   8.955   0.384   3.981 -0.6856  1.3286 -1.0631
11405SOL     OW35827   6.146   7.531   1.521  0.3674  0.7424 -0.1495
11405SOL    HW135828   6.224   7.538   1.466  1.7494  1.6092  1.7806
11405SOL    HW235829   6.126   7.437   1.523  1.3633  0.5037 -0.6878
11406SOL     OW35830   3.375   5.731   5.479  0.6354 -0.1512  0.5488
11406SOL    HW135831   3.346   5.817   5.507  0.2418  0.0443 -0.4066
11406SOL    HW235832   3.470   5.734   5.484  0.6107  0.2518  0.7841
11407SOL     OW35833   5.450   7.397   7.804 -0.2409  0.0506  0.2457
11407SOL    HW135834   5.487   7.317   7.839  0.2835 -0.1147 -0.6596
11407SOL    HW235835   5.450   7.384   7.709 -1.4114  0.5716  0.1488
11408SOL     OW35836   0.298   0.844   5.806 -0.2294 -0.5195 -0.6211
11408SOL    HW135837   0.327   0.790   5.732  0.4942  2.1253 -2.4034
11408SOL    HW235838   0.379   0.875   5.846 -0.4861  1.9624 -1.8306
11409SOL     OW35839   7.425   1.943   1.547 -0.3885  0.1852  0.1685
11409SOL    HW135840   7.377   1.860   1.543  1.6785 -1.0539 -0.3234
11409SOL    HW235841   7.486   1.932   1.620 -0.8847  1.7741  0.8723
11410SOL     OW35842   6.690   0.251   4.341  0.0744  0.2152 -0.3544
11410SOL    HW135843   6.732   0.262   4.426  2.9838 -1.1551 -1.4968
11410SOL    HW235844   6.742   0.304   4.281  0.2205 -1.5498 -1.8628
11411SOL     OW35845   1.918   5.522   9.326  0.1140 -0.0061  0.3623
11411SOL    HW135846   1.849   5.458   9.310  0.7962 -0.5234 -0.6354
11411SOL    HW235847   1.873   5.606   9.333 -0.5227 -0.1684 -1.4434
11412SOL     OW35848   7.670   7.845   1.413 -0.3443 -0.5028 -0.0065
11412SOL    HW135849   7.753   7.892   1.406  0.0272 -1.3266 -1.5527
11412SOL    HW235850   7.638   7.837   1.323 -0.2063 -3.4596  0.0931
11413SOL     OW35851   7.609   4.157   2.144 -0.2988 -0.2035  0.7226
11413SOL    HW135852   7.579   4.160   2.053 -0.7857  1.0380  0.9006
11413SOL    HW235853   7.552   4.094   2.186 -0.7434 -0.0248  0.3949
11414SOL     OW35854   1.346   6.679   0.779  0.2464 -0.3294  0.1919
11414SOL    HW135855   1.436   6.712   0.772  0.3701 -0.4885  0.9669
11414SOL    HW235856   1.309   6.725   0.854 -1.3887  2.1619 -1.9492
11415SOL     OW35857   0.638   4.616   7.989  0.1824 -0.6102 -0.1721
11415SOL    HW135858   0.715   4.560   7.985  0.5275 -0.1189 -0.5459
11415SOL    HW235859   0.667   4.694   8.036  0.9414  1.1094 -3.1902
11416SOL     OW35860   2.559   7.740   8.151 -0.1260  0.5266  0.6410
11416SOL    HW135861   2.613   7.774   8.080  0.5373  0.7710  1.2545
11416SOL    HW235862   2.612   7.751   8.230 -0.8151  0.1802  1.1691
11417SOL     OW35863   7.342   4.395   6.901 -0.1732 -1.1003  0.1313
11417SOL    HW135864   7.409   4.328   6.892  0.2729 -0.5204 -1.0922
11417SOL    HW235865   7.324   4.399   6.995  1.7822 -1.0232  0.5382
11418SOL     OW35866   2.597   8.097   1.023  0.1266 -0.1025 -0.4578
11418SOL    HW135867   2.536   8.123   1.092 -0.0513 -0.5921 -0.4261
11418SOL    HW235868   2.542   8.067   0.951  0.1977  2.8045 -1.8725
11419SOL     OW35869   2.704   6.210   0.569 -0.3360 -0.7417 -0.3889
11419SOL    HW135870   2.685   6.288   0.516  0.7115 -0.5387 -0.4868
11419SOL    HW235871   2.784   6.232   0.616 -0.0424 -1.7508 -0.3971
11420SOL     OW35872   8.152   0.735   2.161  0.0686  0.1967  0.5105
11420SOL    HW135873   8.175   0.744   2.069  0.2838 -0.0471  0.5378
11420SOL    HW235874   8.224   0.683   2.198 -0.0411  0.2524  0.8028
11421SOL     OW35875   8.752   0.676   8.119  0.5719  0.1807 -0.3261
11421SOL    HW135876   8.836   0.633   8.136 -0.1360 -1.3131 -0.4027
11421SOL    HW235877   8.747   0.745   8.184  1.1874 -0.7302  0.7303
11422SOL     OW35878   3.490   3.758   0.736  0.3430 -0.8730 -0.1027
11422SOL    HW135879   3.550   3.815   0.688 -0.4584 -0.2179 -0.3469
11422SOL    HW235880   3.425   3.732   0.671 -1.2299  0.6727  0.7640
11423SOL     OW35881   1.593   7.880   2.811 -0.4918  0.1389  0.1755
11423SOL    HW135882   1.637   7.965   2.812  0.9282 -0.5329 -0.7451
11423SOL    HW235883   1.663   7.818   2.792 -1.7312 -1.0900 -0.5274
11424SOL     OW35884   4.038   5.206   6.662  0.2998 -0.9679 -0.2490
11424SOL    HW135885   3.971   5.253   6.613  0.6961  0.2870  0.3754
11424SOL    HW235886   4.037   5.117   6.624 -2.7677 -1.4962  0.7598
11425SOL     OW35887   8.735   6.611   8.768 -0.1579 -0.4073  0.3375
11425SOL    HW135888   8.675   6.673   8.809 -0.1950 -0.4524  0.3517
11425SOL    HW235889   8.700   6.525   8.789 -0.7124 -0.4261 -0.5821
11426SOL     OW35890   0.122   6.538   3.655  0.0019  0.3054 -0.1579
11426SOL    HW135891   0.150   6.572   3.570  1.1566 -0.9079 -0.2839
11426SOL    HW235892   0.154   6.448   3.657 -1.3026 -0.1694  0.9642
11427SOL     OW35893   6.348   3.679   3.986  0.3128 -0.9060  0.0414
11427SOL    HW135894   6.370   3.638   3.902  2.4088 -2.6052  1.3031
11427SOL    HW235895   6.386   3.767   3.981  2.7020 -1.8654  0.0688
11428SOL     OW35896   0.999   1.345   0.409  0.3837  0.0965  0.2032
11428SOL    HW135897   0.961   1.294   0.338  0.5229 -2.6164  1.9111
11428SOL    HW235898   1.094   1.332   0.399  0.5594  1.6454 -0.4130
11429SOL     OW35899   5.592   0.741   6.223 -0.3536  0.4347 -0.7969
11429SOL    HW135900   5.656   0.811   6.229  0.1736 -0.1415  1.1430
11429SOL    HW235901   5.636   0.664   6.259 -1.8032 -0.2127 -0.3009
11430SOL     OW35902   5.342   5.970   6.421 -0.0270  0.3657  0.2415
11430SOL    HW135903   5.270   6.015   6.467 -1.2398 -1.4126  0.1797
11430SOL    HW235904   5.420   5.995   6.470 -1.0332  0.1339  2.0799
11431SOL     OW35905   8.535   4.702   5.509  0.3951  0.3601 -0.0803
11431SOL    HW135906   8.543   4.638   5.438 -0.0256  0.9339 -0.6618
11431SOL    HW235907   8.453   4.678   5.553  1.6860 -1.3034  1.5803
11432SOL     OW35908   7.204   5.126   0.511 -0.2063 -0.7529 -0.2362
11432SOL    HW135909   7.243   5.178   0.440 -0.1959 -1.4635 -0.7723
11432SOL    HW235910   7.262   5.140   0.586  0.4872 -0.9626 -0.7235
11433SOL     OW35911   7.626   7.088   1.093 -0.1980  0.0908 -0.2042
11433SOL    HW135912   7.689   7.140   1.044  0.3803 -1.3027 -1.0078
11433SOL    HW235913   7.674   7.056   1.169 -0.4391  0.4113  0.0856
11434SOL     OW35914   4.393   6.234   5.729 -0.5642  0.9727  0.4279
11434SOL    HW135915   4.364   6.218   5.819  0.1365 -0.7636  0.3901
11434SOL    HW235916   4.312   6.240   5.679 -0.9731 -0.9873  0.7590
11435SOL     OW35917   3.220   4.154   8.882 -0.4819 -0.1623  0.2224
11435SOL    HW135918   3.125   4.139   8.884 -0.3901 -0.7103  0.6966
11435SOL    HW235919   3.254   4.085   8.825 -0.4330  0.4714 -0.5404
11436SOL     OW35920   3.487   0.158   7.167  0.4412  1.0611 -0.2807
11436SOL    HW135921   3.523   0.103   7.237 -0.3207 -1.4153 -1.7142
11436SOL    HW235922   3.557   0.160   7.101  0.3128  1.5050 -0.4032
11437SOL     OW35923   8.462   7.929   8.733  0.3444 -0.3259 -0.1738
11437SOL    HW135924   8.556   7.930   8.751  0.3966 -0.7186 -0.4040
11437SOL    HW235925   8.422   7.908   8.817  0.5595 -1.7001 -0.3881
11438SOL     OW35926   7.812   2.896   0.350  0.2999 -0.4938 -0.5011
11438SOL    HW135927   7.896   2.939   0.336  0.1612  0.3996  1.2442
11438SOL    HW235928   7.823   2.846   0.431 -0.2195 -2.0667 -1.3520
11439SOL     OW35929   1.402   8.309   1.025 -0.5878 -0.2612  0.9174
11439SOL    HW135930   1.484   8.355   1.004 -1.2585  0.1698 -1.0100
11439SOL    HW235931   1.417   8.219   0.997 -0.5348 -0.3513  1.2330
11440SOL     OW35932   6.313   8.524   5.502  0.2653  0.4930  0.3042
11440SOL    HW135933   6.267   8.546   5.421 -0.2700 -0.4156  0.3445
11440SOL    HW235934   6.353   8.438   5.485 -1.3959 -0.6070  1.5830
11441SOL     OW35935   8.018   5.183   0.751  0.1833 -0.6894  0.3579
11441SOL    HW135936   7.947   5.194   0.815  0.5833 -0.3787  0.7538
11441SOL    HW235937   8.044   5.091   0.759 -0.2621 -0.8381  0.1182
11442SOL     OW35938   2.262   8.429   4.296  0.3497  0.0620 -0.0992
11442SOL    HW135939   2.224   8.352   4.254 -0.1783 -0.4022  1.1985
11442SOL    HW235940   2.210   8.503   4.262  0.2189 -0.2440 -0.5787
11443SOL     OW35941   5.754   7.253   6.890  0.0631 -0.5185  0.4026
11443SOL    HW135942   5.708   7.175   6.921  0.3850 -1.2083 -0.8231
11443SOL    HW235943   5.685   7.308   6.853  0.1952 -1.6871 -1.7128
11444SOL     OW35944   8.494   3.624   7.096 -0.3826 -0.1323  0.4137
11444SOL    HW135945   8.398   3.618   7.090 -0.2837 -1.6558 -0.1000
11444SOL    HW235946   8.521   3.663   7.013 -0.5668  0.7556  0.7543
11445SOL     OW35947   0.063   1.692   7.523 -0.5886 -0.6889  0.1097
11445SOL    HW135948  -0.011   1.640   7.553 -4.1675  4.4879  1.6487
11445SOL    HW235949   0.101   1.727   7.604  2.0376 -1.2041 -0.8033
11446SOL     OW35950   6.202   5.653   7.597  0.2039  0.1184 -0.0816
11446SOL    HW135951   6.175   5.632   7.686  2.2683 -0.3532  0.4858
11446SOL    HW235952   6.286   5.699   7.607  0.0830  0.7838 -1.7496
11447SOL     OW35953   7.397   4.237   5.929 -0.0599  0.1462 -0.6667
11447SOL    HW135954   7.380   4.145   5.947 -0.1000  0.3272  0.2901
11447SOL    HW235955   7.327   4.263   5.869  0.9690 -0.8691 -2.3617
11448SOL     OW35956   0.502   5.374   8.333 -0.4445 -0.0754  0.3066
11448SOL    HW135957   0.477   5.289   8.368 -0.7591 -0.1502 -0.0900
11448SOL    HW235958   0.467   5.437   8.396 -0.1863 -0.2407  0.6140
11449SOL     OW35959   2.120   3.995   7.402 -0.5061  0.0851 -0.0573
11449SOL    HW135960   2.144   4.083   7.431  0.5457  0.9867 -3.2347
11449SOL    HW235961   2.046   4.010   7.343 -0.0685 -1.1102 -0.9328
11450SOL     OW35962   1.926   6.474   7.654 -0.3143  0.3246 -0.4283
11450SOL    HW135963   1.890   6.546   7.706 -2.3987 -1.9905  1.6231
11450SOL    HW235964   1.884   6.484   7.568 -1.0720  1.1826  0.0207
11451SOL     OW35965   5.530   7.156   4.821  0.1652 -0.2141 -0.1382
11451SOL    HW135966   5.532   7.226   4.886 -0.3080  0.8459 -1.2448
11451SOL    HW235967   5.450   7.108   4.841 -0.3756  0.5690 -0.4185
11452SOL     OW35968   9.457   3.386   2.994 -0.2448 -0.5343 -0.0698
11452SOL    HW135969   9.540   3.415   2.957 -1.9862  0.3450 -3.7193
11452SOL    HW235970   9.414   3.466   3.024 -0.4730 -0.7927  0.3078
11453SOL     OW35971   3.629   1.350   7.446 -0.4544 -0.1520  0.0243
11453SOL    HW135972   3.597   1.395   7.525  1.6701 -0.0389  0.8672
11453SOL    HW235973   3.687   1.413   7.404  0.4415 -1.1412 -0.2461
11454SOL     OW35974   1.022   1.750   1.104  0.6207 -0.1597  0.5362
11454SOL    HW135975   0.944   1.800   1.126  0.2120 -0.1536 -0.8259
11454SOL    HW235976   1.057   1.721   1.188 -1.7968 -1.6477  1.1264
11455SOL     OW35977   6.033   3.515   9.676 -0.2998  0.7287 -0.0553
11455SOL    HW135978   5.989   3.461   9.610  1.8546  0.0965 -1.0724
11455SOL    HW235979   6.028   3.464   9.756  0.0583 -0.1344 -0.5661
11456SOL     OW35980   4.438   5.013   4.685 -0.1272  0.9284  0.3045
11456SOL    HW135981   4.390   4.950   4.739 -2.1024  1.2327 -0.9901
11456SOL    HW235982   4.512   4.963   4.650 -0.2759  0.0339  1.2128
11457SOL     OW35983   7.502   8.549   2.449 -0.3168 -0.4871  0.5032
11457SOL    HW135984   7.418   8.595   2.455  0.4924  0.9378  1.4067
11457SOL    HW235985   7.479   8.462   2.415 -2.1588 -0.1798  0.8489
11458SOL     OW35986   9.616   3.567   6.208 -0.1578  0.0845 -0.1501
11458SOL    HW135987   9.630   3.567   6.303 -0.9240 -1.5040  0.0088
11458SOL    HW235988   9.566   3.647   6.191  0.5537  0.7257  0.6731
11459SOL     OW35989   0.877   6.971   6.107 -0.4446  0.4239 -0.0595
11459SOL    HW135990   0.819   6.946   6.035 -0.0561 -0.1036 -0.1872
11459SOL    HW235991   0.897   6.889   6.152 -0.1655  0.6682  0.2648
11460SOL     OW35992   2.180   8.648   8.695 -0.5377 -0.0898 -0.3091
11460SOL    HW135993   2.228   8.570   8.721 -0.3720  0.1664  0.1660
11460SOL    HW235994   2.156   8.633   8.603  0.2852 -0.3023 -0.4966
11461SOL     OW35995   8.985   0.974   0.689 -0.2295  0.0232  0.1834
11461SOL    HW135996   8.964   1.055   0.642  0.0991  1.0095  1.6560
11461SOL    HW235997   8.930   0.977   0.767 -0.1017 -1.1166  0.3344
11462SOL     OW35998   1.673   3.736   7.194 -0.3280 -0.0990 -0.7717
11462SOL    HW135999   1.659   3.742   7.288 -0.1051 -0.5556 -0.7068
11462SOL    HW236000   1.756   3.781   7.179 -1.2069  1.5340 -0.9944
11463SOL     OW36001   8.296   2.169   7.375  0.0158  0.0363 -0.3364
11463SOL    HW136002   8.384   2.204   7.366  0.5770 -1.1514  0.3479
11463SOL    HW236003   8.308   2.080   7.407 -1.4715  0.9444  3.2372
11464SOL     OW36004   4.397   8.279   9.730 -0.3422 -0.7744 -0.1620
11464SOL    HW136005   4.399   8.372   9.751 -0.6616 -0.5836 -0.9542
11464SOL    HW236006   4.315   8.248   9.770  0.5481 -1.0770  1.5087
11465SOL     OW36007   1.320   9.192   1.530  0.1670  0.1385 -0.0596
11465SOL    HW136008   1.323   9.203   1.435  0.7900 -0.0919 -0.0692
11465SOL    HW236009   1.228   9.173   1.549 -0.0430  0.6342 -0.5652
11466SOL     OW36010   9.745   1.826   8.934 -0.8780  0.8636 -0.2025
11466SOL    HW136011   9.703   1.833   8.848 -1.8233 -0.8968  0.0605
11466SOL    HW236012   9.830   1.784   8.915 -0.8590  0.9606 -0.3321
11467SOL     OW36013   1.360   8.848   4.322  0.0271  0.4920  0.4623
11467SOL    HW136014   1.407   8.833   4.240 -1.5651 -1.0676 -0.2302
11467SOL    HW236015   1.314   8.931   4.309  2.1751  1.8643  1.0177
11468SOL     OW36016   2.752   7.626   9.572 -0.5851  0.6263  0.1734
11468SOL    HW136017   2.659   7.603   9.579 -0.0518 -1.7556  0.3314
11468SOL    HW236018   2.793   7.585   9.649  0.7178  0.9271 -0.3309
11469SOL     OW36019   4.349   2.527   0.333  0.2282 -0.1611  0.4888
11469SOL    HW136020   4.261   2.553   0.363 -0.4379 -1.0219 -0.6416
11469SOL    HW236021   4.391   2.609   0.307 -0.0856  0.3049  1.3815
11470SOL     OW36022   2.121   8.364   9.835 -0.5890 -0.6307  0.6203
11470SOL    HW136023   2.095   8.429   9.901 -0.1140  0.4293 -0.2110
11470SOL    HW236024   2.039   8.322   9.809 -1.1480  0.8005 -0.0238
11471SOL     OW36025   3.477   0.655   6.909 -0.1570  0.2742 -0.0723
11471SOL    HW136026   3.471   0.660   6.813  0.8540  0.5785 -0.1312
11471SOL    HW236027   3.571   0.661   6.927 -0.4263  1.5774  1.0200
11472SOL     OW36028   6.041   4.325   4.202  0.3386 -0.0933 -0.2932
11472SOL    HW136029   6.016   4.255   4.263  1.6249 -0.2228  0.1181
11472SOL    HW236030   5.993   4.305   4.121 -0.3461 -0.6825  0.2439
11473SOL     OW36031   1.391   0.241   8.281 -0.9569 -0.1658 -0.1790
11473SOL    HW136032   1.442   0.250   8.200 -0.4072 -0.7542  0.0897
11473SOL    HW236033   1.456   0.220   8.348 -1.3476  0.8667  0.5348
11474SOL     OW36034   5.440   0.595   2.392 -0.2375 -0.3636  0.1624
11474SOL    HW136035   5.351   0.629   2.406  0.1728  1.7992 -1.9159
11474SOL    HW236036   5.446   0.583   2.297  2.3322  1.5435  0.0009
11475SOL     OW36037   3.860   5.347   5.517  0.0423 -0.3359 -0.1070
11475SOL    HW136038   3.803   5.408   5.563  0.0354  0.0636 -0.6386
11475SOL    HW236039   3.858   5.267   5.570 -1.8646 -0.7126 -0.6833
11476SOL     OW36040   5.800   5.301   2.891 -0.0616 -0.2617 -0.0080
11476SOL    HW136041   5.721   5.262   2.853 -0.3185 -1.5319  1.6967
11476SOL    HW236042   5.775   5.319   2.982  2.1341 -2.4600  1.1347
11477SOL     OW36043   8.193   4.135   5.884  0.5598  0.5304  0.2580
11477SOL    HW136044   8.188   4.217   5.835 -0.1835  1.5143  1.9193
11477SOL    HW236045   8.105   4.098   5.878  1.0495 -0.5467 -1.0464
11478SOL     OW36046   8.402   0.718   3.885 -0.4505  0.3834 -0.4126
11478SOL    HW136047   8.331   0.655   3.875  0.1340 -1.2921  3.6904
11478SOL    HW236048   8.474   0.681   3.834 -0.2948 -2.2324  1.4595
11479SOL     OW36049   8.324   2.441   5.790  0.0138  0.1961  0.0341
11479SOL    HW136050   8.410   2.484   5.790  0.0909  0.0859  1.3468
11479SOL    HW236051   8.344   2.348   5.791 -0.0834  0.1681  1.0017
11480SOL     OW36052   0.772   6.511   3.405 -0.5200  0.2111 -0.3587
11480SOL    HW136053   0.824   6.591   3.403  0.7161 -0.5773 -0.8776
11480SOL    HW236054   0.760   6.492   3.498 -1.2133  1.2210 -0.2255
11481SOL     OW36055   9.406   8.674   0.420  0.2088  0.5646 -0.1821
11481SOL    HW136056   9.407   8.659   0.514 -0.5097  0.7639 -0.1400
11481SOL    HW236057   9.362   8.758   0.409 -0.6410  0.0633 -0.7576
11482SOL     OW36058   0.118   6.581   9.608 -0.2517 -0.3048  0.2963
11482SOL    HW136059   0.037   6.627   9.586 -0.8565 -0.7173  1.5618
11482SOL    HW236060   0.184   6.651   9.614 -0.3899 -0.0148 -1.1766
11483SOL     OW36061   3.422   4.873   5.265  1.1687  0.6746 -0.0358
11483SOL    HW136062   3.431   4.824   5.184  0.8284  1.2346 -0.4237
11483SOL    HW236063   3.415   4.807   5.333 -1.9418  0.0745 -0.7961
11484SOL     OW36064   9.774   7.128   3.874 -0.0759 -0.0265 -0.3867
11484SOL    HW136065   9.801   7.147   3.784  1.1907 -0.2811 -0.0875
11484SOL    HW236066   9.847   7.160   3.927  0.5670 -2.5648  0.3564
11485SOL     OW36067   1.828   3.717   2.532  0.8456 -0.4880 -0.7291
11485SOL    HW136068   1.786   3.649   2.585  0.1620  0.9555  0.6971
11485SOL    HW236069   1.900   3.748   2.586  0.0014  1.1785 -0.4623
11486SOL     OW36070   9.810   2.149   2.585 -0.8702 -0.2721  0.6265
11486SOL    HW136071   9.895   2.129   2.546  0.0104  0.0182  2.3410
11486SOL    HW236072   9.747   2.102   2.529  0.4714 -1.2214 -0.1452
11487SOL     OW36073   1.166   1.012   6.281 -0.7900 -0.6329  0.0873
11487SOL    HW136074   1.233   0.975   6.338 -0.3934  0.0623  0.0893
11487SOL    HW236075   1.170   0.960   6.201  0.1505 -0.2519 -0.1312
11488SOL     OW36076   4.785   7.939   9.403  0.4833 -0.2368 -0.0350
11488SOL    HW136077   4.732   7.937   9.483  1.3567 -0.3307  0.5501
11488SOL    HW236078   4.849   8.008   9.418  0.2571  0.1772 -0.9185
11489SOL     OW36079   3.334   4.377   1.354  0.0238 -0.1450 -0.1951
11489SOL    HW136080   3.352   4.424   1.273 -2.2262  0.4014 -0.4307
11489SOL    HW236081   3.262   4.426   1.395  0.7026 -0.7423  1.8484
11490SOL     OW36082   9.755   9.328   7.037  0.1570  0.4639 -0.0502
11490SOL    HW136083   9.671   9.289   7.063  0.6924  0.4189  1.7082
11490SOL    HW236084   9.742   9.351   6.945 -1.8469  0.6042  0.2069
11491SOL     OW36085   9.298   0.695   7.421  0.3620 -0.2315  0.3324
11491SOL    HW136086   9.301   0.674   7.515  0.4820  1.7877  0.8206
11491SOL    HW236087   9.211   0.668   7.393 -0.3256  0.7638  1.4501
11492SOL     OW36088   8.227   8.842   2.268  0.3199 -0.3497  0.1536
11492SOL    HW136089   8.151   8.784   2.269  0.2941 -0.3121  1.2172
11492SOL    HW236090   8.226   8.885   2.353  0.6568  0.8104 -0.4052
11493SOL     OW36091   9.838   6.834   2.158  0.1234  0.1320  0.4611
11493SOL    HW136092   9.855   6.923   2.189  1.2108  0.9537 -2.1706
11493SOL    HW236093   9.921   6.806   2.118 -0.2515 -2.0057  1.0407
11494SOL     OW36094   8.637   5.269   3.095 -0.1590 -0.6782  0.0558
11494SOL    HW136095   8.661   5.251   3.005 -0.1291 -0.5569  0.0396
11494SOL    HW236096   8.704   5.225   3.147  3.3908  3.9197  0.0288
11495SOL     OW36097   4.486   1.093   9.838 -0.1876 -0.0169  0.5722
11495SOL    HW136098   4.423   1.052   9.898 -1.5677 -0.0936 -0.8696
11495SOL    HW236099   4.457   1.066   9.751  0.5182  1.7801 -0.2704
11496SOL     OW36100   3.792   2.820   1.318  0.0282 -0.2425 -0.4094
11496SOL    HW136101   3.882   2.789   1.310  0.4117  0.5512  0.5339
11496SOL    HW236102   3.779   2.831   1.413 -1.1188 -0.5089 -0.5218
11497SOL     OW36103   5.529   6.907   7.524  0.0907 -0.1905 -0.4477
11497SOL    HW136104   5.439   6.891   7.496  0.6463  1.2005 -3.3836
11497SOL    HW236105   5.521   6.931   7.616 -2.3686 -1.3446 -0.2775
11498SOL     OW36106   4.090   6.618   3.547  0.1385 -0.1426  0.2249
11498SOL    HW136107   4.107   6.524   3.554  1.4722  0.1026  0.6001
11498SOL    HW236108   4.160   6.659   3.599  0.3990  1.1163 -1.0603
11499SOL     OW36109   8.027   7.728   8.442  0.3346 -0.2842  0.7198
11499SOL    HW136110   8.114   7.702   8.474  0.7215  0.7030  0.5039
11499SOL    HW236111   8.018   7.819   8.470 -0.5928 -0.3479  0.6371
11500SOL     OW36112   2.278   2.795   6.770 -1.0559 -0.0405 -0.0153
11500SOL    HW136113   2.186   2.767   6.773 -0.6874 -1.4782 -1.0391
11500SOL    HW236114   2.277   2.884   6.805 -2.7458 -0.2497  0.5730
11501SOL     OW36115   8.954   5.183   2.660  0.4712  0.2304 -0.2953
11501SOL    HW136116   9.031   5.233   2.686  0.1667  0.3038  0.5240
11501SOL    HW236117   8.975   5.149   2.573  0.9747  1.1706 -0.5574
11502SOL     OW36118   2.618   8.392   8.957 -0.0988 -0.3110  0.1815
11502SOL    HW136119   2.584   8.392   8.868 -1.7592  1.0347  0.7421
11502SOL    HW236120   2.557   8.337   9.006 -0.2371  0.3767  0.8005
11503SOL     OW36121   0.261   6.615   9.196 -0.7822 -0.1415  0.4965
11503SOL    HW136122   0.299   6.696   9.230 -3.2378  0.6153  1.6983
11503SOL    HW236123   0.290   6.547   9.257  1.8023 -0.3926 -0.8643
11504SOL     OW36124   2.270   5.128   7.332 -0.1662  0.1855 -0.1865
11504SOL    HW136125   2.295   5.036   7.332 -0.4952  0.0706 -1.9637
11504SOL    HW236126   2.182   5.130   7.294  0.2086  1.3149 -1.0502
11505SOL     OW36127   3.927   3.141   5.319  0.1839 -0.6241  0.1339
11505SOL    HW136128   3.917   3.116   5.228  2.6118  0.1401 -0.4217
11505SOL    HW236129   3.899   3.064   5.369 -1.1512 -1.0584 -1.2281
11506SOL     OW36130   7.193   9.096   1.335  0.0740 -0.3326  0.3017
11506SOL    HW136131   7.250   9.036   1.383  2.4336  1.0324 -0.6126
11506SOL    HW236132   7.186   9.173   1.392 -2.0986 -1.0085  1.0243
11507SOL     OW36133   1.057   4.512   5.956  0.3577  0.1423  0.1084
11507SOL    HW136134   0.973   4.493   5.915  0.5410 -0.4407 -0.0068
11507SOL    HW236135   1.117   4.527   5.882  0.6096 -0.5727  0.1514
11508SOL     OW36136   6.251   9.254   1.729  0.2492 -0.5969  0.4557
11508SOL    HW136137   6.336   9.287   1.699 -0.4443 -0.1325 -1.0793
11508SOL    HW236138   6.246   9.165   1.693 -1.5496  0.7292 -3.0015
11509SOL     OW36139   2.246   8.602   1.257 -0.0274 -0.2429 -0.6311
11509SOL    HW136140   2.168   8.642   1.219 -0.7159  0.5264  1.5064
11509SOL    HW236141   2.233   8.508   1.243 -1.2618 -0.1205 -0.4539
11510SOL     OW36142   2.309   3.649   5.614  0.4777  0.0940  0.2635
11510SOL    HW136143   2.307   3.726   5.557  0.0496 -0.8075 -0.9806
11510SOL    HW236144   2.346   3.682   5.697  2.1319  1.2158 -0.8417
11511SOL     OW36145   5.893   3.831   5.379  0.1842  0.5588  0.1840
11511SOL    HW136146   5.865   3.915   5.416 -0.4582  1.2724 -1.7965
11511SOL    HW236147   5.817   3.774   5.390  0.5993  0.2014  1.4729
11512SOL     OW36148   5.163   4.304   6.498  0.1951 -0.1071  0.1880
11512SOL    HW136149   5.246   4.349   6.510  0.2110 -0.2996  0.8445
11512SOL    HW236150   5.123   4.347   6.422  1.2032 -0.4907 -0.5828
11513SOL     OW36151   6.195   5.869   3.170 -0.4571  0.4342 -0.3675
11513SOL    HW136152   6.157   5.870   3.258  0.5326  0.0322  0.0854
11513SOL    HW236153   6.209   5.776   3.151 -1.1195  0.4883 -1.1617
11514SOL     OW36154   4.952   2.294   0.821 -0.2106 -0.0167 -0.4607
11514SOL    HW136155   4.985   2.351   0.891 -1.6088 -0.7445  0.8684
11514SOL    HW236156   4.930   2.353   0.750  0.9521  0.7894 -0.1724
11515SOL     OW36157   6.020   0.450   6.362  0.1035 -0.2114 -0.1689
11515SOL    HW136158   6.061   0.387   6.422  0.8672 -0.3646 -0.8308
11515SOL    HW236159   6.074   0.529   6.371  0.8792 -0.5697 -1.4073
11516SOL     OW36160   7.977   4.897   8.225  0.2255 -0.2726 -0.0584
11516SOL    HW136161   7.946   4.809   8.247 -0.6792  0.2172  0.7040
11516SOL    HW236162   7.934   4.918   8.143  0.4505 -0.5385 -0.2475
11517SOL     OW36163   1.804   2.527   2.117 -0.0993  0.0341  0.4563
11517SOL    HW136164   1.814   2.538   2.211 -0.9343 -0.3517  0.5994
11517SOL    HW236165   1.889   2.492   2.088  0.0096 -0.2805  1.1355
11518SOL     OW36166   0.531   4.454   6.673  0.1941  0.3528  0.1268
11518SOL    HW136167   0.516   4.360   6.658  0.1799  0.5371 -1.0393
11518SOL    HW236168   0.609   4.456   6.729  1.4629 -0.3226 -1.5351
11519SOL     OW36169   0.935   7.955   9.026  0.2046  0.0615  0.2752
11519SOL    HW136170   1.029   7.938   9.012  0.4018  0.7036  0.7537
11519SOL    HW236171   0.917   8.032   8.972  0.1409  0.4116  0.7937
11520SOL     OW36172   5.069   1.789   9.000 -0.4119  0.5175  0.3518
11520SOL    HW136173   5.064   1.703   9.042  0.5867  0.9088  1.3221
11520SOL    HW236174   5.162   1.797   8.976 -0.8355  0.5615 -1.4203
11521SOL     OW36175   4.589   0.873   4.128 -0.2921 -0.1124 -0.7928
11521SOL    HW136176   4.525   0.944   4.135  1.7337  1.6299  3.5320
11521SOL    HW236177   4.674   0.916   4.133  1.0608 -2.7086  0.8397
11522SOL     OW36178   3.381   3.458   4.156 -0.0151  0.2069  0.1723
11522SOL    HW136179   3.328   3.475   4.079 -1.1288 -1.2416  0.5661
11522SOL    HW236180   3.325   3.483   4.230  1.2521  2.1509  0.5434
11523SOL     OW36181   4.601   9.544   5.032  0.0487  0.0230  0.5995
11523SOL    HW136182   4.549   9.622   5.011 -0.7317 -0.1819  1.6811
11523SOL    HW236183   4.688   9.563   4.999  0.0546  1.6596  1.4721
11524SOL     OW36184   8.620   6.987   0.471  0.0612  0.0745 -0.3314
11524SOL    HW136185   8.570   6.921   0.425 -0.9750  0.9934 -0.5595
11524SOL    HW236186   8.571   7.068   0.459  1.4596  0.9641 -0.3316
11525SOL     OW36187   8.945   7.966   6.883 -0.1142 -0.0848 -0.3653
11525SOL    HW136188   8.964   7.877   6.853  0.8320  0.2528 -0.8070
11525SOL    HW236189   8.970   8.022   6.810 -1.7285  0.4965 -0.5110
11526SOL     OW36190   4.824   8.895   4.906 -0.0851  0.5177  0.0141
11526SOL    HW136191   4.764   8.939   4.966 -0.1519  0.7158 -0.1953
11526SOL    HW236192   4.770   8.871   4.831 -0.2372 -0.6999  0.4932
11527SOL     OW36193   5.685   6.822   6.215  0.2738  0.4686 -0.0279
11527SOL    HW136194   5.695   6.916   6.200 -0.5926  0.7878  1.2218
11527SOL    HW236195   5.773   6.785   6.203  0.3880  1.2363 -1.7509
11528SOL     OW36196   8.813   6.267   4.390  0.2599  0.1782  0.5749
11528SOL    HW136197   8.839   6.307   4.306  2.5534 -0.3175  0.9690
11528SOL    HW236198   8.825   6.337   4.454  1.9986 -0.4056  0.9386
11529SOL     OW36199   8.283   6.540   7.624 -0.0498  0.0684 -0.2247
11529SOL    HW136200   8.284   6.630   7.655  0.3385 -0.1923  0.5556
11529SOL    HW236201   8.206   6.501   7.665 -0.1991  0.0410 -0.5332
11530SOL     OW36202   0.915   2.081   6.703 -0.0965 -0.3805 -0.1631
11530SOL    HW136203   0.983   2.121   6.649 -1.1260  0.8102 -0.6260
11530SOL    HW236204   0.845   2.146   6.705 -0.5409 -0.8479  1.7109
11531SOL     OW36205   4.438   5.696   7.048  0.1420  0.6012 -0.3340
11531SOL    HW136206   4.490   5.654   7.116 -0.7053  0.6598  0.3778
11531SOL    HW236207   4.489   5.685   6.967  0.5339 -0.6386  0.0655
11532SOL     OW36208   9.335   3.399   1.461  0.4510  0.5883 -0.0532
11532SOL    HW136209   9.416   3.379   1.413  1.1015  1.0089  0.8422
11532SOL    HW236210   9.312   3.487   1.433 -0.3633  0.0457 -1.1866
11533SOL     OW36211   9.035   9.555   6.839  0.6058  0.2328  0.0263
11533SOL    HW136212   9.088   9.605   6.901  0.5846  0.8551 -0.4520
11533SOL    HW236213   8.945   9.580   6.858  0.5945  0.3833 -0.2185
11534SOL     OW36214   2.758   5.060   0.734 -0.3470 -0.2230 -0.1675
11534SOL    HW136215   2.811   4.991   0.694 -0.1695  0.2275 -0.7155
11534SOL    HW236216   2.754   5.036   0.827  0.4825 -0.4710 -0.1890
11535SOL     OW36217   6.272   7.481   5.079  0.0532  0.0826  0.5149
11535SOL    HW136218   6.238   7.570   5.071 -0.7686 -0.3658 -1.6934
11535SOL    HW236219   6.344   7.488   5.142  0.1236  2.3420  0.2644
11536SOL     OW36220   1.192   2.851   4.941 -0.0522 -0.0412 -0.4692
11536SOL    HW136221   1.166   2.903   4.864  0.3462  0.7487 -0.0831
11536SOL    HW236222   1.247   2.781   4.905  0.3540  0.4790 -0.8890
11537SOL     OW36223   8.091   6.921   8.265  0.4899  0.1358  0.1513
11537SOL    HW136224   8.170   6.868   8.270 -0.1940 -1.0005 -0.6597
11537SOL    HW236225   8.064   6.916   8.174 -0.8659 -0.0193  0.5369
11538SOL     OW36226   9.578   2.482   7.444  0.6062 -1.1934  0.2373
11538SOL    HW136227   9.514   2.466   7.512 -0.7185 -2.0411 -1.1330
11538SOL    HW236228   9.579   2.400   7.393  3.2100 -1.4398  0.5377
11539SOL     OW36229   3.390   8.154   5.906 -0.3009 -0.2053 -0.0061
11539SOL    HW136230   3.481   8.125   5.916 -0.1618  0.3137  0.2650
11539SOL    HW236231   3.340   8.090   5.957 -0.3231 -1.6714 -1.7329
11540SOL     OW36232   5.807   2.021   2.422  0.3899  0.0716 -0.2066
11540SOL    HW136233   5.875   1.962   2.390 -1.5984 -2.8850  0.6410
11540SOL    HW236234   5.735   2.011   2.360 -0.7277  0.0304  1.0528
11541SOL     OW36235   5.540   8.727   7.636 -0.3668 -0.2089 -0.1666
11541SOL    HW136236   5.627   8.687   7.645 -0.6807 -0.9294 -0.2860
11541SOL    HW236237   5.558   8.815   7.605  0.3694 -0.0606  0.6196
11542SOL     OW36238   9.285   1.891   6.426 -0.1841 -0.4061 -0.0708
11542SOL    HW136239   9.372   1.902   6.387  0.5666 -0.7827  1.4220
11542SOL    HW236240   9.280   1.960   6.492 -0.6753 -0.9442  0.4524
11543SOL     OW36241   6.304   3.722   9.711  0.3448  0.4880  0.1513
11543SOL    HW136242   6.318   3.701   9.618  2.1595  2.1371 -0.0112
11543SOL    HW236243   6.213   3.751   9.715 -0.1964 -0.9423 -0.8193
11544SOL     OW36244   6.878   0.021   0.871 -0.0455  0.2768 -0.0302
11544SOL    HW136245   6.909   0.079   0.940  1.0167 -0.0290 -0.2425
11544SOL    HW236246   6.938   0.035   0.798 -0.5812 -0.1089 -0.5618
11545SOL     OW36247   1.803   2.610   4.324 -0.3093 -0.3072  0.5290
11545SOL    HW136248   1.828   2.669   4.252  0.9268 -1.2524  0.1479
11545SOL    HW236249   1.783   2.527   4.280 -0.2550 -0.6887  1.2184
11546SOL     OW36250   5.326   2.334   2.500 -0.3412  0.2939  0.1447
11546SOL    HW136251   5.337   2.410   2.443  0.0804  0.5961  0.6266
11546SOL    HW236252   5.411   2.291   2.500  0.4163  1.5976  2.3800
11547SOL     OW36253   8.916   3.445   0.897 -0.4439 -0.1440  0.2287
11547SOL    HW136254   8.953   3.528   0.864 -0.1985 -0.6040 -0.6808
11547SOL    HW236255   8.947   3.440   0.988 -0.2402  0.6324  0.2131
11548SOL     OW36256   1.630   7.263   1.410  0.0538 -0.2194  0.1084
11548SOL    HW136257   1.684   7.209   1.467 -0.5492 -1.4013 -0.3938
11548SOL    HW236258   1.589   7.327   1.468  0.3519 -0.6533  0.8024
11549SOL     OW36259   7.030   6.533   1.603 -0.1132  0.3330 -0.5440
11549SOL    HW136260   6.997   6.622   1.613 -0.3898  0.2268 -0.4901
11549SOL    HW236261   6.999   6.488   1.682  0.0930  0.2101 -0.5321
11550SOL     OW36262   2.494   1.512   4.551 -0.6558 -0.0035 -0.3832
11550SOL    HW136263   2.418   1.545   4.503 -0.4267  0.6137 -0.3237
11550SOL    HW236264   2.546   1.590   4.571 -1.1182 -0.1375  1.5233
11551SOL     OW36265   0.472   6.234   5.101  0.3446 -0.4765  0.2187
11551SOL    HW136266   0.435   6.173   5.036 -2.7153  1.4633 -0.0054
11551SOL    HW236267   0.524   6.295   5.048 -0.4638 -0.1104 -0.1672
11552SOL     OW36268   3.793   6.265   8.297 -0.3868 -0.0898  0.1099
11552SOL    HW136269   3.831   6.201   8.237 -0.2209 -0.4162  0.5501
11552SOL    HW236270   3.773   6.214   8.375 -0.7860  0.2878  0.2537
11553SOL     OW36271   9.245   3.729   5.808 -0.2172 -0.2464 -0.1021
11553SOL    HW136272   9.304   3.752   5.736  0.2345  1.7810  0.8403
11553SOL    HW236273   9.292   3.660   5.855 -0.0136 -0.8138 -1.1024
11554SOL     OW36274   5.965   7.733   0.732 -0.2735 -0.4271  0.1369
11554SOL    HW136275   5.927   7.786   0.802 -2.4761 -1.1901 -0.4060
11554SOL    HW236276   6.044   7.782   0.706  0.1765  0.2979  2.5361
11555SOL     OW36277   1.222   2.046   5.282  0.1446 -0.2522 -0.1356
11555SOL    HW136278   1.164   1.998   5.223 -0.0261  0.0473 -0.2083
11555SOL    HW236279   1.298   1.988   5.292  0.3506 -0.1378 -0.9561
11556SOL     OW36280   6.180   7.153   3.430 -0.1030  0.2938 -0.0663
11556SOL    HW136281   6.136   7.204   3.362 -1.9986  2.1430  2.3276
11556SOL    HW236282   6.255   7.207   3.455 -0.3798  0.4595  0.4189
11557SOL     OW36283   9.777   6.550   4.403  0.4655  0.3234 -0.8728
11557SOL    HW136284   9.748   6.621   4.460 -1.3662 -1.4318  0.5310
11557SOL    HW236285   9.708   6.542   4.337  2.3608  2.0574 -3.2735
11558SOL     OW36286   1.923   8.822   8.690 -0.3998  0.3827 -0.0310
11558SOL    HW136287   1.962   8.745   8.732 -1.2532 -0.1269 -0.1323
11558SOL    HW236288   1.943   8.812   8.597  1.1625  1.3119  0.1786
11559SOL     OW36289   6.617   0.198   6.507  0.5794 -0.0835 -0.0979
11559SOL    HW136290   6.648   0.286   6.487 -0.2902  0.2584  0.0215
11559SOL    HW236291   6.638   0.147   6.429  0.8956  0.2722 -0.2509
11560SOL     OW36292   3.186   0.515   1.369 -0.8877  0.3814 -0.3020
11560SOL    HW136293   3.204   0.536   1.277 -0.3236  0.8327 -0.0900
11560SOL    HW236294   3.107   0.564   1.390  0.1524  1.9579  0.0548
11561SOL     OW36295   8.314   8.191   2.544 -0.0362  0.2930  0.6391
11561SOL    HW136296   8.361   8.195   2.460 -1.2021  1.8149  0.0223
11561SOL    HW236297   8.322   8.099   2.571  0.8130 -0.1166 -0.8687
11562SOL     OW36298   7.580   1.855   6.199 -0.4092 -0.1933  0.6802
11562SOL    HW136299   7.530   1.924   6.241 -0.2806  0.6364 -0.4747
11562SOL    HW236300   7.597   1.792   6.269 -1.2965  0.4972  1.5552
11563SOL     OW36301   2.971   0.368   3.677 -0.1983 -0.2752 -0.2621
11563SOL    HW136302   2.952   0.275   3.663  0.4442 -0.6564  1.1433
11563SOL    HW236303   3.013   0.371   3.763 -0.4633  1.3632 -0.1527
11564SOL     OW36304   4.258   7.902   5.135  0.0206  0.1172 -0.2663
11564SOL    HW136305   4.205   7.879   5.211  0.6694  0.4726  0.3036
11564SOL    HW236306   4.322   7.832   5.127 -0.0233  0.0992 -0.4568
11565SOL     OW36307   3.289   4.176   5.617 -1.1782  0.6850 -0.0184
11565SOL    HW136308   3.304   4.239   5.688 -0.2557 -2.2865  2.6985
11565SOL    HW236309   3.194   4.174   5.607 -1.2892  1.6404  0.6362
11566SOL     OW36310   4.222   0.106   7.899 -0.4155  0.0744  0.5095
11566SOL    HW136311   4.138   0.150   7.909 -0.1537  1.1190 -1.3490
11566SOL    HW236312   4.285   0.165   7.941 -0.1022  1.4732 -1.7488
11567SOL     OW36313   8.666   4.093   5.239 -0.5003  0.4709 -0.8900
11567SOL    HW136314   8.623   4.078   5.155  1.0006 -0.0440 -1.5990
11567SOL    HW236315   8.603   4.061   5.304 -1.3631  0.1608 -1.8517
11568SOL     OW36316   7.914   2.121   8.283 -0.2156  0.1106 -0.4810
11568SOL    HW136317   7.935   2.032   8.255  1.2630 -0.3269  1.7478
11568SOL    HW236318   7.876   2.110   8.370  2.8200  1.7412  1.2045
11569SOL     OW36319   2.060   5.115   4.369  0.0279  0.0656 -0.2932
11569SOL    HW136320   1.987   5.056   4.387 -0.6468  1.1267  0.5228
11569SOL    HW236321   2.085   5.094   4.279 -1.0394 -0.5619 -0.4663
11570SOL     OW36322   9.274   9.663   0.536 -0.0317  0.1562 -0.2716
11570SOL    HW136323   9.278   9.606   0.459 -1.3006  0.8568 -0.8679
11570SOL    HW236324   9.186   9.650   0.572  0.7279 -0.6171  1.4437
11571SOL     OW36325   3.433   8.776   9.831 -0.5058  0.4129  0.0444
11571SOL    HW136326   3.475   8.848   9.877  1.0448 -1.4258  1.6463
11571SOL    HW236327   3.341   8.780   9.859 -0.0260  0.5864  1.6415
11572SOL     OW36328   4.334   1.917   3.303 -0.7348 -0.0057  0.6252
11572SOL    HW136329   4.295   1.941   3.218  0.4911 -1.3232 -0.3627
11572SOL    HW236330   4.394   1.990   3.323 -1.3535  0.5211  0.5914
11573SOL     OW36331   1.754   5.126   7.575  0.0170  0.5024  0.2704
11573SOL    HW136332   1.757   5.211   7.531 -1.0173  2.0305  2.9021
11573SOL    HW236333   1.845   5.098   7.580  0.3940  1.5266 -0.5243
11574SOL     OW36334   5.230   6.148   4.593  0.2066  0.2464  0.0491
11574SOL    HW136335   5.293   6.163   4.523  1.5723 -1.1645  0.9120
11574SOL    HW236336   5.145   6.149   4.549  0.7887  2.0174 -1.1746
11575SOL     OW36337   4.407   0.190   4.138 -0.0104  0.7758 -0.1121
11575SOL    HW136338   4.385   0.118   4.078  2.2646  0.6996 -0.9337
11575SOL    HW236339   4.440   0.259   4.081  1.2628  1.0732  0.9598
11576SOL     OW36340   5.985   7.782   4.475  0.2295 -0.3739 -0.1934
11576SOL    HW136341   5.890   7.769   4.482  0.5029 -1.6943  2.0346
11576SOL    HW236342   6.022   7.694   4.482  1.6457  0.1439 -0.7678
11577SOL     OW36343   9.214   6.698   0.223 -0.2524  0.2795 -0.0162
11577SOL    HW136344   9.297   6.716   0.265 -0.4300 -1.2368  1.0655
11577SOL    HW236345   9.148   6.739   0.280 -0.4009 -0.6299  0.4784
11578SOL     OW36346   1.039   9.595   9.303  0.5427  0.4660  0.3835
11578SOL    HW136347   1.032   9.689   9.317  1.1811  0.4091  1.1027
11578SOL    HW236348   1.094   9.586   9.225 -0.5730  0.7048 -0.4611
11579SOL     OW36349   9.480   5.701   7.529  0.1464  0.0051  0.7262
11579SOL    HW136350   9.424   5.765   7.485  0.5802 -0.7494 -1.0437
11579SOL    HW236351   9.556   5.751   7.557  0.3025  0.3707 -0.2973
11580SOL     OW36352   7.553   2.358   5.581  0.3394  0.0027  0.2303
11580SOL    HW136353   7.626   2.305   5.614  1.6478  1.7254  0.2461
11580SOL    HW236354   7.509   2.390   5.660 -0.0914 -0.5624  0.2249
11581SOL     OW36355   1.967   0.339   3.161 -0.2495  0.4602  0.5448
11581SOL    HW136356   1.984   0.298   3.077 -0.6609 -2.1167  1.6278
11581SOL    HW236357   1.995   0.275   3.226 -0.6227  2.0562  2.3932
11582SOL     OW36358   8.599   7.565   5.122 -0.1346  0.2747  0.5611
11582SOL    HW136359   8.641   7.585   5.206 -0.3641  0.5312  0.6137
11582SOL    HW236360   8.572   7.473   5.130  3.5325 -1.1105 -0.7418
11583SOL     OW36361   2.887   2.213   4.563 -0.4515  0.3648  0.4734
11583SOL    HW136362   2.882   2.119   4.577 -0.9358  0.0464 -1.4874
11583SOL    HW236363   2.909   2.222   4.470  0.6842  2.1924  0.8671
11584SOL     OW36364   6.534   0.934   0.184 -0.1584  0.0158  0.1735
11584SOL    HW136365   6.611   0.886   0.153  0.8425  1.7307 -0.1003
11584SOL    HW236366   6.462   0.871   0.175  0.9622 -1.1955 -0.8215
11585SOL     OW36367   4.964   6.436   8.617 -0.0925 -0.3830 -0.2026
11585SOL    HW136368   4.905   6.406   8.686  0.2934  0.3855  0.4791
11585SOL    HW236369   5.018   6.360   8.598 -0.8759 -0.9120 -0.3966
11586SOL     OW36370   0.275   7.386   5.331 -0.3631  0.1009  0.0303
11586SOL    HW136371   0.365   7.379   5.362 -0.3795 -0.6477 -0.0694
11586SOL    HW236372   0.221   7.383   5.410 -0.2541  2.2400  0.2398
11587SOL     OW36373   1.733   4.798   1.487 -0.1530  0.2354  0.1700
11587SOL    HW136374   1.720   4.867   1.552 -2.6847  0.1894 -0.1498
11587SOL    HW236375   1.695   4.834   1.406  2.7145  0.2083 -1.2975
11588SOL     OW36376   1.184   9.072   9.345  0.0507  0.3535 -0.2872
11588SOL    HW136377   1.226   8.996   9.305  0.2269  0.1649  0.2404
11588SOL    HW236378   1.244   9.144   9.326  0.5355  0.1196  0.3029
11589SOL     OW36379   4.857   2.847   1.835 -0.0109 -0.2767  0.2547
11589SOL    HW136380   4.857   2.816   1.744 -1.7780  0.4400 -0.0389
11589SOL    HW236381   4.903   2.930   1.832 -2.4814  1.1908 -0.6256
11590SOL     OW36382   9.216   3.310   5.919 -0.0522 -0.3039 -0.2071
11590SOL    HW136383   9.134   3.347   5.951 -0.4272 -0.2755 -1.1741
11590SOL    HW236384   9.258   3.380   5.870  0.8591 -0.1275  0.7752
11591SOL     OW36385   9.086   0.630   2.989  0.4533 -0.1842  0.2487
11591SOL    HW136386   9.037   0.548   2.990 -0.2672  0.2103 -0.9939
11591SOL    HW236387   9.104   0.646   2.896 -1.8427  2.4619  0.1227
11592SOL     OW36388   6.130   9.620   4.829  0.5759 -0.4915  0.9918
11592SOL    HW136389   6.129   9.713   4.851  0.4463 -0.2677  0.0517
11592SOL    HW236390   6.184   9.580   4.897  1.3676  0.3937  0.8964
11593SOL     OW36391   1.194   9.453   0.971 -0.4233 -0.1110 -0.3137
11593SOL    HW136392   1.240   9.471   0.889  1.1404  1.5336  0.8247
11593SOL    HW236393   1.108   9.493   0.961  0.2604  1.3331 -0.6912
11594SOL     OW36394   8.466   5.054   4.113 -0.3161  0.1392 -0.2705
11594SOL    HW136395   8.440   5.030   4.202 -0.2753 -1.0556 -0.5721
11594SOL    HW236396   8.383   5.066   4.066 -0.3611  1.9255  0.2032
11595SOL     OW36397   2.675   9.778   6.617  0.6070  0.0602 -0.1398
11595SOL    HW136398   2.660   9.725   6.538 -1.8613  1.3015 -0.5874
11595SOL    HW236399   2.674   9.714   6.688 -0.6457 -0.7188 -0.8116
11596SOL     OW36400   7.282   8.071   5.595 -0.0279 -0.2610 -0.4208
11596SOL    HW136401   7.299   8.105   5.507  0.7545  0.7356  0.0862
11596SOL    HW236402   7.295   8.147   5.652  0.2964 -1.0886  0.6343
11597SOL     OW36403   2.852   3.835   8.924 -0.1197 -0.5532  0.7858
11597SOL    HW136404   2.836   3.929   8.929 -1.0524 -0.7192  1.0176
11597SOL    HW236405   2.893   3.814   9.008  2.5390  0.0677 -0.2472
11598SOL     OW36406   5.933   9.247   0.315 -0.0179 -0.6627  0.1747
11598SOL    HW136407   5.857   9.293   0.350 -0.5114 -1.6871  0.5000
11598SOL    HW236408   5.902   9.157   0.303  1.3148 -1.2265  0.8454
11599SOL     OW36409   1.102   4.000   6.113 -0.5073  0.4808  0.2809
11599SOL    HW136410   1.062   3.946   6.045  0.0107  0.5280 -0.0580
11599SOL    HW236411   1.065   4.087   6.100 -0.0069  0.6096 -0.2644
11600SOL     OW36412   0.951   6.047   0.172 -0.1731  0.1040 -0.4393
11600SOL    HW136413   0.980   6.122   0.224 -2.0348  2.2595 -2.2904
11600SOL    HW236414   1.029   6.019   0.124  1.0322 -0.5360  1.7394
11601SOL     OW36415   4.058   0.996   6.397  0.1487  0.0724  0.1906
11601SOL    HW136416   4.038   1.083   6.433  1.2625 -0.3117  1.8690
11601SOL    HW236417   4.149   0.980   6.422  0.7422 -0.5922 -2.2036
11602SOL     OW36418   3.923   2.566   4.514 -0.3253 -0.2501 -0.4475
11602SOL    HW136419   3.907   2.560   4.420 -0.4840  0.6533 -0.4801
11602SOL    HW236420   4.016   2.546   4.524 -0.3066 -0.3365 -0.7948
11603SOL     OW36421   8.188   4.509   0.697 -0.3509  0.0602 -0.0233
11603SOL    HW136422   8.192   4.483   0.605 -1.2115 -1.6478  0.3730
11603SOL    HW236423   8.151   4.432   0.741  2.7338 -0.3457  2.1794
11604SOL     OW36424   5.116   4.470   6.275 -0.1274  0.9945 -0.0166
11604SOL    HW136425   5.207   4.442   6.287 -0.5124 -0.3059 -0.0109
11604SOL    HW236426   5.105   4.477   6.180 -0.4947 -0.5824 -0.1207
11605SOL     OW36427   7.549   5.583   1.846  0.6031  0.5266  0.0509
11605SOL    HW136428   7.490   5.607   1.917 -2.2233 -1.7223 -1.3452
11605SOL    HW236429   7.580   5.495   1.868  0.8803  0.4053 -0.7601
11606SOL     OW36430   1.425   5.252   5.999  0.3423 -0.4511 -0.0614
11606SOL    HW136431   1.496   5.297   6.046  0.4611  0.9947 -1.5542
11606SOL    HW236432   1.460   5.165   5.981  2.0081  0.4162 -1.2684
11607SOL     OW36433   5.217   4.440   5.603  0.8674  0.5305  0.3670
11607SOL    HW136434   5.186   4.523   5.565 -0.8315 -0.2927 -0.1085
11607SOL    HW236435   5.246   4.389   5.528  1.2070  0.3983  0.5868
11608SOL     OW36436   5.816   6.145   8.405 -0.2371 -0.6620  0.4075
11608SOL    HW136437   5.888   6.190   8.450  1.0599 -1.3529 -0.8796
11608SOL    HW236438   5.852   6.124   8.319 -2.1998 -0.5289 -0.4887
11609SOL     OW36439   5.273   5.527   9.072 -0.5026  0.0040  0.4344
11609SOL    HW136440   5.230   5.606   9.040 -0.4431 -0.0150  0.3085
11609SOL    HW236441   5.318   5.491   8.996  0.0851  0.2519  0.6618
11610SOL     OW36442   4.426   1.895   5.857 -0.6871  0.0140 -0.4704
11610SOL    HW136443   4.402   1.830   5.792  0.0705  0.6259 -1.3799
11610SOL    HW236444   4.429   1.978   5.809  1.9907  0.1695 -0.2019
11611SOL     OW36445   2.630   7.238   9.169  0.0887 -0.0710  0.0193
11611SOL    HW136446   2.546   7.282   9.152  0.5704  0.3826 -1.2965
11611SOL    HW236447   2.689   7.309   9.193  0.0290 -0.4348  1.3093
11612SOL     OW36448   5.680   4.994   6.058 -0.2475  0.2847 -0.3002
11612SOL    HW136449   5.622   5.010   6.133 -0.7399  0.0586 -0.6287
11612SOL    HW236450   5.659   5.064   5.996  0.8418  1.0421  0.1645
11613SOL     OW36451   2.827   9.672   2.192  0.1814 -0.4072  0.3945
11613SOL    HW136452   2.850   9.763   2.211  1.1185 -0.3454 -0.8861
11613SOL    HW236453   2.870   9.622   2.262  1.6450 -0.0286 -0.1844
11614SOL     OW36454   6.367   7.656   9.502  0.2165 -0.2705 -0.1732
11614SOL    HW136455   6.284   7.613   9.525 -0.3105  1.3108  1.0803
11614SOL    HW236456   6.420   7.649   9.581  1.6413 -1.9444 -1.2040
11615SOL     OW36457   2.987   8.511   8.845  0.2081  0.4164  0.1488
11615SOL    HW136458   2.983   8.447   8.774 -1.8070  1.5164 -0.8207
11615SOL    HW236459   3.056   8.572   8.818 -0.1295  0.4836 -0.5920
11616SOL     OW36460   7.474   1.726   5.603 -0.4694 -0.1738 -0.2472
11616SOL    HW136461   7.457   1.650   5.548 -1.0578 -0.0707 -0.2212
11616SOL    HW236462   7.563   1.752   5.583  0.6870 -2.3640  1.5549
11617SOL     OW36463   4.401   6.255   2.064 -0.3216 -0.1983 -1.1057
11617SOL    HW136464   4.311   6.270   2.035 -0.3104 -0.7581 -1.4484
11617SOL    HW236465   4.432   6.340   2.094 -1.2581 -0.1738 -0.1622
11618SOL     OW36466   4.809   3.451   6.654  0.6010  0.2567  0.2850
11618SOL    HW136467   4.795   3.538   6.691 -2.1529 -0.3942  1.0569
11618SOL    HW236468   4.767   3.453   6.568 -1.3007 -0.7810  1.1192
11619SOL     OW36469   4.479   6.538   9.312  0.3472 -0.9259  0.1668
11619SOL    HW136470   4.439   6.469   9.365  0.4837 -0.7324  0.5233
11619SOL    HW236471   4.446   6.522   9.223 -0.3752 -0.8849  0.4163
11620SOL     OW36472   6.986   7.393   2.328  0.2784  0.3907  0.0996
11620SOL    HW136473   7.064   7.409   2.275  0.3927 -0.3023  0.0449
11620SOL    HW236474   6.948   7.313   2.291 -0.8881  1.1235 -0.3727
11621SOL     OW36475   2.531   1.564   4.828 -0.3267 -0.6129 -0.5520
11621SOL    HW136476   2.518   1.513   4.909 -0.4669  0.1316 -0.0936
11621SOL    HW236477   2.552   1.499   4.762  1.1410 -1.1259  0.3715
11622SOL     OW36478   7.180   1.524   5.754  0.1914 -0.5033 -0.5241
11622SOL    HW136479   7.094   1.564   5.752 -0.3360 -1.5399  0.3189
11622SOL    HW236480   7.241   1.597   5.746 -0.7319  0.4931  1.0216
11623SOL     OW36481   8.418   8.335   8.613 -0.2149 -0.3503 -0.2297
11623SOL    HW136482   8.402   8.387   8.534 -1.3337  0.2607  0.3734
11623SOL    HW236483   8.505   8.296   8.599 -0.0882  0.3133 -1.4408
11624SOL     OW36484   7.581   5.421   6.020 -0.3139 -0.1887  0.0281
11624SOL    HW136485   7.625   5.478   6.083 -0.0933 -1.2416  0.8525
11624SOL    HW236486   7.628   5.435   5.938 -1.9069  2.7857 -0.5169
11625SOL     OW36487   9.250   5.956   1.104  0.2152 -0.4999 -0.5027
11625SOL    HW136488   9.266   5.979   1.196  1.7378 -0.4058 -0.7693
11625SOL    HW236489   9.287   6.029   1.054 -2.1740  0.3352 -1.2048
11626SOL     OW36490   0.945   9.583   8.596 -0.0942  0.6061 -0.0651
11626SOL    HW136491   0.951   9.544   8.683 -1.4352 -0.3778 -0.3611
11626SOL    HW236492   0.992   9.666   8.602  1.3676 -0.2709  1.0868
11627SOL     OW36493   5.558   6.544   6.104 -0.3528 -0.4474 -0.0422
11627SOL    HW136494   5.593   6.539   6.193 -1.7921 -1.3113  0.5081
11627SOL    HW236495   5.478   6.594   6.112 -0.2411 -0.0983 -0.9570
11628SOL     OW36496   7.125   3.940   9.342 -0.3055  0.6922 -0.1708
11628SOL    HW136497   7.202   3.995   9.330 -0.7879  1.6176  0.8357
11628SOL    HW236498   7.127   3.915   9.434  0.0273 -1.1886 -0.6542
11629SOL     OW36499   8.468   0.749   1.395  0.0941  0.4587  0.0788
11629SOL    HW136500   8.490   0.764   1.487 -0.3970 -0.8060  0.4278
11629SOL    HW236501   8.449   0.655   1.391  1.0874  0.3080 -1.5218
11630SOL     OW36502   1.961   5.014   3.127 -0.0605 -0.2608 -0.0541
11630SOL    HW136503   1.866   5.022   3.140 -0.3392 -0.6188 -1.6315
11630SOL    HW236504   1.999   5.079   3.187 -1.3117  0.0066  0.4763
11631SOL     OW36505   4.994   3.142   1.383 -0.3354 -0.1827  0.9468
11631SOL    HW136506   5.042   3.209   1.334 -0.4021 -0.9054 -0.1421
11631SOL    HW236507   5.062   3.087   1.422 -0.2810  0.4717  1.7901
11632SOL     OW36508   5.750   2.375   1.812 -0.2071  0.5572 -0.2163
11632SOL    HW136509   5.781   2.319   1.883 -0.5795  1.2725  0.5338
11632SOL    HW236510   5.710   2.450   1.857  0.3368  1.4559 -1.1804
11633SOL     OW36511   2.592   1.643   7.043 -0.0960 -0.1357 -0.2930
11633SOL    HW136512   2.614   1.551   7.059  0.5309  0.0667  0.0762
11633SOL    HW236513   2.677   1.688   7.043 -0.3134  0.3106 -1.3812
11634SOL     OW36514   9.417   9.030   9.726  0.4346 -0.3965 -0.4391
11634SOL    HW136515   9.325   9.009   9.738  0.0090  1.2803 -0.4820
11634SOL    HW236516   9.462   8.946   9.730 -1.1473 -1.3008 -0.9427
11635SOL     OW36517   8.547   6.312   4.803 -0.1595 -0.3089  0.3263
11635SOL    HW136518   8.541   6.235   4.747 -0.2326  0.2503 -0.4602
11635SOL    HW236519   8.551   6.278   4.892  0.2568 -1.2307 -0.0382
11636SOL     OW36520   2.295   9.601   1.457  0.0904  0.1076  0.6658
11636SOL    HW136521   2.214   9.584   1.504 -0.0873 -2.1112 -0.2982
11636SOL    HW236522   2.362   9.557   1.508  0.0906 -1.2077 -0.4353
11637SOL     OW36523   8.043   0.739   8.377  0.6470  0.0876 -0.6806
11637SOL    HW136524   7.960   0.695   8.357 -0.4213  2.0208 -0.7191
11637SOL    HW236525   8.056   0.724   8.471  2.4202 -3.6307 -1.3328
11638SOL     OW36526   5.640   3.619   0.748 -0.1262  0.1528 -0.5383
11638SOL    HW136527   5.547   3.641   0.748 -0.3798 -0.7512 -1.9178
11638SOL    HW236528   5.662   3.606   0.841 -1.9582 -1.8278 -0.3029
11639SOL     OW36529   1.854   4.750   2.474  0.0053  0.3401 -0.1329
11639SOL    HW136530   1.831   4.698   2.551  0.1806  1.4953  0.7303
11639SOL    HW236531   1.814   4.704   2.401 -2.5590  0.6976  0.9533
11640SOL     OW36532   6.829   1.389   0.635 -0.3333  0.5204 -0.3718
11640SOL    HW136533   6.752   1.334   0.649 -0.0575  0.1289 -0.4018
11640SOL    HW236534   6.840   1.392   0.540 -0.1054  0.2969 -0.3514
11641SOL     OW36535   8.036   4.533   7.310 -0.3462  0.0023 -0.1642
11641SOL    HW136536   7.969   4.465   7.309 -0.6619  0.3084 -0.2101
11641SOL    HW236537   8.117   4.487   7.332 -0.4450 -0.4868 -0.7697
11642SOL     OW36538   3.199   4.846   2.777 -0.0682  0.2293 -0.5470
11642SOL    HW136539   3.125   4.906   2.786  0.4445  0.6484  1.6586
11642SOL    HW236540   3.264   4.895   2.729 -1.0312  0.0039 -2.1503
11643SOL     OW36541   0.715   2.723   4.991  0.2989 -0.2670  0.1739
11643SOL    HW136542   0.664   2.799   5.018 -1.4514 -1.9525  1.9366
11643SOL    HW236543   0.681   2.651   5.043  0.1747 -2.8186 -3.0980
11644SOL     OW36544   6.767   4.978   9.836  0.1210  0.2646 -0.2807
11644SOL    HW136545   6.852   5.021   9.851  0.5664 -0.7031  0.0611
11644SOL    HW236546   6.787   4.885   9.838 -0.7692  0.0267 -1.3633
11645SOL     OW36547   8.148   5.843   8.570 -0.6164  0.4176 -0.3177
11645SOL    HW136548   8.170   5.851   8.662  1.9542  0.0922 -0.8349
11645SOL    HW236549   8.198   5.913   8.527  0.1305 -0.8945 -1.6948
11646SOL     OW36550   8.117   7.976   7.617  0.0975  0.2839 -0.0166
11646SOL    HW136551   8.125   7.932   7.701 -1.3095  1.6349  0.8744
11646SOL    HW236552   8.040   8.032   7.626 -0.1268  0.4235 -2.2357
11647SOL     OW36553   0.519   9.470   9.018  0.6386 -0.3026 -0.2172
11647SOL    HW136554   0.572   9.544   8.989 -0.1921 -0.0770 -1.2553
11647SOL    HW236555   0.462   9.507   9.085  0.5309 -0.0958 -0.4188
11648SOL     OW36556   3.537   9.335   2.273  0.1310 -0.5340  0.0213
11648SOL    HW136557   3.580   9.296   2.196  0.9500 -0.8075  0.6005
11648SOL    HW236558   3.449   9.298   2.273 -0.3755  0.5417 -1.5778
11649SOL     OW36559   4.664   9.345   9.134  0.1339 -0.0519 -0.2191
11649SOL    HW136560   4.646   9.274   9.196  2.4487  1.2246  2.0903
11649SOL    HW236561   4.735   9.311   9.079  0.6041  0.1070  0.2791
11650SOL     OW36562   3.334   3.383   1.177 -0.0321 -0.0793  0.0652
11650SOL    HW136563   3.244   3.368   1.148 -0.4533  2.6884 -0.2648
11650SOL    HW236564   3.332   3.364   1.271 -1.5351  1.8972  0.4947
11651SOL     OW36565   0.962   8.191   4.277 -0.8508 -0.7080 -0.6082
11651SOL    HW136566   1.050   8.175   4.311 -1.4058 -1.2973  0.5985
11651SOL    HW236567   0.969   8.277   4.235  0.7408 -1.5547 -2.1732
11652SOL     OW36568   5.580   8.652   9.322 -0.4487 -0.0699  0.2353
11652SOL    HW136569   5.633   8.574   9.335 -2.0334 -1.2260  0.0580
11652SOL    HW236570   5.596   8.677   9.231 -0.2736 -0.4429  0.1612
11653SOL     OW36571   0.635   6.996   4.166  0.3573 -0.1178 -0.2907
11653SOL    HW136572   0.707   7.055   4.189  0.9343 -0.3298 -1.4545
11653SOL    HW236573   0.599   6.968   4.250  1.5718  0.0824  0.3196
11654SOL     OW36574   0.304   7.713   3.358  0.7021 -0.0245  0.3605
11654SOL    HW136575   0.342   7.755   3.434  0.0197 -0.0585  0.7301
11654SOL    HW236576   0.235   7.657   3.393 -0.8783  1.3564 -0.3992
11655SOL     OW36577   1.297   1.375   0.285 -0.0874  0.0793 -0.1285
11655SOL    HW136578   1.275   1.385   0.193  0.6907  2.3771 -0.1334
11655SOL    HW236579   1.392   1.389   0.289  0.1770 -1.6460  0.8491
11656SOL     OW36580   7.698   6.174   0.904 -0.0172 -0.7050  0.9849
11656SOL    HW136581   7.608   6.154   0.879 -1.2506  2.5222  2.2481
11656SOL    HW236582   7.691   6.204   0.995  1.7061  2.6144  0.1695
11657SOL     OW36583   3.842   1.429   8.896  0.3824 -0.2534 -0.2771
11657SOL    HW136584   3.780   1.471   8.836  0.0975  1.0869  0.9133
11657SOL    HW236585   3.881   1.359   8.844 -0.0850  0.6599 -1.9306
11658SOL     OW36586   0.750   2.169   3.263  0.1777 -0.5947  0.2894
11658SOL    HW136587   0.661   2.156   3.295 -0.6314 -0.2003 -1.6516
11658SOL    HW236588   0.782   2.081   3.245 -0.6802 -0.6483 -1.1159
11659SOL     OW36589   0.511   5.157   1.172  0.2211  0.3865  0.6824
11659SOL    HW136590   0.576   5.172   1.104 -0.7090  2.2710  0.1484
11659SOL    HW236591   0.512   5.062   1.186  2.8189  0.3190  0.4729
11660SOL     OW36592   2.595   7.401   2.558 -0.8738 -0.4992  0.0798
11660SOL    HW136593   2.655   7.437   2.623  0.8523 -0.4243 -1.4545
11660SOL    HW236594   2.550   7.477   2.521 -1.4333 -0.4904  0.7630
11661SOL     OW36595   7.562   1.658   9.221  0.3483 -0.2212  0.1334
11661SOL    HW136596   7.574   1.578   9.169 -1.0624 -0.1213 -0.3709
11661SOL    HW236597   7.523   1.628   9.303 -1.0688  0.0236 -0.4269
11662SOL     OW36598   4.098   0.079   7.397  0.0883 -0.1331  0.0220
11662SOL    HW136599   4.153   0.043   7.467  0.1317 -0.9108 -0.4009
11662SOL    HW236600   4.126   0.033   7.318 -0.4685  0.1995 -0.3763
11663SOL     OW36601   6.751   3.470   2.530  0.0101 -0.7046  0.9785
11663SOL    HW136602   6.706   3.544   2.571 -4.1132 -1.6817 -1.2537
11663SOL    HW236603   6.719   3.393   2.577  0.7540 -1.3688  0.4322
11664SOL     OW36604   5.399   4.675   8.397  0.3197  0.0109 -0.5876
11664SOL    HW136605   5.467   4.726   8.352  0.8222 -0.2814 -0.1806
11664SOL    HW236606   5.447   4.603   8.438  0.0211  0.7723  1.1829
11665SOL     OW36607   2.516   1.921   2.761 -0.0485  0.3139  0.3014
11665SOL    HW136608   2.589   1.983   2.764  0.5871 -0.4085  0.0186
11665SOL    HW236609   2.506   1.899   2.668  0.2615 -0.6194  0.4823
11666SOL     OW36610   2.982   5.850   8.549 -0.3269  0.1528  0.1535
11666SOL    HW136611   2.955   5.926   8.600 -0.0125  1.4510 -1.5287
11666SOL    HW236612   3.056   5.881   8.497 -0.2234 -1.2944 -0.6113
11667SOL     OW36613   5.765   1.136   3.656 -0.2288  0.2485  0.1011
11667SOL    HW136614   5.855   1.149   3.626 -0.2495 -0.1161 -0.1203
11667SOL    HW236615   5.714   1.124   3.576 -0.2442 -0.9691  0.2800
11668SOL     OW36616   3.142   3.406   9.696  0.1886  0.1028  0.7595
11668SOL    HW136617   3.127   3.331   9.638  0.4506  0.7717 -0.1972
11668SOL    HW236618   3.237   3.407   9.709  0.1818  0.2512  0.7995
11669SOL     OW36619   0.219   4.330   2.958  0.0517  0.1068 -0.6545
11669SOL    HW136620   0.253   4.365   2.877  0.7394  0.6081 -0.1588
11669SOL    HW236621   0.248   4.239   2.959  0.4196  0.2232 -0.7638
11670SOL     OW36622   8.132   3.338   3.984  0.2092 -0.9904 -0.1194
11670SOL    HW136623   8.119   3.253   4.027 -1.3800  0.1302  1.7923
11670SOL    HW236624   8.044   3.366   3.959  0.0047  1.8194  2.9810
11671SOL     OW36625   4.358   9.404   9.331 -0.6851 -0.0390  0.3840
11671SOL    HW136626   4.362   9.500   9.329  2.7185 -0.0800 -0.0243
11671SOL    HW236627   4.324   9.380   9.245  2.2413  0.8542 -1.1503
11672SOL     OW36628   6.164   0.771   1.866 -0.1072  0.5475 -0.1160
11672SOL    HW136629   6.248   0.727   1.873  0.2941  0.7092 -2.7810
11672SOL    HW236630   6.186   0.864   1.858 -0.6694  0.7709  0.7199
11673SOL     OW36631   2.680   1.880   4.349 -0.2993  0.1128  0.0537
11673SOL    HW136632   2.619   1.851   4.417  1.9664  0.9885  2.6260
11673SOL    HW236633   2.695   1.802   4.296 -2.1940 -0.5872  0.4695
11674SOL     OW36634   5.476   6.049   2.900 -0.0511 -0.2010  0.0216
11674SOL    HW136635   5.487   6.012   2.987  0.7755 -0.1923 -0.0703
11674SOL    HW236636   5.529   6.129   2.901 -0.8227  0.3231 -0.1785
11675SOL     OW36637   8.025   6.682   5.326 -0.3687 -0.5682  0.2218
11675SOL    HW136638   7.964   6.754   5.343 -1.0212 -1.1717  0.4772
11675SOL    HW236639   8.025   6.630   5.406  1.3943  0.0589  0.6606
11676SOL     OW36640   0.550   4.163   8.824 -0.7076 -0.1703 -0.1502
11676SOL    HW136641   0.600   4.232   8.868  0.0024 -1.2332  0.7358
11676SOL    HW236642   0.464   4.166   8.865 -0.3020 -0.6042  0.7723
11677SOL     OW36643   3.393   5.688   4.579 -0.0744 -0.5406 -0.1239
11677SOL    HW136644   3.466   5.737   4.618  0.3576 -0.0968 -1.4266
11677SOL    HW236645   3.321   5.751   4.574 -0.1161 -0.5846 -0.0814
11678SOL     OW36646   0.438   5.592   3.960 -0.3020  0.6811  0.3393
11678SOL    HW136647   0.483   5.627   3.884  0.5345 -0.4601  0.2756
11678SOL    HW236648   0.491   5.619   4.035  0.9151 -1.1874  0.2187
11679SOL     OW36649   7.967   1.622   8.527  0.0178 -0.5067  0.1341
11679SOL    HW136650   7.928   1.603   8.441 -0.7853 -1.6392  0.7177
11679SOL    HW236651   8.051   1.662   8.506  0.5951 -2.2522 -1.2289
11680SOL     OW36652   6.187   0.566   7.664  0.2168  0.3547 -0.3119
11680SOL    HW136653   6.248   0.499   7.632 -0.3121  0.2453 -1.1230
11680SOL    HW236654   6.101   0.525   7.657  0.1043  0.1537  1.7354
11681SOL     OW36655   8.324   1.250   9.839  0.2551  0.4751  0.3390
11681SOL    HW136656   8.387   1.180   9.853  0.2347  0.5584  0.8738
11681SOL    HW236657   8.270   1.249   9.918 -1.7481 -0.9591 -0.9576
11682SOL     OW36658   3.281   4.563   9.017  0.1022 -0.1557  0.3800
11682SOL    HW136659   3.318   4.649   8.999  0.3039  0.0580  1.6984
11682SOL    HW236660   3.194   4.581   9.051  0.4897 -0.4063  1.5337
11683SOL     OW36661   9.506   9.719   3.661 -0.2492 -0.3477 -0.0328
11683SOL    HW136662   9.540   9.657   3.597 -0.6817 -0.9196  0.2864
11683SOL    HW236663   9.428   9.757   3.620  1.2511  1.6909 -1.1763
11684SOL     OW36664   7.255   7.008   9.528  0.0666  0.7594  0.2741
11684SOL    HW136665   7.338   7.046   9.497  0.9067  0.2265  1.7514
11684SOL    HW236666   7.265   7.005   9.624 -1.9418  1.2960  0.5345
11685SOL     OW36667   6.755   6.306   9.630  0.3312 -0.4810  0.3091
11685SOL    HW136668   6.699   6.249   9.579 -0.9287 -0.6364  1.7798
11685SOL    HW236669   6.737   6.283   9.721  1.8978  0.3121  0.8773
11686SOL     OW36670   7.320   5.449   1.060 -0.0724 -0.3646 -0.4694
11686SOL    HW136671   7.343   5.395   0.984  1.8142  0.0860 -0.2877
11686SOL    HW236672   7.350   5.537   1.036 -1.6216  0.2843 -0.1191
11687SOL     OW36673   4.090   1.366   3.139 -0.3262  0.1604  0.5404
11687SOL    HW136674   4.097   1.272   3.122 -0.9766  0.5784 -2.4931
11687SOL    HW236675   4.021   1.373   3.206 -0.8150 -1.4617  0.2498
11688SOL     OW36676   9.512   8.793   6.452 -0.1707 -0.2212  0.5390
11688SOL    HW136677   9.430   8.754   6.485 -0.4019 -0.6621 -0.5183
11688SOL    HW236678   9.521   8.759   6.363  0.7016  0.5478  0.3141
11689SOL     OW36679   5.178   7.060   4.639  0.1720  0.1643  0.0173
11689SOL    HW136680   5.118   7.134   4.641 -1.1866 -0.9018 -0.5299
11689SOL    HW236681   5.236   7.077   4.565 -0.1998  0.6242 -0.1657
11690SOL     OW36682   3.941   2.361   6.556 -0.1851  0.3478 -0.0143
11690SOL    HW136683   4.030   2.384   6.581 -0.1304  0.8820 -0.6657
11690SOL    HW236684   3.914   2.431   6.496 -0.6596 -0.3483 -0.6391
11691SOL     OW36685   7.577   3.810   5.449 -0.3350  0.0994  0.6229
11691SOL    HW136686   7.529   3.830   5.369 -0.0431  0.3922  0.5173
11691SOL    HW236687   7.642   3.881   5.456 -1.2790  0.8671  1.8709
11692SOL     OW36688   7.561   4.965   3.626 -0.5036  0.2926 -0.1848
11692SOL    HW136689   7.475   4.952   3.586  0.5730  0.3114 -2.6906
11692SOL    HW236690   7.594   5.045   3.585  0.4955  0.6020  1.1768
11693SOL     OW36691   4.838   9.720   9.502 -0.2376  0.7391  0.3109
11693SOL    HW136692   4.923   9.740   9.464 -0.1040  0.9342  0.7107
11693SOL    HW236693   4.809   9.802   9.542 -0.4483  0.5776  0.4957
11694SOL     OW36694   7.121   6.796   5.298 -0.4613  0.9284  0.9801
11694SOL    HW136695   7.129   6.774   5.391  1.1082  0.1205  0.6880
11694SOL    HW236696   7.027   6.803   5.283 -0.8428 -0.8426  2.2212
11695SOL     OW36697   4.514   6.894   6.406 -0.3869 -0.2543 -0.6261
11695SOL    HW136698   4.609   6.888   6.412  0.1076  3.8547 -1.5314
11695SOL    HW236699   4.498   6.934   6.320 -2.6222  2.2307  0.8032
11696SOL     OW36700   2.331   5.387   7.457  0.4307  0.2219 -0.0529
11696SOL    HW136701   2.296   5.307   7.419  0.8032 -0.2767  0.6081
11696SOL    HW236702   2.397   5.417   7.395  0.2064  0.0800 -0.3590
11697SOL     OW36703   3.128   8.931   1.574  0.0060 -0.1989 -0.1485
11697SOL    HW136704   3.219   8.915   1.599  0.0944  0.7456  0.1507
11697SOL    HW236705   3.077   8.898   1.647  0.1780  0.6155  0.3514
11698SOL     OW36706   2.266   4.690   6.183 -0.4869 -0.0189 -0.1351
11698SOL    HW136707   2.200   4.622   6.194  0.5561 -0.9588  0.5223
11698SOL    HW236708   2.281   4.694   6.089 -3.1349  1.8811 -0.5890
11699SOL     OW36709   2.532   1.379   6.525  0.0980  0.2010  0.4553
11699SOL    HW136710   2.520   1.326   6.446 -0.9577 -2.0513  2.0108
11699SOL    HW236711   2.480   1.457   6.509 -1.1412 -0.7866 -0.6333
11700SOL     OW36712   9.744   4.682   7.432  0.2798 -0.3717  0.1703
11700SOL    HW136713   9.755   4.745   7.503 -0.7558 -0.7207  0.6542
11700SOL    HW236714   9.833   4.654   7.411  0.7392  1.0132  0.1547
11701SOL     OW36715   9.037   1.501   8.437  0.2892 -0.2362 -0.1633
11701SOL    HW136716   8.999   1.418   8.408 -1.3871  1.3403 -2.8366
11701SOL    HW236717   8.967   1.543   8.487 -0.3318  1.1533 -2.0981
11702SOL     OW36718   9.635   3.245   7.734 -1.1390  0.2784 -0.2279
11702SOL    HW136719   9.616   3.339   7.729  1.7925  0.8992 -1.6364
11702SOL    HW236720   9.688   3.236   7.814  1.9865  0.6479 -2.1001
11703SOL     OW36721   0.322   7.651   8.766  0.3493 -0.4340  0.1829
11703SOL    HW136722   0.353   7.694   8.686 -0.2187 -0.6809 -0.1786
11703SOL    HW236723   0.339   7.714   8.835 -1.7556  1.0342 -0.5097
11704SOL     OW36724   1.579   7.533   5.356  0.2999  0.4125  0.0184
11704SOL    HW136725   1.508   7.469   5.362 -2.0118  2.8805  1.1958
11704SOL    HW236726   1.651   7.486   5.314 -1.3266 -2.8159  0.5721
11705SOL     OW36727   3.494   8.468   0.037  0.0431 -1.0564 -0.5177
11705SOL    HW136728   3.521   8.405  -0.030  0.9898  0.0793 -1.2430
11705SOL    HW236729   3.509   8.553  -0.003  1.3812 -0.3204  1.4110
11706SOL     OW36730   1.609   3.893   8.064 -0.0996  0.2994 -0.6147
11706SOL    HW136731   1.587   3.970   8.116  2.2965 -0.3297  1.5272
11706SOL    HW236732   1.543   3.828   8.090 -0.7011  0.8955 -0.6166
11707SOL     OW36733   4.518   9.688   3.733  0.0868  0.2379  0.9961
11707SOL    HW136734   4.459   9.726   3.798  0.5807  0.3210  1.4049
11707SOL    HW236735   4.597   9.667   3.782 -0.2153 -1.4852  0.8349
11708SOL     OW36736   0.249   1.825   0.789 -0.0391 -0.0480  0.2049
11708SOL    HW136737   0.207   1.861   0.711 -0.6349 -0.4627  0.3240
11708SOL    HW236738   0.342   1.825   0.768 -0.2845 -1.4709 -1.0914
11709SOL     OW36739   9.521   6.050   1.776  0.0622 -0.1719  0.1831
11709SOL    HW136740   9.541   6.066   1.684  0.1973 -0.7193  0.1123
11709SOL    HW236741   9.441   6.099   1.792  0.7099  0.9402  0.1049
11710SOL     OW36742   0.230   0.538   8.115  0.0389  0.1876 -0.5168
11710SOL    HW136743   0.153   0.514   8.063  0.6841  1.5877 -2.2141
11710SOL    HW236744   0.304   0.522   8.056  1.0083 -0.4215  0.8283
11711SOL     OW36745   8.348   6.035   6.188  0.3738 -0.1708 -0.3375
11711SOL    HW136746   8.322   5.945   6.172 -0.5839 -0.4074  2.0847
11711SOL    HW236747   8.291   6.087   6.131 -0.9675 -1.0045  0.1769
11712SOL     OW36748   2.102   9.410   5.028  0.6155  0.5535  0.4605
11712SOL    HW136749   2.036   9.411   5.097 -2.0226  1.5603 -1.8917
11712SOL    HW236750   2.185   9.418   5.075 -0.8943 -0.2773  3.5609
11713SOL     OW36751   9.457   2.362   8.877 -0.3361 -0.1526  0.1756
11713SOL    HW136752   9.430   2.454   8.874  1.0785  0.3751  1.9119
11713SOL    HW236753   9.507   2.354   8.958 -0.0500 -2.3687 -0.1563
11714SOL     OW36754   4.360   7.341   5.703 -0.0504 -0.3850  0.6127
11714SOL    HW136755   4.420   7.268   5.686  1.5970  1.1568 -0.4595
11714SOL    HW236756   4.365   7.354   5.798 -0.2452 -1.5312  0.7948
11715SOL     OW36757   9.749   0.003   1.849 -0.0576  0.4089  0.1475
11715SOL    HW136758   9.706  -0.064   1.796  1.6925 -0.3872 -0.3561
11715SOL    HW236759   9.798  -0.046   1.914 -0.3736  1.3006  1.0819
11716SOL     OW36760   3.160   7.834   7.717  0.2011 -0.0428  0.6538
11716SOL    HW136761   3.115   7.873   7.643  1.0640  1.0604  0.6862
11716SOL    HW236762   3.124   7.745   7.723 -1.2868  0.5005  0.1447
11717SOL     OW36763   5.891   9.052   0.651 -0.4432 -0.1500 -0.3489
11717SOL    HW136764   5.824   9.118   0.633 -1.2434 -1.2475 -1.5787
11717SOL    HW236765   5.973   9.100   0.650 -1.1087  1.0298  0.0284
11718SOL     OW36766   4.294   2.824   4.266  0.1445 -0.1498 -0.5603
11718SOL    HW136767   4.282   2.729   4.273  1.2788 -0.3555 -1.1235
11718SOL    HW236768   4.271   2.844   4.176 -0.2315  0.1339 -0.4007
11719SOL     OW36769   6.530   1.302   6.596  0.0786  0.0551  0.0369
11719SOL    HW136770   6.459   1.366   6.604  0.9791  0.8934  1.7986
11719SOL    HW236771   6.607   1.354   6.576  0.6710 -0.5516  0.6819
11720SOL     OW36772   0.506   5.564   2.607  0.7330  0.2945 -0.4141
11720SOL    HW136773   0.566   5.496   2.575 -0.0746 -0.9424  0.5911
11720SOL    HW236774   0.459   5.593   2.528  1.6930  0.3198 -0.9949
11721SOL     OW36775   3.024   8.620   7.257 -0.1014 -0.3159 -0.5969
11721SOL    HW136776   3.015   8.639   7.164  1.3973  1.5661 -0.4295
11721SOL    HW236777   3.109   8.576   7.265  0.0063 -0.0287 -0.0770
11722SOL     OW36778   8.943   8.554   0.367 -0.9793 -0.2815 -0.2724
11722SOL    HW136779   9.029   8.560   0.325 -1.2496  1.9896 -0.5916
11722SOL    HW236780   8.926   8.460   0.373  2.0430 -0.8584  0.9003
11723SOL     OW36781   8.429   3.024   3.410 -0.2625  0.4853 -0.0776
11723SOL    HW136782   8.454   3.067   3.492  1.1561  0.4812 -0.4760
11723SOL    HW236783   8.436   3.092   3.343 -1.8042  0.5914 -0.1596
11724SOL     OW36784   7.169   8.410   1.837 -0.0342 -0.0122 -0.7378
11724SOL    HW136785   7.179   8.393   1.931  1.0730  1.4492 -0.5574
11724SOL    HW236786   7.238   8.359   1.795 -0.6970 -0.8785 -0.8101
11725SOL     OW36787   3.548   6.746   1.574 -0.1668 -0.5937 -0.1200
11725SOL    HW136788   3.456   6.755   1.549 -0.2707 -1.1677  0.0301
11725SOL    HW236789   3.550   6.766   1.667  0.3830  2.5562 -0.6962
11726SOL     OW36790   5.711   6.455   6.963 -0.1328 -0.1318 -0.0782
11726SOL    HW136791   5.707   6.451   6.868 -0.6325 -2.1642 -0.0140
11726SOL    HW236792   5.798   6.422   6.985 -1.1718 -2.9154  0.2244
11727SOL     OW36793   5.364   1.094   2.266 -0.3876 -0.5231 -0.1604
11727SOL    HW136794   5.292   1.121   2.210 -1.5874 -0.2676  1.4200
11727SOL    HW236795   5.322   1.068   2.348  1.3202 -0.2285  0.8706
11728SOL     OW36796   9.595   7.852   6.014 -0.1160  0.1043  0.3867
11728SOL    HW136797   9.544   7.926   6.044 -0.2921 -0.0984  0.5917
11728SOL    HW236798   9.549   7.775   6.049 -0.4863 -0.1494 -0.6317
11729SOL     OW36799   2.291   1.458   6.230  0.0192 -0.5205 -0.0290
11729SOL    HW136800   2.285   1.551   6.249 -2.1349 -0.1354 -2.1043
11729SOL    HW236801   2.311   1.454   6.137  2.6134 -2.2026  0.5115
11730SOL     OW36802   8.480   9.748   3.527 -0.3074  0.0001 -0.2354
11730SOL    HW136803   8.414   9.700   3.478  0.2875 -3.5620  2.0450
11730SOL    HW236804   8.449   9.746   3.618  0.5352  2.7971  0.2218
11731SOL     OW36805   7.320   5.313   8.919 -0.0842  0.1022 -0.2783
11731SOL    HW136806   7.266   5.237   8.895  1.2506 -0.6780 -0.9627
11731SOL    HW236807   7.303   5.377   8.849 -1.2478  0.4854  0.3225
11732SOL     OW36808   4.087   7.109   4.718 -0.0739  0.0280 -0.3156
11732SOL    HW136809   4.022   7.151   4.774 -0.1583  0.7415 -0.9204
11732SOL    HW236810   4.106   7.175   4.650  2.1919  0.3346  0.5200
11733SOL     OW36811   9.220   8.243   6.844 -0.2700 -0.2028 -0.3139
11733SOL    HW136812   9.268   8.320   6.815 -0.4173 -0.2100 -0.5747
11733SOL    HW236813   9.282   8.196   6.900  0.1831 -0.4397 -0.9988
11734SOL     OW36814   1.115   6.896   6.952  0.2354  0.9136 -0.0309
11734SOL    HW136815   1.027   6.917   6.984 -0.2483 -0.5928 -0.3003
11734SOL    HW236816   1.149   6.832   7.015  0.5496  0.3791 -0.7309
11735SOL     OW36817   4.519   2.011   0.929 -0.2242  0.1671  0.4506
11735SOL    HW136818   4.473   2.094   0.916 -1.1091 -0.3050  0.5130
11735SOL    HW236819   4.610   2.030   0.903 -0.4434  1.1125  0.3361
11736SOL     OW36820   0.663   7.452   4.700  0.0047  0.0876  0.1322
11736SOL    HW136821   0.657   7.528   4.757 -0.3317 -0.2269  0.5213
11736SOL    HW236822   0.644   7.377   4.756  1.1389 -0.3693 -0.0633
11737SOL     OW36823   9.241   4.723   6.517  0.2664  0.6259 -0.3814
11737SOL    HW136824   9.270   4.779   6.589 -0.0370 -1.1146  1.1656
11737SOL    HW236825   9.266   4.635   6.543 -2.0975 -0.3708 -1.2234
11738SOL     OW36826   9.358   4.530   3.609 -0.0357 -0.5043 -0.2664
11738SOL    HW136827   9.298   4.487   3.549 -1.2552 -0.4478  0.8559
11738SOL    HW236828   9.436   4.548   3.557 -1.0202 -0.5112 -1.7980
11739SOL     OW36829   1.670   3.216   2.511  0.1142  0.1646 -0.6454
11739SOL    HW136830   1.669   3.297   2.459 -1.6076  0.5951  0.0002
11739SOL    HW236831   1.583   3.179   2.499  0.3929 -0.8195  0.2712
11740SOL     OW36832   2.828   0.925   6.611 -0.3533 -0.8098  0.2412
11740SOL    HW136833   2.792   0.890   6.530  0.4681 -1.4287  0.1452
11740SOL    HW236834   2.890   0.859   6.641  1.5516  0.7188 -0.1666
11741SOL     OW36835   2.622   7.963   8.636  0.1991 -0.0799  0.3084
11741SOL    HW136836   2.546   7.919   8.598  0.0775 -1.2061  1.7801
11741SOL    HW236837   2.608   7.959   8.730  2.0253 -0.2187  0.6088
11742SOL     OW36838   8.972   6.625   7.275  0.4617  0.1942 -0.2939
11742SOL    HW136839   9.062   6.624   7.242  0.5767  3.6566 -0.4225
11742SOL    HW236840   8.979   6.664   7.362 -0.9513  1.2250 -0.6105
11743SOL     OW36841   5.460   7.772   5.205 -0.0580  0.0815 -0.6415
11743SOL    HW136842   5.394   7.723   5.156 -1.5155  2.2431 -0.9853
11743SOL    HW236843   5.471   7.722   5.286  0.5941 -2.2426 -2.0624
11744SOL     OW36844   4.878   4.439   0.835 -0.4090 -0.0110  0.0441
11744SOL    HW136845   4.838   4.411   0.918  0.6176 -0.4792  0.3898
11744SOL    HW236846   4.960   4.391   0.830 -0.5276 -0.1063 -1.3389
11745SOL     OW36847   4.947   9.401   0.058 -0.1147  0.0487 -0.1138
11745SOL    HW136848   4.937   9.482   0.009  0.7326 -0.0119 -0.4021
11745SOL    HW236849   4.944   9.428   0.150  1.4264  0.5877 -0.1989
11746SOL     OW36850   3.398   0.815   6.011  0.0052 -0.3233 -0.0957
11746SOL    HW136851   3.318   0.820   5.958 -1.1875 -0.0115  1.6474
11746SOL    HW236852   3.400   0.724   6.042 -0.2293 -0.0637  0.6839
11747SOL     OW36853   7.466   3.273   8.537 -0.0248 -0.1163  0.2473
11747SOL    HW136854   7.542   3.245   8.486  0.1318 -1.7274  1.2858
11747SOL    HW236855   7.400   3.298   8.471 -0.1900 -3.0470 -0.8359
11748SOL     OW36856   4.122   7.978   7.977  0.7350  0.2400  0.9147
11748SOL    HW136857   4.115   8.069   7.949  1.1712 -0.4197 -1.5966
11748SOL    HW236858   4.174   7.936   7.908 -1.1937 -2.3480  0.8860
11749SOL     OW36859   6.583   2.015   7.130  0.5378  0.1824  0.6692
11749SOL    HW136860   6.648   1.992   7.064 -0.9026 -0.0691 -0.7229
11749SOL    HW236861   6.631   2.068   7.194  1.6004  2.0680 -1.5646
11750SOL     OW36862   4.802   1.449   5.053  0.2557 -0.0791  0.1147
11750SOL    HW136863   4.717   1.449   5.097 -0.3689  0.4461 -1.0502
11750SOL    HW236864   4.864   1.480   5.120 -0.3467 -1.0886  1.1686
11751SOL     OW36865   8.670   8.325   3.286 -0.3737 -0.0185 -0.3025
11751SOL    HW136866   8.688   8.358   3.374 -1.3278 -0.9893  0.2812
11751SOL    HW236867   8.587   8.367   3.261  0.1837  0.7083 -0.9955
11752SOL     OW36868   2.807   5.127   6.730 -0.5889  0.0924  0.3172
11752SOL    HW136869   2.748   5.124   6.655 -1.5356  0.9591  0.9999
11752SOL    HW236870   2.891   5.155   6.694 -0.9186  0.0553 -0.4825
11753SOL     OW36871   0.188   5.479   8.026 -0.7948  0.6307  0.2730
11753SOL    HW136872   0.206   5.483   7.932 -0.1813 -0.9723  0.2858
11753SOL    HW236873   0.264   5.521   8.067 -0.9146  1.0445  0.0799
11754SOL     OW36874   7.959   6.332   4.364  0.0369 -0.0938 -0.3735
11754SOL    HW136875   8.055   6.325   4.358  0.2918  1.7628  0.7520
11754SOL    HW236876   7.938   6.299   4.452 -0.6939 -2.7690 -1.4542
11755SOL     OW36877   7.763   4.406   6.427  0.1823  0.0002  0.2472
11755SOL    HW136878   7.680   4.412   6.474 -1.8946 -1.0148 -2.9141
11755SOL    HW236879   7.825   4.373   6.492 -2.3176 -0.9936  2.3311
11756SOL     OW36880   1.344   6.708   4.256 -0.0518  0.1317 -0.1625
11756SOL    HW136881   1.396   6.628   4.250 -0.6610 -0.3697  0.9774
11756SOL    HW236882   1.344   6.729   4.349  0.0951  1.4706 -0.4440
11757SOL     OW36883   4.443   2.149   5.759 -0.3941 -0.2381 -0.4244
11757SOL    HW136884   4.520   2.185   5.714 -1.3558  0.6067 -1.4620
11757SOL    HW236885   4.368   2.193   5.717 -1.4456 -1.0539  0.5379
11758SOL     OW36886   2.023   3.733   6.537  0.0848  0.5145  0.1719
11758SOL    HW136887   1.949   3.674   6.520  1.0562 -1.0121  0.9866
11758SOL    HW236888   1.991   3.793   6.604 -0.4966  0.0030  0.3646
11759SOL     OW36889   5.444   4.454   8.028  0.4543 -0.4115  0.0507
11759SOL    HW136890   5.506   4.455   8.100  0.2283  1.8983  0.2879
11759SOL    HW236891   5.385   4.382   8.048  1.1504 -0.6155  1.5013
11760SOL     OW36892   1.795   0.178   0.767  0.0054 -0.3373 -0.3961
11760SOL    HW136893   1.816   0.230   0.844  1.2967 -0.4194 -0.6847
11760SOL    HW236894   1.879   0.147   0.734 -0.6368 -1.5906 -0.9473
11761SOL     OW36895   2.205   3.309   5.884  0.2075  0.0107  0.1336
11761SOL    HW136896   2.172   3.247   5.949 -0.1328 -0.0258 -0.0706
11761SOL    HW236897   2.184   3.395   5.920 -0.4196 -0.0189 -0.1525
11762SOL     OW36898   0.256   0.313   4.241 -0.4041 -0.0886  0.3712
11762SOL    HW136899   0.205   0.391   4.264 -0.5542 -0.2808  0.6960
11762SOL    HW236900   0.251   0.257   4.319 -1.4624 -1.0502 -0.3588
11763SOL     OW36901   1.394   5.237   0.763 -0.6313 -0.0918 -0.5393
11763SOL    HW136902   1.440   5.286   0.832 -0.6935 -0.0098 -0.5549
11763SOL    HW236903   1.455   5.237   0.689 -1.8597  2.9164 -1.7679
11764SOL     OW36904   4.689   1.494   4.228 -0.0031 -0.2723  0.2379
11764SOL    HW136905   4.663   1.494   4.320 -1.9997  0.4010 -0.2805
11764SOL    HW236906   4.633   1.427   4.188 -0.4942  0.7522 -0.8217
11765SOL     OW36907   0.260   5.880   7.879  0.1229  0.6219 -0.3651
11765SOL    HW136908   0.289   5.943   7.813  0.9255  1.2200  0.5355
11765SOL    HW236909   0.164   5.883   7.875  0.0284  3.6095  1.1703
11766SOL     OW36910   5.394   6.107   6.950  0.7721 -0.3701  0.3174
11766SOL    HW136911   5.299   6.105   6.954  0.6978  0.6780 -0.5426
11766SOL    HW236912   5.422   6.051   7.023 -0.4661  0.7603  1.7247
11767SOL     OW36913   2.648   4.229   4.566  0.2142 -0.0395  0.0981
11767SOL    HW136914   2.614   4.281   4.639  0.0631  2.0004 -1.3465
11767SOL    HW236915   2.647   4.288   4.491  4.3612 -0.6632 -0.7020
11768SOL     OW36916   2.469   0.836   8.562  0.4467  0.6472  0.1102
11768SOL    HW136917   2.443   0.919   8.521  0.0249  0.2802 -0.3807
11768SOL    HW236918   2.432   0.840   8.650 -0.3177  0.6197 -0.2010
11769SOL     OW36919   3.464   5.157   9.400  0.1585 -0.2574 -0.0345
11769SOL    HW136920   3.533   5.219   9.422 -0.5074  0.1334  1.0735
11769SOL    HW236921   3.436   5.121   9.485  0.1377 -1.6447 -0.6058
11770SOL     OW36922   2.647   6.718   0.073 -0.5190 -0.2592 -0.5746
11770SOL    HW136923   2.687   6.661   0.007 -0.4347  0.5699 -1.2585
11770SOL    HW236924   2.609   6.657   0.137 -0.0512 -1.0756 -1.0501
11771SOL     OW36925   1.791   1.533   7.478  0.0756  0.6357  0.0270
11771SOL    HW136926   1.713   1.507   7.429  0.0324 -2.1653  1.4246
11771SOL    HW236927   1.860   1.537   7.412 -1.0393  2.5890 -1.1275
11772SOL     OW36928   4.447   4.541   4.395 -0.1355 -0.0225  0.2932
11772SOL    HW136929   4.465   4.461   4.345  0.7523 -0.0089  0.5676
11772SOL    HW236930   4.374   4.517   4.453  0.2417 -0.6951  0.5018
11773SOL     OW36931   6.308   1.662   7.005 -0.0145  0.1341 -0.3515
11773SOL    HW136932   6.334   1.628   7.091  1.3054  0.6744 -0.5180
11773SOL    HW236933   6.343   1.598   6.943 -1.8595 -0.8074 -0.4737
11774SOL     OW36934   5.847   3.878   8.280 -0.0666 -0.1158  0.2727
11774SOL    HW136935   5.907   3.907   8.348 -0.7879  1.6374  0.2171
11774SOL    HW236936   5.868   3.934   8.205 -0.6514 -0.6205 -0.2768
11775SOL     OW36937   4.144   0.523   9.226  0.1759  0.0528  0.5309
11775SOL    HW136938   4.221   0.483   9.186  0.1157 -2.3960  2.6302
11775SOL    HW236939   4.109   0.456   9.284 -3.3081  1.2346  0.0588
11776SOL     OW36940   8.891   1.640   0.444  0.3257  0.2239  0.3068
11776SOL    HW136941   8.835   1.677   0.511 -0.2557  1.7163 -0.9414
11776SOL    HW236942   8.833   1.625   0.369  0.9957 -1.1991  0.0263
11777SOL     OW36943   4.075   3.665   1.546  0.1255 -0.0587  0.0355
11777SOL    HW136944   4.097   3.624   1.630 -1.1114 -0.4570  0.1954
11777SOL    HW236945   4.119   3.611   1.480  0.0768 -0.5138  0.3692
11778SOL     OW36946   2.928   4.015   4.587  0.2414 -0.3101  0.0570
11778SOL    HW136947   2.866   4.065   4.640 -1.7368 -0.4011 -1.9781
11778SOL    HW236948   2.931   4.062   4.503  3.1188 -0.2375  0.0987
11779SOL     OW36949   7.185   0.605   2.185 -0.1068  0.5436  0.2108
11779SOL    HW136950   7.218   0.618   2.096 -0.1365  1.8818  0.3688
11779SOL    HW236951   7.101   0.650   2.187  0.7933  2.3170  1.4295
11780SOL     OW36952   9.136   3.053   1.578  0.2202  0.2174 -0.2421
11780SOL    HW136953   9.085   3.100   1.513  0.2551  0.4127 -0.1305
11780SOL    HW236954   9.221   3.096   1.578 -0.0814  0.8552  0.6139
11781SOL     OW36955   2.989   2.187   4.306  0.3079  0.2547 -0.2381
11781SOL    HW136956   3.017   2.273   4.274 -1.1813 -0.0481 -2.7037
11781SOL    HW236957   3.051   2.125   4.266  0.7568  0.1083  0.6772
11782SOL     OW36958   9.222   2.782   1.569  0.5305 -0.1858  0.2707
11782SOL    HW136959   9.246   2.863   1.524 -0.5244 -0.1718 -0.3158
11782SOL    HW236960   9.145   2.751   1.522  1.3242 -1.9179  0.0426
11783SOL     OW36961   0.974   5.556   3.747 -0.5041 -0.6875 -0.3662
11783SOL    HW136962   0.936   5.617   3.684 -2.2233 -0.9994  0.3098
11783SOL    HW236963   0.992   5.477   3.696 -1.0682 -0.6371 -0.6547
11784SOL     OW36964   6.344   0.979   4.196  0.2927  0.3970 -0.0943
11784SOL    HW136965   6.335   1.068   4.162 -1.0933 -0.0746 -1.0486
11784SOL    HW236966   6.353   0.991   4.291 -0.5204  1.5363 -0.1288
11785SOL     OW36967   2.823   5.161   0.486 -0.1746 -0.0306  0.2152
11785SOL    HW136968   2.895   5.104   0.459  1.6075  1.5169  1.4591
11785SOL    HW236969   2.809   5.139   0.578  0.0580  1.0235  0.5130
11786SOL     OW36970   4.129   3.692   5.058  0.5274 -0.3170  0.2166
11786SOL    HW136971   4.119   3.630   4.986 -0.9870 -0.4029  0.4733
11786SOL    HW236972   4.207   3.742   5.035 -0.3468  0.1868 -1.9174
11787SOL     OW36973   8.078   4.828   2.244  0.1897  0.1616 -0.6574
11787SOL    HW136974   8.016   4.815   2.316 -0.1566 -2.9768 -1.3959
11787SOL    HW236975   8.135   4.751   2.247  2.1067  1.4274 -1.9417
11788SOL     OW36976   3.358   0.804   8.499  0.6556  0.0044 -0.4257
11788SOL    HW136977   3.400   0.871   8.445 -2.0568  1.2484 -1.1393
11788SOL    HW236978   3.312   0.749   8.436 -2.3597  1.3213  0.4788
11789SOL     OW36979   1.065   7.633   7.692  0.0512 -0.3427  0.0095
11789SOL    HW136980   1.099   7.549   7.724 -0.0384 -0.3867 -0.0088
11789SOL    HW236981   1.038   7.614   7.602  0.4670 -0.1744 -0.1536
11790SOL     OW36982   6.615   6.630   4.499 -0.0917  0.7095  0.1438
11790SOL    HW136983   6.571   6.548   4.476 -1.3678  1.2281  0.6565
11790SOL    HW236984   6.626   6.675   4.415 -0.7188  0.6630  0.0366
11791SOL     OW36985   4.994   7.738   3.650 -0.0723 -0.1653 -0.8865
11791SOL    HW136986   4.927   7.671   3.636  0.5315 -0.9853  0.0322
11791SOL    HW236987   5.057   7.724   3.580 -0.0204 -0.4558 -0.7796
11792SOL     OW36988   7.875   0.375   5.513 -0.3187 -0.3285 -0.1315
11792SOL    HW136989   7.826   0.454   5.491 -1.1311 -0.8021 -0.0497
11792SOL    HW236990   7.809   0.313   5.545  0.3353 -0.9611  0.0305
11793SOL     OW36991   9.045   8.292   4.926 -0.2489  0.3753 -0.6932
11793SOL    HW136992   8.952   8.276   4.939 -0.6125  1.1837 -2.0557
11793SOL    HW236993   9.066   8.247   4.844  0.7487 -0.4287 -0.0111
11794SOL     OW36994   3.935   3.657   7.399  0.4582 -0.1307 -0.0292
11794SOL    HW136995   4.017   3.655   7.349 -0.8599  0.6632 -2.3688
11794SOL    HW236996   3.924   3.748   7.424 -0.7091  0.1929 -1.5834
11795SOL     OW36997   6.475   1.105   9.590 -0.5507  0.1433 -0.3443
11795SOL    HW136998   6.494   1.024   9.544  1.2332  1.5503 -2.2585
11795SOL    HW236999   6.438   1.077   9.674  0.2429 -2.6201 -0.8308
11796SOL     OW37000   0.701   1.470   7.639  0.2318  0.1833  0.2149
11796SOL    HW137001   0.609   1.444   7.647  0.6465 -1.2205  0.7518
11796SOL    HW237002   0.749   1.387   7.638  1.4697  0.8824 -0.5186
11797SOL     OW37003   8.675   0.781   2.978 -0.1912  0.4874  0.0358
11797SOL    HW137004   8.720   0.866   2.970 -0.0727  0.4555  0.3294
11797SOL    HW237005   8.720   0.724   2.916 -0.0622  0.5532  0.0687
11798SOL     OW37006   4.347   9.257   8.528 -0.0185 -0.3792  0.4176
11798SOL    HW137007   4.427   9.224   8.487 -0.3476 -0.0525 -0.5275
11798SOL    HW237008   4.281   9.248   8.459 -0.9676 -1.3253  1.4140
11799SOL     OW37009   8.262   0.040   2.235 -0.5853  0.6263  0.1289
11799SOL    HW137010   8.196   0.014   2.171 -0.5945  1.9177 -0.4196
11799SOL    HW237011   8.339   0.065   2.183 -0.2589  0.7749  0.6646
11800SOL     OW37012   4.841   6.301   5.092  0.2501  0.0404 -0.1128
11800SOL    HW137013   4.907   6.326   5.027  1.9678  0.6234  1.7557
11800SOL    HW237014   4.776   6.371   5.088  0.2180 -0.0342 -1.3049
11801SOL     OW37015   2.634   2.507   4.098 -0.0168  0.1918  0.1602
11801SOL    HW137016   2.574   2.580   4.114 -0.3193  0.3180 -1.4208
11801SOL    HW237017   2.582   2.428   4.116  0.5684  0.2869  2.7773
11802SOL     OW37018   1.309   8.305   1.713 -0.3020  0.0490 -0.2801
11802SOL    HW137019   1.384   8.245   1.715  0.6448  1.0578 -2.2533
11802SOL    HW237020   1.328   8.370   1.781  0.4832  0.1074 -0.5412
11803SOL     OW37021   5.177   5.879   0.591  0.2973  0.5365  0.1236
11803SOL    HW137022   5.197   5.791   0.621  3.3379  0.6168 -1.3100
11803SOL    HW237023   5.083   5.879   0.576  0.0931 -2.1654  1.0013
11804SOL     OW37024   1.325   0.557   1.743  0.1975  0.2582  0.0628
11804SOL    HW137025   1.307   0.616   1.670 -2.8003 -0.8229 -0.1913
11804SOL    HW237026   1.311   0.610   1.821  1.4839  0.8900 -0.1078
11805SOL     OW37027   7.332   6.745   1.187 -0.3627  0.2582 -0.3036
11805SOL    HW137028   7.377   6.780   1.110 -1.3049  1.1393 -0.4816
11805SOL    HW237029   7.375   6.788   1.262  0.3753 -0.3939 -0.3468
11806SOL     OW37030   1.154   6.564   9.509  0.1032 -0.8704  0.1964
11806SOL    HW137031   1.201   6.560   9.592  0.5320 -1.9488 -0.0851
11806SOL    HW237032   1.109   6.480   9.502 -0.8217 -0.3641 -0.1581
11807SOL     OW37033   7.544   7.321   3.341  0.7479 -0.3897  0.1560
11807SOL    HW137034   7.525   7.232   3.371  0.3176 -0.1873  0.5027
11807SOL    HW237035   7.553   7.372   3.422  0.6988 -0.0621 -0.0428
11808SOL     OW37036   7.629   7.930   6.449 -0.0140 -0.0251 -0.5825
11808SOL    HW137037   7.633   7.974   6.364  0.2814  2.0321  0.4307
11808SOL    HW237038   7.565   7.981   6.499 -0.0257 -1.0644  0.5089
11809SOL     OW37039   6.260   9.577   5.055 -0.0671  0.0848 -0.3990
11809SOL    HW137040   6.352   9.599   5.039 -0.3996  1.0021 -1.1612
11809SOL    HW237041   6.223   9.656   5.093 -0.3197 -0.6217  0.8662
11810SOL     OW37042   6.094   7.937   6.310  0.2292  0.3994  0.5772
11810SOL    HW137043   6.172   7.990   6.294  0.2669 -0.3261 -2.2210
11810SOL    HW237044   6.108   7.859   6.256 -2.0795 -0.1185  0.6420
11811SOL     OW37045   4.377   4.392   6.897  0.0481 -0.0990  0.1800
11811SOL    HW137046   4.428   4.342   6.961  1.4055  1.4486  0.3759
11811SOL    HW237047   4.377   4.338   6.818  0.8310 -0.7278  0.6023
11812SOL     OW37048   0.028   0.086   2.364  0.3586  0.2844 -0.1248
11812SOL    HW137049   0.104   0.104   2.420 -0.1216  3.1586 -0.1945
11812SOL    HW237050   0.049   0.129   2.281 -1.1169  0.7118 -0.2997
11813SOL     OW37051   4.802   6.034   7.500  0.3657  0.1699 -0.5834
11813SOL    HW137052   4.765   6.075   7.421 -0.2195  0.0276 -0.3907
11813SOL    HW237053   4.746   6.066   7.571  0.8567  0.2523 -0.2325
11814SOL     OW37054   6.705   3.676   4.947  0.0863  0.3235 -1.0990
11814SOL    HW137055   6.719   3.751   4.889  0.6557  1.5046  0.5174
11814SOL    HW237056   6.610   3.675   4.962  0.2230  1.7462  0.1234
11815SOL     OW37057   7.484   0.022   1.090  0.2211 -0.0102  0.7591
11815SOL    HW137058   7.556   0.012   1.028 -0.5431 -1.1341  0.0219
11815SOL    HW237059   7.521  -0.005   1.174  1.2562  1.5054  0.8403
11816SOL     OW37060   8.959   9.354   6.303 -0.4755 -0.0070  0.0706
11816SOL    HW137061   8.899   9.428   6.311 -0.6212 -0.0573 -0.5006
11816SOL    HW237062   8.938   9.315   6.218  2.6418  2.0228 -1.8505
11817SOL     OW37063   2.143   6.813   4.837 -0.4918 -0.0473 -0.0391
11817SOL    HW137064   2.077   6.872   4.874  1.6466  0.7396  2.8690
11817SOL    HW237065   2.201   6.871   4.787  0.3373 -0.0189  0.9350
11818SOL     OW37066   8.843   7.539   2.680  0.4981  0.0594 -0.8172
11818SOL    HW137067   8.808   7.561   2.766  0.7912  1.0504 -0.9407
11818SOL    HW237068   8.936   7.559   2.686  0.8564 -1.5367 -0.8261
11819SOL     OW37069   8.966   9.802   1.569 -0.0391  0.0576 -0.0200
11819SOL    HW137070   8.978   9.727   1.628  0.4749 -0.3548 -0.6441
11819SOL    HW237071   9.021   9.871   1.607 -0.3783  0.0723  0.4581
11820SOL     OW37072   3.745   5.326   8.731 -0.0687 -0.4199  0.5420
11820SOL    HW137073   3.735   5.415   8.765 -1.0331 -0.2241 -0.2175
11820SOL    HW237074   3.836   5.322   8.700 -0.2906  0.6018 -0.2692
11821SOL     OW37075   9.440   8.234   5.245 -0.0224 -0.2869  0.4755
11821SOL    HW137076   9.352   8.207   5.221  0.6059 -0.3982 -1.9918
11821SOL    HW237077   9.436   8.330   5.248 -0.9257 -0.3066  3.7018
11822SOL     OW37078   1.704   5.369   9.215 -0.0907 -0.0570  0.0954
11822SOL    HW137079   1.637   5.397   9.153 -0.3277 -1.6426 -0.4106
11822SOL    HW237080   1.748   5.296   9.172  1.0115  0.0299  1.0161
11823SOL     OW37081   3.390   5.936   0.913  0.8188 -0.3562 -0.2117
11823SOL    HW137082   3.327   5.999   0.877  1.1539  0.4685  0.5984
11823SOL    HW237083   3.386   5.950   1.007  0.7643 -1.7039  0.0029
11824SOL     OW37084   1.313   3.508   6.177  0.0005  0.1368  0.3067
11824SOL    HW137085   1.334   3.423   6.137 -1.9639  0.0149 -0.5996
11824SOL    HW237086   1.264   3.486   6.256 -0.5829  0.3944  0.0281
11825SOL     OW37087   1.472   5.155   5.540  0.2220 -0.5418  0.2353
11825SOL    HW137088   1.430   5.222   5.594  0.6391 -0.1976  0.1489
11825SOL    HW237089   1.550   5.199   5.505 -0.2163 -0.6521 -0.9124
11826SOL     OW37090   3.837   5.866   0.358 -0.1761 -0.5539 -0.5872
11826SOL    HW137091   3.767   5.814   0.397  0.8871 -1.5430  0.0500
11826SOL    HW237092   3.808   5.957   0.367  0.1590 -0.6644  2.8612
11827SOL     OW37093   6.951   5.057   6.429  0.0946  0.0792 -0.0582
11827SOL    HW137094   7.046   5.065   6.439  0.1711 -0.4758 -0.3010
11827SOL    HW237095   6.927   5.132   6.375  0.4198  0.1345 -0.1311
11828SOL     OW37096   3.088   2.739   3.998  0.7699  0.4955 -0.1318
11828SOL    HW137097   3.091   2.769   3.907  0.7069  0.2178 -0.2261
11828SOL    HW237098   2.995   2.741   4.021  0.9107  1.9303  0.3873
11829SOL     OW37099   2.875   5.001   5.102 -0.5209 -0.0006 -1.0268
11829SOL    HW137100   2.833   5.086   5.089  2.2578  1.8259  0.8817
11829SOL    HW237101   2.952   5.003   5.045  0.1925 -0.7322 -0.1303
11830SOL     OW37102   7.036   0.850   7.557  0.1302  0.1336 -0.1821
11830SOL    HW137103   7.102   0.793   7.598  0.3090  0.1845 -0.3976
11830SOL    HW237104   7.086   0.910   7.502  0.0095  1.0695  0.7011
11831SOL     OW37105   2.354   4.409   3.708 -0.3482 -0.7047 -0.1856
11831SOL    HW137106   2.314   4.365   3.783 -1.2486  0.3395 -0.0120
11831SOL    HW237107   2.445   4.378   3.707 -0.8452 -2.2564  0.1142
11832SOL     OW37108   3.955   0.906   4.688 -0.4046  0.0074 -0.2551
11832SOL    HW137109   4.046   0.888   4.714  1.1394  4.5149 -1.6738
11832SOL    HW237110   3.916   0.946   4.766 -0.9665 -1.0901  0.0520
11833SOL     OW37111   6.270   3.583   9.458 -0.4432 -0.3163 -0.4929
11833SOL    HW137112   6.323   3.600   9.381  0.3332 -0.4384  0.0065
11833SOL    HW237113   6.199   3.526   9.428  0.2664 -0.9566 -0.9589
11834SOL     OW37114   7.706   1.124   7.808  0.3472 -0.3606  0.0949
11834SOL    HW137115   7.680   1.036   7.836  0.6048 -0.7170 -0.7369
11834SOL    HW237116   7.764   1.109   7.733 -1.3405  0.5707 -1.4738
11835SOL     OW37117   2.354   4.175   0.007  0.4885  0.1005  0.1717
11835SOL    HW137118   2.358   4.195  -0.086  1.1782  1.4093  0.4567
11835SOL    HW237119   2.377   4.083   0.013  0.7433  0.0817 -0.9197
11836SOL     OW37120   9.124   7.235   8.023  0.1136 -0.5237 -0.2612
11836SOL    HW137121   9.078   7.313   8.055 -1.0969 -1.7164  1.0709
11836SOL    HW237122   9.134   7.251   7.929 -0.9786  0.8138 -0.1971
11837SOL     OW37123   3.711   7.597   4.509  0.3792 -0.1355  0.0739
11837SOL    HW137124   3.707   7.558   4.422 -0.8541 -0.8405  0.4172
11837SOL    HW237125   3.620   7.622   4.528  0.8094  1.0174  0.7182
11838SOL     OW37126   4.924   7.935   2.255 -0.0884 -0.3521  0.0466
11838SOL    HW137127   4.998   7.916   2.197  0.3193  1.0255  0.0858
11838SOL    HW237128   4.859   7.975   2.197 -0.1372 -0.0375  0.3164
11839SOL     OW37129   6.119   0.083   9.312  0.1282  0.5192 -0.1564
11839SOL    HW137130   6.089   0.103   9.223 -1.6115  2.1178  0.7217
11839SOL    HW237131   6.053   0.122   9.369 -0.4574 -3.0302  1.8624
11840SOL     OW37132   9.558   5.386   8.207 -0.3936 -0.0217  0.6665
11840SOL    HW137133   9.646   5.380   8.170 -0.1463  0.9053  1.0829
11840SOL    HW237134   9.510   5.314   8.166  0.4242 -0.2431  0.0726
11841SOL     OW37135   3.180   5.594   9.307  0.4702  0.4242 -0.8164
11841SOL    HW137136   3.102   5.544   9.283  0.5877 -0.3828  0.3922
11841SOL    HW237137   3.253   5.543   9.271  0.6330 -0.6780  0.9419
11842SOL     OW37138   8.588   0.337   4.607 -0.3849 -0.3199  0.5103
11842SOL    HW137139   8.541   0.419   4.624  0.8773  0.3275  0.9695
11842SOL    HW237140   8.679   0.363   4.596  0.1720 -1.7511  1.4787
11843SOL     OW37141   8.012   6.800   2.348  0.2731  0.0155  0.6282
11843SOL    HW137142   7.932   6.748   2.351  0.7620 -0.9535 -1.3650
11843SOL    HW237143   7.982   6.891   2.355 -1.5152 -0.0234 -3.6138
11844SOL     OW37144   5.927   8.095   9.510 -0.1651 -0.2177 -0.2739
11844SOL    HW137145   5.878   8.089   9.593  0.4818 -0.6261  0.0816
11844SOL    HW237146   5.873   8.047   9.447 -0.3701 -0.4097  0.0472
11845SOL     OW37147   6.243   5.422   5.703 -0.2884  0.1146 -0.2583
11845SOL    HW137148   6.175   5.486   5.725 -0.4182  0.8657 -2.5950
11845SOL    HW237149   6.324   5.460   5.736 -0.7227  0.1560  0.7923
11846SOL     OW37150   0.324   0.881   2.403  0.0538  0.3660  0.3343
11846SOL    HW137151   0.296   0.966   2.371  1.4825 -0.2553 -3.0932
11846SOL    HW237152   0.258   0.820   2.371  1.0836 -0.1888 -0.8547
11847SOL     OW37153   6.458   5.283   6.508  0.5107  0.4933 -0.1031
11847SOL    HW137154   6.493   5.366   6.538  0.1854  1.3930 -2.0459
11847SOL    HW237155   6.415   5.303   6.425 -0.3367 -1.4603 -0.2083
11848SOL     OW37156   7.466   1.543   5.363  0.2701 -0.4828 -0.3881
11848SOL    HW137157   7.471   1.481   5.290  0.5825  0.0460 -0.8239
11848SOL    HW237158   7.444   1.489   5.439  1.3235 -1.2443 -0.6042
11849SOL     OW37159   8.194   8.000   1.521 -0.0043 -0.3428  0.9048
11849SOL    HW137160   8.135   8.042   1.584 -0.0991  1.8911 -0.5722
11849SOL    HW237161   8.260   7.958   1.575 -0.6505  0.6275  2.5236
11850SOL     OW37162   9.676   6.799   8.899  0.0699  0.4153  0.4953
11850SOL    HW137163   9.637   6.762   8.978  0.1513  1.0003  0.8177
11850SOL    HW237164   9.769   6.807   8.919  0.1173  0.4159  0.2786
11851SOL     OW37165   9.430   5.879   7.971  0.7002 -0.1325  0.2525
11851SOL    HW137166   9.351   5.929   7.946 -0.3712 -0.8773  1.9460
11851SOL    HW237167   9.469   5.852   7.888 -1.5455 -0.8037 -0.6570
11852SOL     OW37168   6.084   0.726   3.003  0.1208  0.0702 -0.2380
11852SOL    HW137169   6.036   0.806   2.983 -1.2148  0.0384  2.4031
11852SOL    HW237170   6.032   0.656   2.965 -0.2599  0.2740 -0.1007
11853SOL     OW37171   9.561   4.830   6.868 -0.6314 -0.4750 -0.5003
11853SOL    HW137172   9.602   4.756   6.824  1.2997  0.7780 -0.9652
11853SOL    HW237173   9.621   4.853   6.939  0.0115  1.9694 -1.7240
11854SOL     OW37174   8.695   8.511   1.655 -0.2065  0.0138 -0.1647
11854SOL    HW137175   8.671   8.455   1.728  0.0976  0.4758  0.2983
11854SOL    HW237176   8.704   8.452   1.581  1.3605 -0.7460  0.5822
11855SOL     OW37177   8.148   5.997   0.062  0.1099 -0.7150  0.4146
11855SOL    HW137178   8.215   5.968   0.123  2.3198 -1.6981 -2.2949
11855SOL    HW237179   8.131   5.921   0.006 -1.0329  0.4205 -0.8732
11856SOL     OW37180   8.430   7.081   9.260  0.2445  0.2774 -0.7032
11856SOL    HW137181   8.526   7.085   9.262  0.3293 -1.2733 -0.1476
11856SOL    HW237182   8.411   7.025   9.184 -0.1777 -0.1026 -0.3235
11857SOL     OW37183   7.270   0.955   6.733 -0.1884 -0.3663  0.1157
11857SOL    HW137184   7.194   0.944   6.676  0.7298  0.2079 -1.2922
11857SOL    HW237185   7.319   0.873   6.725 -0.6374 -0.7238  0.9934
11858SOL     OW37186   5.124   7.181   3.997 -0.9385  0.3759 -0.0863
11858SOL    HW137187   5.173   7.104   3.970 -1.5661  0.2772 -0.9890
11858SOL    HW237188   5.124   7.178   4.093 -1.2895 -0.9614 -0.1104
11859SOL     OW37189   5.549   1.783   5.036 -0.1320  0.8223 -0.0894
11859SOL    HW137190   5.482   1.836   4.993 -0.0815  0.5577 -0.5017
11859SOL    HW237191   5.549   1.812   5.127 -1.5818  0.0675  0.1837
11860SOL     OW37192   5.275   2.707   1.116  0.1344  0.3921  0.2984
11860SOL    HW137193   5.321   2.770   1.061  1.5683 -0.0392  0.9630
11860SOL    HW237194   5.323   2.625   1.105 -0.7529 -0.1911  0.6622
11861SOL     OW37195   1.047   2.648   9.022  0.0962 -0.0816  0.3314
11861SOL    HW137196   1.119   2.696   8.981  1.6742 -1.4559  1.3822
11861SOL    HW237197   1.023   2.701   9.098  1.0037 -0.3395  0.8053
11862SOL     OW37198   7.844   5.668   1.171 -0.6382  0.1081 -0.8321
11862SOL    HW137199   7.863   5.732   1.102 -0.6096  2.0443  0.8483
11862SOL    HW237200   7.923   5.667   1.225 -1.3547  0.1513  0.2550
11863SOL     OW37201   0.391   9.238   8.752  0.0915 -0.2748  0.7213
11863SOL    HW137202   0.484   9.237   8.775 -0.1917 -0.6230  1.9482
11863SOL    HW237203   0.382   9.308   8.687  1.1625 -0.0719  0.7868
11864SOL     OW37204   6.371   0.583   3.923 -0.3603 -0.4063  0.6305
11864SOL    HW137205   6.420   0.644   3.979 -0.6365  1.9706 -1.5263
11864SOL    HW237206   6.436   0.551   3.860 -0.9403  0.6499 -0.5528
11865SOL     OW37207   4.869   5.154   1.515  0.1705 -0.7095 -0.9143
11865SOL    HW137208   4.912   5.236   1.539 -0.5079  0.0646 -2.2109
11865SOL    HW237209   4.897   5.136   1.426 -1.1524 -0.8697 -1.3270
11866SOL     OW37210   9.141   1.805   7.584 -0.2239 -0.4263  0.3309
11866SOL    HW137211   9.142   1.828   7.491 -0.3232  2.1502  0.9131
11866SOL    HW237212   9.233   1.804   7.609 -0.2268 -0.6200  0.3363
11867SOL     OW37213   2.439   9.560   5.000 -0.2126  0.5030 -0.3383
11867SOL    HW137214   2.412   9.648   5.025  1.3339  1.4758 -1.8495
11867SOL    HW237215   2.457   9.516   5.083 -0.7480  1.6905  0.4390
11868SOL     OW37216   6.697   6.938   1.077  0.1311 -0.2070  0.3657
11868SOL    HW137217   6.641   6.983   1.014  1.8271  0.7506 -0.5356
11868SOL    HW237218   6.650   6.857   1.098  0.0610 -1.2474 -3.1429
11869SOL     OW37219   3.314   6.141   3.671  0.3571 -0.4219 -0.3612
11869SOL    HW137220   3.222   6.117   3.663  0.2282  0.0328 -0.2923
11869SOL    HW237221   3.317   6.232   3.642  0.3945  0.3180  1.8005
11870SOL     OW37222   8.477   4.684   2.117 -0.0486 -0.0185 -0.1930
11870SOL    HW137223   8.417   4.651   2.184  1.5486 -0.2414  1.1958
11870SOL    HW237224   8.564   4.672   2.155  0.8698  0.6385 -1.9843
11871SOL     OW37225   6.686   1.495   9.652 -0.3889  0.4723 -0.3937
11871SOL    HW137226   6.590   1.499   9.656 -0.4928  0.8176 -2.4965
11871SOL    HW237227   6.714   1.527   9.738 -2.1600 -2.1651  1.3267
11872SOL     OW37228   3.477   7.825   4.382 -0.1896  0.3429  0.2240
11872SOL    HW137229   3.549   7.879   4.415 -0.9692  0.8759  1.1028
11872SOL    HW237230   3.443   7.875   4.308  0.6854 -0.1885 -0.5644
11873SOL     OW37231   0.878   9.576   5.866  0.0089 -0.6303 -0.3089
11873SOL    HW137232   0.882   9.563   5.961 -1.6105  0.6688 -0.0066
11873SOL    HW237233   0.799   9.529   5.839 -0.2793  0.1101 -0.7850
11874SOL     OW37234   3.515   7.902   6.505  0.1436  0.4541  0.3227
11874SOL    HW137235   3.439   7.858   6.542  0.8579  0.5039  1.9880
11874SOL    HW237236   3.564   7.833   6.461 -1.2974  0.5972 -1.5880
11875SOL     OW37237   9.596   8.064   9.570 -0.4217  1.0468  0.0284
11875SOL    HW137238   9.508   8.052   9.534 -0.0097  0.9968 -1.0035
11875SOL    HW237239   9.583   8.118   9.649 -1.1857  2.8057 -1.2322
11876SOL     OW37240   4.720   7.428   2.000 -0.9440 -0.7671  0.2753
11876SOL    HW137241   4.718   7.413   1.906 -1.3987  1.5801 -0.1466
11876SOL    HW237242   4.636   7.470   2.020 -1.3477 -2.2340  1.9622
11877SOL     OW37243   9.328   0.054   1.220 -0.2289  0.4139  0.0577
11877SOL    HW137244   9.269   0.129   1.221 -0.3223  0.3455  1.4023
11877SOL    HW237245   9.270  -0.022   1.228 -0.0886  0.2261 -0.6477
11878SOL     OW37246   2.848   5.096   0.174  0.1852 -0.3779 -0.6108
11878SOL    HW137247   2.927   5.061   0.133  2.0072  0.1234  2.2237
11878SOL    HW237248   2.850   5.063   0.264 -2.3110  0.5000 -0.1560
11879SOL     OW37249   8.892   9.045   7.540 -0.0191  0.4665 -0.3557
11879SOL    HW137250   8.859   9.082   7.622 -0.4222 -0.0470 -0.2806
11879SOL    HW237251   8.813   9.016   7.493  0.1243  1.5619 -1.3318
11880SOL     OW37252   1.365   7.444   1.210  0.1016 -0.1435  0.0517
11880SOL    HW137253   1.449   7.476   1.242 -0.4936 -0.0538  1.6001
11880SOL    HW237254   1.303   7.467   1.279 -1.4150  0.8076 -1.5619
11881SOL     OW37255   3.173   7.425   3.368  0.4196 -0.4040 -0.1829
11881SOL    HW137256   3.248   7.485   3.368  0.6144 -0.6150 -1.8511
11881SOL    HW237257   3.100   7.480   3.396  1.0966 -0.0996  1.0875
11882SOL     OW37258   3.334   7.683   7.293  0.1718 -0.2842 -0.4156
11882SOL    HW137259   3.328   7.588   7.297  0.4129 -0.3243 -1.0089
11882SOL    HW237260   3.428   7.701   7.287  0.0843 -0.0393 -1.0870
11883SOL     OW37261   4.623   0.050   2.479 -0.7375 -0.2204 -0.2445
11883SOL    HW137262   4.633   0.102   2.399  0.2369  1.4391  0.8870
11883SOL    HW237263   4.663  -0.034   2.457 -1.0345 -0.0228 -1.6820
11884SOL     OW37264   9.172   1.449   8.721 -0.4496 -0.1163 -0.5237
11884SOL    HW137265   9.248   1.436   8.778 -0.0830 -0.7133 -1.1282
11884SOL    HW237266   9.210   1.464   8.634 -0.9599  2.2538 -0.3843
11885SOL     OW37267   6.482   7.418   2.295  0.3975  0.2923  0.2007
11885SOL    HW137268   6.563   7.466   2.278 -0.3162  1.4312 -0.0367
11885SOL    HW237269   6.426   7.480   2.342  0.0554 -0.8386  1.3510
11886SOL     OW37270   7.255   1.510   9.262  0.2312 -0.5087  0.3490
11886SOL    HW137271   7.274   1.430   9.214  0.9865  0.1421 -0.4734
11886SOL    HW237272   7.330   1.523   9.320  0.5144  0.0233 -0.1193
11887SOL     OW37273   7.176   4.471   3.672  0.6184  0.3276  0.2836
11887SOL    HW137274   7.117   4.460   3.746  0.9521  0.4327  0.5661
11887SOL    HW237275   7.151   4.554   3.633  0.1342  0.0485 -0.0017
11888SOL     OW37276   0.005   1.305   6.967 -0.1505  0.0706 -0.6838
11888SOL    HW137277   0.040   1.381   6.920  1.2327  0.6694  1.1559
11888SOL    HW237278  -0.006   1.336   7.057  3.1530 -2.5295  0.8423
11889SOL     OW37279   9.608   7.032   8.482 -0.4314 -0.2720 -0.5317
11889SOL    HW137280   9.605   7.098   8.413  0.1168  0.5461  0.2009
11889SOL    HW237281   9.560   7.071   8.555  0.1125 -0.5673 -0.0017
11890SOL     OW37282   7.362   1.109   1.210 -0.3031 -0.5983 -0.1979
11890SOL    HW137283   7.270   1.133   1.219  0.0870  0.1280  4.0799
11890SOL    HW237284   7.368   1.022   1.250  0.6555 -1.4049 -1.9892
11891SOL     OW37285   8.322   2.507   8.206 -0.1082  0.7780 -0.3182
11891SOL    HW137286   8.303   2.579   8.146 -1.2475  0.0933 -0.8183
11891SOL    HW237287   8.288   2.430   8.162 -0.1938  0.1351  0.8385
11892SOL     OW37288   7.427   2.442   4.665 -0.8157  0.2546  0.2280
11892SOL    HW137289   7.450   2.489   4.586 -0.4839  1.3554  0.9623
11892SOL    HW237290   7.511   2.420   4.705 -0.9853  0.2027  0.5606
11893SOL     OW37291   2.303   4.521   8.602  0.0400 -0.4970  0.3286
11893SOL    HW137292   2.359   4.591   8.637  1.5324 -0.9492 -1.0410
11893SOL    HW237293   2.361   4.472   8.544 -2.2063  0.0052 -2.5386
11894SOL     OW37294   5.765   3.085   8.738 -0.1629  0.1408  0.4444
11894SOL    HW137295   5.743   3.005   8.786  1.1212 -0.6282 -0.1756
11894SOL    HW237296   5.728   3.071   8.651 -1.1732  0.8613  0.7525
11895SOL     OW37297   7.878   8.339   9.135 -0.3122 -0.5089 -0.2929
11895SOL    HW137298   7.880   8.387   9.218 -1.7266 -1.6822  0.4752
11895SOL    HW237299   7.892   8.407   9.068  2.3930  0.2482  0.8981
11896SOL     OW37300   9.553   6.427   8.357 -0.1777 -0.1930 -0.4792
11896SOL    HW137301   9.646   6.410   8.375 -0.1635 -0.6030 -0.9172
11896SOL    HW237302   9.515   6.447   8.442 -0.0284 -1.6807 -0.0416
11897SOL     OW37303   2.141   9.263   3.728  0.0520  0.2618  0.3133
11897SOL    HW137304   2.126   9.357   3.721 -1.1437 -0.0218 -2.6124
11897SOL    HW237305   2.135   9.231   3.637  1.1107 -2.5461  1.1120
11898SOL     OW37306   8.960   4.542   3.599 -0.3577  0.1387 -0.0386
11898SOL    HW137307   8.893   4.477   3.618  0.3053 -0.2276  1.1418
11898SOL    HW237308   8.991   4.571   3.685  0.6471  0.6563 -0.5570
11899SOL     OW37309   7.469   1.117   5.703  0.1933 -0.6224 -0.8295
11899SOL    HW137310   7.536   1.065   5.748 -1.2240 -2.3285 -0.5454
11899SOL    HW237311   7.438   1.179   5.769  2.4879  1.3038 -1.4093
11900SOL     OW37312   4.941   1.603   6.373  0.0952 -0.1800 -0.2589
11900SOL    HW137313   4.881   1.553   6.427 -0.4108  0.1049 -0.5550
11900SOL    HW237314   5.028   1.585   6.410  0.1921 -2.9952 -1.6291
11901SOL     OW37315   9.568   6.963   5.600 -0.0506 -0.0824  0.4958
11901SOL    HW137316   9.652   6.997   5.568 -0.6387  0.1036 -0.8985
11901SOL    HW237317   9.555   7.008   5.684  0.4533  1.1727 -0.0739
11902SOL     OW37318   4.499   7.346   4.661 -0.4881 -0.2213  0.5499
11902SOL    HW137319   4.409   7.328   4.635 -0.5466 -1.2097  1.3540
11902SOL    HW237320   4.549   7.343   4.579 -1.4181  2.1933 -0.1682
11903SOL     OW37321   7.198   9.243   0.620  0.4373 -0.3567 -0.1055
11903SOL    HW137322   7.190   9.334   0.649  2.0303 -0.5289  0.9929
11903SOL    HW237323   7.232   9.196   0.697  0.7783 -1.6499 -1.0143
11904SOL     OW37324   1.610   3.944   2.285  0.0257  0.6663  0.0949
11904SOL    HW137325   1.692   3.985   2.258 -1.1220  2.1840 -1.2466
11904SOL    HW237326   1.599   3.870   2.225  0.8105 -0.0901  0.8486
11905SOL     OW37327   6.848   4.233   2.758 -0.3327  0.0696  0.2761
11905SOL    HW137328   6.926   4.261   2.806 -0.3732 -1.4540  1.3230
11905SOL    HW237329   6.873   4.149   2.720 -1.7863 -1.0133  1.6044
11906SOL     OW37330   0.662   7.644   9.789 -0.6084 -0.7355  0.4135
11906SOL    HW137331   0.725   7.574   9.771  0.9685  0.1826  1.9648
11906SOL    HW237332   0.715   7.715   9.827 -2.3080  0.8733 -0.0528
11907SOL     OW37333   9.457   4.203   2.846  0.0712  0.0835  0.4877
11907SOL    HW137334   9.390   4.258   2.805  0.6002 -1.4038 -2.6381
11907SOL    HW237335   9.538   4.253   2.839  0.1352 -0.1090 -0.2505
11908SOL     OW37336   7.715   4.031   7.696  0.1499  0.1467  0.2688
11908SOL    HW137337   7.673   3.969   7.636  1.0319  0.1213 -0.3396
11908SOL    HW237338   7.808   4.009   7.693  0.4903  1.5136  0.0078
11909SOL     OW37339   2.632   0.780   3.966  0.1011  0.1149  0.1076
11909SOL    HW137340   2.711   0.735   3.938 -0.1303 -0.1897 -0.0653
11909SOL    HW237341   2.581   0.791   3.885 -0.7314 -1.0808  0.4379
11910SOL     OW37342   0.835   2.830   6.278  0.3000  0.1788 -0.4067
11910SOL    HW137343   0.869   2.757   6.331 -0.3649 -0.2464 -0.5577
11910SOL    HW237344   0.914   2.874   6.247  0.7949 -1.4431 -1.6477
11911SOL     OW37345   0.959   0.199   6.372  0.1557  0.1721 -0.2378
11911SOL    HW137346   0.951   0.252   6.292  0.9565  2.1974  0.9606
11911SOL    HW237347   0.962   0.262   6.443  1.6865 -1.4587  1.2590
11912SOL     OW37348   7.353   2.322   9.384  0.5355  0.3926  0.2659
11912SOL    HW137349   7.339   2.306   9.477  1.7259  0.7439  0.5248
11912SOL    HW237350   7.436   2.279   9.365  0.3426  0.3974 -0.6152
11913SOL     OW37351   8.547   5.723   2.934  0.4599 -0.1298  0.1154
11913SOL    HW137352   8.567   5.669   2.857 -0.0840 -0.2509  0.0550
11913SOL    HW237353   8.609   5.795   2.928  0.0946  0.1325 -0.7217
11914SOL     OW37354   5.191   7.931   2.138  0.4105  0.1226  0.0612
11914SOL    HW137355   5.210   8.004   2.079  2.7212  1.2330  2.0083
11914SOL    HW237356   5.254   7.941   2.209  0.5148 -3.5323  0.6642
11915SOL     OW37357   1.125   2.500   4.519  0.1619 -0.7451  0.0245
11915SOL    HW137358   1.032   2.524   4.523  0.4193  0.1365  1.9132
11915SOL    HW237359   1.138   2.470   4.429 -1.3653  1.5920 -1.0826
11916SOL     OW37360   7.789   2.943   5.630 -0.9168 -0.3659 -0.1177
11916SOL    HW137361   7.776   2.854   5.664  0.7042 -0.0862  1.3667
11916SOL    HW237362   7.851   2.933   5.558 -0.9347 -0.4540 -0.1211
11917SOL     OW37363   1.606   6.855   3.783 -0.0223  0.5114 -0.1742
11917SOL    HW137364   1.632   6.791   3.717  0.7977  1.0632 -0.4044
11917SOL    HW237365   1.579   6.932   3.733  1.2170  1.1650  0.1207
11918SOL     OW37366   6.400   1.201   2.899  0.1032  0.3544 -0.2515
11918SOL    HW137367   6.437   1.175   2.983  1.0530  0.1544 -0.7239
11918SOL    HW237368   6.466   1.258   2.859  0.0649 -0.2683 -1.2438
11919SOL     OW37369   8.434   8.881   0.015  0.2600 -0.1239 -0.4297
11919SOL    HW137370   8.461   8.879   0.107 -0.2183 -0.2494 -0.2896
11919SOL    HW237371   8.486   8.951  -0.024  1.0619 -0.6106 -0.2542
11920SOL     OW37372   8.481   3.419   7.333  0.5027  0.2690  0.2818
11920SOL    HW137373   8.500   3.492   7.274  0.2220 -0.7933 -1.1848
11920SOL    HW237374   8.389   3.397   7.315  0.3783  0.0098  1.2078
11921SOL     OW37375   2.333   1.777   5.160  0.1154  0.2970  0.1585
11921SOL    HW137376   2.378   1.813   5.083 -2.8250  1.3673 -1.2064
11921SOL    HW237377   2.269   1.715   5.124  1.6267 -2.6526  2.1402
11922SOL     OW37378   9.437   5.450   5.900 -0.0281  0.4795 -0.2294
11922SOL    HW137379   9.519   5.500   5.902  0.0826  0.3358 -0.8659
11922SOL    HW237380   9.457   5.374   5.845 -0.1196 -0.4139  0.9579
11923SOL     OW37381   4.289   6.921   4.744 -0.8136 -0.2601  0.2468
11923SOL    HW137382   4.239   6.999   4.765  0.2432  0.2598  0.9236
11923SOL    HW237383   4.320   6.935   4.655 -2.0603 -0.7066 -0.2759
11924SOL     OW37384   4.305   3.949   5.067  0.2651 -0.1553 -0.2381
11924SOL    HW137385   4.351   3.991   5.139  2.0562 -1.9750 -0.2432
11924SOL    HW237386   4.269   4.021   5.015  1.3837  1.2614  0.9098
11925SOL     OW37387   0.231   0.456   0.950  0.3535 -0.5986  0.2870
11925SOL    HW137388   0.294   0.393   0.916 -0.0840 -0.8302 -0.1142
11925SOL    HW237389   0.145   0.421   0.924 -0.0637 -1.2172  2.3691
11926SOL     OW37390   3.195   6.964   9.610  0.2634 -0.2917 -0.1223
11926SOL    HW137391   3.139   7.006   9.545 -0.8994 -1.1422  0.2944
11926SOL    HW237392   3.145   6.887   9.639  1.2144 -0.5211  0.9938
11927SOL     OW37393   2.959   6.406   6.863 -0.2972 -0.1417  0.4721
11927SOL    HW137394   2.889   6.453   6.819 -0.9829 -0.9771  0.6545
11927SOL    HW237395   3.007   6.474   6.911 -2.1637  0.2251  1.9523
11928SOL     OW37396   6.354   6.191   4.738 -0.1443  0.0002  0.0898
11928SOL    HW137397   6.312   6.127   4.680  0.6611 -0.5230  0.0673
11928SOL    HW237398   6.283   6.223   4.793 -0.4425 -1.5413  0.6652
11929SOL     OW37399   4.184   0.136   2.993  0.3403 -0.3674  0.0304
11929SOL    HW137400   4.270   0.116   3.030  0.8486 -4.3683 -2.6886
11929SOL    HW237401   4.128   0.064   3.023 -0.8407 -0.2617 -1.7651
11930SOL     OW37402   7.680   0.246   0.675  0.1209  0.1622 -0.5998
11930SOL    HW137403   7.688   0.336   0.706  1.1669 -0.0139 -0.3162
11930SOL    HW237404   7.733   0.195   0.736 -1.4337 -0.8408 -0.0094
11931SOL     OW37405   5.015   9.472   3.789 -0.4711  0.0564  0.0745
11931SOL    HW137406   4.989   9.468   3.697 -0.8622  4.2548 -0.1822
11931SOL    HW237407   5.105   9.503   3.788 -0.5372  0.3455  1.0948
11932SOL     OW37408   4.867   5.215   3.769 -0.0718  0.3940 -0.5888
11932SOL    HW137409   4.945   5.199   3.715  0.3991  2.2210 -0.5301
11932SOL    HW237410   4.794   5.189   3.714  0.5369 -0.5469 -0.9762
11933SOL     OW37411   7.489   1.174   0.607 -0.0356 -0.8242  0.6460
11933SOL    HW137412   7.579   1.188   0.638  0.6139 -2.2023 -0.4769
11933SOL    HW237413   7.435   1.229   0.663  1.4169 -0.6687  1.9511
11934SOL     OW37414   7.928   4.623   9.202  0.0747 -0.1914 -0.3400
11934SOL    HW137415   8.011   4.644   9.245 -0.4330  0.9411  0.1396
11934SOL    HW237416   7.951   4.557   9.137  1.3846  0.2338 -0.3440
11935SOL     OW37417   1.545   9.127   7.345  0.3050  0.0945  0.2609
11935SOL    HW137418   1.619   9.070   7.325  0.5235  0.8994 -1.3707
11935SOL    HW237419   1.512   9.154   7.260 -2.0541 -0.4338  0.9541
11936SOL     OW37420   0.933   5.137   9.210  0.0182  0.0898  0.5486
11936SOL    HW137421   1.024   5.133   9.181 -0.3607 -1.5108 -0.5514
11936SOL    HW237422   0.930   5.213   9.269  2.1675 -0.1805  1.0868
11937SOL     OW37423   8.962   0.377   8.536 -0.2076  0.0271  0.3571
11937SOL    HW137424   8.877   0.415   8.517 -1.0450 -2.6579 -1.9482
11937SOL    HW237425   8.943   0.300   8.590  0.5755 -1.2100 -1.0602
11938SOL     OW37426   3.977   0.236   3.215  0.0403  0.0529 -0.0147
11938SOL    HW137427   4.043   0.219   3.282  0.1701  0.7254  0.0304
11938SOL    HW237428   4.014   0.201   3.134  0.4737  0.4767  0.0004
11939SOL     OW37429   7.913   7.405   0.569  0.4001  0.4861 -0.6714
11939SOL    HW137430   7.818   7.403   0.582  0.5687 -0.9580  0.6615
11939SOL    HW237431   7.924   7.418   0.475 -1.1653 -1.8314 -1.2655
11940SOL     OW37432   0.074   7.663   5.776  0.0390  0.3658  0.0923
11940SOL    HW137433   0.024   7.741   5.749 -2.6208 -0.9513  0.8181
11940SOL    HW237434   0.114   7.630   5.696 -0.1658  1.5594 -0.5221
11941SOL     OW37435   8.919   6.994   6.747 -0.2785 -0.9291  0.3020
11941SOL    HW137436   8.877   6.923   6.697  1.2070 -1.4586 -0.2703
11941SOL    HW237437   8.982   7.031   6.686 -0.5219  0.4244  0.8509
11942SOL     OW37438   5.136   1.368   4.978  0.3696  0.8622  0.0526
11942SOL    HW137439   5.111   1.336   5.064  1.3065  1.4009  0.5482
11942SOL    HW237440   5.199   1.438   4.996  0.7815  0.8032 -1.0685
11943SOL     OW37441   5.795   8.582   7.902 -0.5531  0.0044 -1.0979
11943SOL    HW137442   5.780   8.675   7.922  1.3306  0.3216 -1.0011
11943SOL    HW237443   5.731   8.536   7.956 -0.2288  1.1820  0.3721
11944SOL     OW37444   5.111   9.404   8.973  0.6014  0.0806 -0.1187
11944SOL    HW137445   5.204   9.383   8.971  0.7902  0.8965 -1.6843
11944SOL    HW237446   5.106   9.492   9.010  0.6858  0.8731 -1.8825
11945SOL     OW37447   2.315   7.125   2.582 -0.2854  0.0533  0.1530
11945SOL    HW137448   2.239   7.079   2.546 -0.1554 -0.3680  0.4141
11945SOL    HW237449   2.345   7.181   2.510 -0.9566  0.3714  0.1127
11946SOL     OW37450   2.933   5.941   6.870 -0.0572  0.6538 -0.2536
11946SOL    HW137451   2.974   5.919   6.786  0.6469  2.2382 -0.3774
11946SOL    HW237452   3.007   5.951   6.930 -0.3962  1.5052  0.0408
11947SOL     OW37453   6.368   0.651   4.876 -0.2711  0.4070 -0.8105
11947SOL    HW137454   6.315   0.571   4.881  0.7243 -0.2523 -0.4662
11947SOL    HW237455   6.370   0.673   4.783 -0.1826 -0.2267 -0.9629
11948SOL     OW37456   1.871   3.096   2.957 -0.5702  0.1868 -0.2012
11948SOL    HW137457   1.908   3.055   3.035 -1.5622  3.0454  1.9742
11948SOL    HW237458   1.942   3.148   2.920 -0.9122  1.3398  0.7243
11949SOL     OW37459   4.486   2.813   0.651  0.3119 -0.6043  0.0593
11949SOL    HW137460   4.540   2.876   0.698  0.6425  1.4653 -2.8309
11949SOL    HW237461   4.533   2.796   0.569 -2.2614 -0.4489 -1.5917
11950SOL     OW37462   7.217   0.325   6.616 -0.2988  0.5998 -0.2782
11950SOL    HW137463   7.274   0.351   6.689 -0.2686  2.3005 -0.8614
11950SOL    HW237464   7.244   0.235   6.595  1.0617  0.7958  0.5021
11951SOL     OW37465   2.951   8.193   0.102  0.3240  0.6622  0.3985
11951SOL    HW137466   2.924   8.237   0.183  0.0586 -0.2928  0.8487
11951SOL    HW237467   3.022   8.135   0.130 -0.3150 -0.2719  0.1000
11952SOL     OW37468   2.652   9.352   5.900 -0.0090 -0.5335  0.3513
11952SOL    HW137469   2.746   9.338   5.892  0.4000  2.1398 -0.2870
11952SOL    HW237470   2.642   9.425   5.960 -1.7303 -0.9490  0.6471
11953SOL     OW37471   7.405   8.323   6.518 -0.4159  0.2392 -0.3756
11953SOL    HW137472   7.344   8.373   6.572 -0.0143  1.1526 -0.7407
11953SOL    HW237473   7.491   8.356   6.543  0.3280 -3.2233  2.4726
11954SOL     OW37474   4.352   8.664   8.865 -0.1891 -0.0259  0.4407
11954SOL    HW137475   4.306   8.662   8.781  0.1438  0.6208  0.2357
11954SOL    HW237476   4.444   8.667   8.843 -0.1048  0.4272  0.8210
11955SOL     OW37477   1.927   2.967   7.031 -0.5907  0.9639  0.7671
11955SOL    HW137478   2.004   2.996   7.081  0.2926  0.8896 -0.5165
11955SOL    HW237479   1.908   2.880   7.068  1.1383  0.1385 -0.1518
11956SOL     OW37480   2.021   9.546   2.133 -0.2269 -0.0126  0.0747
11956SOL    HW137481   1.975   9.547   2.217 -0.2419  3.2408  0.1730
11956SOL    HW237482   2.114   9.538   2.156 -0.2487  0.6464  0.4162
11957SOL     OW37483   7.706   0.757   7.486  0.0369  0.7700  0.8946
11957SOL    HW137484   7.782   0.805   7.520  0.8098 -0.1607  0.5065
11957SOL    HW237485   7.704   0.676   7.537 -1.3612  1.2529  1.6624
11958SOL     OW37486   2.361   8.450   6.355 -0.1232 -0.0246  0.1101
11958SOL    HW137487   2.356   8.519   6.421 -0.8476 -1.0837  1.2104
11958SOL    HW237488   2.375   8.497   6.272  0.5329  1.3538  0.9582
11959SOL     OW37489   5.940   6.305   9.065 -0.0311 -0.1675  0.4356
11959SOL    HW137490   5.858   6.317   9.017  0.4764  1.3318 -0.0967
11959SOL    HW237491   5.936   6.214   9.096 -2.3908  0.1656  1.3592
11960SOL     OW37492   7.638   6.648   8.105 -0.0008 -0.4104  0.0757
11960SOL    HW137493   7.685   6.665   8.187  0.1867  1.2025 -0.3397
11960SOL    HW237494   7.687   6.696   8.038 -1.7870  0.7268 -0.4912
11961SOL     OW37495   6.616   6.150   1.821  0.6097 -0.4411 -0.5977
11961SOL    HW137496   6.631   6.089   1.893  1.0301 -0.2128 -0.4896
11961SOL    HW237497   6.624   6.237   1.860 -2.3998 -0.2397 -0.2257
11962SOL     OW37498   4.009   2.305   2.541  0.1975  0.3253 -0.1269
11962SOL    HW137499   3.929   2.265   2.506  0.3856  0.5341 -0.8147
11962SOL    HW237500   3.982   2.342   2.625  0.2864 -2.2551  1.1397
11963SOL     OW37501   8.684   8.923   4.680  0.2286  0.1539 -0.4716
11963SOL    HW137502   8.618   8.871   4.727  1.9526 -0.5170  1.3307
11963SOL    HW237503   8.673   8.897   4.588 -0.9738 -1.1191 -0.0133
11964SOL     OW37504   9.517   3.750   3.516 -0.1541  0.1248  0.3351
11964SOL    HW137505   9.604   3.788   3.508  0.6523 -1.6369  0.3524
11964SOL    HW237506   9.520   3.698   3.596 -1.5664  0.8596  0.9061
11965SOL     OW37507   8.403   8.420   7.753  0.0241  0.0751 -0.2134
11965SOL    HW137508   8.466   8.489   7.775  0.5825 -0.1609 -1.0282
11965SOL    HW237509   8.449   8.339   7.770  0.7649 -0.1380 -2.8623
11966SOL     OW37510   8.900   4.290   8.391 -0.0038  0.1179 -0.3660
11966SOL    HW137511   8.919   4.233   8.316  0.3628  0.3905 -0.4848
11966SOL    HW237512   8.896   4.231   8.466  0.6891 -0.0366 -0.4379
11967SOL     OW37513   1.407   1.931   4.019 -0.2785  0.1035 -0.0674
11967SOL    HW137514   1.346   1.991   4.061  2.5683  3.0619  0.2775
11967SOL    HW237515   1.442   1.981   3.945  0.5185 -2.0996 -1.2819
11968SOL     OW37516   5.745   8.335   2.250  0.3201 -0.8084 -0.0821
11968SOL    HW137517   5.671   8.321   2.309 -0.0793 -0.1825 -0.4259
11968SOL    HW237518   5.706   8.346   2.163  0.7581  0.1187 -0.1776
11969SOL     OW37519   2.414   3.138   8.756 -0.2669  0.2513  0.0145
11969SOL    HW137520   2.344   3.137   8.691  0.7365 -0.6979 -1.0920
11969SOL    HW237521   2.430   3.046   8.776  2.5652  0.1994 -1.9192
11970SOL     OW37522   8.674   8.533   6.396  0.3394  0.0052 -0.5285
11970SOL    HW137523   8.711   8.531   6.485  0.3393 -2.0782 -0.5193
11970SOL    HW237524   8.738   8.581   6.344  1.0850 -0.0523  0.3117
11971SOL     OW37525   4.370   1.519   5.512 -0.2443  0.2073  0.1987
11971SOL    HW137526   4.439   1.452   5.515 -0.7435 -0.4067 -1.0845
11971SOL    HW237527   4.289   1.470   5.526 -0.4207  1.0000  2.2018
11972SOL     OW37528   4.009   3.454   8.310 -0.0448 -0.0098 -0.9017
11972SOL    HW137529   3.917   3.431   8.321  0.0745 -0.1722 -0.2128
11972SOL    HW237530   4.015   3.545   8.339  0.4676 -0.7601  1.5289
11973SOL     OW37531   4.848   5.554   6.695  0.0590  0.3312 -0.6407
11973SOL    HW137532   4.892   5.494   6.756  0.4188  0.8903 -0.3491
11973SOL    HW237533   4.768   5.581   6.740 -0.8525 -1.0395 -1.3513
11974SOL     OW37534   6.787   4.032   8.686  0.5075  0.1205  0.2133
11974SOL    HW137535   6.867   4.048   8.636  0.5654  0.1138  0.3035
11974SOL    HW237536   6.729   4.105   8.662  0.9861  0.8105  1.0787
11975SOL     OW37537   2.540   3.018   3.350 -0.4770 -0.1889  0.2643
11975SOL    HW137538   2.624   2.994   3.388 -0.4831 -0.0099  0.3916
11975SOL    HW237539   2.563   3.081   3.281 -0.2088 -2.4324 -1.8247
11976SOL     OW37540   7.211   4.443   1.669 -0.5646  0.0552 -0.0359
11976SOL    HW137541   7.125   4.433   1.627  0.5395 -0.4333 -2.2836
11976SOL    HW237542   7.259   4.502   1.612  0.4256  0.8466  1.5467
11977SOL     OW37543   1.137   5.042   7.362  0.1628 -0.2758  0.3630
11977SOL    HW137544   1.162   5.086   7.280 -2.2219 -1.4162 -1.0638
11977SOL    HW237545   1.108   5.114   7.419 -1.4724  0.2848 -1.0890
11978SOL     OW37546   7.978   8.486   6.384  0.2829 -0.1134  0.1339
11978SOL    HW137547   7.914   8.548   6.349  0.9710  1.4127  1.4472
11978SOL    HW237548   7.950   8.401   6.349 -1.3146  0.7615 -0.8730
11979SOL     OW37549   4.473   0.134   5.295  0.2272  0.4275  0.3144
11979SOL    HW137550   4.549   0.164   5.344  0.6690  0.2499 -0.2496
11979SOL    HW237551   4.500   0.140   5.203 -0.4008  0.2577  0.1122
11980SOL     OW37552   8.420   4.523   6.857 -0.0914  0.1343 -0.3154
11980SOL    HW137553   8.447   4.596   6.913 -1.8559  1.5287 -1.1580
11980SOL    HW237554   8.328   4.508   6.880  0.4734 -2.5271  0.4979
11981SOL     OW37555   0.413   4.170   6.672  0.2393  0.3859  0.5183
11981SOL    HW137556   0.453   4.083   6.666  1.6429  0.8932  2.0137
11981SOL    HW237557   0.340   4.159   6.732 -0.9626 -0.1782 -0.9576
11982SOL     OW37558   1.913   9.431   9.241  0.0942 -0.5279  0.1594
11982SOL    HW137559   1.980   9.428   9.309 -2.6101  1.1863  3.1638
11982SOL    HW237560   1.871   9.345   9.245 -1.6011  0.3008  2.5694
11983SOL     OW37561   1.156   3.455   2.389 -0.0837 -0.5870 -0.3815
11983SOL    HW137562   1.107   3.536   2.404  0.5606 -0.1752 -0.4714
11983SOL    HW237563   1.225   3.455   2.455 -0.4660 -1.3911  0.0383
11984SOL     OW37564   5.005   0.955   8.905 -0.3055  0.8559  0.0054
11984SOL    HW137565   5.002   1.012   8.982 -1.0473  0.1556  0.5058
11984SOL    HW237566   4.923   0.907   8.907  0.3412 -0.2999 -0.3732
11985SOL     OW37567   9.492   7.521   0.194 -0.2341  0.1547 -0.0103
11985SOL    HW137568   9.572   7.562   0.227  0.0267 -0.8343  0.6315
11985SOL    HW237569   9.476   7.447   0.254 -0.9983 -0.3414 -0.7959
11986SOL     OW37570   6.867   8.307   2.842  0.1381  0.3247  0.0504
11986SOL    HW137571   6.944   8.346   2.802 -0.0338 -0.2777 -0.9077
11986SOL    HW237572   6.853   8.358   2.922  1.1160  0.8764 -0.1104
11987SOL     OW37573   5.913   4.797   6.335 -0.7357  0.1195 -0.0534
11987SOL    HW137574   5.860   4.865   6.376 -1.9590 -0.8855  0.1108
11987SOL    HW237575   5.868   4.715   6.357  0.4423 -0.7102 -0.6130
11988SOL     OW37576   6.284   9.339   2.161 -0.0960 -0.3068  0.1815
11988SOL    HW137577   6.218   9.306   2.101  0.5993  0.9689 -1.3705
11988SOL    HW237578   6.235   9.373   2.235 -0.9886 -1.7913  0.3146
11989SOL     OW37579   6.730   9.559   2.614 -0.3380 -0.2449  0.0146
11989SOL    HW137580   6.676   9.532   2.540 -2.2868 -0.1269  1.3206
11989SOL    HW237581   6.732   9.482   2.671 -1.3887  0.5605  1.2074
11990SOL     OW37582   9.581   0.940   4.422 -0.5152 -0.3938  0.4423
11990SOL    HW137583   9.642   1.013   4.408  1.8578 -2.4570 -0.7147
11990SOL    HW237584   9.541   0.925   4.337 -1.7282  0.1028  0.8989
11991SOL     OW37585   0.627   7.685   4.892 -0.1072  0.2045  0.2761
11991SOL    HW137586   0.673   7.737   4.826 -1.3190 -0.6360 -1.3185
11991SOL    HW237587   0.634   7.736   4.972  1.8584  1.0273 -0.3664
11992SOL     OW37588   8.866   0.510   6.097  0.3727  0.3003 -0.0032
11992SOL    HW137589   8.913   0.565   6.034 -0.7347 -0.0926 -1.2004
11992SOL    HW237590   8.859   0.425   6.055 -0.1831 -0.0440  0.7563
11993SOL     OW37591   2.978   2.274   3.213 -0.2103  0.0188  0.2556
11993SOL    HW137592   2.960   2.189   3.172 -2.1143  0.5555 -0.0921
11993SOL    HW237593   2.908   2.331   3.182  0.1223  1.3073  1.7730
11994SOL     OW37594   7.887   4.458   2.170  0.1606 -0.0864 -0.2371
11994SOL    HW137595   7.856   4.527   2.111  1.5784  1.3048  0.5491
11994SOL    HW237596   7.810   4.434   2.221 -0.4047  0.8017 -0.6382
11995SOL     OW37597   5.362   5.408   5.526  0.0105 -0.1918 -0.1359
11995SOL    HW137598   5.410   5.394   5.444  0.5915  1.7245 -0.1847
11995SOL    HW237599   5.418   5.370   5.593  0.9137  0.6902 -0.3592
11996SOL     OW37600   7.434   5.517   9.502  0.2666 -0.5753  0.2170
11996SOL    HW137601   7.470   5.507   9.414 -0.4752 -0.6290 -0.0881
11996SOL    HW237602   7.508   5.501   9.561  1.2423  1.3187 -0.4114
11997SOL     OW37603   5.150   0.156   0.871 -0.3468  0.1061 -0.1220
11997SOL    HW137604   5.107   0.106   0.801  0.8884  1.5559 -1.9844
11997SOL    HW237605   5.242   0.157   0.847 -0.0502  1.5714  0.9634
11998SOL     OW37606   1.499   2.865   5.214  0.4159  0.0304 -0.2767
11998SOL    HW137607   1.480   2.874   5.307  0.5298  0.9383 -0.3329
11998SOL    HW237608   1.595   2.870   5.208  0.7226 -3.3431 -0.1205
11999SOL     OW37609   3.058   9.645   6.019  0.0823 -0.2610  0.0498
11999SOL    HW137610   3.011   9.678   5.942  0.1990 -1.2413 -0.4598
11999SOL    HW237611   3.127   9.588   5.983  2.2058  1.7412  0.7373
12000SOL     OW37612   8.427   4.066   0.058 -0.1150  0.1609  0.3620
12000SOL    HW137613   8.384   4.095  -0.022 -1.3681 -1.1294  0.5143
12000SOL    HW237614   8.412   4.137   0.121  1.0968  1.2951 -0.5875
12001SOL     OW37615   6.213   9.609   7.727 -0.1074 -0.0104 -0.5252
12001SOL    HW137616   6.260   9.551   7.788  0.6703  1.3808  0.2367
12001SOL    HW237617   6.278   9.674   7.700 -0.7344  0.0316 -2.0405
12002SOL     OW37618   1.623   6.588   4.336 -0.1864 -0.2547  0.5465
12002SOL    HW137619   1.682   6.562   4.266 -2.1673  0.6481 -1.5962
12002SOL    HW237620   1.661   6.668   4.372  0.7191 -0.5939  0.3663
12003SOL     OW37621   0.073   9.464   9.306  0.0873 -0.1715 -0.4009
12003SOL    HW137622  -0.007   9.471   9.359  0.2523 -2.3768  0.2460
12003SOL    HW237623   0.042   9.441   9.219 -0.0797  1.6223 -0.8578
12004SOL     OW37624   3.351   5.586   8.459 -0.5092 -0.0359 -0.0512
12004SOL    HW137625   3.312   5.558   8.377 -0.4455 -0.1435 -0.0445
12004SOL    HW237626   3.293   5.549   8.527  0.9249 -2.2734  0.0413
12005SOL     OW37627   8.992   7.312   8.398 -0.2544  0.3206  0.1254
12005SOL    HW137628   9.086   7.304   8.413 -0.3270 -0.2220  0.3187
12005SOL    HW237629   8.984   7.353   8.312  0.1577  0.0815 -0.0270
12006SOL     OW37630   3.175   2.690   6.473  0.0728 -0.0911  0.2755
12006SOL    HW137631   3.233   2.614   6.482  0.8022  0.2860 -0.8966
12006SOL    HW237632   3.225   2.763   6.510 -0.9992 -0.3170  2.2431
12007SOL     OW37633   3.464   4.417   1.110 -0.0946  0.0704  0.2711
12007SOL    HW137634   3.499   4.329   1.120  0.0994  0.0666 -0.3462
12007SOL    HW237635   3.413   4.413   1.029  0.4404  0.6814 -0.1110
12008SOL     OW37636   7.569   0.270   3.100  0.0247 -0.1067 -0.0931
12008SOL    HW137637   7.661   0.274   3.128  0.6110 -1.6029 -1.6227
12008SOL    HW237638   7.572   0.277   3.005 -1.2603 -2.0625 -0.3328
12009SOL     OW37639   5.277   6.286   1.844 -0.0000  0.3610  0.2955
12009SOL    HW137640   5.330   6.281   1.764  2.5506 -0.5945  1.9040
12009SOL    HW237641   5.218   6.211   1.839  1.3240 -0.7039  0.0406
12010SOL     OW37642   1.058   0.129   8.170  0.0678  0.0602 -0.2176
12010SOL    HW137643   1.135   0.124   8.113  0.2063 -0.5589  0.0086
12010SOL    HW237644   1.065   0.052   8.226  0.5102  1.2288  1.3902
12011SOL     OW37645   3.043   3.019   8.127 -0.1656 -0.3570 -0.3762
12011SOL    HW137646   3.094   2.958   8.074  0.8279  1.0473 -1.1290
12011SOL    HW237647   3.094   3.100   8.125 -0.1666 -0.1955  2.6510
12012SOL     OW37648   9.290   9.087   5.697 -0.6227  0.0625  0.0987
12012SOL    HW137649   9.284   9.159   5.635 -1.8030  0.1000  0.2425
12012SOL    HW237650   9.252   9.121   5.778 -1.4212 -0.7898  0.0938
12013SOL     OW37651   0.464   1.908   7.519 -0.4896 -0.3176  0.4160
12013SOL    HW137652   0.433   1.988   7.562 -2.8937 -2.0570  2.2419
12013SOL    HW237653   0.498   1.854   7.590  3.0035 -0.2612 -1.0263
12014SOL     OW37654   4.816   4.522   8.045 -0.2333  0.4550  0.4645
12014SOL    HW137655   4.747   4.586   8.030  1.4331  2.4899  0.9249
12014SOL    HW237656   4.868   4.524   7.964 -0.2361 -0.4280  0.4347
12015SOL     OW37657   5.285   6.363   5.194  0.5084  0.3658  0.3095
12015SOL    HW137658   5.317   6.426   5.130 -0.1422 -0.2968 -0.7107
12015SOL    HW237659   5.296   6.278   5.151  0.0662 -0.0987  1.0866
12016SOL     OW37660   2.572   1.692   5.322 -0.7907 -0.1300 -0.4099
12016SOL    HW137661   2.489   1.670   5.279 -1.8958  1.0512  1.0396
12016SOL    HW237662   2.570   1.787   5.330  1.4774  0.0936 -1.7884
12017SOL     OW37663   8.037   0.748   3.527 -0.5601  0.1679 -0.1044
12017SOL    HW137664   8.056   0.777   3.438  3.0921 -0.8455  0.2025
12017SOL    HW237665   8.081   0.811   3.584  0.5631 -1.3771  0.8108
12018SOL     OW37666   8.060   7.136   7.691 -0.6865  0.1195 -0.2853
12018SOL    HW137667   8.006   7.156   7.615  0.0302 -1.0862 -1.1552
12018SOL    HW237668   8.019   7.059   7.731  1.7728 -2.6187 -2.5849
12019SOL     OW37669   9.646   5.860   6.561  0.3518 -0.0566 -0.0210
12019SOL    HW137670   9.733   5.899   6.573 -0.0684  0.6006  1.1129
12019SOL    HW237671   9.620   5.887   6.473  0.2671  1.9149  0.5548
12020SOL     OW37672   0.369   6.704   7.704 -0.4102 -0.4999 -0.0924
12020SOL    HW137673   0.277   6.720   7.726 -0.1536  1.8098 -0.3929
12020SOL    HW237674   0.418   6.737   7.779  0.1972 -2.2039  0.2973
12021SOL     OW37675   4.101   4.988   0.655  0.2327  0.7183 -0.0640
12021SOL    HW137676   4.127   5.073   0.691  1.2525 -0.0527  1.0975
12021SOL    HW237677   4.149   4.982   0.573  0.8467  0.8969  0.2742
12022SOL     OW37678   7.655   9.126   0.437  0.0567  0.3784  0.0987
12022SOL    HW137679   7.590   9.057   0.452  0.4475  0.3556  1.8347
12022SOL    HW237680   7.604   9.203   0.414 -0.6644  0.4856  1.9074
12023SOL     OW37681   3.216   0.728   4.589 -0.4011  0.0749 -0.3217
12023SOL    HW137682   3.209   0.786   4.513  0.2026  1.6784  0.7868
12023SOL    HW237683   3.309   0.731   4.612 -0.7274  0.3822  1.0316
12024SOL     OW37684   8.743   9.193   4.852 -0.5081  0.2453 -0.2965
12024SOL    HW137685   8.737   9.204   4.947  1.8694  0.3489 -0.0967
12024SOL    HW237686   8.655   9.165   4.825 -1.3017  0.4732  1.8765
12025SOL     OW37687   4.573   2.472   7.631 -0.1185 -0.0131 -0.3840
12025SOL    HW137688   4.523   2.539   7.583 -0.8231  0.6301  1.1921
12025SOL    HW237689   4.507   2.428   7.685  0.1445 -2.7097 -2.0978
12026SOL     OW37690   6.209   1.430   9.349 -0.4094  0.6761 -0.7649
12026SOL    HW137691   6.263   1.486   9.293 -1.5646  0.7369 -1.8718
12026SOL    HW237692   6.146   1.390   9.288  0.9622 -2.6139 -0.2079
12027SOL     OW37693   0.026   5.436   5.808 -0.2017  0.4208 -0.2779
12027SOL    HW137694  -0.044   5.405   5.865 -0.6682 -0.0305 -1.0781
12027SOL    HW237695   0.032   5.529   5.826  1.4912 -0.1189  2.4701
12028SOL     OW37696   4.237   2.307   3.792  0.5891 -0.0460  0.2580
12028SOL    HW137697   4.224   2.230   3.847 -0.6889  0.4772  0.7263
12028SOL    HW237698   4.296   2.363   3.843 -1.7106  1.0857  1.8606
12029SOL     OW37699   8.187   1.955   8.589 -0.4351 -0.4492  0.4249
12029SOL    HW137700   8.192   2.048   8.566 -1.0267 -0.6158 -0.4336
12029SOL    HW237701   8.097   1.943   8.619 -0.5697 -0.8780 -0.1288
12030SOL     OW37702   4.704   0.009   8.296 -0.8840 -0.5014  0.1234
12030SOL    HW137703   4.793  -0.021   8.281 -0.0640  1.4168  0.8597
12030SOL    HW237704   4.649  -0.061   8.261  0.8856 -2.0750  0.3301
12031SOL     OW37705   7.037   6.251   3.564  0.2493  0.0953  0.6235
12031SOL    HW137706   6.963   6.192   3.551  0.2099  0.3071 -0.1780
12031SOL    HW237707   7.091   6.238   3.486 -0.1545  1.6928  0.0340
12032SOL     OW37708   1.473   0.593   7.576  0.3587 -0.2831 -0.1010
12032SOL    HW137709   1.385   0.617   7.604  0.0409 -1.0401 -0.4343
12032SOL    HW237710   1.493   0.514   7.626  1.1915  0.3465  0.6022
12033SOL     OW37711   5.547   6.327   5.925 -0.0915  0.0746  0.5916
12033SOL    HW137712   5.564   6.414   5.963 -2.3884 -0.1554  2.3738
12033SOL    HW237713   5.578   6.266   5.992  2.1072 -0.6046 -0.9170
12034SOL     OW37714   3.074   9.585   5.143  0.1286  0.3911  0.3398
12034SOL    HW137715   2.991   9.627   5.165 -0.7840 -0.7163 -0.8667
12034SOL    HW237716   3.061   9.493   5.168 -0.1613 -0.4472 -2.5857
12035SOL     OW37717   6.389   0.130   0.167  0.0005 -0.5153 -0.2750
12035SOL    HW137718   6.381   0.046   0.212  0.4014 -0.5052 -0.1789
12035SOL    HW237719   6.352   0.114   0.080 -0.3397 -0.6653 -0.1047
12036SOL     OW37720   7.961   5.007   7.834  0.2631  0.0369  0.4562
12036SOL    HW137721   7.937   4.915   7.827  0.2258  0.1738 -3.6509
12036SOL    HW237722   7.890   5.046   7.886 -1.4985 -1.7300 -0.4604
12037SOL     OW37723   7.053   2.154   3.898  0.4330 -0.2835  0.8592
12037SOL    HW137724   7.033   2.060   3.894 -0.8095 -0.0088  0.2174
12037SOL    HW237725   7.067   2.180   3.807 -2.5693  0.7885  0.5720
12038SOL     OW37726   5.559   0.000   4.557 -0.3420  0.0905 -0.3156
12038SOL    HW137727   5.528  -0.087   4.579  0.7388 -1.9029 -5.3122
12038SOL    HW237728   5.491   0.037   4.500  0.1466  1.6979  0.0741
12039SOL     OW37729   5.761   2.758   5.599 -0.2353  0.0550  0.0765
12039SOL    HW137730   5.693   2.765   5.532 -1.8304  2.0845  1.7416
12039SOL    HW237731   5.713   2.759   5.682  1.7172 -1.2070  1.3270
12040SOL     OW37732   3.535   8.557   0.456 -0.0346  0.1002 -0.0894
12040SOL    HW137733   3.440   8.570   0.451 -0.1665 -1.1932 -1.4826
12040SOL    HW237734   3.572   8.644   0.442 -0.9920  0.4286 -0.6628
12041SOL     OW37735   3.426   1.349   1.832 -0.0868  0.1832  0.2972
12041SOL    HW137736   3.473   1.426   1.798  1.1142 -0.0682  1.3026
12041SOL    HW237737   3.483   1.316   1.901 -1.1159 -0.9823  0.6074
12042SOL     OW37738   8.806   5.610   8.536 -0.4271  0.3153 -0.2783
12042SOL    HW137739   8.886   5.557   8.543 -0.4403  0.2056 -0.9076
12042SOL    HW237740   8.837   5.699   8.523 -0.4074  0.3192 -0.2019
12043SOL     OW37741   6.472   8.128   6.012 -0.2731 -0.4291 -0.1655
12043SOL    HW137742   6.559   8.144   6.050  0.1112 -2.5445 -0.0496
12043SOL    HW237743   6.466   8.191   5.940  1.6290 -0.6371 -0.5685
12044SOL     OW37744   4.495   6.108   7.194  0.3178  0.4595  0.2612
12044SOL    HW137745   4.448   6.191   7.182 -2.9611 -1.1717  0.5474
12044SOL    HW237746   4.434   6.053   7.244  2.0627 -2.3657 -0.4655
12045SOL     OW37747   3.365   2.927   7.208 -0.2090  0.6019  0.3104
12045SOL    HW137748   3.432   2.879   7.158  0.7529  2.2597 -0.0494
12045SOL    HW237749   3.409   3.006   7.237 -2.0043  1.7282  0.1124
12046SOL     OW37750   0.034   0.787   0.668 -0.5411 -0.6456 -0.5940
12046SOL    HW137751   0.095   0.824   0.732 -0.9323 -2.7641  1.1268
12046SOL    HW237752   0.035   0.849   0.595  0.6636  1.3839  1.0420
12047SOL     OW37753   2.879   8.373   3.433 -0.0596 -0.4713  0.3919
12047SOL    HW137754   2.823   8.296   3.422 -2.4272  1.1970  0.1172
12047SOL    HW237755   2.865   8.399   3.524 -0.7793  0.7154 -0.0422
12048SOL     OW37756   2.827   3.466   9.646 -0.4269 -0.0271  0.1147
12048SOL    HW137757   2.754   3.430   9.597 -1.2639  0.0775  1.2687
12048SOL    HW237758   2.889   3.394   9.655 -0.3668 -0.1102 -0.8707
12049SOL     OW37759   4.688   7.422   0.749  0.2280  0.3908 -0.0812
12049SOL    HW137760   4.634   7.498   0.729  2.1591  2.0025  0.4787
12049SOL    HW237761   4.694   7.374   0.666  0.8792  2.1481 -1.1015
12050SOL     OW37762   7.311   1.107   6.462 -0.1759  0.0847  0.0459
12050SOL    HW137763   7.290   1.032   6.517 -0.4055 -0.0244 -0.1882
12050SOL    HW237764   7.322   1.179   6.523 -0.9749  0.0872  0.1971
12051SOL     OW37765   8.401   3.337   1.986  0.2431  0.0076  0.2542
12051SOL    HW137766   8.476   3.331   2.046  0.0325  1.0229  0.6514
12051SOL    HW237767   8.325   3.346   2.043  0.1370  1.9785 -0.1312
12052SOL     OW37768   1.315   7.590   3.697  0.0181  0.0966 -0.0932
12052SOL    HW137769   1.396   7.641   3.699  1.3222 -1.7968 -1.0591
12052SOL    HW237770   1.286   7.588   3.788  0.5108  1.6017  0.1324
12053SOL     OW37771   7.217   8.826   7.680  0.5726  0.2087 -0.3618
12053SOL    HW137772   7.266   8.873   7.612 -0.1611  2.4747  0.5668
12053SOL    HW237773   7.283   8.776   7.727  1.6760  1.4710 -0.5073
12054SOL     OW37774   2.625   0.986   9.797  0.0848 -0.0398 -0.1229
12054SOL    HW137775   2.659   0.900   9.773  3.6396  0.9551  0.7684
12054SOL    HW237776   2.692   1.047   9.768 -2.0453  2.4312 -0.1604
12055SOL     OW37777   4.268   7.710   7.524 -0.0125 -0.5748  0.4925
12055SOL    HW137778   4.296   7.788   7.476 -0.3581 -0.8727 -0.2054
12055SOL    HW237779   4.268   7.640   7.459  1.0047 -1.3255  1.2747
12056SOL     OW37780   5.062   8.238   3.556 -0.2202  0.4147 -0.5651
12056SOL    HW137781   5.049   8.221   3.650 -0.3705 -2.1188 -0.9680
12056SOL    HW237782   4.992   8.190   3.513 -0.3508  1.8177 -2.0104
12057SOL     OW37783   3.840   2.659   0.216 -0.2546  0.0324  0.1535
12057SOL    HW137784   3.756   2.632   0.180  0.1361  1.5303 -2.0634
12057SOL    HW237785   3.905   2.618   0.159  0.4704  0.5476  0.5857
12058SOL     OW37786   0.852   7.485   8.658  0.2342 -0.1471 -0.1398
12058SOL    HW137787   0.915   7.419   8.629 -0.6687 -0.3679 -1.7366
12058SOL    HW237788   0.903   7.565   8.665  1.1319 -0.7831  0.7911
12059SOL     OW37789   2.895   2.727   8.550  0.1320 -0.1168 -0.4094
12059SOL    HW137790   2.921   2.646   8.506  0.5381 -0.7647  0.9562
12059SOL    HW237791   2.897   2.794   8.482  2.4266 -0.7267 -1.0148
12060SOL     OW37792   6.029   2.690   8.386 -0.1490  0.0473 -0.8714
12060SOL    HW137793   6.027   2.605   8.432  1.7214  0.3838 -0.0631
12060SOL    HW237794   5.948   2.734   8.414 -0.0567 -0.5920  0.5144
12061SOL     OW37795   6.939   5.843   1.956 -0.2046 -0.6281  0.1517
12061SOL    HW137796   6.925   5.757   1.917 -2.9389 -0.6383  0.9299
12061SOL    HW237797   6.943   5.826   2.050  0.7256 -0.0294  0.2342
12062SOL     OW37798   6.250   1.141   7.260  0.2778  0.0572 -0.2734
12062SOL    HW137799   6.305   1.081   7.311  0.3463  0.4249  0.0879
12062SOL    HW237800   6.161   1.106   7.270  0.0048  1.1722  1.6776
12063SOL     OW37801   0.584   7.935   6.041 -0.5251  0.5800 -0.7370
12063SOL    HW137802   0.530   7.987   6.099 -0.7709  2.2074 -2.3307
12063SOL    HW237803   0.551   7.846   6.050 -0.9523  0.8942  1.0897
12064SOL     OW37804   7.441   9.246   5.936 -0.2478  0.3910 -0.2238
12064SOL    HW137805   7.347   9.263   5.947 -0.0124  0.9759  1.0549
12064SOL    HW237806   7.475   9.241   6.025  0.8148 -0.6289 -0.6588
12065SOL     OW37807   7.841   8.027   7.222 -0.2445  0.2897  0.7058
12065SOL    HW137808   7.909   7.966   7.250  0.9048  0.7084 -1.0419
12065SOL    HW237809   7.888   8.106   7.197 -0.5087 -0.9235 -5.2790
12066SOL     OW37810   9.821   2.877   3.455 -0.5867  0.3238 -0.2354
12066SOL    HW137811   9.831   2.873   3.551 -2.0882  1.4418 -0.0051
12066SOL    HW237812   9.797   2.968   3.437  2.7347  1.0065 -2.0390
12067SOL     OW37813   6.085   6.743   8.578  0.0938 -0.1267 -0.0677
12067SOL    HW137814   6.019   6.803   8.612  1.0054  0.3072  1.0134
12067SOL    HW237815   6.050   6.656   8.596  0.4192  0.0855  1.8614
12068SOL     OW37816   3.934   8.454   0.889 -0.2718 -0.4700  0.0465
12068SOL    HW137817   3.967   8.364   0.879  3.0119  0.6089  0.0967
12068SOL    HW237818   3.842   8.442   0.915 -0.1327 -3.7782 -0.4681
12069SOL     OW37819   4.465   4.466   0.513  0.0888 -0.2790 -0.2940
12069SOL    HW137820   4.405   4.533   0.545  0.7117  0.3878 -0.4744
12069SOL    HW237821   4.543   4.476   0.568  0.3551 -0.5590 -0.6163
12070SOL     OW37822   8.180   6.228   4.967 -0.8177  0.4777 -0.1256
12070SOL    HW137823   8.087   6.208   4.981 -0.3237 -0.2261  2.6015
12070SOL    HW237824   8.179   6.294   4.898 -3.3050  0.1444 -0.5280
12071SOL     OW37825   2.791   4.567   4.308  0.4374  0.0206  0.0537
12071SOL    HW137826   2.699   4.564   4.334  0.5197 -2.3908  0.2845
12071SOL    HW237827   2.815   4.659   4.316 -1.4555  0.4409  1.7297
12072SOL     OW37828   8.054   8.828   3.741  0.9760  0.2349  0.8530
12072SOL    HW137829   8.008   8.775   3.806  0.7337 -1.1604 -0.4009
12072SOL    HW237830   8.003   8.909   3.735 -1.0986 -1.0594 -0.1399
12073SOL     OW37831   6.136   5.688   6.697 -0.2053  0.5470 -0.1666
12073SOL    HW137832   6.155   5.598   6.723 -1.1129  0.8503  1.7540
12073SOL    HW237833   6.080   5.722   6.767 -0.6173  2.3353 -1.2858
12074SOL     OW37834   9.204   8.789   4.852 -0.0863  0.0912 -0.1420
12074SOL    HW137835   9.193   8.883   4.835 -0.7629 -0.0382 -0.4292
12074SOL    HW237836   9.232   8.785   4.944  0.2147  0.5879 -0.2065
12075SOL     OW37837   8.465   5.453   6.421  0.2842 -0.3946  0.0820
12075SOL    HW137838   8.429   5.365   6.414 -0.4837 -0.0661 -0.1327
12075SOL    HW237839   8.540   5.453   6.361 -0.8420 -0.3445 -1.3750
12076SOL     OW37840   9.024   1.292   5.781  0.2677  0.4646  0.0992
12076SOL    HW137841   8.933   1.319   5.791  0.0805 -0.0488 -0.1704
12076SOL    HW237842   9.053   1.334   5.700 -0.2209 -0.6156 -0.6741
12077SOL     OW37843   5.664   9.090   8.152 -0.1982 -0.0818 -0.4906
12077SOL    HW137844   5.697   9.022   8.211  2.4697  2.5280  1.3071
12077SOL    HW237845   5.581   9.118   8.191 -0.8711 -1.6130 -0.7623
12078SOL     OW37846   9.095   3.969   1.874  0.0080  0.2684  0.3209
12078SOL    HW137847   9.129   3.981   1.963 -0.0538 -0.3398  0.4251
12078SOL    HW237848   9.083   3.875   1.865 -0.8282  0.4052 -0.0271
12079SOL     OW37849   3.431   3.967   4.831  0.2673 -0.2521 -0.1204
12079SOL    HW137850   3.411   3.899   4.896 -0.1139 -0.0880 -0.0657
12079SOL    HW237851   3.350   3.978   4.781  0.7833 -0.9248 -1.1389
12080SOL     OW37852   0.097   3.051   3.729 -0.1738  0.3910  0.2284
12080SOL    HW137853   0.053   3.130   3.696 -0.2770  0.0055 -0.5909
12080SOL    HW237854   0.027   2.992   3.754 -0.1677 -0.3308 -1.3335
12081SOL     OW37855   9.550   8.736   1.007  0.1244  0.2417 -0.1621
12081SOL    HW137856   9.548   8.648   1.045 -1.9450  0.2694 -0.1114
12081SOL    HW237857   9.537   8.795   1.081  2.3586  0.7019 -0.0630
12082SOL     OW37858   3.621   5.002   0.179 -0.0527 -0.0708 -0.6997
12082SOL    HW137859   3.548   5.010   0.117  0.9148  2.0183 -1.6563
12082SOL    HW237860   3.581   5.015   0.265 -1.0013 -0.2778 -1.0962
12083SOL     OW37861   8.734   3.391   8.365  0.2974 -0.1273  0.6266
12083SOL    HW137862   8.815   3.409   8.319 -0.6758 -0.3641 -1.2868
12083SOL    HW237863   8.750   3.309   8.412  1.4184  0.2805  0.9723
12084SOL     OW37864   1.726   9.027   0.776  0.0648 -0.5189 -0.0421
12084SOL    HW137865   1.723   9.118   0.747  0.1172  0.0399  1.5732
12084SOL    HW237866   1.720   9.032   0.871  4.8940 -1.8653  0.5929
12085SOL     OW37867   9.803   2.464   2.534 -0.3078 -0.0515 -0.4960
12085SOL    HW137868   9.750   2.384   2.541 -0.3348 -0.0523 -0.6960
12085SOL    HW237869   9.804   2.501   2.622  0.3286 -0.6743 -0.2285
12086SOL     OW37870   6.835   3.177   2.161 -0.2385 -0.2524  0.0108
12086SOL    HW137871   6.781   3.242   2.116 -0.8459 -0.1278  0.8865
12086SOL    HW237872   6.847   3.214   2.249  1.9984  0.1383 -0.4074
12087SOL     OW37873   5.517   3.459   0.071  0.1312 -0.0279 -0.7538
12087SOL    HW137874   5.591   3.514   0.045 -1.0565  1.9203 -0.2483
12087SOL    HW237875   5.552   3.403   0.140  1.4420 -0.0543 -1.4175
12088SOL     OW37876   0.542   5.522   1.558  0.2146 -0.4223 -0.5982
12088SOL    HW137877   0.594   5.508   1.479  0.8709 -2.3517  0.0946
12088SOL    HW237878   0.504   5.436   1.577 -0.7734  0.2406  0.6130
12089SOL     OW37879   9.263   8.048   1.401  0.2215 -0.2210  0.1503
12089SOL    HW137880   9.260   8.046   1.497 -1.3341  2.9488  0.2752
12089SOL    HW237881   9.188   7.994   1.374  0.9508 -1.5310  0.6466
12090SOL     OW37882   1.249   3.397   3.542 -0.1524 -0.1412  0.1129
12090SOL    HW137883   1.161   3.429   3.565 -0.3153  0.7742 -1.5818
12090SOL    HW237884   1.237   3.302   3.530 -0.8765 -0.0515  0.0603
12091SOL     OW37885   1.142   3.670   9.683 -0.5942 -0.5690  0.1058
12091SOL    HW137886   1.184   3.736   9.738 -1.3433 -0.5058  0.6089
12091SOL    HW237887   1.069   3.716   9.643 -0.4680 -0.8057 -0.4047
12092SOL     OW37888   1.279   8.279   7.172  0.7587  0.4390  0.6439
12092SOL    HW137889   1.188   8.308   7.163  1.1978  1.5691 -0.4162
12092SOL    HW237890   1.312   8.275   7.083  1.3992 -1.2162  0.9156
12093SOL     OW37891   1.149   2.146   3.245  0.2043 -0.1992  0.5097
12093SOL    HW137892   1.215   2.201   3.287  0.4173 -0.7678  0.9334
12093SOL    HW237893   1.143   2.068   3.301  0.8525 -1.2004 -0.7385
12094SOL     OW37894   4.576   3.667   4.362  0.3511 -0.0195  0.3997
12094SOL    HW137895   4.486   3.679   4.392 -0.3705 -0.7163 -1.2901
12094SOL    HW237896   4.612   3.755   4.357 -0.4292  0.3199  0.6072
12095SOL     OW37897   8.656   7.029   4.784 -0.0223 -0.9594  0.9187
12095SOL    HW137898   8.574   7.078   4.785  0.5538  0.0633  0.1863
12095SOL    HW237899   8.641   6.955   4.843 -1.2361 -0.4189  1.3123
12096SOL     OW37900   7.832   3.415   9.729  0.3367 -0.1518 -0.1004
12096SOL    HW137901   7.800   3.485   9.672  1.1066  0.5117  0.2574
12096SOL    HW237902   7.754   3.385   9.776 -0.0682  0.2294 -0.5112
12097SOL     OW37903   3.825   1.518   5.928 -0.3443  0.2047  0.4232
12097SOL    HW137904   3.779   1.503   6.010  1.2324  2.6660  1.8724
12097SOL    HW237905   3.856   1.431   5.901 -1.6904 -0.7881  1.9032
12098SOL     OW37906   1.387   0.245   2.897 -0.1685 -0.0160  0.4320
12098SOL    HW137907   1.421   0.329   2.927 -0.0116 -0.1302  0.5762
12098SOL    HW237908   1.370   0.257   2.803 -0.6132  0.3286  0.5532
12099SOL     OW37909   1.945   3.526   7.319 -0.1587  0.3063 -0.1379
12099SOL    HW137910   1.862   3.540   7.366  0.0411 -0.6368  0.5075
12099SOL    HW237911   1.921   3.537   7.226 -0.9058  0.5124  0.0659
12100SOL     OW37912   5.149   1.829   7.707 -0.1822 -0.6547  0.2068
12100SOL    HW137913   5.179   1.901   7.652 -1.2759  0.8675  1.5118
12100SOL    HW237914   5.053   1.828   7.696 -0.2236 -1.6555  0.5235
12101SOL     OW37915   7.949   3.646   4.744  0.5883 -0.3528  0.0113
12101SOL    HW137916   7.864   3.628   4.704  1.4844  0.0764 -2.2258
12101SOL    HW237917   7.929   3.711   4.813 -0.6115  2.0172 -2.3807
12102SOL     OW37918   3.266   8.282   7.135  0.2228  0.3394  0.2252
12102SOL    HW137919   3.353   8.320   7.126  0.0808  0.5165 -0.5123
12102SOL    HW237920   3.267   8.205   7.078  0.4359 -0.6585  1.5254
12103SOL     OW37921   3.213   4.308   4.533  0.1652 -0.5367  0.0460
12103SOL    HW137922   3.121   4.329   4.515 -0.7051 -0.3127  3.8434
12103SOL    HW237923   3.262   4.383   4.501 -1.5786  1.7020  2.2685
12104SOL     OW37924   2.344   0.835   0.024  0.3361 -0.4785  0.8410
12104SOL    HW137925   2.438   0.849   0.028  0.5190 -1.1439 -0.5592
12104SOL    HW237926   2.307   0.901   0.083  1.5706  0.9035  0.1300
12105SOL     OW37927   7.185   3.130   0.825  0.1434 -0.5119 -0.4483
12105SOL    HW137928   7.147   3.089   0.747  0.9733 -1.0275 -0.5932
12105SOL    HW237929   7.114   3.184   0.861 -0.1473  0.0266 -1.7637
12106SOL     OW37930   0.258   1.470   0.468 -0.1387  0.5624 -0.3511
12106SOL    HW137931   0.275   1.395   0.411  0.7559 -0.3165  1.0084
12106SOL    HW237932   0.163   1.477   0.470 -0.2621 -0.7413 -0.2888
12107SOL     OW37933   8.589   7.497   5.927 -1.1532  0.0442  0.0415
12107SOL    HW137934   8.582   7.586   5.962 -2.5287 -0.0146 -0.0287
12107SOL    HW237935   8.555   7.441   5.996 -0.4761 -0.4264  0.0053
12108SOL     OW37936   6.427   5.865   7.572 -0.2028  0.3461 -0.0862
12108SOL    HW137937   6.451   5.952   7.542  1.4688 -0.3342 -0.7930
12108SOL    HW237938   6.447   5.866   7.666  1.0000  0.3343 -0.3369
12109SOL     OW37939   4.919   8.959   1.466 -0.6762 -0.4704  0.7382
12109SOL    HW137940   4.828   8.960   1.436 -1.0651 -0.3411  1.8893
12109SOL    HW237941   4.921   9.021   1.539  0.8383  1.1674 -0.6190
12110SOL     OW37942   8.578   7.288   0.992 -0.1701 -0.0019 -0.0023
12110SOL    HW137943   8.630   7.299   0.912 -2.2900 -1.2833 -1.6627
12110SOL    HW237944   8.491   7.320   0.968 -0.7848 -0.1127  1.9282
12111SOL     OW37945   1.082   1.195   8.291  0.3587  0.5130 -0.1551
12111SOL    HW137946   0.997   1.192   8.248  0.3455 -0.4581 -0.0797
12111SOL    HW237947   1.080   1.121   8.352  1.4633  0.1453 -0.5484
12112SOL     OW37948   1.291   0.695   1.983 -0.2986 -0.2425  0.3838
12112SOL    HW137949   1.349   0.749   2.035 -1.7949 -0.2367  2.1550
12112SOL    HW237950   1.204   0.733   1.996 -1.1644 -2.1251  0.4400
12113SOL     OW37951   1.424   5.864   3.206  0.2874  0.3118  0.9853
12113SOL    HW137952   1.393   5.845   3.295  1.9819  0.9244  1.7478
12113SOL    HW237953   1.406   5.957   3.194 -0.3070  0.1426  0.5136
12114SOL     OW37954   8.164   9.703   8.040  0.4804 -0.3635 -0.0373
12114SOL    HW137955   8.176   9.672   8.129  2.4632  1.2194  0.3214
12114SOL    HW237956   8.104   9.777   8.048  1.6950  0.6186  0.2077
12115SOL     OW37957   5.376   2.461   8.606 -0.0930 -0.2092  0.1062
12115SOL    HW137958   5.471   2.444   8.612  0.3836  2.2829  0.6400
12115SOL    HW237959   5.363   2.490   8.516 -0.3150 -0.3009  0.1094
12116SOL     OW37960   8.122   5.664   7.920 -0.2383 -0.1122  0.3771
12116SOL    HW137961   8.146   5.655   8.013 -0.2939 -1.5483  0.2828
12116SOL    HW237962   8.026   5.667   7.921 -0.2111  1.0995  0.4365
12117SOL     OW37963   7.599   2.894   2.724 -0.4648 -0.3101 -0.2200
12117SOL    HW137964   7.623   2.884   2.816  0.5648 -0.6861 -0.5042
12117SOL    HW237965   7.549   2.975   2.720 -0.5532 -0.3080  0.6684
12118SOL     OW37966   0.778   8.083   0.210  0.1038  0.2163  0.5317
12118SOL    HW137967   0.700   8.080   0.154 -0.6303  3.0785  1.2645
12118SOL    HW237968   0.852   8.079   0.149 -0.6167 -0.2811 -0.3333
12119SOL     OW37969   0.300   4.804   9.693  0.3398  0.0842  0.4857
12119SOL    HW137970   0.383   4.835   9.728  0.3336  0.9308 -0.1968
12119SOL    HW237971   0.234   4.855   9.740  0.3003  0.7154 -0.2332
12120SOL     OW37972   4.240   7.535   4.040  0.0376  0.7912  0.1050
12120SOL    HW137973   4.312   7.570   3.988  0.0153 -0.3395 -0.7014
12120SOL    HW237974   4.279   7.463   4.090 -0.2908  0.8915  0.5110
12121SOL     OW37975   4.179   3.740   9.093 -0.0839  0.1376 -0.5880
12121SOL    HW137976   4.138   3.714   9.010  0.3802 -2.0829 -0.1917
12121SOL    HW237977   4.185   3.658   9.143 -0.0159  1.3533  1.4994
12122SOL     OW37978   4.712   5.806   3.605 -0.1478  0.5321 -0.2154
12122SOL    HW137979   4.675   5.814   3.693 -2.8551 -0.0621 -1.2283
12122SOL    HW237980   4.777   5.736   3.613 -1.7257 -0.8725  0.9185
12123SOL     OW37981   3.360   3.516   5.620  0.0288 -0.0947  0.5474
12123SOL    HW137982   3.281   3.464   5.602  0.6788 -0.3209 -1.9968
12123SOL    HW237983   3.326   3.596   5.660 -1.4844 -0.3255 -0.1754
12124SOL     OW37984   2.280   4.846   1.329 -0.3303  0.7648  0.5176
12124SOL    HW137985   2.189   4.821   1.320  0.1179 -0.2693 -1.9557
12124SOL    HW237986   2.329   4.764   1.321  0.8990  1.5620 -0.6507
12125SOL     OW37987   3.448   8.205   0.487 -0.1039  0.4021  0.2723
12125SOL    HW137988   3.524   8.236   0.538 -0.6337  3.3637 -0.5314
12125SOL    HW237989   3.448   8.259   0.409 -2.5606 -0.1165 -0.1687
12126SOL     OW37990   6.582   3.018   4.764  0.0508 -0.1506  0.0433
12126SOL    HW137991   6.489   3.031   4.745  0.1101  0.5691  0.1953
12126SOL    HW237992   6.623   3.100   4.735  0.2576  0.6819  2.4642
12127SOL     OW37993   3.627   9.535   6.540  0.4445  0.3252 -0.2791
12127SOL    HW137994   3.689   9.464   6.523 -0.3002 -0.3358 -0.3275
12127SOL    HW237995   3.634   9.550   6.634  1.1394  0.7021 -0.3868
12128SOL     OW37996   5.043   2.926   2.151 -0.0247 -0.0378  0.1074
12128SOL    HW137997   5.061   2.975   2.071 -0.8108 -1.4488 -0.9874
12128SOL    HW237998   5.112   2.951   2.211  0.6652  0.9583 -1.0620
12129SOL     OW37999   7.980   8.415   2.162  0.3673  0.3295  0.0154
12129SOL    HW138000   7.909   8.433   2.101  0.7033  1.3296 -0.0991
12129SOL    HW238001   7.961   8.328   2.197 -0.3052  0.1220 -0.8476
12130SOL     OW38002   4.887   3.365   1.836 -0.3411  0.4755  0.1561
12130SOL    HW138003   4.806   3.324   1.808 -0.1203  0.9460 -1.2447
12130SOL    HW238004   4.927   3.398   1.755  0.9858  0.7143  0.8779
12131SOL     OW38005   7.903   0.450   1.316 -0.5829  0.6215  0.1247
12131SOL    HW138006   7.845   0.405   1.377 -0.1837  0.1085  0.1357
12131SOL    HW238007   7.991   0.427   1.346 -0.3561 -0.5812 -1.2934
12132SOL     OW38008   1.429   7.034   1.281  0.3023  0.0461  0.0244
12132SOL    HW138009   1.521   7.047   1.308 -0.0117  1.0442  0.6992
12132SOL    HW238010   1.407   6.947   1.313  0.5340  0.4383  1.3612
12133SOL     OW38011   2.352   6.649   4.709  0.0238 -0.2877  0.6521
12133SOL    HW138012   2.272   6.700   4.719  1.4804  2.3283 -0.1571
12133SOL    HW238013   2.411   6.682   4.777  1.4622  0.0758 -0.7185
12134SOL     OW38014   8.706   9.032   5.899 -0.0306 -0.6018  0.3575
12134SOL    HW138015   8.622   9.065   5.867  0.0216 -0.4216  0.4069
12134SOL    HW238016   8.743   8.984   5.825  1.2818  1.9725 -0.7629
12135SOL     OW38017   1.062   2.358   7.008  0.4940  0.0492  0.1262
12135SOL    HW138018   1.150   2.388   6.987  0.2107  0.2942 -0.7380
12135SOL    HW238019   1.074   2.269   7.040  1.0666  0.1432  0.1844
12136SOL     OW38020   9.387   3.707   2.784  0.6182 -0.1190 -0.3739
12136SOL    HW138021   9.299   3.715   2.820 -0.0853 -1.9900 -1.5259
12136SOL    HW238022   9.384   3.757   2.702  0.7599  0.1440 -0.2203
12137SOL     OW38023   8.516   0.389   9.577 -0.0959 -0.4809  0.0828
12137SOL    HW138024   8.458   0.461   9.602  0.1776  0.2061 -1.2036
12137SOL    HW238025   8.594   0.432   9.542 -0.2426 -1.3837 -1.4366
12138SOL     OW38026   0.848   5.143   4.143  0.2127 -0.2177 -0.2190
12138SOL    HW138027   0.867   5.192   4.223 -0.1064 -0.4240 -0.0157
12138SOL    HW238028   0.849   5.051   4.170 -0.0271 -0.2821 -0.4204
12139SOL     OW38029   5.684   9.367   2.572 -0.1718 -0.3560  0.1633
12139SOL    HW138030   5.750   9.431   2.599  0.0587 -1.4758  2.4415
12139SOL    HW238031   5.707   9.287   2.617 -2.8016 -0.9319  0.6695
12140SOL     OW38032   2.377   8.196   3.625 -0.6841  0.4288 -0.3356
12140SOL    HW138033   2.325   8.122   3.658  1.5158 -1.5968 -1.0985
12140SOL    HW238034   2.424   8.228   3.702  0.6099 -0.9739 -0.5041
12141SOL     OW38035   6.411   6.948   3.436 -0.4984  0.5700 -0.2913
12141SOL    HW138036   6.349   7.000   3.486 -0.9519  0.0065 -0.2530
12141SOL    HW238037   6.490   7.002   3.431 -0.2254  0.3964  1.5334
12142SOL     OW38038   2.576   3.790   6.272 -0.3123 -0.3730  0.2475
12142SOL    HW138039   2.665   3.757   6.258 -1.3666 -4.5234  1.6470
12142SOL    HW238040   2.560   3.778   6.365 -2.3876  0.0733  0.0045
12143SOL     OW38041   7.748   1.398   7.485 -0.2119  0.2817  0.0249
12143SOL    HW138042   7.719   1.483   7.451  1.5519  1.1180  0.5349
12143SOL    HW238043   7.694   1.334   7.437 -0.6925  1.6059 -1.2913
12144SOL     OW38044   6.032   0.680   2.267 -0.0367  0.2004  0.3053
12144SOL    HW138045   6.005   0.729   2.344 -0.1640  3.3629 -1.6131
12144SOL    HW238046   5.957   0.624   2.246 -0.6979  0.6484  1.4305
12145SOL     OW38047   7.305   0.574   8.899 -0.3438  0.3660 -0.8190
12145SOL    HW138048   7.279   0.647   8.955  0.8517 -0.6711  1.2019
12145SOL    HW238049   7.400   0.583   8.891 -0.1884 -0.9254 -0.5879
12146SOL     OW38050   5.630   3.712   2.989 -0.0279  0.4918 -0.1057
12146SOL    HW138051   5.561   3.764   3.029  1.8278  2.4606  0.7085
12146SOL    HW238052   5.624   3.627   3.032 -3.1624 -0.1133 -1.4916
12147SOL     OW38053   5.703   4.699   9.442  0.2428 -0.3318  0.4843
12147SOL    HW138054   5.668   4.634   9.502 -0.3056 -0.3359  0.1745
12147SOL    HW238055   5.797   4.698   9.456  0.6810 -3.4282 -1.6961
12148SOL     OW38056   9.396   8.971   6.660 -0.1722  0.1319 -0.0851
12148SOL    HW138057   9.397   8.879   6.637  1.9700 -0.1139  0.7906
12148SOL    HW238058   9.403   9.018   6.577 -1.7940 -0.4342 -0.5764
12149SOL     OW38059   4.909   2.838   5.564  0.2059 -0.3055 -0.1993
12149SOL    HW138060   4.976   2.906   5.563  2.3531 -2.1963  1.6176
12149SOL    HW238061   4.955   2.760   5.533 -2.1741 -0.9843 -2.2656
12150SOL     OW38062   7.200   6.654   9.232  0.0041 -0.1629 -0.4056
12150SOL    HW138063   7.260   6.613   9.170  3.5073 -0.9814  3.1157
12150SOL    HW238064   7.184   6.741   9.196  2.3553 -0.3542 -2.1620
12151SOL     OW38065   5.544   2.036   7.280 -0.0579 -0.4188  0.0524
12151SOL    HW138066   5.568   2.059   7.369 -1.4213 -2.0036  0.8821
12151SOL    HW238067   5.619   2.063   7.227  2.7746 -3.2493  2.2078
12152SOL     OW38068   7.220   9.807   1.671  0.3354 -0.5151  0.0196
12152SOL    HW138069   7.126   9.797   1.655 -0.1585  0.4280  2.0231
12152SOL    HW238070   7.247   9.876   1.611 -0.1238 -1.1374 -0.9298
12153SOL     OW38071   1.720   5.262   2.101  0.1797 -0.2605 -0.0597
12153SOL    HW138072   1.665   5.318   2.048  0.3093 -0.6687 -0.6425
12153SOL    HW238073   1.707   5.292   2.190 -0.3722  0.1586 -0.2783
12154SOL     OW38074   3.445   1.726   4.834  0.3026 -0.1358  0.3289
12154SOL    HW138075   3.437   1.757   4.744 -1.0150  1.6163  1.0056
12154SOL    HW238076   3.400   1.641   4.834 -0.9082  0.4801 -0.3755
12155SOL     OW38077   0.708   4.259   6.932  0.3123  0.0080 -0.5149
12155SOL    HW138078   0.635   4.273   6.992  0.3469  0.5258 -0.5827
12155SOL    HW238079   0.686   4.179   6.885 -0.7367  0.7119 -1.2824
12156SOL     OW38080   9.162   3.492   6.923  0.4535  0.9232  0.5223
12156SOL    HW138081   9.188   3.453   7.006 -0.7870  1.8455  1.3727
12156SOL    HW238082   9.214   3.572   6.917  1.5139  0.1980 -0.2497
12157SOL     OW38083   6.797   2.623   1.545  0.0458 -0.1249 -0.2799
12157SOL    HW138084   6.851   2.548   1.518  1.3480  0.6418  0.1257
12157SOL    HW238085   6.753   2.593   1.624  0.2547 -0.5842 -0.3297
12158SOL     OW38086   3.173   1.157   4.031 -0.3959  0.4551 -0.1848
12158SOL    HW138087   3.134   1.240   4.003 -3.5353 -1.3752 -1.8088
12158SOL    HW238088   3.238   1.137   3.963  0.7805  1.7588  0.5063
12159SOL     OW38089   6.618   0.450   5.828 -0.5160 -0.7797 -0.3180
12159SOL    HW138090   6.627   0.537   5.866 -1.4440 -0.5892 -0.4912
12159SOL    HW238091   6.669   0.393   5.884 -0.0874 -0.1617 -0.0669
12160SOL     OW38092   5.379   1.767   7.425  0.1677 -0.1920  0.0229
12160SOL    HW138093   5.394   1.709   7.500 -0.1648 -0.6151 -0.2310
12160SOL    HW238094   5.467   1.791   7.396  0.2974  0.4746  0.9153
12161SOL     OW38095   8.109   4.775   6.820  0.4151 -0.3531 -0.2950
12161SOL    HW138096   8.106   4.838   6.749 -0.5130  0.9976  0.9043
12161SOL    HW238097   8.157   4.819   6.890 -2.7097  0.2748  1.6396
12162SOL     OW38098   8.475   8.466   5.216  0.3010 -0.5538 -0.0224
12162SOL    HW138099   8.470   8.541   5.157  1.6208 -0.7176 -0.3749
12162SOL    HW238100   8.514   8.502   5.296 -1.6419 -0.2922  0.8552
12163SOL     OW38101   7.074   1.925   6.712  0.0573 -0.5672  0.1695
12163SOL    HW138102   7.076   1.943   6.806  1.1707  0.2163  0.0211
12163SOL    HW238103   7.008   1.857   6.702  0.2787 -1.0272  1.5882
12164SOL     OW38104   1.222   7.984   7.185 -0.8021  0.0216  0.2165
12164SOL    HW138105   1.250   7.937   7.107  0.3872 -0.3172  0.8279
12164SOL    HW238106   1.257   8.072   7.174  0.7252 -0.4522  1.0652
12165SOL     OW38107   6.882   9.531   9.391 -0.2966  0.2332  0.1406
12165SOL    HW138108   6.901   9.542   9.484  0.8287  1.4812 -0.2050
12165SOL    HW238109   6.862   9.620   9.360 -1.9735 -0.3359 -0.5552
12166SOL     OW38110   8.735   8.302   7.117 -0.5113 -0.2090 -0.4425
12166SOL    HW138111   8.760   8.340   7.201  0.1876  0.1590 -0.8118
12166SOL    HW238112   8.759   8.369   7.052 -0.0772 -0.9138 -1.0247
12167SOL     OW38113   8.069   5.923   0.502 -0.1320  0.3997  0.0705
12167SOL    HW138114   8.015   5.912   0.580 -1.4153  0.3565 -0.7855
12167SOL    HW238115   8.042   5.852   0.444  1.1751  0.1122 -0.2194
12168SOL     OW38116   4.717   4.668   3.465 -0.7435 -0.2916  0.0484
12168SOL    HW138117   4.631   4.669   3.507  0.3854  0.9131  2.5139
12168SOL    HW238118   4.748   4.758   3.469  0.1081 -0.4130 -2.1031
12169SOL     OW38119   2.707   6.715   6.813  0.2186 -0.1378 -0.4179
12169SOL    HW138120   2.678   6.806   6.808 -1.1879 -0.3198  2.3546
12169SOL    HW238121   2.781   6.709   6.754 -0.4356  2.4835 -1.6150
12170SOL     OW38122   6.550   8.426   7.442  0.1138  0.0833 -0.1752
12170SOL    HW138123   6.552   8.331   7.443  0.2199  0.0863 -0.1006
12170SOL    HW238124   6.502   8.451   7.520 -0.8682  0.0666 -0.7615
12171SOL     OW38125   5.094   7.302   6.150 -0.2159  0.0730 -0.6515
12171SOL    HW138126   5.003   7.273   6.147  0.4446 -2.4228  0.4214
12171SOL    HW238127   5.123   7.279   6.238  1.4312  0.8996 -0.9427
12172SOL     OW38128   4.959   3.259   5.704  0.3966  0.1253  0.7709
12172SOL    HW138129   4.910   3.310   5.639  0.3158 -0.4730  0.3625
12172SOL    HW238130   4.892   3.211   5.752  0.4857  0.2946  1.0659
12173SOL     OW38131   0.290   2.555   0.364  0.5543 -0.3352  0.2164
12173SOL    HW138132   0.316   2.647   0.353  0.0322  0.0126  1.6219
12173SOL    HW238133   0.197   2.554   0.340  0.7955 -0.7178 -0.7544
12174SOL     OW38134   7.981   4.884   1.654 -0.7197  0.2609 -0.4933
12174SOL    HW138135   8.046   4.953   1.664 -0.5114  0.0007  0.0066
12174SOL    HW238136   7.937   4.903   1.571 -0.8079  1.1072 -0.2632
12175SOL     OW38137   8.265   3.132   1.501 -0.5364  0.1386  0.4063
12175SOL    HW138138   8.211   3.166   1.430  0.8807 -0.7745 -1.2038
12175SOL    HW238139   8.295   3.210   1.548  0.0893  0.9507 -1.2438
12176SOL     OW38140   8.680   0.735   4.596 -0.3608 -0.3712 -0.1950
12176SOL    HW138141   8.652   0.724   4.687 -0.3136 -0.9084 -0.2385
12176SOL    HW238142   8.707   0.826   4.590  1.1264 -0.7021  0.7513
12177SOL     OW38143   3.100   9.178   6.229  0.2339  0.1917 -0.6608
12177SOL    HW138144   3.071   9.089   6.247 -0.0699  0.5617  0.7491
12177SOL    HW238145   3.167   9.196   6.295  0.9906  0.6875 -1.5302
12178SOL     OW38146   0.139   8.136   6.203 -0.4153  0.5556  0.4007
12178SOL    HW138147   0.082   8.192   6.150 -0.4227 -0.2780 -0.5028
12178SOL    HW238148   0.098   8.050   6.200 -1.0707  0.7067  2.7949
12179SOL     OW38149   5.967   5.070   7.482 -0.3672  0.5946  0.7901
12179SOL    HW138150   6.001   5.157   7.463  0.2378  0.3180  0.5488
12179SOL    HW238151   6.003   5.015   7.412 -0.6407  0.1312  1.0086
12180SOL     OW38152   5.602   5.570   1.079 -0.1098 -0.6128 -0.3965
12180SOL    HW138153   5.597   5.588   1.173 -1.4540 -1.0120 -0.3685
12180SOL    HW238154   5.562   5.646   1.038  0.5851 -0.3861 -0.6533
12181SOL     OW38155   7.733   6.821   5.127  0.2741  0.5999  0.4352
12181SOL    HW138156   7.652   6.812   5.077  0.0207 -0.3038  0.9964
12181SOL    HW238157   7.801   6.836   5.061 -0.0752 -0.4518 -0.1847
12182SOL     OW38158   4.121   1.676   1.995  0.1992 -0.2672  0.1668
12182SOL    HW138159   4.137   1.711   2.082 -3.4201  0.4885  0.6892
12182SOL    HW238160   4.174   1.596   1.991  0.9131 -0.0186  2.7995
12183SOL     OW38161   5.156   2.750   5.352 -0.3628 -0.4749 -0.7818
12183SOL    HW138162   5.083   2.693   5.328 -0.0441 -1.3040  0.1335
12183SOL    HW238163   5.180   2.794   5.270 -0.6938 -1.5751 -1.4918
12184SOL     OW38164   9.770   5.792   8.328 -0.2705 -0.3195  0.4610
12184SOL    HW138165   9.740   5.883   8.328  1.4056  0.2800  0.6859
12184SOL    HW238166   9.752   5.760   8.240 -2.3756 -0.3267  0.8560
12185SOL     OW38167   1.134   9.547   8.238  0.1415 -0.1490 -0.0694
12185SOL    HW138168   1.149   9.562   8.144 -0.6355 -0.7354 -0.2919
12185SOL    HW238169   1.074   9.617   8.264 -1.2374 -1.1566 -0.4715
12186SOL     OW38170   9.442   1.663   3.122  0.3368 -0.4275  0.0212
12186SOL    HW138171   9.356   1.704   3.109  0.2983 -0.7907 -1.0358
12186SOL    HW238172   9.463   1.678   3.214 -0.3727  0.6062  0.0268
12187SOL     OW38173   0.759   8.981   8.602  0.3228  0.4067  0.5462
12187SOL    HW138174   0.714   8.897   8.607 -0.1340  0.6453  0.5284
12187SOL    HW238175   0.852   8.959   8.598  0.1662 -0.1396 -0.4990
12188SOL     OW38176   2.934   1.824   0.150 -0.4612  0.1544 -0.6520
12188SOL    HW138177   2.916   1.894   0.088  0.2054  0.5877 -0.3587
12188SOL    HW238178   3.020   1.791   0.125  0.1586  0.8401  0.4990
12189SOL     OW38179   0.418   1.154   8.742 -0.0964 -0.0278 -0.3621
12189SOL    HW138180   0.437   1.180   8.652  0.8211  0.8669  0.0660
12189SOL    HW238181   0.480   1.083   8.761  0.8574  0.8957  0.0771
12190SOL     OW38182   2.123   6.807   0.305  0.5894 -0.0943 -0.2898
12190SOL    HW138183   2.063   6.838   0.372 -0.5658  1.0689 -1.7919
12190SOL    HW238184   2.171   6.735   0.346 -0.0386  0.6083  1.7598
12191SOL     OW38185   3.238   5.574   7.532  0.2373  0.4156  0.3057
12191SOL    HW138186   3.203   5.652   7.575  0.9353  0.8865  0.0344
12191SOL    HW238187   3.228   5.592   7.438  0.0413  0.0070  0.2459
12192SOL     OW38188   5.209   0.916   3.726  0.2763  0.0899 -0.2945
12192SOL    HW138189   5.195   0.963   3.808 -0.7264  1.4585 -1.2082
12192SOL    HW238190   5.303   0.902   3.722  0.4541  0.9543  0.5935
12193SOL     OW38191   5.590   6.297   8.401 -0.0128 -0.3179 -0.3308
12193SOL    HW138192   5.679   6.262   8.409 -0.3399 -0.9076  1.2649
12193SOL    HW238193   5.561   6.269   8.314  0.9765 -1.0849 -0.4372
12194SOL     OW38194   7.941   1.462   0.034  0.7814 -0.0888 -0.2538
12194SOL    HW138195   7.849   1.482   0.049  0.8427  0.0725 -0.0858
12194SOL    HW238196   7.948   1.367   0.050  0.8092  0.0448  0.5824
12195SOL     OW38197   9.707   4.259   3.522 -0.0434  0.0166  0.0904
12195SOL    HW138198   9.686   4.271   3.615 -0.8877  1.0090 -0.2062
12195SOL    HW238199   9.722   4.348   3.490  1.0595 -0.3842 -0.5453
12196SOL     OW38200   5.931   1.002   8.866 -0.0329  0.2760  0.2919
12196SOL    HW138201   6.001   0.973   8.808 -0.9520 -0.1828 -0.6165
12196SOL    HW238202   5.972   1.005   8.953  1.4985  1.4353 -0.4244
12197SOL     OW38203   4.841   2.288   1.603  0.7418 -0.3582  0.0961
12197SOL    HW138204   4.758   2.336   1.590  1.7522  1.4845  0.0356
12197SOL    HW238205   4.846   2.228   1.529 -0.8683 -1.0432  0.4920
12198SOL     OW38206   5.736   9.043   0.137 -0.2246  0.3909  0.2344
12198SOL    HW138207   5.667   8.984   0.108  0.8902 -0.0695 -1.6733
12198SOL    HW238208   5.712   9.128   0.099 -0.1471  0.3982  0.2006
12199SOL     OW38209   2.061   7.507   2.591  0.3611 -0.0165  0.3744
12199SOL    HW138210   1.986   7.549   2.633  0.8144  0.2152  0.9667
12199SOL    HW238211   2.061   7.418   2.625 -0.2150 -0.3178 -0.3814
12200SOL     OW38212   3.784   9.175   1.284 -0.4042  0.0546  0.3606
12200SOL    HW138213   3.842   9.159   1.358 -0.7142 -1.8437  0.2350
12200SOL    HW238214   3.840   9.162   1.207 -1.1027 -2.8308  0.2081
12201SOL     OW38215   0.688   9.837   4.722  0.7997 -0.0856 -0.5818
12201SOL    HW138216   0.618   9.871   4.666  1.7786  0.8641 -1.2636
12201SOL    HW238217   0.767   9.878   4.688  1.8327 -1.8637 -0.4409
12202SOL     OW38218   7.431   7.267   5.171 -0.2532  0.7658  0.3974
12202SOL    HW138219   7.433   7.177   5.201  0.1909  0.3561 -0.7966
12202SOL    HW238220   7.445   7.261   5.076 -1.5670  1.9801  0.0799
12203SOL     OW38221   3.544   4.348   2.264  0.0382  0.8318 -0.3282
12203SOL    HW138222   3.507   4.423   2.217 -0.2357  0.7241 -0.2878
12203SOL    HW238223   3.588   4.296   2.197  0.8310  1.3871 -0.2487
12204SOL     OW38224   8.992   7.680   6.133  0.3640  0.1713  0.3679
12204SOL    HW138225   8.936   7.735   6.079  0.3678  1.2591  1.4212
12204SOL    HW238226   8.940   7.661   6.211  1.1929  0.6629  1.0678
12205SOL     OW38227   1.189   7.904   4.925 -0.4159  0.4041 -0.4164
12205SOL    HW138228   1.190   7.847   4.848  0.6173 -0.9714  0.5643
12205SOL    HW238229   1.222   7.988   4.892  0.3238 -0.2537 -1.4209
12206SOL     OW38230   4.314   4.496   8.543 -0.2914 -0.4607  1.1766
12206SOL    HW138231   4.307   4.552   8.465  0.8763 -0.7183  0.8606
12206SOL    HW238232   4.291   4.554   8.616 -2.9576 -0.6223  0.5461
12207SOL     OW38233   9.777   1.108   3.788 -0.2078  0.4158 -0.1496
12207SOL    HW138234   9.838   1.039   3.814  0.2152  1.3019  1.3099
12207SOL    HW238235   9.831   1.186   3.776 -0.7022  0.5690 -1.6249
12208SOL     OW38236   1.539   4.559   5.471 -0.2082 -0.3975 -0.5360
12208SOL    HW138237   1.580   4.501   5.406  0.8474  2.3452 -2.4728
12208SOL    HW238238   1.501   4.630   5.420 -0.4594  1.2594  1.7804
12209SOL     OW38239   1.050   5.159   1.875  0.0664  0.3541 -0.3083
12209SOL    HW138240   1.135   5.149   1.916  0.1501  1.0158 -0.3066
12209SOL    HW238241   0.989   5.114   1.933  0.6022 -1.4189 -1.0630
12210SOL     OW38242   9.191   2.041   8.616 -0.0704 -0.3316 -0.1849
12210SOL    HW138243   9.274   1.992   8.613 -0.4778 -1.0307 -0.3373
12210SOL    HW238244   9.129   1.985   8.570 -1.0501 -0.6654  1.4514
12211SOL     OW38245   9.483   0.553   4.502 -0.2873 -0.0978 -0.0189
12211SOL    HW138246   9.561   0.583   4.456 -0.4440  0.6847  0.2199
12211SOL    HW238247   9.511   0.473   4.548  0.0146 -0.5708 -1.0051
12212SOL     OW38248   3.073   8.106   7.811  0.3586 -0.1954  0.1892
12212SOL    HW138249   3.151   8.157   7.789  0.6627 -0.5927  0.3244
12212SOL    HW238250   3.106   8.017   7.825 -0.0390 -0.2593  0.7727
12213SOL     OW38251   5.725   6.236   4.645  0.1174 -0.3154  0.2960
12213SOL    HW138252   5.635   6.255   4.619  1.0780 -1.0939 -4.7310
12213SOL    HW238253   5.761   6.320   4.672 -1.4137  0.5605 -0.2866
12214SOL     OW38254   4.664   2.686   9.572  0.1465  0.2135 -0.6384
12214SOL    HW138255   4.606   2.709   9.499 -2.5002 -0.2530  1.1764
12214SOL    HW238256   4.628   2.604   9.606  1.7257  0.0571  0.7873
12215SOL     OW38257   4.168   7.687   8.797  0.2256  0.3386 -0.4958
12215SOL    HW138258   4.249   7.676   8.848  0.5917  0.8116 -0.9689
12215SOL    HW238259   4.173   7.619   8.730 -0.2979 -0.3407  0.1405
12216SOL     OW38260   9.573   1.945   0.424  0.3494 -0.0463 -0.3075
12216SOL    HW138261   9.547   1.858   0.395  1.4587 -0.4514 -0.1234
12216SOL    HW238262   9.502   1.973   0.482  0.5157 -1.2873  0.5162
12217SOL     OW38263   8.283   1.480   5.733  0.0688  0.0788  0.3535
12217SOL    HW138264   8.374   1.472   5.762  0.1122 -1.3466 -0.0924
12217SOL    HW238265   8.264   1.397   5.689 -0.9044  1.0211 -1.1087
12218SOL     OW38266   8.610   4.444   8.262 -0.5412  0.6481  0.2770
12218SOL    HW138267   8.661   4.364   8.272  1.0966  1.7790  1.6740
12218SOL    HW238268   8.624   4.470   8.171 -0.7255 -0.4033 -0.0585
12219SOL     OW38269   4.304   3.084   0.846 -0.2666  0.2603  0.0937
12219SOL    HW138270   4.239   3.147   0.877 -1.3517 -0.7151 -0.1591
12219SOL    HW238271   4.387   3.132   0.851 -1.1808  2.1215 -1.2078
12220SOL     OW38272   4.827   3.152   7.115  0.2693 -0.0119 -0.1588
12220SOL    HW138273   4.769   3.203   7.171 -0.4391 -0.0220 -0.8666
12220SOL    HW238274   4.877   3.217   7.066  1.5828  0.0103  1.1438
12221SOL     OW38275   6.966   8.498   7.047 -0.3752 -0.0405 -0.5529
12221SOL    HW138276   6.947   8.591   7.033 -1.5697 -0.2823 -0.5867
12221SOL    HW238277   7.015   8.472   6.969  0.0959  0.5849 -0.4791
12222SOL     OW38278   1.533   5.185   8.916  0.3925  0.0841  0.5961
12222SOL    HW138279   1.451   5.137   8.899  0.7352 -0.9809  1.7701
12222SOL    HW238280   1.568   5.204   8.829 -0.0537 -1.3278  0.0763
12223SOL     OW38281   8.417   4.391   7.613  0.1059  0.3284 -0.1958
12223SOL    HW138282   8.499   4.374   7.660 -1.1201 -0.7060  1.7091
12223SOL    HW238283   8.358   4.423   7.680 -1.0467  1.1305 -1.5605
12224SOL     OW38284   2.918   2.703   9.339  0.0335 -0.2846 -0.1582
12224SOL    HW138285   3.010   2.685   9.357  0.6059  1.2853 -1.3065
12224SOL    HW238286   2.899   2.653   9.260  0.1460  0.0557 -0.4014
12225SOL     OW38287   9.751   3.498   5.096 -0.1687  0.2886  0.3975
12225SOL    HW138288   9.786   3.573   5.143 -0.0870 -1.0969  2.6771
12225SOL    HW238289   9.807   3.425   5.121  1.1087 -0.2927 -3.4221
12226SOL     OW38290   4.675   2.088   2.765  0.3119  0.0880 -0.4718
12226SOL    HW138291   4.648   2.180   2.765 -0.3335 -0.0916  0.1273
12226SOL    HW238292   4.616   2.046   2.702  0.1500 -0.0418 -0.2336
12227SOL     OW38293   1.853   7.519   3.152  0.1792 -0.2913  0.5573
12227SOL    HW138294   1.923   7.455   3.140  0.4337  0.2136 -0.8896
12227SOL    HW238295   1.879   7.568   3.230  1.6494  0.0821 -0.1106
12228SOL     OW38296   1.962   2.215   9.049  0.3587 -0.1376 -0.7489
12228SOL    HW138297   2.052   2.242   9.063  0.8967 -1.4319 -1.5143
12228SOL    HW238298   1.930   2.273   8.979  0.0667  1.3491  0.5753
12229SOL     OW38299   8.457   0.705   2.293  0.1281 -0.1284  0.0267
12229SOL    HW138300   8.521   0.776   2.299  0.2974 -0.2274 -0.6024
12229SOL    HW238301   8.502   0.629   2.330 -0.2692  0.2157  1.2985
12230SOL     OW38302   8.935   6.203   3.744  0.0209 -0.3251  0.2178
12230SOL    HW138303   8.881   6.234   3.816  0.9575 -1.5051  1.4770
12230SOL    HW238304   8.972   6.282   3.706 -2.1240  0.4834 -0.3605
12231SOL     OW38305   3.621   7.555   7.654 -0.0662  0.4796  0.0624
12231SOL    HW138306   3.606   7.498   7.578 -1.2107  0.2902  0.3984
12231SOL    HW238307   3.655   7.636   7.617  2.2673 -0.6142 -0.3685
12232SOL     OW38308   7.830   6.478   0.035 -0.2284  0.8299 -0.3339
12232SOL    HW138309   7.803   6.408  -0.026  3.0407 -0.4560 -0.5421
12232SOL    HW238310   7.838   6.434   0.119 -2.0942  1.9928  0.5117
12233SOL     OW38311   3.271   6.218   5.006 -0.0447  0.5644  0.2399
12233SOL    HW138312   3.204   6.214   5.074 -0.2287  3.1198  0.3126
12233SOL    HW238313   3.323   6.296   5.027  2.6265 -0.9577 -0.1685
12234SOL     OW38314   6.175   4.337   0.423 -0.1259  0.1800  0.3372
12234SOL    HW138315   6.231   4.408   0.393 -1.4068  0.5596 -1.3643
12234SOL    HW238316   6.119   4.376   0.490 -0.4788  0.6602 -0.2278
12235SOL     OW38317   1.941   6.458   8.911 -0.1168 -0.3156  0.2487
12235SOL    HW138318   1.913   6.420   8.828 -1.3180 -1.2453  1.0542
12235SOL    HW238319   1.944   6.384   8.971 -1.4303  0.6779  1.5880
12236SOL     OW38320   5.446   4.560   1.572  0.3297 -0.5279  0.0578
12236SOL    HW138321   5.469   4.524   1.486 -0.1444 -0.8098  0.0503
12236SOL    HW238322   5.388   4.633   1.552  0.6809 -0.2334  0.1116
12237SOL     OW38323   6.815   8.929   4.667  0.5386  0.5929 -0.0537
12237SOL    HW138324   6.768   8.848   4.688 -4.1740  2.8825 -0.2808
12237SOL    HW238325   6.833   8.921   4.573 -0.2357 -0.0911 -0.1686
12238SOL     OW38326   7.677   1.776   1.376  0.0970  0.1922 -0.0116
12238SOL    HW138327   7.638   1.766   1.463  0.7605  0.0628  0.2775
12238SOL    HW238328   7.675   1.688   1.339  1.8241 -0.2060  0.7550
12239SOL     OW38329   7.087   7.502   2.852 -0.0994  0.3580  0.1836
12239SOL    HW138330   7.086   7.460   2.766 -0.4292  1.4602 -0.3704
12239SOL    HW238331   6.999   7.488   2.887 -0.1950  0.5266  0.0171
12240SOL     OW38332   7.818   5.623   9.202  0.3387  0.1748  0.2224
12240SOL    HW138333   7.750   5.685   9.227  0.1654  0.7309 -1.5179
12240SOL    HW238334   7.813   5.554   9.268  0.0638  1.6337  1.7997
12241SOL     OW38335   3.977   4.385   5.369 -0.2126  0.3060  0.2835
12241SOL    HW138336   3.965   4.295   5.338 -0.6976  0.4130  0.1414
12241SOL    HW238337   3.910   4.435   5.322  0.4523  0.8527 -0.1030
12242SOL     OW38338   1.547   0.947   2.345  0.2314 -0.3992  0.0165
12242SOL    HW138339   1.633   0.917   2.374  0.3678 -0.4998 -0.4802
12242SOL    HW238340   1.526   1.020   2.402  0.6800 -0.3278  0.0897
12243SOL     OW38341   4.736   3.196   3.877  0.6173  0.1860  0.2841
12243SOL    HW138342   4.652   3.193   3.922  0.3266  0.4989 -0.2303
12243SOL    HW238343   4.737   3.118   3.823  1.8948 -1.3886  2.4142
12244SOL     OW38344   7.110   1.601   4.787  0.4437 -0.0514 -0.6150
12244SOL    HW138345   7.138   1.690   4.806  0.1422  0.2624 -1.6013
12244SOL    HW238346   7.146   1.583   4.700 -0.1835 -0.5991 -0.7661
12245SOL     OW38347   9.454   8.664   3.531  0.5105 -0.3693  0.1053
12245SOL    HW138348   9.398   8.651   3.453  1.2130 -0.3362 -0.4127
12245SOL    HW238349   9.469   8.758   3.533  0.6063 -0.3869  0.2005
12246SOL     OW38350   0.205   9.605   8.312 -0.2516  0.0419  0.1077
12246SOL    HW138351   0.296   9.597   8.342 -0.2537 -0.0721  0.0855
12246SOL    HW238352   0.203   9.686   8.261 -0.3146  0.4008  0.6666
12247SOL     OW38353   6.142   2.230   6.509  0.1946 -0.3200  0.2461
12247SOL    HW138354   6.097   2.269   6.584 -0.4690 -1.7163  0.6066
12247SOL    HW238355   6.156   2.303   6.449 -1.8906  0.3208  0.4525
12248SOL     OW38356   9.279   2.115   2.540 -0.2845  0.3176  0.3222
12248SOL    HW138357   9.336   2.039   2.550 -1.6046 -0.8339 -0.4947
12248SOL    HW238358   9.200   2.081   2.498 -2.7176  1.2605  3.6589
12249SOL     OW38359   8.245   1.174   1.424  0.3270 -0.5189  0.1878
12249SOL    HW138360   8.302   1.165   1.348  1.1892 -1.5622  0.9233
12249SOL    HW238361   8.159   1.145   1.393  0.6291 -0.7643 -0.4321
12250SOL     OW38362   0.275   5.241   1.308  0.3505 -0.1439  0.9328
12250SOL    HW138363   0.348   5.214   1.251  1.5125  0.1092  2.2564
12250SOL    HW238364   0.294   5.332   1.331 -0.5270  0.0089  1.0950
12251SOL     OW38365   9.223   3.210   4.473  0.3974  0.0605 -0.1317
12251SOL    HW138366   9.208   3.231   4.565  0.0646  0.1998 -0.2179
12251SOL    HW238367   9.280   3.133   4.475  1.4697  0.8292  0.1831
12252SOL     OW38368   2.295   1.329   4.919  0.3037 -0.1165  0.6891
12252SOL    HW138369   2.380   1.354   4.956  0.3019  1.4628 -0.2404
12252SOL    HW238370   2.317   1.287   4.835  0.1900  0.8039  0.1772
12253SOL     OW38371   3.278   4.041   3.340  0.0103  0.0397  0.3353
12253SOL    HW138372   3.197   4.043   3.289  0.0417  0.8886  0.3084
12253SOL    HW238373   3.329   4.114   3.307  0.5792 -0.1870  0.6996
12254SOL     OW38374   0.952   6.410   3.776  0.0593  0.4576 -0.1893
12254SOL    HW138375   0.857   6.402   3.762  0.0396 -0.1536  0.2481
12254SOL    HW238376   0.979   6.480   3.717 -0.7604  1.0405  0.1052
12255SOL     OW38377   6.073   6.918   2.067 -0.3466  0.3073 -0.1889
12255SOL    HW138378   5.988   6.905   2.027  1.9059 -1.3264 -5.2149
12255SOL    HW238379   6.085   7.013   2.068 -0.8707  0.4792 -3.0417
12256SOL     OW38380   8.145   4.996   7.599 -0.1460  0.2451  0.3839
12256SOL    HW138381   8.224   4.951   7.630  1.3464  2.1327 -0.4524
12256SOL    HW238382   8.081   4.984   7.670  1.1347 -0.6828  1.4377
12257SOL     OW38383   2.582   6.186   5.755  0.2706 -0.0597 -0.3390
12257SOL    HW138384   2.537   6.102   5.756  1.7603 -0.8769 -0.0078
12257SOL    HW238385   2.610   6.198   5.664 -1.8284  1.1690 -0.8992
12258SOL     OW38386   2.607   1.429   6.815 -0.4579  0.0594  0.1173
12258SOL    HW138387   2.697   1.402   6.832 -0.1533  0.6429 -0.5478
12258SOL    HW238388   2.596   1.510   6.865 -0.9306 -0.5125  0.9760
12259SOL     OW38389   1.641   3.963   5.799  0.0929 -0.4954  0.5056
12259SOL    HW138390   1.566   3.910   5.825  0.4294  0.4643  3.9759
12259SOL    HW238391   1.685   3.911   5.732 -2.0614 -2.4267  0.4654
12260SOL     OW38392   5.980   9.589   8.492  0.1126  0.6557 -0.5466
12260SOL    HW138393   6.020   9.507   8.462 -2.1992  0.1189 -2.4443
12260SOL    HW238394   5.995   9.589   8.587 -1.6856 -3.1537 -0.0619
12261SOL     OW38395   2.390   9.634   8.509  0.0006  0.1108  0.1526
12261SOL    HW138396   2.407   9.644   8.416  0.2126  4.6405  0.4688
12261SOL    HW238397   2.295   9.627   8.516  0.0536 -1.9044 -0.3610
12262SOL     OW38398   2.711   5.271   1.012  0.1738  0.0568  0.0717
12262SOL    HW138399   2.734   5.178   1.009 -1.6162 -0.5151  1.7251
12262SOL    HW238400   2.770   5.308   1.077 -0.3710 -0.3801  0.8375
12263SOL     OW38401   4.451   1.258   0.606 -0.4065 -0.0670  0.2702
12263SOL    HW138402   4.430   1.347   0.635 -1.0166  0.5543 -1.9526
12263SOL    HW238403   4.393   1.242   0.532  0.4116 -1.9458 -0.0196
12264SOL     OW38404   0.885   4.841   3.774  0.2711  0.4452  0.5294
12264SOL    HW138405   0.824   4.788   3.722 -1.2484  1.1866  1.4989
12264SOL    HW238406   0.846   4.928   3.775  1.9173  1.2025  0.2932
12265SOL     OW38407   7.639   8.148   3.687  0.5752  0.1469 -0.2627
12265SOL    HW138408   7.560   8.171   3.736 -0.2115  1.0386 -1.8614
12265SOL    HW238409   7.626   8.187   3.600  2.4774 -0.2598 -0.7904
12266SOL     OW38410   8.959   2.962   8.727 -0.1146 -0.3456  0.1105
12266SOL    HW138411   9.004   3.035   8.770 -0.6206  0.2616 -0.3730
12266SOL    HW238412   8.976   2.887   8.784  3.1711 -0.6144 -0.9733
12267SOL     OW38413   3.184   4.265   1.683 -0.1119  0.2972 -0.2358
12267SOL    HW138414   3.213   4.242   1.594  1.4311 -0.7716  0.5137
12267SOL    HW238415   3.258   4.312   1.721  1.2899 -3.4110  2.0966
12268SOL     OW38416   8.516   3.689   4.066  0.1027  0.4158 -0.5643
12268SOL    HW138417   8.440   3.740   4.038 -0.9134 -1.1158 -0.7151
12268SOL    HW238418   8.582   3.754   4.090 -0.8972  1.7764 -1.3999
12269SOL     OW38419   4.882   9.260   9.005  0.3717  0.1702 -0.8539
12269SOL    HW138420   4.864   9.255   8.911 -0.3810 -0.1242 -0.7039
12269SOL    HW238421   4.964   9.309   9.012  0.9746 -0.7054 -1.7133
12270SOL     OW38422   5.649   8.547   3.921 -0.0136 -0.5052  0.5560
12270SOL    HW138423   5.696   8.631   3.926 -1.4971  0.3289  1.3044
12270SOL    HW238424   5.631   8.524   4.012 -1.8426 -0.2882  0.3018
12271SOL     OW38425   0.621   7.994   5.522  0.3658 -0.2409  0.4100
12271SOL    HW138426   0.575   7.913   5.544  0.5944 -0.1710  1.1482
12271SOL    HW238427   0.585   8.060   5.582 -0.6538  0.4914 -0.9392
12272SOL     OW38428   0.815   8.688   8.391  0.0084  0.3169 -0.8619
12272SOL    HW138429   0.892   8.654   8.437 -0.4059  0.5868  0.0728
12272SOL    HW238430   0.744   8.631   8.419 -0.2638  0.5120 -1.1526
12273SOL     OW38431   4.165   5.958   4.629  0.3700  0.3038  0.4682
12273SOL    HW138432   4.080   5.978   4.590 -0.3483  0.5275  2.0748
12273SOL    HW238433   4.225   6.020   4.588 -0.6244  1.4558  0.6839
12274SOL     OW38434   5.938   2.621   4.652 -0.5170  0.2750 -0.0983
12274SOL    HW138435   6.012   2.681   4.653 -1.5563  1.7053 -1.9975
12274SOL    HW238436   5.900   2.631   4.564 -1.2455 -2.5570 -0.2065
12275SOL     OW38437   2.450   2.701   2.400 -0.6856 -0.0689  0.3202
12275SOL    HW138438   2.410   2.715   2.314  0.1904  0.1774 -0.0543
12275SOL    HW238439   2.542   2.725   2.389 -0.4032 -0.6986  1.1444
12276SOL     OW38440   5.154   1.224   2.984 -0.4493  0.0677  0.0998
12276SOL    HW138441   5.140   1.145   3.037 -3.3508 -0.2497 -0.9470
12276SOL    HW238442   5.187   1.192   2.900  2.0183  0.3849  0.8707
12277SOL     OW38443   5.937   8.891   0.344  0.1075 -0.1045  0.2667
12277SOL    HW138444   5.863   8.951   0.337  0.8765  0.9748  0.9524
12277SOL    HW238445   5.984   8.901   0.262  0.3691  0.4478  0.4745
12278SOL     OW38446   3.307   1.147   4.745 -0.5154  0.9707  0.0935
12278SOL    HW138447   3.337   1.221   4.692 -1.4597  1.1034 -0.2841
12278SOL    HW238448   3.232   1.112   4.696 -1.9609  1.6288  1.7294
12279SOL     OW38449   3.357   0.334   3.721 -0.3122 -0.4234  0.7534
12279SOL    HW138450   3.299   0.293   3.657 -0.0849 -0.6599  0.6945
12279SOL    HW238451   3.303   0.341   3.800 -0.1816 -1.3973  0.9495
12280SOL     OW38452   6.327   0.531   9.773 -0.3944 -0.1363 -0.0523
12280SOL    HW138453   6.327   0.527   9.869 -2.2089  0.3951  0.0017
12280SOL    HW238454   6.295   0.619   9.753 -0.7264 -0.4898 -1.1363
12281SOL     OW38455   8.840   7.227   1.061  0.1327 -0.0484 -0.0905
12281SOL    HW138456   8.883   7.291   1.118 -0.7809  1.8076 -1.3838
12281SOL    HW238457   8.747   7.251   1.065 -0.1469 -0.8851 -1.1140
12282SOL     OW38458   1.594   0.429   4.464  0.8378 -0.3054 -0.0152
12282SOL    HW138459   1.538   0.356   4.438  0.0620  0.4232 -0.4680
12282SOL    HW238460   1.607   0.480   4.383  1.9837 -0.3424  0.1331
12283SOL     OW38461   2.465   4.903   6.703 -0.3092 -0.0144 -0.0428
12283SOL    HW138462   2.399   4.865   6.644  0.8820  0.5305 -1.8376
12283SOL    HW238463   2.548   4.872   6.668  0.4688  0.6169  1.1841
12284SOL     OW38464   8.689   4.585   2.275  0.4865 -0.2482  0.3220
12284SOL    HW138465   8.731   4.527   2.212  0.2549  0.7676 -0.8094
12284SOL    HW238466   8.752   4.657   2.287  0.5251 -0.4280  1.2473
12285SOL     OW38467   2.261   1.362   3.559  0.4946  0.1599 -0.1282
12285SOL    HW138468   2.257   1.274   3.594 -0.1817  0.6631  1.1176
12285SOL    HW238469   2.202   1.360   3.483  0.2618 -0.3859  0.0612
12286SOL     OW38470   6.849   0.103   4.618 -0.1332  0.5127 -1.0604
12286SOL    HW138471   6.807   0.187   4.632 -0.4154  0.4773 -1.6897
12286SOL    HW238472   6.786   0.038   4.650 -0.1432  0.5108 -1.0840
12287SOL     OW38473   7.216   5.822   8.346  0.0373 -0.0688  0.4934
12287SOL    HW138474   7.306   5.855   8.336 -0.2442  0.7028  0.4312
12287SOL    HW238475   7.227   5.737   8.388  0.8556 -0.4143 -0.3623
12288SOL     OW38476   2.802   1.355   3.339 -0.5589  0.2349  0.3663
12288SOL    HW138477   2.895   1.332   3.341 -0.5339  0.3468  0.5584
12288SOL    HW238478   2.781   1.376   3.430  0.3762  4.6008 -0.1609
12289SOL     OW38479   2.113   0.546   9.322 -0.5479  0.1730 -0.2704
12289SOL    HW138480   2.028   0.526   9.281 -0.2360  0.3291 -1.0167
12289SOL    HW238481   2.165   0.468   9.306 -0.8209 -0.2918  0.9840
12290SOL     OW38482   2.270   6.080   9.749 -0.4133  0.2447 -0.0415
12290SOL    HW138483   2.199   6.052   9.690 -0.6874  1.1349 -0.1433
12290SOL    HW238484   2.229   6.144   9.807 -0.3862 -1.3302  1.7871
12291SOL     OW38485   9.838   5.183   6.462 -0.3080  0.2491 -0.1221
12291SOL    HW138486   9.746   5.178   6.434 -0.3319  1.1399 -0.2175
12291SOL    HW238487   9.879   5.107   6.421 -0.9971 -0.1552 -0.0871
12292SOL     OW38488   6.498   5.418   9.652  0.0763  0.3573 -0.0456
12292SOL    HW138489   6.541   5.354   9.595 -0.7678 -0.3463  0.0856
12292SOL    HW238490   6.556   5.425   9.728  0.6993  0.5400 -0.5315
12293SOL     OW38491   5.916   7.561   0.496  0.0057 -0.0208 -0.0356
12293SOL    HW138492   5.965   7.479   0.507 -0.6290 -0.2937  0.8805
12293SOL    HW238493   5.971   7.627   0.539  0.4070 -0.0088 -0.5666
12294SOL     OW38494   4.693   4.338   7.271  0.0186 -0.1931 -0.2345
12294SOL    HW138495   4.614   4.284   7.264 -1.6629  2.1193 -0.2358
12294SOL    HW238496   4.661   4.424   7.298  2.6476  0.6414  0.4937
12295SOL     OW38497   9.085   2.868   2.928 -0.2808 -0.5778 -0.3065
12295SOL    HW138498   9.047   2.956   2.939  2.5564  0.6298  0.8279
12295SOL    HW238499   9.145   2.878   2.855  0.7052 -1.3349  0.3881
12296SOL     OW38500   5.740   4.843   5.531  0.5620  0.2166  0.0770
12296SOL    HW138501   5.822   4.795   5.520  0.4241 -0.0287  0.1196
12296SOL    HW238502   5.674   4.789   5.487  0.3462  0.1990  0.4176
12297SOL     OW38503   6.684   6.876   8.152 -0.3330  0.0963 -0.2164
12297SOL    HW138504   6.688   6.970   8.135 -0.3535  0.1237 -0.0724
12297SOL    HW238505   6.739   6.863   8.229 -0.1461 -0.0426 -0.3713
12298SOL     OW38506   1.212   9.730   7.840  0.4584 -0.2529  0.0815
12298SOL    HW138507   1.248   9.662   7.783  0.1096  0.4505 -1.0259
12298SOL    HW238508   1.150   9.685   7.896  0.6929 -0.9429 -0.2032
12299SOL     OW38509   3.492   2.454   5.784 -0.2600  0.7844 -0.0897
12299SOL    HW138510   3.438   2.465   5.863 -1.5658  1.0581 -0.9833
12299SOL    HW238511   3.557   2.389   5.809 -0.4500  1.0812  1.3070
12300SOL     OW38512   7.083   0.095   5.557  0.4461 -0.5064 -0.5689
12300SOL    HW138513   6.999   0.140   5.550  0.6172  0.5268  2.5002
12300SOL    HW238514   7.145   0.150   5.509  0.1940  1.3961  1.1432
12301SOL     OW38515   2.690   4.244   6.390 -0.3127 -0.1029 -0.1230
12301SOL    HW138516   2.595   4.249   6.375 -0.9831 -2.2473  2.6007
12301SOL    HW238517   2.713   4.155   6.365  1.0966  0.4700 -0.9857
12302SOL     OW38518   8.039   3.503   4.498 -0.1543 -0.0933  0.3826
12302SOL    HW138519   8.124   3.473   4.531 -2.0171 -3.0546  3.2327
12302SOL    HW238520   8.015   3.574   4.557  0.2574  0.6999 -0.3825
12303SOL     OW38521   4.326   7.109   2.093  0.0063 -0.0222 -0.6677
12303SOL    HW138522   4.350   7.114   2.000 -0.5021  0.3980 -0.7808
12303SOL    HW238523   4.237   7.144   2.096  0.0592  0.0605 -0.0030
12304SOL     OW38524   6.921   9.830   8.851  0.0929  0.2945  0.2859
12304SOL    HW138525   6.918   9.844   8.756  1.6349  2.1122  0.4362
12304SOL    HW238526   6.848   9.881   8.885 -0.6089 -0.5544  0.0795
12305SOL     OW38527   4.190   0.224   5.086  0.3895 -0.2108 -0.1016
12305SOL    HW138528   4.192   0.148   5.028 -1.3383 -0.3972  0.0096
12305SOL    HW238529   4.172   0.188   5.172  0.4866  0.2422  0.1121
12306SOL     OW38530   0.411   3.887   3.173  0.2146 -0.4628 -0.1214
12306SOL    HW138531   0.443   3.801   3.147  0.8807  0.2801 -1.8821
12306SOL    HW238532   0.383   3.876   3.264  2.0930 -2.0520  0.3168
12307SOL     OW38533   4.072   3.789   6.697  0.1273 -0.0190  0.1203
12307SOL    HW138534   3.989   3.784   6.743 -0.0443  0.2126 -0.1577
12307SOL    HW238535   4.065   3.868   6.644  1.5661  1.5735  2.1267
12308SOL     OW38536   6.073   5.781   5.085 -0.4864  0.2704  0.0992
12308SOL    HW138537   6.109   5.725   5.016 -2.1067 -0.1311 -0.4577
12308SOL    HW238538   6.093   5.735   5.167  0.3591  0.1310 -0.1823
12309SOL     OW38539   0.361   6.467   0.286 -0.0955  0.1247  0.8587
12309SOL    HW138540   0.290   6.521   0.322  2.0773  1.2150  4.0111
12309SOL    HW238541   0.426   6.530   0.254 -0.1849 -0.8335 -1.4065
12310SOL     OW38542   2.559   6.364   3.378 -0.0982  0.2185  0.0313
12310SOL    HW138543   2.487   6.400   3.430  0.3125 -0.6178  1.2204
12310SOL    HW238544   2.521   6.288   3.333  0.0976 -0.3674  0.8496
12311SOL     OW38545   4.831   5.059   0.608 -0.4644 -0.1172 -0.1377
12311SOL    HW138546   4.827   5.065   0.513 -2.4641 -0.2909 -0.1003
12311SOL    HW238547   4.740   5.058   0.636  0.0845  1.1118  1.8712
12312SOL     OW38548   9.182   0.262   1.180 -0.1104  0.1369  0.0558
12312SOL    HW138549   9.130   0.241   1.102  0.0950  1.6776 -0.5481
12312SOL    HW238550   9.130   0.329   1.225 -0.3150 -0.8762  1.3678
12313SOL     OW38551   4.417   9.666   9.636  0.1584 -0.1528  0.4519
12313SOL    HW138552   4.326   9.668   9.667  0.2847  1.7515  0.8368
12313SOL    HW238553   4.434   9.574   9.617 -1.1589 -0.8747  2.4276
12314SOL     OW38554   7.842   0.480   4.933 -0.0094 -0.0342 -0.2120
12314SOL    HW138555   7.909   0.424   4.974 -0.9880 -1.6514 -0.7245
12314SOL    HW238556   7.891   0.553   4.896  1.3934 -0.8027  0.0543
12315SOL     OW38557   2.171   0.807   3.652 -0.5326 -0.4422  0.3758
12315SOL    HW138558   2.076   0.803   3.646 -0.6801  1.9078  0.2196
12315SOL    HW238559   2.199   0.834   3.564  0.3283 -1.4179  0.3291
12316SOL     OW38560   4.937   1.433   4.177 -0.5343  1.0114 -0.2443
12316SOL    HW138561   4.843   1.446   4.186 -0.6948 -1.2541  3.1125
12316SOL    HW238562   4.976   1.503   4.230 -0.5371 -0.1509  1.3363
12317SOL     OW38563   2.935   0.819   5.562 -0.0780  0.0235 -0.1928
12317SOL    HW138564   2.957   0.843   5.652  1.6608 -0.7004 -0.3967
12317SOL    HW238565   2.863   0.878   5.539  0.8035  1.6222  0.9682
12318SOL     OW38566   2.824   2.957   2.830  0.4540  0.3114  0.0214
12318SOL    HW138567   2.735   2.922   2.828  0.4033  0.4180  0.4156
12318SOL    HW238568   2.841   2.974   2.922 -0.7820  4.5077 -0.3097
12319SOL     OW38569   8.322   5.042   2.596 -0.1187 -0.0477  0.7639
12319SOL    HW138570   8.262   5.039   2.670  0.3827  0.4711  1.2023
12319SOL    HW238571   8.267   5.064   2.521 -0.4684  0.4918  1.1706
12320SOL     OW38572   8.983   9.304   5.056  0.4857  0.4984  0.3877
12320SOL    HW138573   9.048   9.340   5.116  0.6027  0.3157  0.3691
12320SOL    HW238574   8.999   9.351   4.973 -0.2172  1.3579  0.7195
12321SOL     OW38575   3.850   4.634   6.147 -0.4772 -0.1359 -0.3913
12321SOL    HW138576   3.833   4.601   6.235  0.1138  1.3759  0.3226
12321SOL    HW238577   3.935   4.597   6.123 -1.1701 -1.5112 -0.8479
12322SOL     OW38578   8.046   9.252   5.245 -0.4880  0.0809  0.0142
12322SOL    HW138579   7.972   9.236   5.187 -1.2595  0.4472  0.8719
12322SOL    HW238580   8.062   9.346   5.238  0.4493 -0.1194 -0.7965
12323SOL     OW38581   5.580   4.362   8.714 -0.1754  0.2083  0.5992
12323SOL    HW138582   5.631   4.313   8.778 -0.3254 -1.0454 -0.2002
12323SOL    HW238583   5.489   4.340   8.734 -0.2750  0.5597  0.5422
12324SOL     OW38584   6.741   0.871   1.543  0.1705 -0.4032  0.5703
12324SOL    HW138585   6.757   0.788   1.588  2.8469  0.4303  1.3413
12324SOL    HW238586   6.661   0.905   1.583  0.4492 -1.4323  2.0871
12325SOL     OW38587   7.139   2.909   8.526  0.0952 -0.6590  0.3110
12325SOL    HW138588   7.072   2.842   8.512 -0.2305 -0.1451 -0.7308
12325SOL    HW238589   7.110   2.983   8.471  2.2398 -0.9572 -1.3540
12326SOL     OW38590   0.621   9.425   1.931  0.3664 -0.6548  0.2206
12326SOL    HW138591   0.681   9.468   1.991  0.2105 -0.3760  0.1773
12326SOL    HW238592   0.639   9.331   1.942  1.2621 -0.5501 -0.2741
12327SOL     OW38593   9.062   0.928   2.147  0.2442 -0.8421  0.5158
12327SOL    HW138594   9.091   0.880   2.069  0.8198 -1.4198  1.0708
12327SOL    HW238595   9.110   1.011   2.143  0.6769 -1.0891  0.5331
12328SOL     OW38596   4.224   7.803   2.810  0.3571 -0.3715  0.2325
12328SOL    HW138597   4.206   7.765   2.724 -0.3651 -0.5772  0.4663
12328SOL    HW238598   4.312   7.840   2.802  0.5349 -0.9112 -0.4098
12329SOL     OW38599   0.260   1.120   1.143  0.0900 -0.1308 -0.0715
12329SOL    HW138600   0.272   1.034   1.103 -0.2694  0.5849 -1.8250
12329SOL    HW238601   0.166   1.124   1.162  0.2028 -0.3439  0.5157
12330SOL     OW38602   2.317   2.338   7.079 -0.1273 -0.3829  0.4790
12330SOL    HW138603   2.241   2.388   7.110 -0.0014  0.4549 -0.5113
12330SOL    HW238604   2.286   2.248   7.076 -1.0004 -0.0911  0.3645
12331SOL     OW38605   4.458   1.750   0.864  0.4068  0.1436  0.4320
12331SOL    HW138606   4.533   1.691   0.850  2.0134  2.0597  0.6013
12331SOL    HW238607   4.495   1.826   0.909 -1.5799  1.3359  0.1549
12332SOL     OW38608   1.629   2.068   6.799 -0.6632  0.0481  0.2163
12332SOL    HW138609   1.717   2.053   6.765  0.3507  0.1704  2.5389
12332SOL    HW238610   1.627   2.162   6.817 -1.2585  0.0360  0.2060
12333SOL     OW38611   1.631   1.252   2.199 -0.2646  0.1069 -0.1418
12333SOL    HW138612   1.539   1.265   2.175 -0.7048  1.2756  1.9427
12333SOL    HW238613   1.678   1.322   2.155 -0.4168 -0.2031 -0.8194
12334SOL     OW38614   2.182   6.015   4.129 -0.1718 -0.0207  0.2258
12334SOL    HW138615   2.143   6.086   4.079 -0.8085 -0.5608 -0.0696
12334SOL    HW238616   2.261   5.990   4.081  0.3949  0.8821  0.6629
12335SOL     OW38617   1.037   5.305   6.516 -0.4615 -0.3706 -0.2666
12335SOL    HW138618   1.007   5.312   6.606 -2.7915 -0.7155 -0.9503
12335SOL    HW238619   1.090   5.225   6.514  0.2759  0.0640  0.9239
12336SOL     OW38620   0.914   4.184   7.397  0.4437  0.8477  0.0661
12336SOL    HW138621   0.863   4.264   7.409  0.9051  1.0942  0.3830
12336SOL    HW238622   0.958   4.196   7.313  1.4983  1.4740  0.6927
12337SOL     OW38623   5.974   7.742   0.241  0.4106  0.0793 -0.0139
12337SOL    HW138624   6.034   7.812   0.215 -0.2505  0.4862 -0.4785
12337SOL    HW238625   6.031   7.671   0.271  1.0971  0.7158  0.2150
12338SOL     OW38626   6.744   0.336   4.599  0.1036 -0.9065  0.0282
12338SOL    HW138627   6.804   0.411   4.592  1.2343 -1.8797 -1.3922
12338SOL    HW238628   6.672   0.368   4.653  0.1769  1.4536 -1.1333
12339SOL     OW38629   6.954   5.476   7.692 -0.4611  0.3118  0.1483
12339SOL    HW138630   6.895   5.415   7.649 -0.3234 -0.2615  0.7704
12339SOL    HW238631   6.968   5.546   7.627 -0.4773 -0.3977 -0.6262
12340SOL     OW38632   4.252   3.988   3.601  0.3160 -0.1909 -0.0870
12340SOL    HW138633   4.229   3.942   3.520  0.8976  0.4827 -0.6437
12340SOL    HW238634   4.338   3.951   3.625  0.8347  0.6622 -0.5942
12341SOL     OW38635   9.574   8.177   7.836 -0.6634 -0.6838  0.7330
12341SOL    HW138636   9.579   8.260   7.789  1.0122 -0.6007  1.0141
12341SOL    HW238637   9.492   8.138   7.806  0.0572 -0.3890 -1.8597
12342SOL     OW38638   3.651   3.199   2.962  0.1779 -0.1419  0.0855
12342SOL    HW138639   3.693   3.276   3.001 -0.9611  0.8023 -0.5012
12342SOL    HW238640   3.659   3.212   2.868  0.8786 -1.2713 -0.0270
12343SOL     OW38641   1.162   5.093   0.062  0.5723 -0.0352 -0.0405
12343SOL    HW138642   1.123   5.090   0.149  0.0302  1.6271 -0.1826
12343SOL    HW238643   1.112   5.029   0.011 -1.6546  1.5795 -0.0599
12344SOL     OW38644   3.502   6.370   1.253 -0.0869  0.6531  0.3780
12344SOL    HW138645   3.470   6.407   1.335 -1.3052  1.0549 -0.2580
12344SOL    HW238646   3.462   6.424   1.185 -1.6103 -1.5309 -0.5771
12345SOL     OW38647   3.130   2.080   3.627  0.5337 -0.2360  0.7932
12345SOL    HW138648   3.150   2.173   3.634 -1.0305  0.0988  1.3003
12345SOL    HW238649   3.109   2.053   3.717 -0.5508 -0.6805  0.4262
12346SOL     OW38650   8.807   0.111   5.215  0.4738  0.3998 -0.9199
12346SOL    HW138651   8.855   0.193   5.226  0.3786  0.2712  0.9075
12346SOL    HW238652   8.718   0.138   5.194  0.6030  0.7564 -1.0130
12347SOL     OW38653   3.979   3.468   9.787 -0.2397  0.5009  0.5422
12347SOL    HW138654   4.012   3.422   9.710 -0.0976  0.5839  0.5531
12347SOL    HW238655   3.989   3.405   9.859  0.1054  0.6052  0.5870
12348SOL     OW38656   2.861   9.161   1.974 -0.4086 -0.2971  0.0195
12348SOL    HW138657   2.866   9.255   1.990  1.2993 -0.3608  0.0032
12348SOL    HW238658   2.862   9.152   1.879  0.3561 -0.3624  0.0302
12349SOL     OW38659   8.804   8.384   1.027  0.0015 -0.2787 -0.5482
12349SOL    HW138660   8.814   8.374   0.932  0.3324 -1.0084 -0.4491
12349SOL    HW238661   8.718   8.348   1.046 -0.2022  0.1680 -0.6065
12350SOL     OW38662   8.561   6.642   7.776 -0.0627  0.6180 -0.2956
12350SOL    HW138663   8.477   6.681   7.797 -0.2352 -0.5531  1.4006
12350SOL    HW238664   8.625   6.698   7.821  0.1153  1.6095 -1.7283
12351SOL     OW38665   2.480   8.105   7.680 -0.0673  0.4505  0.1409
12351SOL    HW138666   2.453   8.103   7.771 -0.8665 -0.8155 -0.0871
12351SOL    HW238667   2.462   8.194   7.650 -0.9167  0.5355  0.8902
12352SOL     OW38668   0.014   7.986   9.615  0.4679  0.0085  0.1285
12352SOL    HW138669  -0.076   8.018   9.603  0.6497  1.2055  1.5951
12352SOL    HW238670   0.068   8.065   9.606  1.3033 -0.5669  0.0354
12353SOL     OW38671   1.818   7.528   2.299  0.3264 -0.6210  0.0774
12353SOL    HW138672   1.893   7.581   2.324  1.1895 -2.0000  0.5119
12353SOL    HW238673   1.759   7.533   2.375  0.5841 -0.5961  0.2791
12354SOL     OW38674   1.715   3.549   8.124  0.0260 -0.0843  0.3599
12354SOL    HW138675   1.792   3.601   8.145  1.1846 -0.9127 -1.5525
12354SOL    HW238676   1.704   3.490   8.198  3.0305 -1.9218 -0.4904
12355SOL     OW38677   1.265   3.592   3.289  0.1917  0.3197  0.6092
12355SOL    HW138678   1.301   3.552   3.368 -0.2549  0.3734  0.8473
12355SOL    HW238679   1.200   3.528   3.258 -0.0184  0.5377  0.5919
12356SOL     OW38680   1.546   9.753   4.419 -0.4108  0.0543 -0.2943
12356SOL    HW138681   1.593   9.800   4.350  0.8647 -0.0066  0.4818
12356SOL    HW238682   1.454   9.761   4.396 -0.0998  1.2511 -1.2342
12357SOL     OW38683   4.817   5.017   7.435 -0.0095  0.5172 -0.1554
12357SOL    HW138684   4.821   5.060   7.350  0.9969  2.5012  0.8229
12357SOL    HW238685   4.882   5.063   7.488 -1.7716  0.5050  2.1787
12358SOL     OW38686   3.910   5.474   6.300  0.3742  0.0498  0.4236
12358SOL    HW138687   3.971   5.424   6.354 -0.4880 -0.1070  1.2607
12358SOL    HW238688   3.824   5.440   6.322 -0.3032  2.1989  1.3818
12359SOL     OW38689   9.196   5.152   5.897  0.1238 -0.1616 -0.4136
12359SOL    HW138690   9.164   5.072   5.937  2.3785 -1.3927 -0.8760
12359SOL    HW238691   9.267   5.181   5.955 -0.0198  0.9819 -0.7740
12360SOL     OW38692   3.667   7.611   4.126 -0.2777 -0.1008 -0.7438
12360SOL    HW138693   3.706   7.695   4.149  1.7336 -1.1840  0.1490
12360SOL    HW238694   3.577   7.631   4.100 -0.4402  2.0831  1.2210
12361SOL     OW38695   8.724   1.996   6.248 -0.2781 -0.3852 -0.0158
12361SOL    HW138696   8.696   1.929   6.311  0.5981 -0.8112 -0.0620
12361SOL    HW238697   8.753   1.946   6.171 -1.1575  0.1241 -0.6892
12362SOL     OW38698   5.438   1.579   1.153  0.5782 -0.4773 -0.1546
12362SOL    HW138699   5.470   1.539   1.234 -1.1879 -0.0611  0.7959
12362SOL    HW238700   5.343   1.577   1.161  0.3731  0.2983 -1.8852
12363SOL     OW38701   1.937   4.669   9.838 -0.1490  0.1028 -0.1272
12363SOL    HW138702   2.007   4.605   9.824 -1.5714 -1.7079  0.4928
12363SOL    HW238703   1.861   4.630   9.794 -0.8090  1.9599 -0.7045
12364SOL     OW38704   4.787   2.503   5.900  0.2316 -0.0263  0.3561
12364SOL    HW138705   4.742   2.527   5.981 -0.2980 -0.2565  0.1388
12364SOL    HW238706   4.716   2.480   5.839  0.6257  0.0648 -0.1463
12365SOL     OW38707   8.608   6.718   4.524 -0.3407 -0.5054  0.2747
12365SOL    HW138708   8.676   6.726   4.591 -0.9787  1.6475  0.7546
12365SOL    HW238709   8.579   6.627   4.530  2.2767 -1.4157  0.2351
12366SOL     OW38710   5.589   0.702   4.406 -0.5695 -0.0059 -0.2676
12366SOL    HW138711   5.641   0.781   4.424 -1.9400  1.1954 -1.3113
12366SOL    HW238712   5.503   0.722   4.443 -1.2977 -0.4665 -1.6506
12367SOL     OW38713   4.952   2.015   8.901 -0.1411 -0.0747  0.4491
12367SOL    HW138714   5.023   2.078   8.913  0.3061 -0.0305 -1.9112
12367SOL    HW238715   4.986   1.933   8.936 -0.1145  0.6042  2.0844
12368SOL     OW38716   9.103   7.552   1.252 -0.2016  0.0907  0.5293
12368SOL    HW138717   9.012   7.534   1.229  0.4250 -3.4878  0.2896
12368SOL    HW238718   9.147   7.564   1.167 -0.1492  0.1061  0.5587
12369SOL     OW38719   1.370   0.326   3.488  0.5338 -0.5439 -0.2903
12369SOL    HW138720   1.372   0.233   3.509 -1.6548 -0.8495 -1.1073
12369SOL    HW238721   1.327   0.330   3.402 -1.5020  1.3031  0.6912
12370SOL     OW38722   0.492   8.829   5.862  0.3239 -0.2357 -0.0173
12370SOL    HW138723   0.482   8.824   5.957  0.1941  0.2289 -0.0060
12370SOL    HW238724   0.584   8.807   5.847  0.5289  0.3877  0.2784
12371SOL     OW38725   7.387   4.964   9.825  0.6810 -0.1405  0.1764
12371SOL    HW138726   7.341   4.967   9.742 -0.5752 -1.0407  0.8078
12371SOL    HW238727   7.389   5.055   9.855  0.4485  0.0761 -0.4530
12372SOL     OW38728   7.589   8.282   6.152  0.4798 -0.0526  0.0615
12372SOL    HW138729   7.528   8.208   6.158  1.1468 -0.7278 -1.1274
12372SOL    HW238730   7.676   8.242   6.158  0.8401  0.7019 -0.0416
12373SOL     OW38731   8.911   3.791   8.760 -0.3997  0.3305 -0.5549
12373SOL    HW138732   8.922   3.723   8.693 -0.0082  0.2857 -0.4434
12373SOL    HW238733   8.855   3.857   8.718  0.7065  0.8195 -1.3149
12374SOL     OW38734   1.598   5.680   8.591 -0.3710 -0.0571  0.4298
12374SOL    HW138735   1.679   5.687   8.641 -0.1697 -1.1804  0.2992
12374SOL    HW238736   1.626   5.657   8.503 -0.7466  1.5181 -0.1355
12375SOL     OW38737   6.951   1.803   2.715 -0.0725 -0.7090  0.1985
12375SOL    HW138738   6.936   1.745   2.789 -0.8792  0.0164  0.6259
12375SOL    HW238739   6.999   1.877   2.752  0.5600 -0.8931 -0.2477
12376SOL     OW38740   9.058   5.674   2.855  0.0961  0.3481  0.1795
12376SOL    HW138741   9.016   5.588   2.853 -2.2057  1.4041  0.1046
12376SOL    HW238742   9.025   5.714   2.935 -0.9563  2.1141 -1.0784
12377SOL     OW38743   0.100   3.215   7.125  0.2489 -0.5790 -0.0228
12377SOL    HW138744   0.032   3.281   7.137  1.2427  0.7026 -1.1243
12377SOL    HW238745   0.054   3.141   7.083 -0.9074 -0.6948  1.3844
12378SOL     OW38746   6.969   5.194   0.860  0.4992  0.1419 -0.6168
12378SOL    HW138747   6.989   5.272   0.913 -2.1377 -0.8583  2.0818
12378SOL    HW238748   7.013   5.122   0.906 -0.9548 -0.5953 -0.3295
12379SOL     OW38749   8.079   5.695   4.037 -0.0413 -0.4420 -0.4294
12379SOL    HW138750   8.000   5.723   4.084  1.1031  0.5755  0.9682
12379SOL    HW238751   8.060   5.605   4.010 -1.4786 -0.4015  0.3374
12380SOL     OW38752   7.479   4.694   6.413  0.4532 -0.6903  0.7583
12380SOL    HW138753   7.511   4.605   6.395 -0.5248 -1.0525  0.7616
12380SOL    HW238754   7.492   4.705   6.507  0.1175 -1.0271  0.8477
12381SOL     OW38755   6.399   6.777   2.745  0.5281  0.2559 -0.0354
12381SOL    HW138756   6.307   6.774   2.772  0.4017  1.6240 -0.2591
12381SOL    HW238757   6.421   6.686   2.728 -0.7740 -0.1057  0.0739
12382SOL     OW38758   2.334   6.533   3.150  0.9188 -0.0946 -0.4132
12382SOL    HW138759   2.271   6.570   3.213 -0.2294 -0.1227 -1.4929
12382SOL    HW238760   2.291   6.453   3.118  1.0282  0.4248 -1.9318
12383SOL     OW38761   3.315   1.213   1.433 -0.1824 -0.6338 -0.1269
12383SOL    HW138762   3.359   1.130   1.451 -0.1723 -1.1555 -2.1989
12383SOL    HW238763   3.358   1.276   1.490  0.0601 -1.9631  1.2405
12384SOL     OW38764   9.643   0.518   6.962  0.1340  0.5888  0.3320
12384SOL    HW138765   9.662   0.504   7.055  0.6385  1.3324  0.3463
12384SOL    HW238766   9.578   0.451   6.941 -1.6124  1.7444  1.7579
12385SOL     OW38767   5.803   8.917   1.742  0.2334 -0.3858 -0.5315
12385SOL    HW138768   5.719   8.954   1.768  0.7193 -0.1993  0.9190
12385SOL    HW238769   5.863   8.992   1.741  0.9847 -0.8996  1.3219
12386SOL     OW38770   3.586   8.217   7.429 -0.3193  0.3830  0.3992
12386SOL    HW138771   3.556   8.273   7.501  2.3606  1.0938  1.0807
12386SOL    HW238772   3.603   8.132   7.470 -2.1996 -0.3203 -0.1799
12387SOL     OW38773   4.789   9.631   5.732 -0.0945 -0.5237 -0.6444
12387SOL    HW138774   4.863   9.690   5.745  0.7250 -1.4506 -0.8962
12387SOL    HW238775   4.725   9.657   5.798  0.3879  0.4112 -0.5317
12388SOL     OW38776   7.736   5.657   7.173 -0.2628 -0.1521  0.1949
12388SOL    HW138777   7.667   5.599   7.205  0.3521 -0.8044  0.3525
12388SOL    HW238778   7.817   5.610   7.190  0.1016 -0.8774 -2.9767
12389SOL     OW38779   9.320   5.509   8.231 -0.1057  0.3895  0.2799
12389SOL    HW138780   9.407   5.471   8.239 -0.4525 -0.4259  0.2996
12389SOL    HW238781   9.335   5.599   8.201  0.6662 -0.2586 -1.3854
12390SOL     OW38782   3.698   0.459   9.134 -0.0239 -0.1238 -0.0555
12390SOL    HW138783   3.763   0.479   9.066 -1.5529  0.8961 -1.3007
12390SOL    HW238784   3.654   0.543   9.150 -1.0793 -0.8067  0.6999
12391SOL     OW38785   0.785   4.856   8.953 -0.6300  0.5436  0.1769
12391SOL    HW138786   0.774   4.894   9.040  1.7444  1.2866  0.2257
12391SOL    HW238787   0.752   4.923   8.893 -2.2812  0.0247  0.4745
12392SOL     OW38788   5.100   3.053   1.076 -0.0469 -0.2891  0.0845
12392SOL    HW138789   5.124   3.140   1.108 -0.5347  0.7187 -2.1273
12392SOL    HW238790   5.128   2.994   1.146 -0.0457  1.6469  1.8385
12393SOL     OW38791   9.064   4.916   2.792  0.4910  0.2016  0.5870
12393SOL    HW138792   9.026   4.965   2.866 -3.3872 -1.5839  0.0430
12393SOL    HW238793   9.033   4.963   2.715 -1.2390 -1.6111  0.1002
12394SOL     OW38794   5.854   9.581   5.981  0.5715  0.0050 -0.0826
12394SOL    HW138795   5.765   9.548   5.966  0.4779  0.8830 -1.6166
12394SOL    HW238796   5.844   9.644   6.052 -0.1071  0.3147 -0.4365
12395SOL     OW38797   2.370   5.034   3.141  0.5758 -0.1074 -0.2327
12395SOL    HW138798   2.335   5.042   3.229 -0.1022  0.6660 -0.5543
12395SOL    HW238799   2.410   5.119   3.123  1.3859 -0.5101 -0.3955
12396SOL     OW38800   6.785   6.294   5.746  0.5821  0.1894  0.3022
12396SOL    HW138801   6.713   6.239   5.717  0.8476  0.0334 -0.0785
12396SOL    HW238802   6.759   6.383   5.720  0.9958  0.0038 -0.8248
12397SOL     OW38803   3.603   3.922   5.204 -0.3686 -0.4660  0.1278
12397SOL    HW138804   3.659   3.969   5.143 -2.4296 -1.1620 -2.5093
12397SOL    HW238805   3.536   3.986   5.229 -0.1539 -0.5000  0.8019
12398SOL     OW38806   9.733   1.133   7.308  0.5307 -0.3263 -0.0795
12398SOL    HW138807   9.687   1.076   7.369  0.9110  0.4359  0.9578
12398SOL    HW238808   9.705   1.104   7.221 -1.1069 -0.5404  0.4914
12399SOL     OW38809   5.201   6.440   0.921 -0.1269  0.0298 -0.3227
12399SOL    HW138810   5.136   6.427   0.990  0.5179 -0.2299  0.2511
12399SOL    HW238811   5.206   6.355   0.877 -1.1273  0.4190 -1.2356
12400SOL     OW38812   5.759   2.315   5.091 -0.2932 -0.3526  0.1964
12400SOL    HW138813   5.806   2.236   5.118  1.3580  1.3736  2.8039
12400SOL    HW238814   5.827   2.374   5.060 -1.3624  0.4665 -0.6610
12401SOL     OW38815   8.927   4.321   6.406 -0.0198  0.8802  0.1367
12401SOL    HW138816   8.938   4.403   6.357 -0.4777  0.0493 -1.4171
12401SOL    HW238817   8.873   4.266   6.350 -0.0960 -0.3496  1.3468
12402SOL     OW38818   6.926   4.085   0.585  0.3771 -0.2940 -0.4016
12402SOL    HW138819   6.877   4.036   0.518  1.1874 -1.8057  0.0699
12402SOL    HW238820   6.863   4.100   0.655 -0.1946  0.4080 -1.0360
12403SOL     OW38821   5.077   0.131   2.372 -0.0676  0.2623 -0.1921
12403SOL    HW138822   5.098   0.185   2.296  0.1062  1.1757  0.4884
12403SOL    HW238823   5.065   0.193   2.444 -0.2032 -0.5791  0.5388
12404SOL     OW38824   1.202   9.837   3.645 -0.2331 -0.1284 -0.2800
12404SOL    HW138825   1.243   9.876   3.568 -0.6920  0.4367 -0.2413
12404SOL    HW238826   1.109   9.852   3.633 -0.2777  0.4146  0.6282
12405SOL     OW38827   3.624   4.666   9.665  0.4529  0.5824 -0.7800
12405SOL    HW138828   3.584   4.646   9.749  0.9247 -0.8913 -0.8816
12405SOL    HW238829   3.555   4.709   9.615  0.3277  1.9688  0.5273
12406SOL     OW38830   3.994   9.387   5.498  0.9330  0.0525 -0.4736
12406SOL    HW138831   4.051   9.348   5.564  1.5064  0.8375 -0.4863
12406SOL    HW238832   4.053   9.406   5.425  0.1286 -1.8107 -1.6923
12407SOL     OW38833   8.946   2.890   1.736  0.2842  0.0895  0.0416
12407SOL    HW138834   8.885   2.897   1.662  0.8957 -0.9705 -0.5866
12407SOL    HW238835   9.029   2.924   1.702  0.5280 -0.2549  0.2905
12408SOL     OW38836   1.624   1.936   5.808 -0.2997 -0.2515 -0.6561
12408SOL    HW138837   1.602   2.027   5.825  1.1638 -0.0215  0.2112
12408SOL    HW238838   1.589   1.918   5.720 -0.5580  1.1500 -0.8554
12409SOL     OW38839   4.775   2.148   9.098 -0.2414 -0.1582  0.0018
12409SOL    HW138840   4.856   2.112   9.061  0.4386  0.2324  1.0396
12409SOL    HW238841   4.728   2.072   9.131  0.0266 -0.3247  0.0011
12410SOL     OW38842   8.889   8.833   7.750 -0.0274  0.5902  0.2392
12410SOL    HW138843   8.956   8.892   7.715 -0.0445  1.0108  0.8884
12410SOL    HW238844   8.903   8.835   7.845 -0.1619 -0.2963  0.2852
12411SOL     OW38845   3.863   7.424   0.628  0.2192 -0.2352 -0.2939
12411SOL    HW138846   3.799   7.379   0.572  0.3088 -1.0614  0.2589
12411SOL    HW238847   3.825   7.510   0.643 -1.3019 -1.0675  0.8903
12412SOL     OW38848   1.072   4.110   2.594 -0.3902 -0.3948 -0.1330
12412SOL    HW138849   1.082   4.171   2.668 -1.7507 -0.0037 -0.2263
12412SOL    HW238850   0.977   4.100   2.585 -0.2258 -3.0806  0.2899
12413SOL     OW38851   1.964   3.498   5.354  0.1525  0.8797 -0.0261
12413SOL    HW138852   2.037   3.484   5.294 -0.5885  1.5165 -1.1152
12413SOL    HW238853   1.914   3.416   5.351  1.9849 -0.4866  2.5072
12414SOL     OW38854   9.336   1.442   8.489 -0.0522 -0.3187  0.4645
12414SOL    HW138855   9.278   1.505   8.447  0.7375 -0.5043 -0.9706
12414SOL    HW238856   9.420   1.452   8.443 -0.0359 -2.7440 -0.1650
12415SOL     OW38857   2.773   4.825   4.839 -0.1194 -0.4268 -0.3154
12415SOL    HW138858   2.743   4.801   4.927  0.6593 -2.3409 -0.5183
12415SOL    HW238859   2.756   4.747   4.786 -1.5200  1.0227 -2.1457
12416SOL     OW38860   4.971   7.464   1.794 -0.0265  0.2391 -0.6601
12416SOL    HW138861   4.987   7.491   1.885  1.2099  0.3155 -0.8755
12416SOL    HW238862   4.892   7.511   1.769 -1.1951 -0.8366  0.8004
12417SOL     OW38863   6.070   8.949   0.074  0.1467  0.3066 -0.1984
12417SOL    HW138864   6.026   8.962  -0.010  0.8857  1.0193 -0.5022
12417SOL    HW238865   6.147   8.896   0.053  1.2425  1.8610 -0.3023
12418SOL     OW38866   7.901   4.155   2.146  0.5037 -0.3182  0.3631
12418SOL    HW138867   7.904   4.245   2.114  0.5314  0.7381  3.1188
12418SOL    HW238868   7.811   4.126   2.128  1.0754 -0.6466 -2.5563
12419SOL     OW38869   1.036   0.106   6.724  0.3345  0.0877 -0.1138
12419SOL    HW138870   0.975   0.129   6.793  0.2681 -0.7186  0.1055
12419SOL    HW238871   1.003   0.023   6.689  0.6650  0.2195 -0.7543
12420SOL     OW38872   3.033   7.459   3.078  0.1313  0.1576 -0.1117
12420SOL    HW138873   3.060   7.541   3.037 -1.2172  1.0888  0.8039
12420SOL    HW238874   3.096   7.446   3.149  0.0801  0.6541  0.0285
12421SOL     OW38875   4.455   5.167   0.495  0.0234 -0.7834  0.3417
12421SOL    HW138876   4.492   5.119   0.569 -1.1718 -1.2188  0.6886
12421SOL    HW238877   4.388   5.223   0.535 -0.0356 -0.3863 -0.3119
12422SOL     OW38878   9.568   5.203   2.927  0.5197  0.4246 -0.2170
12422SOL    HW138879   9.662   5.187   2.922  0.5345  0.6649 -0.7564
12422SOL    HW238880   9.544   5.236   2.840  0.1460  1.4169  0.2379
12423SOL     OW38881   8.034   6.434   7.679 -0.0558 -0.0251 -0.1091
12423SOL    HW138882   8.048   6.357   7.624  2.9661 -0.1010  0.5791
12423SOL    HW238883   7.979   6.403   7.751 -1.4014 -0.7046 -1.3699
12424SOL     OW38884   8.487   7.195   3.073 -0.6954  0.4859 -0.0774
12424SOL    HW138885   8.568   7.223   3.115 -1.3344  1.8637  0.3199
12424SOL    HW238886   8.444   7.138   3.137 -0.4953  0.5477  0.1096
12425SOL     OW38887   8.330   7.297   4.578 -0.6922  0.2898  0.0292
12425SOL    HW138888   8.291   7.329   4.497 -0.5782 -0.1381 -0.1977
12425SOL    HW238889   8.389   7.227   4.550 -0.9733 -0.1507  0.5147
12426SOL     OW38890   5.952   7.720   2.143 -0.5332  0.2120 -0.6874
12426SOL    HW138891   6.036   7.733   2.187 -1.7752  1.4910  1.4178
12426SOL    HW238892   5.955   7.780   2.068 -0.7391  2.6411  1.1539
12427SOL     OW38893   9.242   7.367   9.010  0.4064 -0.5610 -0.0508
12427SOL    HW138894   9.204   7.326   9.088  1.6953 -0.4008  0.6984
12427SOL    HW238895   9.167   7.407   8.965 -0.3851 -0.7662  1.0391
12428SOL     OW38896   5.957   5.251   5.162 -0.1436  0.3118  0.5178
12428SOL    HW138897   5.975   5.221   5.252 -1.1748 -1.1428  0.2783
12428SOL    HW238898   5.908   5.179   5.123  1.6417  0.2163 -1.7284
12429SOL     OW38899   7.855   0.049   4.073 -0.0896  0.0285 -0.5052
12429SOL    HW138900   7.798   0.027   3.999 -0.2541 -0.3743 -0.2596
12429SOL    HW238901   7.871  -0.034   4.116  1.3471  0.0112 -1.0287
12430SOL     OW38902   3.980   3.929   7.471 -0.0070 -0.0778  0.1401
12430SOL    HW138903   3.946   4.017   7.459 -1.1381 -0.5316 -0.0726
12430SOL    HW238904   4.053   3.922   7.409  0.1444  0.7306  0.2241
12431SOL     OW38905   9.831   8.593   3.755  0.3444  0.1826 -0.3464
12431SOL    HW138906   9.843   8.618   3.846 -0.8833 -0.3655 -0.0177
12431SOL    HW238907   9.739   8.567   3.748  0.7731 -1.2611 -1.3637
12432SOL     OW38908   9.532   7.315   1.304  0.5865  0.9832  0.0326
12432SOL    HW138909   9.616   7.273   1.323  1.0370  1.2460 -1.2943
12432SOL    HW238910   9.554   7.393   1.254 -0.4077  1.4077  0.2298
12433SOL     OW38911   9.834   0.036   4.054  0.7684  0.1959 -0.2002
12433SOL    HW138912   9.898   0.085   4.003  1.7900  0.3745  1.1768
12433SOL    HW238913   9.868  -0.054   4.056 -0.1074 -0.1716 -1.1453
12434SOL     OW38914   1.137   1.967   6.261 -0.1273 -0.2172 -0.3177
12434SOL    HW138915   1.209   2.019   6.296 -0.3824  0.5023 -0.8454
12434SOL    HW238916   1.058   2.018   6.280 -0.3332 -0.1345 -1.3346
12435SOL     OW38917   4.613   9.015   8.704 -0.2524  0.3619 -0.1579
12435SOL    HW138918   4.552   8.985   8.637  0.6055  0.3292 -0.9347
12435SOL    HW238919   4.651   8.934   8.740 -1.2987  0.3308  0.9656
12436SOL     OW38920   7.555   2.171   3.163  0.0943 -0.1969  0.1218
12436SOL    HW138921   7.501   2.132   3.094 -3.5015 -0.6621  2.8900
12436SOL    HW238922   7.590   2.251   3.123  2.2131 -2.6591 -3.6083
12437SOL     OW38923   9.645   2.271   9.673  0.5137  0.0547 -0.3023
12437SOL    HW138924   9.720   2.275   9.613  0.7532  0.3815  0.0155
12437SOL    HW238925   9.665   2.336   9.740  0.0416 -0.0073 -0.1029
12438SOL     OW38926   7.947   9.302   8.348  0.3578  0.0953  0.0336
12438SOL    HW138927   7.989   9.217   8.361 -0.1650 -0.0946  0.5032
12438SOL    HW238928   7.965   9.323   8.256 -0.6666 -1.1775 -0.4902
12439SOL     OW38929   3.302   4.257   9.141 -0.5121  0.1607 -0.2833
12439SOL    HW138930   3.377   4.316   9.134  0.2974 -0.8481 -0.1972
12439SOL    HW238931   3.328   4.178   9.094 -1.0255 -0.6784  0.7999
12440SOL     OW38932   1.645   4.197   1.980 -0.4891 -0.1976 -0.0490
12440SOL    HW138933   1.607   4.285   1.975  0.7738  0.3028 -1.6041
12440SOL    HW238934   1.629   4.169   2.070 -2.6035  0.8359 -0.0408
12441SOL     OW38935   6.499   6.854   5.507  0.1452 -0.1170 -0.3731
12441SOL    HW138936   6.583   6.838   5.462  0.1143 -0.5488 -0.2831
12441SOL    HW238937   6.463   6.930   5.463  0.9039  0.4932  0.0345
12442SOL     OW38938   2.954   3.537   7.568  0.3490  0.0469 -0.0832
12442SOL    HW138939   2.978   3.573   7.483 -0.1366  0.0887 -0.2014
12442SOL    HW238940   3.009   3.459   7.577 -0.3506 -0.5604 -0.9046
12443SOL     OW38941   6.187   5.034   8.219 -0.1596 -0.0123  0.4088
12443SOL    HW138942   6.170   5.103   8.156 -0.3143 -0.4317 -0.0142
12443SOL    HW238943   6.217   5.080   8.298  0.9387  0.4579 -0.2651
12444SOL     OW38944   3.029   8.145   6.088 -0.1260  0.2911 -0.1061
12444SOL    HW138945   3.022   8.238   6.064  2.3542  0.7407  0.5609
12444SOL    HW238946   3.121   8.134   6.112 -0.1174 -2.6150 -1.1532
12445SOL     OW38947   1.299   5.427   0.294  0.1854  0.5644  0.2903
12445SOL    HW138948   1.388   5.402   0.272 -0.8960 -1.6779 -2.1928
12445SOL    HW238949   1.270   5.362   0.359 -0.2137  0.0490 -0.3853
12446SOL     OW38950   7.038   9.573   1.376 -0.2379 -0.1001  0.1205
12446SOL    HW138951   7.057   9.605   1.288  0.0544  0.8984  0.5334
12446SOL    HW238952   7.122   9.539   1.407 -0.1397  0.3222  0.3236
12447SOL     OW38953   9.810   7.916   8.080 -0.2134  0.1609 -0.2618
12447SOL    HW138954   9.851   7.943   7.998 -2.0029  1.5826 -0.7660
12447SOL    HW238955   9.716   7.917   8.061 -0.5954 -3.8611  0.5413
12448SOL     OW38956   9.832   8.008   7.806  0.4524 -0.1860 -0.3258
12448SOL    HW138957   9.742   8.036   7.793  0.6519  0.2322 -0.8172
12448SOL    HW238958   9.857   7.966   7.724  1.0561  0.6763 -0.6006
12449SOL     OW38959   0.628   7.017   2.603 -0.2280  0.2597  0.1937
12449SOL    HW138960   0.711   7.057   2.629 -0.5750  1.0081  0.1510
12449SOL    HW238961   0.647   6.923   2.602  0.8452  0.4650 -0.6137
12450SOL     OW38962   2.996   9.286   2.347  0.1237  0.2398  0.6337
12450SOL    HW138963   3.054   9.211   2.361  0.3513 -0.0228 -1.3649
12450SOL    HW238964   2.920   9.249   2.303  0.5443  1.2475 -1.0215
12451SOL     OW38965   3.779   6.639   0.816  0.1695  0.5051 -0.5354
12451SOL    HW138966   3.856   6.595   0.850 -1.1346 -1.8634 -0.4438
12451SOL    HW238967   3.736   6.574   0.760 -1.6258  1.8115 -0.7867
12452SOL     OW38968   3.635   9.266   1.647 -0.1782  0.4367 -0.1038
12452SOL    HW138969   3.713   9.247   1.594  0.4733 -0.9468  1.2575
12452SOL    HW238970   3.667   9.322   1.717 -0.8881  1.6688 -0.7368
12453SOL     OW38971   2.649   3.473   4.740 -0.0978  0.4437 -0.3274
12453SOL    HW138972   2.726   3.475   4.796 -0.0976 -1.9962 -0.1370
12453SOL    HW238973   2.589   3.413   4.783 -1.4190  0.9641 -1.3637
12454SOL     OW38974   5.198   6.374   8.256  0.0971  0.0498 -0.1324
12454SOL    HW138975   5.105   6.389   8.268  0.0191  0.7734 -1.4402
12454SOL    HW238976   5.230   6.453   8.212  1.5866  0.3582  1.4181
12455SOL     OW38977   0.733   2.727   8.343  0.0046 -0.0823  0.2468
12455SOL    HW138978   0.638   2.723   8.355  0.1505 -1.4228  1.1740
12455SOL    HW238979   0.769   2.725   8.432  0.9142  0.3200 -0.0959
12456SOL     OW38980   2.122   9.678   8.753  0.2041  0.3315  0.2718
12456SOL    HW138981   2.115   9.608   8.688  2.8520 -0.8252  1.1374
12456SOL    HW238982   2.031   9.701   8.771 -0.7814 -2.5938 -0.3512
12457SOL     OW38983   9.535   2.389   0.118  0.4573 -0.4464  0.0485
12457SOL    HW138984   9.528   2.470   0.169  0.9131 -0.4503  0.1175
12457SOL    HW238985   9.600   2.409   0.050  1.5384 -1.1614  0.8540
12458SOL     OW38986   5.389   3.325   2.503  0.2986 -0.1254  0.2618
12458SOL    HW138987   5.401   3.278   2.586 -0.6498  1.4080  1.3122
12458SOL    HW238988   5.346   3.261   2.446  1.0912 -1.2556  0.8901
12459SOL     OW38989   4.378   3.001   7.289  0.1517 -0.1764 -0.7170
12459SOL    HW138990   4.456   2.947   7.304  0.8838  1.3410  1.2602
12459SOL    HW238991   4.305   2.947   7.319  0.8714 -0.1428  1.2055
12460SOL     OW38992   3.359   3.971   6.483 -0.3025  0.1498  0.4106
12460SOL    HW138993   3.332   3.905   6.547 -0.2625  0.6370  0.9313
12460SOL    HW238994   3.431   3.929   6.435 -1.2683 -0.7588 -0.2852
12461SOL     OW38995   0.502   5.513   5.778  0.4924 -0.4892 -0.1579
12461SOL    HW138996   0.557   5.442   5.746  0.4455 -0.4668 -0.2926
12461SOL    HW238997   0.452   5.540   5.701  0.0076 -0.7701  0.0504
12462SOL     OW38998   6.479   5.813   1.087 -0.3871 -0.1288  0.0993
12462SOL    HW138999   6.392   5.791   1.119 -0.4227  0.6239  0.5396
12462SOL    HW239000   6.463   5.855   1.002 -0.4074 -0.4710 -0.0718
12463SOL     OW39001   3.579   0.792   3.468 -0.0335  0.5786 -0.8576
12463SOL    HW139002   3.585   0.784   3.563  1.1033  0.4499 -0.9322
12463SOL    HW239003   3.486   0.778   3.449 -0.0605 -0.8267  0.1141
12464SOL     OW39004   8.237   3.320   0.347  0.1369 -0.3055 -0.5850
12464SOL    HW139005   8.301   3.268   0.297  1.5804  1.1019 -0.2855
12464SOL    HW239006   8.170   3.343   0.283  0.2812 -1.2265 -1.0831
12465SOL     OW39007   0.455   5.794   2.138  0.3197 -0.1059  0.3406
12465SOL    HW139008   0.476   5.816   2.047 -1.3308 -0.2092 -0.0999
12465SOL    HW239009   0.369   5.753   2.133  1.4787 -2.9183  1.6109
12466SOL     OW39010   2.909   8.501   2.299 -0.4414  0.0996 -0.2791
12466SOL    HW139011   2.872   8.419   2.269 -1.0321  0.7321 -1.3481
12466SOL    HW239012   2.868   8.568   2.244  0.3662  1.0665  0.2483
12467SOL     OW39013   5.387   0.406   9.215  0.1385 -0.1011  0.3902
12467SOL    HW139014   5.405   0.331   9.159  0.3671 -1.3964  2.0938
12467SOL    HW239015   5.317   0.376   9.273  1.8642  0.0776  2.7020
12468SOL     OW39016   5.654   6.902   4.725  0.3855 -0.0581 -0.4854
12468SOL    HW139017   5.610   6.974   4.770 -0.8674 -0.8184 -0.4498
12468SOL    HW239018   5.689   6.941   4.645  0.0640  0.6717 -0.2767
12469SOL     OW39019   2.797   6.972   5.466 -0.4491 -0.1999  0.4632
12469SOL    HW139020   2.789   6.940   5.556 -0.1601 -2.5203 -0.2798
12469SOL    HW239021   2.890   6.963   5.445 -0.6299 -0.3458 -0.2978
12470SOL     OW39022   9.434   2.526   0.474 -0.0623  0.6351 -0.5391
12470SOL    HW139023   9.346   2.561   0.485 -0.5943 -0.4448 -1.2158
12470SOL    HW239024   9.467   2.569   0.395 -0.4509  0.1613 -0.9700
12471SOL     OW39025   3.899   8.226   3.370  0.2726  0.1178 -0.0491
12471SOL    HW139026   3.878   8.298   3.429 -1.2026  0.8238 -1.3615
12471SOL    HW239027   3.831   8.229   3.303  0.1240 -2.5561 -0.1256
12472SOL     OW39028   4.275   1.284   3.486 -0.7834  0.0514 -0.3203
12472SOL    HW139029   4.224   1.221   3.535 -1.3841  0.0903 -0.8831
12472SOL    HW239030   4.218   1.360   3.476  0.5326  1.4450  1.8986
12473SOL     OW39031   6.836   2.739   3.368 -0.2797  0.2188  0.4402
12473SOL    HW139032   6.921   2.701   3.390 -0.5568 -1.1368 -0.6782
12473SOL    HW239033   6.809   2.693   3.288 -1.4375  1.5954 -0.0127
12474SOL     OW39034   2.368   9.281   2.798  0.4414  0.3362  0.1300
12474SOL    HW139035   2.418   9.363   2.802  1.4151 -0.2417  0.0331
12474SOL    HW239036   2.352   9.259   2.890 -0.8753  1.2422  0.1492
12475SOL     OW39037   4.769   9.533   1.414 -0.3431  0.0918  1.0824
12475SOL    HW139038   4.762   9.467   1.345 -0.5977  1.0006  0.1991
12475SOL    HW239039   4.679   9.560   1.430 -0.1701  1.0098  0.6103
12476SOL     OW39040   0.595   0.139   4.345  0.5610  0.4855 -0.1488
12476SOL    HW139041   0.545   0.079   4.290  0.8191 -0.0603  0.2050
12476SOL    HW239042   0.597   0.221   4.295 -0.8641  0.5976 -0.0654
12477SOL     OW39043   8.779   9.337   8.269  0.7199  0.4111  0.3448
12477SOL    HW139044   8.758   9.399   8.339  0.3445 -1.5937  2.1153
12477SOL    HW239045   8.873   9.321   8.279  0.4112 -1.0036  1.4752
12478SOL     OW39046   4.252   9.012   3.226 -0.2149 -0.6448  0.7031
12478SOL    HW139047   4.286   9.087   3.276  0.5043  0.8376 -1.7932
12478SOL    HW239048   4.329   8.978   3.179 -0.6801 -2.5333  1.2152
12479SOL     OW39049   7.089   1.619   1.672  0.3573  0.3583 -0.2286
12479SOL    HW139050   7.177   1.620   1.709  0.0977  0.8318  0.3870
12479SOL    HW239051   7.103   1.603   1.578  1.0774  0.1696 -0.0964
12480SOL     OW39052   6.434   9.520   0.054 -0.3885  0.0192  0.1944
12480SOL    HW139053   6.366   9.471   0.008 -1.0319  0.6987  0.3963
12480SOL    HW239054   6.479   9.569  -0.016 -0.0739 -0.4622  0.0552
12481SOL     OW39055   4.590   4.173   3.509 -0.6721  0.1914 -0.9145
12481SOL    HW139056   4.610   4.255   3.554 -1.8051  0.0758 -0.1240
12481SOL    HW239057   4.644   4.174   3.430 -0.1249  1.3492 -0.5499
12482SOL     OW39058   4.023   2.727   5.090 -0.1963  0.6290 -0.0885
12482SOL    HW139059   4.035   2.636   5.062 -0.4109  0.2375  1.0183
12482SOL    HW239060   4.080   2.778   5.033  0.2577 -0.2547 -0.4451
12483SOL     OW39061   9.726   5.623   8.613  0.7076 -0.0678  0.1174
12483SOL    HW139062   9.786   5.669   8.554  0.3785 -1.4938 -1.3866
12483SOL    HW239063   9.677   5.565   8.556 -0.6639 -0.4349  1.6261
12484SOL     OW39064   6.788   2.236   8.139 -0.4328  0.2726  0.5234
12484SOL    HW139065   6.827   2.148   8.141 -0.2980  0.3067 -0.4168
12484SOL    HW239066   6.740   2.242   8.222 -1.0112 -0.9509  0.3057
12485SOL     OW39067   5.710   0.669   9.158  0.3574 -0.2996  0.8567
12485SOL    HW139068   5.762   0.722   9.218 -1.5784 -1.3084  3.6891
12485SOL    HW239069   5.633   0.645   9.209 -1.1230 -1.8920 -1.8783
12486SOL     OW39070   7.148   2.137   7.785 -0.0040  0.2062  0.0900
12486SOL    HW139071   7.073   2.083   7.759  0.5429 -0.2154 -0.6346
12486SOL    HW239072   7.113   2.193   7.855 -0.9476 -0.1057 -0.1080
12487SOL     OW39073   7.036   2.012   8.469 -0.7943 -0.8942  0.2118
12487SOL    HW139074   7.058   1.957   8.394  1.0331 -0.9278  0.7254
12487SOL    HW239075   6.940   2.013   8.470 -0.8697 -1.7805 -1.4530
12488SOL     OW39076   0.081   0.321   9.480 -0.0776 -0.1279 -0.2384
12488SOL    HW139077  -0.004   0.290   9.448 -0.4702  0.4546  0.2066
12488SOL    HW239078   0.100   0.398   9.426  0.9801 -1.2072 -1.4673
12489SOL     OW39079   2.031   0.581   5.434  0.8526  0.7999  0.5171
12489SOL    HW139080   1.962   0.547   5.378  1.3901 -0.9694  0.8688
12489SOL    HW239081   2.021   0.533   5.516  3.1642 -0.3514  0.1998
12490SOL     OW39082   4.177   6.253   5.921  0.7629 -0.6099 -0.0742
12490SOL    HW139083   4.102   6.229   5.976  0.2629  0.7168 -0.1292
12490SOL    HW239084   4.232   6.306   5.978  1.2569 -0.9010 -0.2752
12491SOL     OW39085   1.953   7.875   0.463  0.1683  0.6674 -0.5474
12491SOL    HW139086   1.878   7.935   0.462  0.6941  1.3705  0.6271
12491SOL    HW239087   1.974   7.864   0.555 -0.7010 -2.3756 -0.5800
12492SOL     OW39088   6.962   3.507   6.934 -0.3746  0.2071 -0.3799
12492SOL    HW139089   6.985   3.416   6.915  0.5737  0.5905 -1.1720
12492SOL    HW239090   7.021   3.559   6.879  0.0800  1.3289  1.0907
12493SOL     OW39091   9.580   6.430   0.846 -0.2241  0.1755 -0.1691
12493SOL    HW139092   9.619   6.364   0.904 -1.7672 -1.0172 -0.4325
12493SOL    HW239093   9.486   6.423   0.863 -0.4098  2.6984  0.1691
12494SOL     OW39094   8.311   9.721   6.981 -0.1295  0.6196  0.2003
12494SOL    HW139095   8.220   9.693   6.989  0.4575 -0.9033  2.4860
12494SOL    HW239096   8.349   9.702   7.067  2.7327 -0.1743 -1.1453
12495SOL     OW39097   3.109   6.588   6.985  0.2123 -0.1933  0.0204
12495SOL    HW139098   3.202   6.577   7.004  0.5137  2.6590  0.6322
12495SOL    HW239099   3.068   6.607   7.070 -0.7146 -0.1887 -0.4079
12496SOL     OW39100   7.934   3.196   5.382  0.3390 -0.3275 -0.4607
12496SOL    HW139101   7.848   3.172   5.415  0.1148 -0.4653 -1.1372
12496SOL    HW239102   7.941   3.153   5.297  1.7605 -1.7157  0.3108
12497SOL     OW39103   7.788   7.578   6.088 -0.0045  0.3599  0.3550
12497SOL    HW139104   7.694   7.588   6.073 -0.0573 -0.3970  0.1149
12497SOL    HW239105   7.824   7.559   6.001  0.5215  1.6804  0.2713
12498SOL     OW39106   0.910   0.095   1.608 -0.3868  0.2169  0.8968
12498SOL    HW139107   0.834   0.069   1.660 -0.1580 -0.1113  1.0750
12498SOL    HW239108   0.929   0.018   1.554  0.1979  0.0768  1.3037
12499SOL     OW39109   9.225   1.311   1.259  0.3977 -0.4293 -0.2639
12499SOL    HW139110   9.225   1.359   1.176  0.0788 -0.8834 -0.5297
12499SOL    HW239111   9.163   1.360   1.314  0.7281 -0.0360 -0.2363
12500SOL     OW39112   3.962   9.043   3.217  0.5622  0.4348 -0.8284
12500SOL    HW139113   4.056   9.030   3.203  0.6739  1.5181 -1.1753
12500SOL    HW239114   3.958   9.107   3.288  0.1350  1.6316 -1.8894
12501SOL     OW39115   9.233   7.027   8.205 -0.4060  0.3935 -0.4167
12501SOL    HW139116   9.210   7.100   8.149  1.0305  1.5088  0.3696
12501SOL    HW239117   9.307   6.985   8.162 -0.0780  0.5126  0.0191
12502SOL     OW39118   7.514   6.642   0.669  0.0280 -0.1020 -0.0352
12502SOL    HW139119   7.605   6.628   0.640 -0.4002 -1.6341 -0.7527
12502SOL    HW239120   7.461   6.607   0.597 -1.1147 -0.5501  0.9965
12503SOL     OW39121   8.629   9.706   6.570  0.3600 -0.2268  0.0464
12503SOL    HW139122   8.720   9.675   6.574  0.7737  0.9765  0.6861
12503SOL    HW239123   8.632   9.793   6.611 -0.9346  0.1888 -0.6915
12504SOL     OW39124   3.448   8.897   5.429  0.1730  0.1752  0.1215
12504SOL    HW139125   3.406   8.869   5.348 -1.0477  0.7374  0.5461
12504SOL    HW239126   3.503   8.971   5.403  0.3154 -0.0744 -0.3017
12505SOL     OW39127   9.141   9.805   3.719 -0.5295  0.0800 -0.4242
12505SOL    HW139128   9.105   9.841   3.638  0.6261  0.5210 -0.7618
12505SOL    HW239129   9.219   9.757   3.691  0.0140  0.4319  0.4382
12506SOL     OW39130   8.949   8.893   0.938 -0.0895 -0.5280  0.3326
12506SOL    HW139131   9.029   8.926   0.896 -0.5255 -0.0382 -0.1193
12506SOL    HW239132   8.970   8.803   0.961  0.5455 -0.4522  0.0754
12507SOL     OW39133   4.898   9.138   1.713  0.0514  0.0173  0.1839
12507SOL    HW139134   4.829   9.077   1.738 -0.1448 -0.2836 -1.0343
12507SOL    HW239135   4.854   9.223   1.707 -0.3298 -0.2549 -1.0492
12508SOL     OW39136   0.467   0.533   5.129 -0.2026  1.2426  0.0929
12508SOL    HW139137   0.541   0.541   5.188  0.6635  0.3589 -0.8142
12508SOL    HW239138   0.389   0.539   5.185  0.5121  3.2807  0.9126
12509SOL     OW39139   5.118   6.523   2.837  0.0401  0.3876  0.0999
12509SOL    HW139140   5.101   6.582   2.763  2.0983 -0.2490 -0.9501
12509SOL    HW239141   5.109   6.579   2.914  0.6494  1.7892 -0.7955
12510SOL     OW39142   6.767   3.031   0.639  0.0983 -0.1445  0.3445
12510SOL    HW139143   6.832   3.017   0.708  0.2110  1.3026  0.5763
12510SOL    HW239144   6.703   2.962   0.652  1.7068 -1.7829 -0.0575
12511SOL     OW39145   6.941   9.037   6.865  0.1785 -0.1363  0.6016
12511SOL    HW139146   6.852   9.064   6.842  0.0334 -0.9796  0.1459
12511SOL    HW239147   6.935   8.943   6.879  0.6024  0.0806  2.5129
12512SOL     OW39148   9.361   1.742   0.439  0.2459 -0.0903  0.3578
12512SOL    HW139149   9.275   1.736   0.480  0.4760 -0.5260  0.7943
12512SOL    HW239150   9.422   1.719   0.509  0.5912 -1.8205 -0.4529
12513SOL     OW39151   1.074   4.586   5.654  0.3127  0.4953  0.6638
12513SOL    HW139152   1.168   4.568   5.648  0.3181  0.7620 -0.1447
12513SOL    HW239153   1.065   4.676   5.622 -0.6155 -0.6313 -2.6596
12514SOL     OW39154   8.996   6.119   2.532 -0.2237 -0.0120 -0.0471
12514SOL    HW139155   8.973   6.063   2.606  0.1012  0.9996  0.8418
12514SOL    HW239156   9.091   6.130   2.537 -0.1555 -0.1893 -0.8050
12515SOL     OW39157   4.807   3.989   2.111 -0.3814  0.3512 -0.0685
12515SOL    HW139158   4.760   3.959   2.033 -0.6257 -1.7178  0.8229
12515SOL    HW239159   4.872   3.921   2.128  0.9671  1.7048  0.4656
12516SOL     OW39160   3.492   4.999   7.669  0.6022 -0.1754  0.3933
12516SOL    HW139161   3.483   4.914   7.712 -1.6599  0.0510  0.4806
12516SOL    HW239162   3.403   5.035   7.668  1.4516  2.0712  0.0935
12517SOL     OW39163   7.341   6.813   3.621 -0.5966  0.3535 -0.1039
12517SOL    HW139164   7.402   6.759   3.571  0.1723  1.1640 -0.0721
12517SOL    HW239165   7.258   6.768   3.614 -0.0865 -0.5494 -0.5220
12518SOL     OW39166   9.699   7.783   7.202  0.5623 -0.2861  0.2929
12518SOL    HW139167   9.686   7.873   7.173 -0.5496 -0.9679 -1.4726
12518SOL    HW239168   9.634   7.732   7.154  0.6868 -1.9568  1.7602
12519SOL     OW39169   0.402   1.111   0.896 -0.0360 -0.0647  0.3228
12519SOL    HW139170   0.356   1.181   0.942  1.0519  0.4160  0.7043
12519SOL    HW239171   0.441   1.153   0.819 -0.0618 -0.4162  0.1168
12520SOL     OW39172   0.466   3.657   6.457 -0.2918  0.1636  0.0441
12520SOL    HW139173   0.421   3.587   6.505 -0.9739 -0.2525 -1.1628
12520SOL    HW239174   0.543   3.615   6.419 -0.4923  0.1573 -0.3579
12521SOL     OW39175   8.670   8.863   5.125  0.7357 -0.2544  0.2232
12521SOL    HW139176   8.669   8.767   5.130  0.0755 -0.3481 -1.1354
12521SOL    HW239177   8.717   8.882   5.044  0.1607  0.5439  0.0638
12522SOL     OW39178   1.965   9.198   1.802 -0.2628 -0.2945 -0.6078
12522SOL    HW139179   2.042   9.251   1.823 -0.6727  0.5132 -1.0933
12522SOL    HW239180   1.995   9.140   1.732  0.4279 -1.3278  0.5045
12523SOL     OW39181   7.725   1.351   0.414  0.1139 -0.5576  0.0102
12523SOL    HW139182   7.658   1.282   0.417 -0.0356 -0.4899  3.9987
12523SOL    HW239183   7.676   1.432   0.405 -0.0966 -0.7018 -0.1473
12524SOL     OW39184   1.332   3.058   6.584  0.4137 -0.0688  0.0889
12524SOL    HW139185   1.336   3.120   6.657  0.4646  0.8818 -0.6963
12524SOL    HW239186   1.415   3.011   6.587 -0.1067 -0.9515  1.4079
12525SOL     OW39187   6.195   7.172   4.678  0.2145  0.4814 -0.1141
12525SOL    HW139188   6.212   7.195   4.587 -1.2666 -1.7669 -1.0368
12525SOL    HW239189   6.116   7.222   4.701 -0.1061  0.1430 -0.4694
12526SOL     OW39190   9.800   8.830   3.573 -0.1455 -0.0289  0.1418
12526SOL    HW139191   9.831   8.807   3.485  0.2881  2.6434 -0.5125
12526SOL    HW239192   9.792   8.746   3.619  0.7922 -1.4110 -2.0486
12527SOL     OW39193   3.068   3.303   9.405 -0.3028  0.0772 -0.4059
12527SOL    HW139194   3.148   3.258   9.376  0.2255  0.0816  1.0008
12527SOL    HW239195   3.023   3.238   9.460  0.4138  1.1912  1.5654
12528SOL     OW39196   3.420   7.472   5.540  0.4817 -0.1821  0.3514
12528SOL    HW139197   3.330   7.461   5.571 -1.0539  1.1670 -3.1318
12528SOL    HW239198   3.444   7.386   5.506 -0.2955 -0.0622 -0.5284
12529SOL     OW39199   8.057   5.035   9.672 -0.0897  0.2439 -0.0732
12529SOL    HW139200   8.028   4.975   9.603 -1.6588  0.2082  0.5766
12529SOL    HW239201   8.150   5.017   9.682 -0.0580 -0.4946 -1.4339
12530SOL     OW39202   7.317   1.326   8.231  0.0674  0.1798 -0.2384
12530SOL    HW139203   7.332   1.253   8.171  1.0575 -1.3130  1.7135
12530SOL    HW239204   7.357   1.401   8.188  1.0619 -0.9059 -1.2899
12531SOL     OW39205   8.041   5.427   6.298 -0.1255 -0.1915 -0.5729
12531SOL    HW139206   8.100   5.382   6.238  0.3737 -0.3666  0.0432
12531SOL    HW239207   8.092   5.501   6.332  0.3019 -1.2178  1.1381
12532SOL     OW39208   6.981   6.411   1.859  0.0331 -0.4115  0.1463
12532SOL    HW139209   7.024   6.331   1.830 -1.2711 -0.9447 -0.3641
12532SOL    HW239210   7.045   6.452   1.918  1.6578 -0.6250 -1.3819
12533SOL     OW39211   9.741   0.130   7.852  0.3927 -0.3339  0.2449
12533SOL    HW139212   9.810   0.071   7.821 -0.4056 -1.4614  0.5439
12533SOL    HW239213   9.722   0.100   7.941 -0.8111 -0.3615 -0.0009
12534SOL     OW39214   6.135   3.452   4.896  0.1601  0.2314  0.2063
12534SOL    HW139215   6.220   3.473   4.856 -0.2860  1.3442 -0.1984
12534SOL    HW239216   6.132   3.503   4.976  0.0192 -0.0911  0.4103
12535SOL     OW39217   6.389   2.474   0.230  0.2008 -0.2441  0.2768
12535SOL    HW139218   6.368   2.567   0.224  1.2323 -0.0731 -1.0501
12535SOL    HW239219   6.304   2.431   0.234 -0.3437  0.6565 -0.9466
12536SOL     OW39220   2.678   4.386   5.963  0.1063 -0.4591  0.1050
12536SOL    HW139221   2.726   4.401   6.044  1.2079  2.0341 -0.8972
12536SOL    HW239222   2.586   4.389   5.989  0.4451 -0.2584  1.3473
12537SOL     OW39223   1.711   0.773   9.260  0.8134  0.3391 -0.4651
12537SOL    HW139224   1.728   0.839   9.326 -0.4119  0.0481  0.1663
12537SOL    HW239225   1.637   0.723   9.293  1.0273 -0.6817 -1.4265
12538SOL     OW39226   3.797   8.426   2.113  0.6023 -0.3087  0.0933
12538SOL    HW139227   3.776   8.336   2.090 -1.3927  0.2935 -0.6323
12538SOL    HW239228   3.719   8.476   2.090  1.0008  1.3690  2.1138
12539SOL     OW39229   3.808   6.456   4.428  0.3209  0.1987 -1.0015
12539SOL    HW139230   3.879   6.459   4.364  1.0862  1.2897 -0.1385
12539SOL    HW239231   3.754   6.532   4.408 -0.2036 -0.2127 -1.1861
12540SOL     OW39232   5.726   5.402   7.203 -0.1538 -0.1602 -0.1835
12540SOL    HW139233   5.648   5.347   7.197 -0.5251  0.1095  1.5003
12540SOL    HW239234   5.692   5.492   7.200  0.1351 -0.0401  0.1025
12541SOL     OW39235   3.810   7.230   2.682 -0.1445 -0.6308 -0.7873
12541SOL    HW139236   3.761   7.305   2.717 -0.0121 -0.7276 -0.3821
12541SOL    HW239237   3.809   7.242   2.587 -2.6949 -1.7036 -0.9781
12542SOL     OW39238   7.375   5.195   5.476  0.6536  0.3563  0.4138
12542SOL    HW139239   7.294   5.241   5.455  0.8870  1.2459  1.4297
12542SOL    HW239240   7.385   5.132   5.404 -0.1216  1.2853 -0.5466
12543SOL     OW39241   1.674   6.957   0.604  0.5156 -0.3446  0.0016
12543SOL    HW139242   1.699   6.879   0.653 -1.3087 -1.8754 -1.3678
12543SOL    HW239243   1.594   6.988   0.648 -0.1676 -0.7311 -0.9370
12544SOL     OW39244   1.360   0.533   1.443 -0.8137 -0.2202 -0.2439
12544SOL    HW139245   1.296   0.537   1.372 -0.6852 -0.6470 -0.3900
12544SOL    HW239246   1.358   0.441   1.471 -0.7498 -0.0860  0.1967
12545SOL     OW39247   5.743   3.518   1.960 -0.4754  0.1525 -0.6299
12545SOL    HW139248   5.807   3.587   1.977  0.7842 -1.2407  0.7044
12545SOL    HW239249   5.658   3.562   1.962  0.1293  1.3861  2.1276
12546SOL     OW39250   6.066   7.271   3.932 -0.8053  0.1775  0.0965
12546SOL    HW139251   6.017   7.191   3.912 -1.4770 -0.0578  2.4363
12546SOL    HW239252   6.145   7.240   3.976 -0.8625  0.7643  0.6285
12547SOL     OW39253   9.331   1.286   6.359  0.2415 -0.2220  0.0149
12547SOL    HW139254   9.367   1.255   6.276  1.7704  1.0934  0.1254
12547SOL    HW239255   9.245   1.321   6.336  1.4669  2.0557 -1.4968
12548SOL     OW39256   4.164   8.462   3.521  0.2994  0.2013  0.1199
12548SOL    HW139257   4.207   8.527   3.577  2.3035  0.3435 -1.4768
12548SOL    HW239258   4.217   8.383   3.531 -0.3016 -0.2649 -0.3074
12549SOL     OW39259   0.621   7.269   0.899  0.3198  0.1204  0.2878
12549SOL    HW139260   0.655   7.214   0.969  2.5727  1.8769  0.6787
12549SOL    HW239261   0.689   7.334   0.884 -1.0287  1.1157 -2.0753
12550SOL     OW39262   8.664   5.898   6.863 -0.2622 -0.0533 -0.8177
12550SOL    HW139263   8.698   5.810   6.880 -0.2121 -0.0157 -0.7256
12550SOL    HW239264   8.643   5.933   6.949 -0.1607  0.0740 -0.8454
12551SOL     OW39265   7.185   8.477   0.608 -0.3400 -0.4476  0.1190
12551SOL    HW139266   7.252   8.531   0.650  1.0328 -1.1376 -1.1281
12551SOL    HW239267   7.104   8.528   0.619  0.3220  0.3065  1.8281
12552SOL     OW39268   2.297   8.252   1.703  0.6665  0.3538 -0.5935
12552SOL    HW139269   2.273   8.216   1.617 -0.0116  1.8272 -1.0492
12552SOL    HW239270   2.308   8.175   1.759 -1.2913 -0.5659 -1.3718
12553SOL     OW39271   8.122   7.067   2.613  0.0506  0.1061  0.1052
12553SOL    HW139272   8.106   7.118   2.693  1.4985  0.6384  0.0847
12553SOL    HW239273   8.217   7.066   2.605 -0.0770  0.1645 -1.6884
12554SOL     OW39274   4.123   1.118   2.442  0.0238  0.2945 -0.4449
12554SOL    HW139275   4.035   1.142   2.413 -0.6291 -1.6885 -0.2936
12554SOL    HW239276   4.116   1.025   2.463  2.2204  0.0391 -0.6364
12555SOL     OW39277   1.305   1.070   2.364  0.7449 -0.4677 -0.0110
12555SOL    HW139278   1.249   1.136   2.323  1.6838 -0.0702 -0.6769
12555SOL    HW239279   1.306   0.997   2.303 -0.0318 -0.9939  0.5779
12556SOL     OW39280   4.003   4.231   4.286 -0.4231  0.0475 -0.2810
12556SOL    HW139281   3.924   4.282   4.272 -0.3276  0.3849  0.3810
12556SOL    HW239282   3.971   4.143   4.306 -0.6984  0.4369  1.1415
12557SOL     OW39283   3.112   3.198   5.022  0.1710  0.2285  0.2544
12557SOL    HW139284   3.144   3.112   4.993  0.2304 -0.3242  1.8559
12557SOL    HW239285   3.180   3.230   5.080 -0.4789  0.7387  0.7472
12558SOL     OW39286   2.005   1.544   6.847 -0.2752 -0.5568  0.5793
12558SOL    HW139287   2.025   1.507   6.762 -0.5279  0.0584  0.2425
12558SOL    HW239288   2.009   1.639   6.834  3.5650 -0.3142  2.1248
12559SOL     OW39289   8.942   4.928   6.113  0.6091  0.2151 -0.1560
12559SOL    HW139290   8.934   4.880   6.195  0.2057 -0.4891 -0.5974
12559SOL    HW239291   9.030   4.905   6.081  0.5538  0.0433 -0.1886
12560SOL     OW39292   6.111   2.330   2.332  0.2959  0.0967 -0.0933
12560SOL    HW139293   6.183   2.291   2.283 -0.2172 -1.3252  0.2521
12560SOL    HW239294   6.117   2.291   2.419 -2.0629 -1.6228 -0.6206
12561SOL     OW39295   7.496   4.151   6.307 -0.1945  0.2359 -0.4581
12561SOL    HW139296   7.455   4.108   6.232 -0.5030 -1.0318  0.3936
12561SOL    HW239297   7.590   4.136   6.295 -0.3221 -1.1973  0.0822
12562SOL     OW39298   0.422   3.786   4.656  0.0045 -0.0506 -0.5575
12562SOL    HW139299   0.448   3.694   4.649  0.3887 -0.2176  2.0669
12562SOL    HW239300   0.350   3.795   4.593 -0.1906 -2.1931 -0.7296
12563SOL     OW39301   7.181   3.361   8.965 -0.6247 -0.0513  0.8299
12563SOL    HW139302   7.122   3.334   8.895 -0.0152 -0.1903  0.3590
12563SOL    HW239303   7.130   3.352   9.045 -0.5897 -2.2383  0.6683
12564SOL     OW39304   2.169   2.719   3.381  0.1188 -0.2346  0.2752
12564SOL    HW139305   2.193   2.782   3.313  1.1452  0.4975  1.2618
12564SOL    HW239306   2.248   2.667   3.395 -0.0528 -0.3387  0.9214
12565SOL     OW39307   0.809   7.057   5.669  0.3530  0.0624 -0.1064
12565SOL    HW139308   0.731   7.063   5.725 -1.3869  1.2826 -2.4416
12565SOL    HW239309   0.825   6.963   5.660 -0.2216 -0.1905  1.2040
12566SOL     OW39310   4.934   6.694   7.845  0.7251  0.5757  0.1218
12566SOL    HW139311   4.990   6.626   7.807  0.4311 -0.5935  1.6794
12566SOL    HW239312   4.920   6.666   7.935 -4.0017 -0.2473 -0.6359
12567SOL     OW39313   6.578   3.994   5.466 -0.0894  0.1106  0.3037
12567SOL    HW139314   6.582   3.925   5.400  1.3986 -1.5843  2.0359
12567SOL    HW239315   6.657   4.046   5.452 -0.0022  0.0201  0.4508
12568SOL     OW39316   3.257   9.169   7.169  0.0139 -0.0407 -0.1796
12568SOL    HW139317   3.248   9.076   7.149 -0.8008  0.3531 -1.8566
12568SOL    HW239318   3.257   9.212   7.083  2.8566  1.3546  0.4093
12569SOL     OW39319   3.586   1.775   8.097  0.2575  0.1555 -0.3430
12569SOL    HW139320   3.665   1.812   8.059 -0.3960  2.5498  0.5019
12569SOL    HW239321   3.551   1.843   8.154 -0.2968 -2.2756  2.4773
12570SOL     OW39322   1.638   5.214   3.648  0.1550  0.0453 -0.1358
12570SOL    HW139323   1.556   5.207   3.698  0.2389  0.5962  0.0926
12570SOL    HW239324   1.706   5.189   3.710  0.1029 -1.1402 -0.5463
12571SOL     OW39325   9.757   6.837   4.913 -0.6639  0.4260 -0.3035
12571SOL    HW139326   9.688   6.884   4.961 -1.6193 -0.0391 -1.1857
12571SOL    HW239327   9.815   6.804   4.981 -0.2958  2.3539  0.3730
12572SOL     OW39328   4.702   2.881   7.109 -0.1881  0.1488  0.1926
12572SOL    HW139329   4.683   2.872   7.202  1.7681  0.8511  0.7058
12572SOL    HW239330   4.704   2.975   7.093  1.7575  0.1140 -0.0024
12573SOL     OW39331   6.914   1.062   8.347 -0.5021  0.7865 -0.0364
12573SOL    HW139332   6.978   1.114   8.396 -0.6517  1.1496 -0.2236
12573SOL    HW239333   6.938   1.072   8.256  0.5333 -0.9075  0.0172
12574SOL     OW39334   5.786   2.775   1.567  0.0593 -0.1226 -0.2056
12574SOL    HW139335   5.693   2.758   1.551 -0.9664  4.2002 -0.0005
12574SOL    HW239336   5.832   2.724   1.500 -2.5997 -0.7615 -1.6543
12575SOL     OW39337   8.804   7.783   8.339 -0.2791 -0.1222  0.7379
12575SOL    HW139338   8.895   7.776   8.309 -0.1779  0.8305  0.7874
12575SOL    HW239339   8.763   7.702   8.308  0.7801 -0.9642  1.4467
12576SOL     OW39340   4.853   4.560   6.295  0.5407  0.3179  0.5136
12576SOL    HW139341   4.840   4.649   6.261  0.2647  0.1107  0.0706
12576SOL    HW239342   4.937   4.532   6.258  0.9166  0.6125  1.1311
12577SOL     OW39343   3.123   8.577   4.127 -0.1391  0.0450 -0.0935
12577SOL    HW139344   3.060   8.530   4.072  0.6053 -1.3330  0.1876
12577SOL    HW239345   3.069   8.620   4.194 -0.7631 -1.8857  0.7213
12578SOL     OW39346   7.715   4.727   9.796  0.0230  0.5869 -0.2627
12578SOL    HW139347   7.757   4.705   9.713  1.3792 -0.2858  0.6074
12578SOL    HW239348   7.756   4.667   9.860 -2.1021  0.1249  0.7608
12579SOL     OW39349   5.586   2.116   4.725 -0.1828 -0.3891  0.4436
12579SOL    HW139350   5.533   2.163   4.789 -0.9739 -0.4506 -0.1534
12579SOL    HW239351   5.590   2.027   4.758 -3.2851 -1.2678 -1.1022
12580SOL     OW39352   5.464   6.802   6.405  0.4665  0.0892 -0.2216
12580SOL    HW139353   5.463   6.713   6.443 -0.9080 -0.0129 -0.4369
12580SOL    HW239354   5.551   6.811   6.367  0.3304 -1.5335 -1.0014
12581SOL     OW39355   8.402   9.489   4.837  0.3113  0.1103  0.1212
12581SOL    HW139356   8.452   9.469   4.916  0.3919  0.8962  0.2816
12581SOL    HW239357   8.338   9.418   4.830  0.7500 -0.3314  0.5082
12582SOL     OW39358   5.808   8.596   6.239  0.7437 -0.1852 -0.2609
12582SOL    HW139359   5.877   8.572   6.301  0.7185  0.2101 -0.0752
12582SOL    HW239360   5.730   8.551   6.272  1.0003 -0.9675 -0.7074
12583SOL     OW39361   4.566   8.797   6.093  0.2067  0.4806 -0.3754
12583SOL    HW139362   4.476   8.829   6.089 -0.1057 -0.3249  0.0508
12583SOL    HW239363   4.572   8.750   6.176  0.7290 -0.3262 -0.8531
12584SOL     OW39364   9.482   7.466   6.857 -0.0655 -0.2190 -0.0214
12584SOL    HW139365   9.556   7.494   6.803  1.2368  0.8818  2.2124
12584SOL    HW239366   9.420   7.539   6.854  0.0467 -0.1214  0.0787
12585SOL     OW39367   8.002   9.440   5.633  0.0931 -0.2264  0.4864
12585SOL    HW139368   7.928   9.479   5.679  0.4687  0.0513  0.8660
12585SOL    HW239369   8.007   9.488   5.550  0.1746  0.1161  0.6885
12586SOL     OW39370   9.477   4.309   6.006  0.4003  0.4965 -0.0359
12586SOL    HW139371   9.422   4.365   5.951 -1.1845 -1.1502 -0.2421
12586SOL    HW239372   9.528   4.257   5.944  0.0175 -0.0152  0.0642
12587SOL     OW39373   1.888   0.577   7.291  0.1579  0.1065  0.3587
12587SOL    HW139374   1.795   0.555   7.287  0.4897 -1.4611  0.5178
12587SOL    HW239375   1.916   0.549   7.378  1.0133 -0.5395 -0.0966
12588SOL     OW39376   0.074   9.334   5.132 -0.0303 -0.4568  0.1646
12588SOL    HW139377   0.116   9.392   5.069 -1.1854 -0.3947 -0.5765
12588SOL    HW239378   0.007   9.388   5.173 -0.3506 -0.9436  0.2865
12589SOL     OW39379   0.811   6.103   1.998 -0.0217  0.7104  0.2575
12589SOL    HW139380   0.725   6.104   2.040  0.1222 -0.3573  0.5950
12589SOL    HW239381   0.873   6.108   2.071  0.2490 -2.0168  0.2884
12590SOL     OW39382   6.893   8.468   7.396 -0.3235 -0.3160  0.1340
12590SOL    HW139383   6.837   8.513   7.459  0.1474 -1.5302  1.4811
12590SOL    HW239384   6.942   8.537   7.353  0.5114  0.4798  2.2539
12591SOL     OW39385   6.711   3.273   1.313 -0.4144 -0.1937 -0.4184
12591SOL    HW139386   6.646   3.277   1.243 -1.4062  2.2985  0.5513
12591SOL    HW239387   6.790   3.311   1.275 -0.0968 -1.3301 -0.9558
12592SOL     OW39388   4.690   3.928   4.574  0.3624 -0.0167  0.2973
12592SOL    HW139389   4.626   3.873   4.619  0.9181  0.7031  2.0441
12592SOL    HW239390   4.760   3.868   4.549  0.9964 -0.1540  2.2407
12593SOL     OW39391   7.443   0.373   4.619  0.0377 -0.0847  0.2117
12593SOL    HW139392   7.461   0.440   4.553  1.0182 -0.5490 -0.0046
12593SOL    HW239393   7.360   0.401   4.659  0.9350  1.8406  0.8513
12594SOL     OW39394   8.064   4.054   6.292 -0.1669  0.2741 -0.0342
12594SOL    HW139395   8.128   3.986   6.310 -0.9188 -0.3841  0.2115
12594SOL    HW239396   8.111   4.118   6.238  0.5622 -0.4041 -0.2177
12595SOL     OW39397   0.450   6.700   2.170  0.2361 -0.6458  0.4974
12595SOL    HW139398   0.499   6.670   2.094 -0.2168 -0.1254 -0.0040
12595SOL    HW239399   0.454   6.626   2.231  1.2694 -0.7743  0.2960
12596SOL     OW39400   4.677   1.811   6.516 -0.3284 -0.3552 -0.3956
12596SOL    HW139401   4.641   1.763   6.590  0.3307 -0.3914 -0.0856
12596SOL    HW239402   4.647   1.763   6.439  2.4510 -2.9247 -0.0613
12597SOL     OW39403   8.710   2.675   2.770 -0.0140 -0.1388 -0.0754
12597SOL    HW139404   8.761   2.595   2.780  1.1520  0.6401  0.4382
12597SOL    HW239405   8.757   2.725   2.703 -0.6291  0.1929 -0.2685
12598SOL     OW39406   1.813   4.971   5.962 -0.0160  0.0337  0.3679
12598SOL    HW139407   1.884   4.995   6.022  0.0386  0.1046  0.2749
12598SOL    HW239408   1.857   4.945   5.881 -0.0913 -0.0391  0.3504
12599SOL     OW39409   6.977   7.881   6.689 -0.2239 -0.1985  0.8169
12599SOL    HW139410   7.038   7.954   6.698  0.3999 -0.5257 -0.4866
12599SOL    HW239411   7.003   7.819   6.758  0.5392 -0.0657  0.6572
12600SOL     OW39412   0.557   8.210   7.091  0.1532  0.1664 -0.5063
12600SOL    HW139413   0.629   8.148   7.082 -0.9293 -0.8971 -2.4248
12600SOL    HW239414   0.536   8.236   7.002 -2.3613 -0.1733 -0.0942
12601SOL     OW39415   9.575   7.946   2.558  0.3481 -0.0010  0.7365
12601SOL    HW139416   9.609   8.036   2.556 -0.4598  0.3410 -1.6733
12601SOL    HW239417   9.484   7.955   2.586  0.5412 -0.2081  1.4513
12602SOL     OW39418   2.221   7.244   4.404  0.1490  0.2537  0.1343
12602SOL    HW139419   2.213   7.336   4.429 -1.4550  0.4107 -0.7716
12602SOL    HW239420   2.172   7.196   4.471 -1.4112  0.3776 -0.8388
12603SOL     OW39421   4.614   7.103   9.061 -0.2537  0.4219 -0.0498
12603SOL    HW139422   4.540   7.069   9.009 -0.4145  0.6377  0.0359
12603SOL    HW239423   4.630   7.190   9.026 -0.2674  0.5115  0.1652
12604SOL     OW39424   3.693   4.273   5.511 -0.3845  0.0406  0.0772
12604SOL    HW139425   3.749   4.196   5.519  1.3513  1.2273 -0.1435
12604SOL    HW239426   3.731   4.336   5.573 -1.6379  0.7975  0.1021
12605SOL     OW39427   7.453   5.569   5.368  0.3918 -0.0023  0.1261
12605SOL    HW139428   7.492   5.634   5.310  1.6718  0.3684  1.3239
12605SOL    HW239429   7.382   5.530   5.317  0.7714  1.0458 -1.2710
12606SOL     OW39430   8.505   5.001   6.186  0.1976 -0.1726 -0.1603
12606SOL    HW139431   8.562   4.953   6.246 -2.2918 -0.5063  2.0950
12606SOL    HW239432   8.457   4.932   6.139 -1.2686  0.0216  0.9744
12607SOL     OW39433   3.068   6.916   3.211 -0.0268  0.0675  0.1376
12607SOL    HW139434   3.067   6.972   3.133 -0.2815  0.8437  0.6903
12607SOL    HW239435   3.003   6.848   3.193  0.7311 -0.4353 -0.8032
12608SOL     OW39436   1.247   9.755   3.135 -0.1574  0.0088  0.3002
12608SOL    HW139437   1.156   9.745   3.165 -0.0005  2.6147  1.9876
12608SOL    HW239438   1.300   9.719   3.205  0.1491 -1.0019 -0.4362
12609SOL     OW39439   0.671   6.198   8.799 -0.6079 -0.5820 -0.1123
12609SOL    HW139440   0.701   6.271   8.744 -0.3765  0.6703  1.6251
12609SOL    HW239441   0.682   6.121   8.742  0.9359  0.4737 -1.3625
12610SOL     OW39442   5.273   9.712   0.634 -0.5551  0.0410  0.4000
12610SOL    HW139443   5.323   9.783   0.675 -2.1543  1.8903 -0.6871
12610SOL    HW239444   5.271   9.735   0.541 -1.8905 -0.9397  0.1528
12611SOL     OW39445   5.586   6.533   7.204  0.2994 -0.5044  0.0862
12611SOL    HW139446   5.671   6.529   7.247  1.7544  0.9098 -2.4336
12611SOL    HW239447   5.603   6.505   7.114 -1.9652 -0.4916 -0.4066
12612SOL     OW39448   4.964   2.362   9.090 -0.1398 -0.4104  0.2851
12612SOL    HW139449   5.044   2.314   9.113 -0.0542  0.2042  1.3148
12612SOL    HW239450   4.902   2.294   9.065  1.3046 -0.8299 -2.6206
12613SOL     OW39451   5.930   2.239   9.517  0.6592 -0.6159 -0.0773
12613SOL    HW139452   5.854   2.296   9.531  0.1798 -1.4745  0.9939
12613SOL    HW239453   6.003   2.299   9.506 -0.1049  0.2228 -0.7380
12614SOL     OW39454   8.164   1.499   2.456  0.2992 -0.1706 -0.1437
12614SOL    HW139455   8.163   1.427   2.393  0.5082 -0.8371  0.5940
12614SOL    HW239456   8.072   1.521   2.469  0.0134 -2.0275  1.4999
12615SOL     OW39457   9.277   5.165   4.372 -0.3454 -0.1128 -0.2732
12615SOL    HW139458   9.235   5.136   4.291  0.2894  1.1760 -1.0829
12615SOL    HW239459   9.211   5.219   4.416 -0.5038 -0.3972 -0.1504
12616SOL     OW39460   4.229   7.818   0.413  0.4358 -0.0676 -1.2053
12616SOL    HW139461   4.176   7.879   0.362 -1.2067  0.3097  0.8433
12616SOL    HW239462   4.317   7.856   0.411 -0.3636  1.9697 -0.7047
12617SOL     OW39463   2.587   6.200   7.295 -0.7643  0.3898  0.4662
12617SOL    HW139464   2.648   6.273   7.296 -0.7230  0.4137 -1.1011
12617SOL    HW239465   2.642   6.122   7.305 -0.6405  0.4979  0.6131
12618SOL     OW39466   1.439   4.914   1.088  0.4274 -0.0562  1.0617
12618SOL    HW139467   1.466   5.003   1.107 -0.5701  0.4943  0.0823
12618SOL    HW239468   1.350   4.923   1.052  0.8134 -1.2883 -0.3371
12619SOL     OW39469   4.593   1.991   0.329 -0.0488 -0.1112  0.1068
12619SOL    HW139470   4.662   1.951   0.277  0.3730  0.2309  0.3875
12619SOL    HW239471   4.560   1.920   0.384  1.3594  0.1001  1.3098
12620SOL     OW39472   8.853   3.327   3.892  0.2331  0.0146 -0.7233
12620SOL    HW139473   8.912   3.349   3.963 -0.8366  0.8082 -0.0543
12620SOL    HW239474   8.766   3.329   3.931 -0.3434  0.0779 -1.9592
12621SOL     OW39475   1.193   3.866   5.483 -0.2092  0.5125  0.3726
12621SOL    HW139476   1.176   3.891   5.573  0.7144 -0.7354  0.9309
12621SOL    HW239477   1.288   3.851   5.480 -0.4136 -0.8043 -0.4191
12622SOL     OW39478   5.869   3.480   7.888 -0.6651  0.2506 -0.0733
12622SOL    HW139479   5.831   3.397   7.915 -2.2494  0.8722 -0.2527
12622SOL    HW239480   5.919   3.510   7.964 -1.5551 -0.0362  0.6478
12623SOL     OW39481   8.911   9.712   6.114 -0.0831  0.6007  0.2692
12623SOL    HW139482   8.976   9.768   6.070  0.0903  0.1056 -0.1080
12623SOL    HW239483   8.890   9.645   6.050 -0.0095  0.0085  0.8574
12624SOL     OW39484   6.641   5.328   8.744  0.8210  0.3317 -0.6533
12624SOL    HW139485   6.633   5.400   8.681 -0.8204  0.0081 -0.8688
12624SOL    HW239486   6.735   5.316   8.755  1.1248  2.0967 -1.0796
12625SOL     OW39487   3.173   3.276   3.850 -0.1130  0.3000  0.1058
12625SOL    HW139488   3.161   3.341   3.780 -1.0317  0.1025  0.0655
12625SOL    HW239489   3.174   3.327   3.931  2.5143  0.7098 -0.0934
12626SOL     OW39490   1.430   6.762   4.917 -0.5668 -0.2427  0.0736
12626SOL    HW139491   1.363   6.789   4.854  1.1223  0.2190 -1.6127
12626SOL    HW239492   1.471   6.685   4.877  0.3509 -0.1135  0.7362
12627SOL     OW39493   2.056   4.397   1.761  0.8057  0.1662 -0.1488
12627SOL    HW139494   2.060   4.468   1.697 -1.1834  0.7499  0.2966
12627SOL    HW239495   2.013   4.325   1.714  0.9997 -0.0536  0.0055
12628SOL     OW39496   9.019   4.803   6.396  0.2886 -0.2094  0.1157
12628SOL    HW139497   8.963   4.729   6.372 -0.9258  0.2255  1.5188
12628SOL    HW239498   9.094   4.762   6.440 -0.8596 -0.5914  1.8009
12629SOL     OW39499   4.620   3.341   2.596  0.2749 -0.5738 -0.2165
12629SOL    HW139500   4.575   3.297   2.668  0.6129  0.1132  0.4387
12629SOL    HW239501   4.594   3.433   2.605  0.7903 -0.3862 -0.6151
12630SOL     OW39502   6.383   8.838   9.031  0.1106 -0.5002 -0.1690
12630SOL    HW139503   6.387   8.794   8.947  2.5310 -1.2133  0.2516
12630SOL    HW239504   6.470   8.874   9.044 -0.1345 -0.5621  2.1103
12631SOL     OW39505   7.346   9.607   3.946  0.2943  0.0650  0.0796
12631SOL    HW139506   7.378   9.695   3.964  0.3304  0.1115 -0.2039
12631SOL    HW239507   7.314   9.575   4.031  0.3174  0.3343  0.1910
12632SOL     OW39508   7.731   3.314   5.149  0.0945 -0.7183  0.2160
12632SOL    HW139509   7.654   3.361   5.181  1.3220  0.4712  1.6096
12632SOL    HW239510   7.739   3.340   5.058 -1.1205 -0.8267  0.0702
12633SOL     OW39511   4.066   5.226   6.225  0.2836  0.1354 -0.3690
12633SOL    HW139512   4.083   5.140   6.263  2.4298  0.6086 -0.1002
12633SOL    HW239513   4.153   5.266   6.218 -0.4412  1.5021 -2.3719
12634SOL     OW39514   3.655   1.948   4.004 -0.3788  0.3922 -0.5940
12634SOL    HW139515   3.751   1.945   4.002 -0.4010 -0.5165 -0.7047
12634SOL    HW239516   3.632   2.014   3.939  0.2412  2.7413  1.4156
12635SOL     OW39517   0.066   6.997   7.599 -0.0421 -0.1600  0.0852
12635SOL    HW139518   0.005   7.035   7.535  0.4433  0.0198 -0.2740
12635SOL    HW239519   0.149   6.992   7.553  0.0519 -1.0815  0.3383
12636SOL     OW39520   9.319   5.803   8.214  0.0901 -0.9072 -0.3066
12636SOL    HW139521   9.358   5.810   8.126  0.7823  1.3922  0.1219
12636SOL    HW239522   9.244   5.862   8.212 -0.4673 -1.5607  0.4002
12637SOL     OW39523   0.060   9.148   3.654  0.0898  0.5102  0.2406
12637SOL    HW139524  -0.026   9.151   3.694 -0.4591  0.3801 -0.8908
12637SOL    HW239525   0.082   9.055   3.652  0.3987  0.5660  0.8013
12638SOL     OW39526   3.404   9.788   4.161  0.2367 -0.4459 -0.2713
12638SOL    HW139527   3.368   9.861   4.212  0.9665 -0.7733  0.7551
12638SOL    HW239528   3.397   9.817   4.070 -0.9455  0.2298  0.0152
12639SOL     OW39529   5.916   3.686   1.120  0.5702  0.0688  0.1344
12639SOL    HW139530   5.939   3.597   1.147 -0.8795 -0.3689  0.0110
12639SOL    HW239531   6.000   3.728   1.100  1.2301 -1.4937 -0.4869
12640SOL     OW39532   2.727   6.689   1.056 -0.0259 -0.0935 -0.7179
12640SOL    HW139533   2.662   6.756   1.034  0.3010  0.0612 -1.2186
12640SOL    HW239534   2.704   6.615   0.999 -0.6891 -0.6007  0.1764
12641SOL     OW39535   0.825   5.949   1.187  0.4426  0.1065  0.7688
12641SOL    HW139536   0.845   6.002   1.110  0.5340 -0.4750  0.3864
12641SOL    HW239537   0.777   6.008   1.245  2.0991  1.1586  1.1484
12642SOL     OW39538   5.378   7.890   8.164  0.6983  0.0862  0.2770
12642SOL    HW139539   5.350   7.948   8.092  1.7232 -0.1924 -0.3568
12642SOL    HW239540   5.351   7.803   8.136  0.2443  0.0960  0.6759
12643SOL     OW39541   6.919   4.891   1.218 -0.4686  0.2650 -0.0138
12643SOL    HW139542   6.919   4.821   1.284 -0.7574 -0.4403 -0.7364
12643SOL    HW239543   6.826   4.911   1.204 -0.3977  0.5955 -0.0086
12644SOL     OW39544   2.834   4.382   6.180 -0.6794  0.1480 -0.4930
12644SOL    HW139545   2.789   4.359   6.261  0.5152 -0.3205  0.0609
12644SOL    HW239546   2.844   4.477   6.184  1.9866 -0.1091  1.3908
12645SOL     OW39547   8.657   3.011   6.469 -0.0681  0.3631  0.3965
12645SOL    HW139548   8.660   2.940   6.532  0.1964 -0.2404 -0.2904
12645SOL    HW239549   8.749   3.030   6.449 -0.1493 -0.9967 -1.5062
12646SOL     OW39550   2.630   2.979   3.702 -0.0473 -0.8000  0.0557
12646SOL    HW139551   2.703   3.037   3.678 -0.2179 -0.9839 -0.9292
12646SOL    HW239552   2.657   2.892   3.673  0.7467 -1.5096  2.6330
12647SOL     OW39553   3.949   6.246   2.660 -0.0234  0.5275  0.5009
12647SOL    HW139554   3.935   6.320   2.601 -1.7563 -0.8804 -0.9586
12647SOL    HW239555   4.002   6.184   2.609  1.4728  0.7467  1.7282
12648SOL     OW39556   5.056   0.164   8.569  0.3282 -0.7918  0.2476
12648SOL    HW139557   5.112   0.170   8.646 -1.3195  0.4758  1.4347
12648SOL    HW239558   5.066   0.249   8.525 -1.3127 -0.1346  1.0305
12649SOL     OW39559   7.472   8.448   9.806 -0.0134  0.3014  0.4992
12649SOL    HW139560   7.454   8.542   9.809  0.6470  0.4312  0.4930
12649SOL    HW239561   7.401   8.412   9.753  0.5750  1.0092 -0.8321
12650SOL     OW39562   1.402   5.976   8.876  0.2837  0.2563  0.6457
12650SOL    HW139563   1.388   6.004   8.785 -2.0467 -0.0117  0.8434
12650SOL    HW239564   1.455   5.897   8.869  0.3914  0.4088 -0.4791
12651SOL     OW39565   5.761   6.631   1.077  0.0513  0.7126 -0.3611
12651SOL    HW139566   5.820   6.699   1.043  1.5042 -1.5698 -2.7675
12651SOL    HW239567   5.817   6.577   1.132 -0.8317  0.8226  0.6572
12652SOL     OW39568   8.104   3.138   3.533  0.0749 -0.0427  0.3853
12652SOL    HW139569   8.058   3.212   3.572 -1.9068 -0.4062 -1.1441
12652SOL    HW239570   8.126   3.167   3.444  3.0793  0.1842  1.0819
12653SOL     OW39571   4.463   1.915   8.597  0.2133 -0.1553 -0.2110
12653SOL    HW139572   4.535   1.893   8.655  0.9875  0.0553 -1.0596
12653SOL    HW239573   4.386   1.921   8.654  0.5064 -2.1082  0.4703
12654SOL     OW39574   7.405   7.997   9.081 -0.0712 -0.5107  0.2114
12654SOL    HW139575   7.440   7.942   9.151  0.3897  1.6999  1.7872
12654SOL    HW239576   7.433   7.952   9.000  1.3638 -1.8968  1.4120
12655SOL     OW39577   3.133   2.655   7.771 -0.3868 -0.0727 -0.1631
12655SOL    HW139578   3.064   2.644   7.837  1.1549 -0.3308  1.4999
12655SOL    HW239579   3.134   2.572   7.723 -0.0813 -0.7578  0.9933
12656SOL     OW39580   0.082   8.959   1.631 -0.3446  0.3388 -0.4153
12656SOL    HW139581   0.175   8.951   1.606 -0.1696  0.6348  0.1286
12656SOL    HW239582   0.074   9.050   1.661 -0.8114  0.3083 -0.4489
12657SOL     OW39583   4.038   2.452   3.689 -0.0228  0.3795  0.2031
12657SOL    HW139584   4.093   2.376   3.709  0.5299  1.0357  1.2931
12657SOL    HW239585   3.961   2.442   3.745 -0.2416  0.3010 -0.1120
12658SOL     OW39586   0.333   4.920   2.397 -0.2195  0.7467 -0.0695
12658SOL    HW139587   0.335   4.995   2.457  0.2731 -0.5085  1.5430
12658SOL    HW239588   0.380   4.950   2.319  1.2130  1.6542  1.1055
12659SOL     OW39589   9.728   3.005   1.868 -0.5377  0.1323  0.3467
12659SOL    HW139590   9.668   2.932   1.882 -1.1719  0.5691 -0.0444
12659SOL    HW239591   9.737   3.046   1.954 -2.0253  0.9871  0.1227
12660SOL     OW39592   3.518   0.079   9.109  0.0700  0.5280 -0.1885
12660SOL    HW139593   3.473   0.002   9.143  0.6357  0.1874 -0.1932
12660SOL    HW239594   3.598   0.044   9.069  0.9603  1.2232  0.9032
12661SOL     OW39595   8.820   2.658   8.799  0.4183  0.3315 -0.2840
12661SOL    HW139596   8.821   2.712   8.720  1.4506  0.9505  0.1294
12661SOL    HW239597   8.901   2.607   8.795  0.5576  0.4748  0.4196
12662SOL     OW39598   2.867   3.144   3.638 -0.1832 -0.0945 -0.0466
12662SOL    HW139599   2.816   3.199   3.579 -1.2137  0.2316  1.1040
12662SOL    HW239600   2.861   3.188   3.723  2.2879  0.1175  0.0833
12663SOL     OW39601   3.328   7.661   5.365 -0.2592  0.2694  0.4382
12663SOL    HW139602   3.376   7.616   5.434 -0.8606  0.2038  0.8173
12663SOL    HW239603   3.307   7.593   5.301  0.4749  0.3678  0.0884
12664SOL     OW39604   5.633   6.022   4.438 -0.0020  0.3988 -0.1022
12664SOL    HW139605   5.656   6.109   4.406 -0.7748  0.6919  0.1151
12664SOL    HW239606   5.692   6.008   4.513  0.2903  0.6272 -0.2852
12665SOL     OW39607   0.266   0.369   5.822  0.7780 -0.3298 -0.0878
12665SOL    HW139608   0.293   0.364   5.913  0.5122 -0.8044 -0.0365
12665SOL    HW239609   0.322   0.305   5.777  3.1782  2.0810 -0.8203
12666SOL     OW39610   4.083   7.397   4.850  0.1063 -0.0016 -0.3169
12666SOL    HW139611   4.017   7.398   4.919  0.5046 -3.5662  0.3272
12666SOL    HW239612   4.038   7.431   4.773 -1.9836 -0.7644  0.4871
12667SOL     OW39613   3.810   2.286   4.209  0.7185 -0.6518 -0.0867
12667SOL    HW139614   3.900   2.277   4.240  1.1361 -0.1671 -1.1009
12667SOL    HW239615   3.762   2.218   4.256  0.8172  1.3765  3.2341
12668SOL     OW39616   5.071   2.232   1.953  0.1495  0.0097  0.3900
12668SOL    HW139617   5.108   2.158   1.905 -0.6222 -0.1319 -0.0011
12668SOL    HW239618   5.062   2.301   1.887 -1.7587 -0.4767  0.0851
12669SOL     OW39619   2.859   3.280   4.314 -0.3711 -0.2207 -0.0205
12669SOL    HW139620   2.943   3.242   4.339 -0.4986 -0.5472 -0.0705
12669SOL    HW239621   2.842   3.348   4.379  0.5459  0.7499 -0.7756
12670SOL     OW39622   0.576   6.761   0.875  0.0025 -0.2226 -0.0404
12670SOL    HW139623   0.544   6.673   0.859  1.1478 -0.3732 -1.8014
12670SOL    HW239624   0.504   6.819   0.850 -0.4368 -0.6299  0.2821
12671SOL     OW39625   1.960   4.194   1.976  0.0755 -0.2453 -0.1732
12671SOL    HW139626   1.951   4.210   1.882 -0.6705  2.8734  0.3433
12671SOL    HW239627   2.044   4.234   1.999  0.3882 -1.2331  0.4944
12672SOL     OW39628   1.434   2.214   7.360 -0.1342 -0.5003 -0.7021
12672SOL    HW139629   1.403   2.280   7.421  1.8540  1.6153 -1.8215
12672SOL    HW239630   1.360   2.198   7.302 -0.3197  1.7240 -1.1646
12673SOL     OW39631   5.291   9.478   4.013  0.0837 -0.0754 -0.1423
12673SOL    HW139632   5.321   9.561   4.049  1.0087  0.4049 -1.9368
12673SOL    HW239633   5.323   9.412   4.075  0.3252  0.8010  0.6987
12674SOL     OW39634   1.464   8.026   0.475  0.4386  0.1144  0.0902
12674SOL    HW139635   1.402   7.955   0.456 -0.0007  0.0684  1.5869
12674SOL    HW239636   1.482   8.065   0.389 -2.4440  0.7603 -0.3221
12675SOL     OW39637   8.802   8.476   3.823 -0.1774 -0.2293  0.3012
12675SOL    HW139638   8.764   8.559   3.854 -1.5335 -0.8973  0.5035
12675SOL    HW239639   8.738   8.410   3.847  1.8732 -1.6787  2.0994
12676SOL     OW39640   6.716   4.488   2.076  0.0247  0.2602 -0.4550
12676SOL    HW139641   6.789   4.426   2.073  0.8193  1.0409  1.2858
12676SOL    HW239642   6.643   4.438   2.112  0.7077  0.3402  1.0920
12677SOL     OW39643   9.618   2.980   8.270  0.0326 -0.5174  0.6724
12677SOL    HW139644   9.587   2.962   8.359 -1.6458 -1.8186 -0.1315
12677SOL    HW239645   9.632   3.074   8.268  2.5922 -0.7115  3.0447
12678SOL     OW39646   0.686   3.704   8.913  0.6188 -0.1005  0.2472
12678SOL    HW139647   0.768   3.707   8.961  0.4876  1.2493  0.4369
12678SOL    HW239648   0.621   3.740   8.975  0.2232  0.4873 -0.4954
12679SOL     OW39649   7.999   9.425   8.584 -0.2600 -0.7422 -0.0742
12679SOL    HW139650   8.076   9.475   8.557  0.1608 -0.9459  0.6982
12679SOL    HW239651   7.973   9.375   8.506  0.1241 -0.3390 -0.4618
12680SOL     OW39652   0.619   7.165   3.066  0.8891 -0.0356 -0.0914
12680SOL    HW139653   0.598   7.079   3.030 -0.3363  0.0193  0.4368
12680SOL    HW239654   0.695   7.194   3.015  0.1656 -0.6062 -1.5677
12681SOL     OW39655   9.810   0.170   7.493 -0.0223  0.7305 -0.1211
12681SOL    HW139656   9.759   0.145   7.416  2.1205 -1.9673 -0.8525
12681SOL    HW239657   9.811   0.266   7.491 -3.3784  0.8721 -1.0627
12682SOL     OW39658   4.086   4.904   7.711  0.2118  0.6885 -0.2716
12682SOL    HW139659   4.142   4.933   7.638 -0.2776  0.5107 -0.7295
12682SOL    HW239660   4.022   4.846   7.670  0.5339 -0.2190  0.4728
12683SOL     OW39661   8.375   1.129   1.663 -0.1026 -0.2845  0.3685
12683SOL    HW139662   8.329   1.175   1.593 -0.6154 -3.3870 -1.5536
12683SOL    HW239663   8.460   1.107   1.626  0.3321 -0.4173  1.4135
12684SOL     OW39664   9.572   4.531   3.385 -0.3100  0.2553  0.3068
12684SOL    HW139665   9.638   4.587   3.343  0.7694 -1.1836 -0.0001
12684SOL    HW239666   9.492   4.546   3.334 -0.1535  1.7426  0.4421
12685SOL     OW39667   5.343   5.765   1.192  0.9473  0.1457 -0.6387
12685SOL    HW139668   5.418   5.767   1.251  0.1134 -0.6608  0.4937
12685SOL    HW239669   5.267   5.776   1.249  0.1134 -0.4945 -1.5768
12686SOL     OW39670   6.481   4.420   9.814 -0.5268 -0.2060 -0.2161
12686SOL    HW139671   6.483   4.325   9.826 -2.2218 -0.2178  0.1402
12686SOL    HW239672   6.389   4.444   9.826  0.1711  1.7620  2.0841
12687SOL     OW39673   6.942   5.851   5.765 -0.2192  0.0042 -0.1432
12687SOL    HW139674   6.906   5.926   5.718 -0.1495 -0.4124 -0.8644
12687SOL    HW239675   6.990   5.890   5.839 -0.4099  0.6532 -0.3569
12688SOL     OW39676   3.571   5.976   7.432 -0.1085  0.6032  0.0928
12688SOL    HW139677   3.478   5.958   7.421  0.1054  0.1075 -1.0094
12688SOL    HW239678   3.612   5.941   7.353  0.8239  2.2243 -0.1875
12689SOL     OW39679   5.567   0.567   8.512  1.4649 -0.8463  0.1645
12689SOL    HW139680   5.612   0.601   8.435  0.6928 -0.7907 -0.2734
12689SOL    HW239681   5.634   0.563   8.580  2.6338 -2.8228 -1.0453
12690SOL     OW39682   3.387   3.194   3.036  0.2931 -0.2954  0.4089
12690SOL    HW139683   3.478   3.204   3.009  0.5813 -0.2162  1.3786
12690SOL    HW239684   3.356   3.117   2.989  0.7014 -0.0239 -0.3204
12691SOL     OW39685   6.720   3.980   8.027 -0.2690  0.6090  0.2689
12691SOL    HW139686   6.779   3.964   7.954 -1.3597  1.0358 -0.7351
12691SOL    HW239687   6.767   3.947   8.104  0.2674 -1.2874 -0.8116
12692SOL     OW39688   7.834   3.293   7.931  0.0492  0.4093 -0.2166
12692SOL    HW139689   7.924   3.260   7.936 -0.2031 -0.8256 -2.3501
12692SOL    HW239690   7.843   3.383   7.900  0.5621  0.6287  0.5439
12693SOL     OW39691   5.318   5.456   1.211 -0.2746 -0.0685 -0.9406
12693SOL    HW139692   5.245   5.419   1.161  0.2810 -1.5915 -0.6776
12693SOL    HW239693   5.324   5.547   1.181 -2.3165  0.1359 -0.9151
12694SOL     OW39694   8.575   8.992   2.390 -0.2146 -0.2598  0.2575
12694SOL    HW139695   8.581   9.041   2.472 -0.6067  0.5160 -0.1681
12694SOL    HW239696   8.665   8.985   2.359 -0.2886  1.5734 -0.4681
12695SOL     OW39697   0.858   1.837   4.372  0.0353 -0.4483 -0.2599
12695SOL    HW139698   0.904   1.817   4.290 -0.0984  1.4650 -0.8563
12695SOL    HW239699   0.915   1.900   4.417 -1.1375  0.6047 -0.1826
12696SOL     OW39700   4.359   8.491   6.201  0.2088 -0.2338  0.0558
12696SOL    HW139701   4.411   8.412   6.190  0.8063  0.1108  0.3529
12696SOL    HW239702   4.289   8.466   6.262 -1.2099 -1.2604 -1.8682
12697SOL     OW39703   7.391   8.025   3.088  0.6303  0.0196 -0.5687
12697SOL    HW139704   7.466   8.036   3.030 -0.1587  2.6973 -1.2270
12697SOL    HW239705   7.317   8.010   3.030  0.5197 -2.3913  0.0681
12698SOL     OW39706   3.972   3.437   9.320 -0.5534 -0.0413  0.0236
12698SOL    HW139707   3.972   3.487   9.402 -3.5910 -0.7422  0.5993
12698SOL    HW239708   4.056   3.457   9.279  0.2204  1.9382  2.3364
12699SOL     OW39709   5.477   5.358   5.757  0.1003 -0.1334  0.5645
12699SOL    HW139710   5.489   5.453   5.765 -2.3687  0.3331 -0.4056
12699SOL    HW239711   5.499   5.324   5.844  0.3359  1.4175  1.1437
12700SOL     OW39712   1.364   6.749   1.704  0.3751 -0.2970 -0.0626
12700SOL    HW139713   1.374   6.663   1.663 -1.0648  0.0201 -1.1805
12700SOL    HW239714   1.401   6.739   1.792  0.9238 -1.8308 -0.4429
12701SOL     OW39715   7.286   5.317   6.358 -0.4258 -0.2327 -0.3599
12701SOL    HW139716   7.346   5.264   6.305 -2.2116 -1.6148 -1.0952
12701SOL    HW239717   7.235   5.366   6.294 -1.2769 -0.4168  0.1687
12702SOL     OW39718   2.189   3.797   7.569 -0.0212 -0.2471 -0.5962
12702SOL    HW139719   2.185   3.852   7.648  0.1839 -1.7971  0.5511
12702SOL    HW239720   2.171   3.857   7.497  1.8066  1.6464  0.4297
12703SOL     OW39721   9.006   2.702   4.575 -0.1109  0.0664  0.0356
12703SOL    HW139722   9.033   2.697   4.667  0.7069 -0.8794 -0.2381
12703SOL    HW239723   9.016   2.794   4.552 -1.8028  0.6182  1.3089
12704SOL     OW39724   7.187   4.673   4.546  0.0464  0.5478 -0.2020
12704SOL    HW139725   7.277   4.706   4.545  0.1212  0.3407 -0.3243
12704SOL    HW239726   7.154   4.694   4.633 -0.4005  2.2881 -0.7482
12705SOL     OW39727   4.905   4.068   7.832 -0.2094 -1.0104  0.2355
12705SOL    HW139728   4.855   4.005   7.780 -0.3014 -0.2345 -0.6275
12705SOL    HW239729   4.926   4.139   7.772  0.3361 -0.4443  1.0645
12706SOL     OW39730   8.640   1.844   7.067  0.0037 -0.2100 -0.3560
12706SOL    HW139731   8.733   1.865   7.077 -0.3096  1.4276 -0.6345
12706SOL    HW239732   8.595   1.925   7.089 -1.5406 -1.7368  2.7401
12707SOL     OW39733   8.733   1.793   3.344  0.1460  0.0301 -0.1998
12707SOL    HW139734   8.759   1.733   3.413  1.9885 -0.0468 -0.9036
12707SOL    HW239735   8.655   1.837   3.378 -0.4680 -1.7751  0.8675
12708SOL     OW39736   1.172   6.987   2.015  0.2964  0.0215 -0.2820
12708SOL    HW139737   1.180   7.008   1.922 -0.6949 -0.0471 -0.3961
12708SOL    HW239738   1.260   6.964   2.042  0.8795  1.5118 -0.8431
12709SOL     OW39739   7.894   8.950   4.416 -0.3223  0.2402 -0.0644
12709SOL    HW139740   7.828   8.882   4.422 -0.2047  0.0750 -0.6552
12709SOL    HW239741   7.885   8.999   4.498 -1.1879  0.2320 -0.1456
12710SOL     OW39742   4.526   5.805   4.820  0.1844 -0.3101  0.5345
12710SOL    HW139743   4.520   5.735   4.885 -0.1935 -0.5247  0.2660
12710SOL    HW239744   4.620   5.818   4.808  0.2685  0.0020  1.4162
12711SOL     OW39745   4.239   4.904   2.389  0.1535  0.1623  0.3040
12711SOL    HW139746   4.193   4.981   2.356  0.5804  0.3668  0.1776
12711SOL    HW239747   4.307   4.887   2.324 -1.2332 -1.5926 -0.7798
12712SOL     OW39748   7.608   0.120   6.725  0.0298  0.1187  1.0041
12712SOL    HW139749   7.527   0.080   6.757 -0.3552 -0.3093 -0.4543
12712SOL    HW239750   7.594   0.134   6.632  1.0533  1.5239  1.0170
12713SOL     OW39751   6.782   0.914   2.419 -0.2208  0.3323 -0.6698
12713SOL    HW139752   6.697   0.896   2.458 -1.6866 -0.2441 -3.8912
12713SOL    HW239753   6.808   0.998   2.457 -2.5062  0.8101 -0.0392
12714SOL     OW39754   8.753   2.122   2.310 -0.4469 -0.2028  0.3075
12714SOL    HW139755   8.770   2.197   2.254 -0.6636  0.1575  0.7227
12714SOL    HW239756   8.840   2.096   2.342 -0.5606  1.1902  1.8462
12715SOL     OW39757   8.747   9.129   6.630  0.2935 -0.5315  0.1485
12715SOL    HW139758   8.734   9.157   6.721  0.3054 -1.5111  0.4589
12715SOL    HW239759   8.698   9.194   6.579 -0.9153 -0.7670  0.9468
12716SOL     OW39760   9.521   3.496   7.829 -0.2119  0.0788  0.0871
12716SOL    HW139761   9.574   3.559   7.877 -1.3623  1.4792 -0.4036
12716SOL    HW239762   9.453   3.549   7.787  0.7769 -1.0045 -3.1991
12717SOL     OW39763   8.010   6.152   2.074  0.6484  0.4035  0.3199
12717SOL    HW139764   8.047   6.219   2.132  0.7945 -0.7627  1.6307
12717SOL    HW239765   8.052   6.070   2.102 -1.4715 -0.6690  0.5880
12718SOL     OW39766   5.268   0.869   8.970  0.0528  0.0308 -0.0795
12718SOL    HW139767   5.296   0.784   9.004 -0.2243 -0.5588 -1.2772
12718SOL    HW239768   5.175   0.856   8.948  0.2522  0.3496 -1.1579
12719SOL     OW39769   6.933   8.922   5.651  0.0838  0.1020  0.1631
12719SOL    HW139770   6.846   8.958   5.631 -0.2915  0.0046  1.5197
12719SOL    HW239771   6.990   8.957   5.582 -0.9997  0.2829 -0.6679
12720SOL     OW39772   1.306   9.176   6.522 -0.2009 -0.2307  0.3033
12720SOL    HW139773   1.367   9.138   6.459  1.6176 -0.4321  2.0799
12720SOL    HW239774   1.223   9.131   6.506  0.6987 -1.6101 -0.6845
12721SOL     OW39775   5.210   8.709   8.932 -0.3062  0.8005 -0.1196
12721SOL    HW139776   5.183   8.800   8.938 -2.1740  0.3425 -0.7961
12721SOL    HW239777   5.297   8.706   8.972 -1.4712  2.2861  2.7147
12722SOL     OW39778   1.647   5.048   1.632 -0.3574 -0.1994  0.5677
12722SOL    HW139779   1.557   5.031   1.660  0.0601 -0.4455  1.8446
12722SOL    HW239780   1.640   5.117   1.567 -1.4715 -0.2489  0.6228
12723SOL     OW39781   1.448   6.616   8.732  0.0982 -0.1197  0.2494
12723SOL    HW139782   1.480   6.683   8.791 -1.0271  0.1771  0.5414
12723SOL    HW239783   1.414   6.664   8.657  0.6026 -0.4456 -0.2000
12724SOL     OW39784   3.558   5.376   6.789 -0.0057  0.1311 -0.1723
12724SOL    HW139785   3.626   5.311   6.775  1.1710  1.2342  0.2046
12724SOL    HW239786   3.490   5.354   6.725  1.0262 -0.5724 -1.0686
12725SOL     OW39787   3.383   1.404   0.523 -0.1842  0.3451  0.5598
12725SOL    HW139788   3.461   1.456   0.506 -0.1820  0.6997  1.6377
12725SOL    HW239789   3.369   1.409   0.617  1.1385 -3.4604  1.1494
12726SOL     OW39790   0.996   6.452   4.832  0.0039  0.0460  0.2715
12726SOL    HW139791   0.931   6.479   4.768  1.0027  0.0633 -0.7654
12726SOL    HW239792   1.025   6.366   4.802  0.4818  0.0517  0.7020
12727SOL     OW39793   2.274   4.594   5.354  0.3570 -0.2493  0.0173
12727SOL    HW139794   2.280   4.687   5.376 -0.3767 -0.2876  0.3979
12727SOL    HW239795   2.358   4.558   5.383  1.5569  0.6530 -2.0614
12728SOL     OW39796   5.517   0.097   9.459  0.0643  0.1617  0.2796
12728SOL    HW139797   5.605   0.129   9.480  1.7131 -2.9266 -1.2942
12728SOL    HW239798   5.526   0.057   9.373 -2.8134 -0.6474  0.2516
12729SOL     OW39799   8.462   6.097   0.035  0.2877 -0.7075 -0.4986
12729SOL    HW139800   8.442   6.053  -0.047  0.0555  0.6539 -1.2144
12729SOL    HW239801   8.381   6.144   0.057 -0.1868 -2.3007  1.3718
12730SOL     OW39802   0.422   7.328   6.832  0.1501 -0.2810  0.0292
12730SOL    HW139803   0.331   7.324   6.804  0.2879 -0.6205 -0.3741
12730SOL    HW239804   0.448   7.237   6.841  0.1539 -0.1905  1.1326
12731SOL     OW39805   9.685   2.816   8.986  0.4920 -0.3032  0.3621
12731SOL    HW139806   9.705   2.868   9.065  1.3500  0.8761 -0.5868
12731SOL    HW239807   9.738   2.856   8.917  1.0730 -2.3843 -0.4702
12732SOL     OW39808   1.686   4.556   9.705 -0.0468 -0.1636  0.2438
12732SOL    HW139809   1.648   4.636   9.667 -0.9842 -0.7885 -0.1692
12732SOL    HW239810   1.743   4.522   9.636 -0.8164 -0.6528 -0.1592
12733SOL     OW39811   7.990   9.309   9.438  0.6436  0.3973  0.2603
12733SOL    HW139812   8.042   9.282   9.514  1.5314  0.3516 -0.3537
12733SOL    HW239813   7.927   9.372   9.474  0.8188  0.1080  1.0946
12734SOL     OW39814   0.741   0.872   4.909  0.3023 -0.4704 -0.0098
12734SOL    HW139815   0.718   0.812   4.838  0.0120 -0.6079  0.1983
12734SOL    HW239816   0.682   0.848   4.980 -1.6085  1.7392 -0.7339
12735SOL     OW39817   0.595   4.024   7.502  0.5912  0.3235 -0.2158
12735SOL    HW139818   0.614   4.046   7.411 -2.0777 -1.5404 -1.3673
12735SOL    HW239819   0.606   3.929   7.507 -0.4564  0.2356  1.0763
12736SOL     OW39820   1.207   7.444   7.820  0.4045 -0.1549  0.1756
12736SOL    HW139821   1.214   7.348   7.825 -0.5741 -0.2091  0.6929
12736SOL    HW239822   1.197   7.472   7.911 -0.5904  0.3260 -0.0699
12737SOL     OW39823   0.346   7.827   9.490  0.1461  0.8285  0.4068
12737SOL    HW139824   0.397   7.880   9.429  1.3697 -0.8632 -0.1182
12737SOL    HW239825   0.400   7.822   9.568  0.3146 -0.0854  0.2434
12738SOL     OW39826   5.290   7.868   4.644 -0.4306 -0.0842  0.2755
12738SOL    HW139827   5.337   7.945   4.677 -0.4742  0.1358 -0.1709
12738SOL    HW239828   5.358   7.806   4.620 -0.3895 -0.0891  0.4045
12739SOL     OW39829   6.679   5.027   0.248  0.1467 -0.2525 -0.2081
12739SOL    HW139830   6.677   4.940   0.286 -0.5049 -0.4766 -0.7311
12739SOL    HW239831   6.718   5.015   0.161  1.0093  0.1435  0.1178
12740SOL     OW39832   2.941   3.957   5.786 -0.0581  0.6296  0.6112
12740SOL    HW139833   2.857   3.950   5.832 -0.5997  1.6699 -0.1555
12740SOL    HW239834   2.963   3.867   5.762 -0.7424  0.2985  1.1765
12741SOL     OW39835   1.452   6.909   6.426  0.0320 -0.0511 -0.0831
12741SOL    HW139836   1.446   6.894   6.332 -2.5884 -0.8043  0.1257
12741SOL    HW239837   1.414   6.996   6.439  0.5363  0.1212  0.2816
12742SOL     OW39838   1.402   9.055   0.164  0.0662 -0.7693 -0.8298
12742SOL    HW139839   1.413   9.107   0.244 -0.6691 -1.5508 -0.1978
12742SOL    HW239840   1.483   9.069   0.115  0.1971  0.3615 -0.3275
12743SOL     OW39841   0.210   6.476   1.818  0.8393  0.5309  0.3089
12743SOL    HW139842   0.139   6.485   1.755  2.6253  1.0670 -1.7777
12743SOL    HW239843   0.170   6.434   1.894 -1.4998  0.0901 -1.0589
12744SOL     OW39844   9.288   4.998   0.164  0.4781  0.5096  0.1314
12744SOL    HW139845   9.283   5.043   0.249  0.7632 -2.8170  2.0771
12744SOL    HW239846   9.371   5.029   0.126  0.5290  1.8012  1.2235
12745SOL     OW39847   6.321   6.904   1.972  0.2963  0.5171  0.2923
12745SOL    HW139848   6.395   6.881   2.028 -1.0895 -0.9291  1.6416
12745SOL    HW239849   6.244   6.892   2.029 -0.9815  2.0611 -1.0166
12746SOL     OW39850   7.706   8.189   0.208 -0.3559  0.1284  0.1971
12746SOL    HW139851   7.790   8.154   0.235  0.2476  0.6386 -0.9380
12746SOL    HW239852   7.647   8.172   0.282  0.4699 -1.1908  0.5678
12747SOL     OW39853   9.300   1.683   5.082  0.6460  0.3555  0.0351
12747SOL    HW139854   9.344   1.709   5.000  1.1854  1.6944  0.7122
12747SOL    HW239855   9.276   1.766   5.123 -0.8876 -0.3337  0.5821
12748SOL     OW39856   4.286   3.020   6.749  0.8058 -0.2652 -0.0953
12748SOL    HW139857   4.311   2.964   6.823 -0.3724 -0.0454  0.5034
12748SOL    HW239858   4.230   3.087   6.788  0.5519  0.1398 -1.1236
12749SOL     OW39859   5.049   8.638   1.908  0.0390  0.3956 -0.3282
12749SOL    HW139860   4.983   8.586   1.863  1.5629 -2.0220  0.0141
12749SOL    HW239861   5.096   8.684   1.838  0.2551 -0.7030 -0.9289
12750SOL     OW39862   9.820   1.812   0.530  0.1778  0.0917  0.4492
12750SOL    HW139863   9.766   1.866   0.472 -1.5308 -0.5407  1.3893
12750SOL    HW239864   9.848   1.873   0.599 -1.1299 -0.0145  1.1035
12751SOL     OW39865   8.533   7.806   1.970 -0.1056 -0.2084 -0.2543
12751SOL    HW139866   8.545   7.712   1.959  0.9025  0.0966 -2.3582
12751SOL    HW239867   8.543   7.821   2.064  0.1138 -2.1501  0.0676
12752SOL     OW39868   4.078   9.573   7.352 -0.1853  0.7142 -0.4222
12752SOL    HW139869   4.010   9.566   7.418  0.4707  0.4878  0.2391
12752SOL    HW239870   4.157   9.540   7.394 -0.0467 -0.7816 -1.7651
12753SOL     OW39871   7.076   7.847   7.118 -0.0082 -0.6180 -0.0533
12753SOL    HW139872   7.150   7.877   7.172 -0.9240  0.5797  0.5976
12753SOL    HW239873   7.117   7.811   7.040  1.2748  0.2826  0.1603
12754SOL     OW39874   5.631   3.538   7.751  0.4734 -0.4442 -0.3086
12754SOL    HW139875   5.709   3.532   7.806  0.3031  1.0994  0.1279
12754SOL    HW239876   5.565   3.579   7.806 -0.3802 -0.8875 -0.9684
12755SOL     OW39877   9.232   0.909   8.440  0.6344 -0.3784  0.1016
12755SOL    HW139878   9.274   0.860   8.369  0.0409 -0.1989 -0.3795
12755SOL    HW239879   9.268   0.997   8.433 -1.1478  0.2931 -1.4925
12756SOL     OW39880   8.982   5.587   5.671 -0.2646 -0.7523  0.3395
12756SOL    HW139881   9.004   5.499   5.700  1.3683 -0.3777  0.3456
12756SOL    HW239882   9.066   5.634   5.673 -0.8460  0.4006 -1.0458
12757SOL     OW39883   6.930   7.906   5.942 -0.0117 -0.6022 -0.0223
12757SOL    HW139884   6.960   7.904   5.851  0.6975 -1.6545  0.2212
12757SOL    HW239885   6.979   7.979   5.982 -0.8011  0.2795 -0.6213
12758SOL     OW39886   7.529   0.538   5.690 -0.3599 -0.1128  0.1160
12758SOL    HW139887   7.501   0.467   5.748  0.9928  0.0575  1.0301
12758SOL    HW239888   7.610   0.571   5.730 -0.1622  0.9605 -1.1046
12759SOL     OW39889   2.490   1.505   9.083  0.4693  0.0409  0.5910
12759SOL    HW139890   2.492   1.410   9.070  0.3981  0.2041 -0.8508
12759SOL    HW239891   2.397   1.527   9.087  0.4525 -0.2203  3.6264
12760SOL     OW39892   5.580   9.025   3.881  0.0487  0.3426  0.0098
12760SOL    HW139893   5.556   8.934   3.863  0.5631  0.3973 -1.0413
12760SOL    HW239894   5.498   9.073   3.869 -0.1150  0.0836  0.0616
12761SOL     OW39895   4.655   1.850   2.113 -0.0619 -0.8862  0.3202
12761SOL    HW139896   4.626   1.925   2.062 -2.1710 -0.6218  1.7712
12761SOL    HW239897   4.583   1.833   2.174  2.0924 -1.3901  2.9543
12762SOL     OW39898   0.354   8.204   1.823  0.3868 -0.5600  0.6001
12762SOL    HW139899   0.306   8.239   1.748  0.4353  0.5507  1.0788
12762SOL    HW239900   0.369   8.112   1.800 -0.0706 -0.3781 -0.5083
12763SOL     OW39901   1.411   0.658   9.643 -0.1224 -0.4857 -0.0775
12763SOL    HW139902   1.364   0.741   9.628 -0.2414 -0.0387  2.2795
12763SOL    HW239903   1.503   0.683   9.643 -0.0994 -0.5686 -0.4882
12764SOL     OW39904   3.446   1.980   7.131 -0.0362  0.5359 -0.1152
12764SOL    HW139905   3.483   1.938   7.053  1.2678 -0.7198  1.1195
12764SOL    HW239906   3.522   1.994   7.189 -0.9693  1.4436  0.9283
12765SOL     OW39907   3.848   9.696   2.480 -0.7672  0.4811 -0.7372
12765SOL    HW139908   3.860   9.791   2.478  0.4677  0.4534  1.4296
12765SOL    HW239909   3.937   9.660   2.471 -1.2810 -0.5261 -2.1760
12766SOL     OW39910   8.387   9.839   5.083  0.3927 -0.3009  0.0448
12766SOL    HW139911   8.367   9.837   5.177 -0.4717  2.5681  0.0149
12766SOL    HW239912   8.305   9.814   5.041  0.2159  0.2502  0.0522
12767SOL     OW39913   5.644   4.839   3.614 -0.1934 -0.2747 -0.0939
12767SOL    HW139914   5.727   4.814   3.573  0.2457  0.3940  0.3790
12767SOL    HW239915   5.611   4.758   3.653  1.8892  0.0559  2.6301
12768SOL     OW39916   2.620   9.071   9.142  0.3112 -0.4538 -0.4239
12768SOL    HW139917   2.586   8.986   9.170 -0.2766  0.2001  0.9969
12768SOL    HW239918   2.620   9.067   9.047 -0.6947 -1.6683 -0.4055
12769SOL     OW39919   3.191   6.500   2.253  0.1436  0.6742 -0.1430
12769SOL    HW139920   3.148   6.502   2.338 -1.5061 -0.2633 -0.9153
12769SOL    HW239921   3.138   6.558   2.198  1.1092  1.1586 -0.5801
12770SOL     OW39922   0.044   4.779   6.105  0.0886  0.1154  0.6645
12770SOL    HW139923   0.110   4.710   6.116  0.1765 -0.0847 -0.9257
12770SOL    HW239924   0.043   4.824   6.189  2.1639  0.0189  0.8107
12771SOL     OW39925   2.087   7.118   0.486 -0.3837 -0.4383 -0.0768
12771SOL    HW139926   2.065   7.120   0.579 -0.4134 -0.6143 -0.0784
12771SOL    HW239927   2.155   7.051   0.480  0.9719  0.8665  0.1005
12772SOL     OW39928   9.825   1.361   3.925 -0.0231 -0.0426 -0.7625
12772SOL    HW139929   9.869   1.306   3.989 -0.2151  1.0366  0.3488
12772SOL    HW239930   9.732   1.354   3.946 -0.2095 -0.6142 -1.7097
12773SOL     OW39931   5.175   7.420   2.133  0.1416  0.5021 -0.4005
12773SOL    HW139932   5.110   7.490   2.128  0.0368  0.6223  1.7275
12773SOL    HW239933   5.258   7.464   2.115  0.4357  1.9013  3.4040
12774SOL     OW39934   3.647   2.551   9.250 -0.2878  0.6726  0.1887
12774SOL    HW139935   3.659   2.595   9.166  0.0371  1.7692  0.7822
12774SOL    HW239936   3.736   2.531   9.279 -0.4314 -0.4052 -0.0696
12775SOL     OW39937   2.931   5.827   2.476  0.3113 -0.2907  0.0529
12775SOL    HW139938   2.899   5.826   2.566  1.2218 -0.1667  0.3918
12775SOL    HW239939   2.990   5.903   2.473 -1.0609  0.7722 -1.1436
12776SOL     OW39940   5.104   4.338   8.484  0.3956  0.1123 -0.1225
12776SOL    HW139941   5.044   4.352   8.558  0.7553 -1.6581  0.5453
12776SOL    HW239942   5.127   4.426   8.455 -2.0097  0.8650  0.0056
12777SOL     OW39943   2.501   7.635   6.258 -0.0871  0.1998  0.3645
12777SOL    HW139944   2.587   7.664   6.226 -0.2253 -1.1238 -1.3224
12777SOL    HW239945   2.512   7.542   6.278 -0.5960  0.4905  2.2436
12778SOL     OW39946   0.808   7.827   3.793  0.0931 -0.3592 -0.5317
12778SOL    HW139947   0.749   7.785   3.855  0.5736 -0.7566 -0.3300
12778SOL    HW239948   0.769   7.912   3.774  0.6442  0.3623  1.3899
12779SOL     OW39949   2.696   3.826   5.973 -0.7555 -0.3192 -0.4712
12779SOL    HW139950   2.686   3.913   6.011  1.6680 -0.3175  0.3354
12779SOL    HW239951   2.663   3.767   6.041 -0.4443 -0.1187 -0.1416
12780SOL     OW39952   0.519   5.180   6.106 -0.3795  0.0531 -0.0808
12780SOL    HW139953   0.455   5.251   6.118  0.0357  0.4531 -0.2330
12780SOL    HW239954   0.508   5.126   6.184  1.3674  1.9245  1.5857
12781SOL     OW39955   1.659   8.009   4.062  0.0843  0.0964 -0.2598
12781SOL    HW139956   1.618   7.995   3.976  0.8123 -2.8154 -0.2154
12781SOL    HW239957   1.752   7.998   4.046  0.3171  0.4971  0.7546
12782SOL     OW39958   0.977   0.721   0.990  0.0105  0.8691  0.4606
12782SOL    HW139959   0.887   0.716   1.023 -0.1054 -0.8150 -0.0234
12782SOL    HW239960   1.028   0.749   1.065 -0.6608 -0.0923  1.3111
12783SOL     OW39961   7.387   0.966   5.275  0.0792 -0.4375 -0.1155
12783SOL    HW139962   7.383   0.871   5.282 -0.3384 -0.3445  0.9288
12783SOL    HW239963   7.345   0.985   5.191 -0.7565 -1.0966  0.1442
12784SOL     OW39964   2.387   6.987   9.753  0.1752  0.1969  0.0022
12784SOL    HW139965   2.291   6.986   9.745  0.1229 -2.8778 -0.3681
12784SOL    HW239966   2.402   6.992   9.848 -0.3823  0.4899  0.0787
12785SOL     OW39967   4.326   6.680   7.283  0.5720 -0.2160  0.3160
12785SOL    HW139968   4.319   6.588   7.306 -0.1904 -0.5540 -1.1161
12785SOL    HW239969   4.358   6.679   7.192 -0.5375  0.8787 -0.1141
12786SOL     OW39970   4.429   3.843   7.289  0.0582 -0.1035 -0.1498
12786SOL    HW139971   4.448   3.811   7.377 -0.6923 -2.2722 -0.7050
12786SOL    HW239972   4.505   3.817   7.237  0.3410  0.8581 -0.2414
12787SOL     OW39973   6.218   9.616   9.021 -0.2138 -0.0084 -0.3520
12787SOL    HW139974   6.286   9.568   8.972 -1.5223 -1.3022 -0.9880
12787SOL    HW239975   6.224   9.580   9.110  1.3704  1.4890  0.2058
12788SOL     OW39976   4.590   8.296   3.578 -0.1493 -0.2063  0.1951
12788SOL    HW139977   4.572   8.370   3.636  1.0056  1.2033 -1.1732
12788SOL    HW239978   4.513   8.240   3.587 -1.0663  1.1568  1.2543
12789SOL     OW39979   8.734   2.330   0.466  0.2719 -0.1866  0.4387
12789SOL    HW139980   8.688   2.380   0.399 -1.9698 -0.3717  1.7457
12789SOL    HW239981   8.718   2.238   0.445 -0.2490 -0.2495  1.0879
12790SOL     OW39982   1.240   8.802   2.570  0.0269  0.1319 -0.6339
12790SOL    HW139983   1.279   8.830   2.487  1.1752 -0.3167 -0.2703
12790SOL    HW239984   1.264   8.710   2.577  0.4082  0.3011  0.4381
12791SOL     OW39985   1.560   4.279   2.394  0.7334  0.3011 -0.3064
12791SOL    HW139986   1.590   4.212   2.454  0.6753  0.4407 -0.1227
12791SOL    HW239987   1.495   4.234   2.339 -0.1947  0.5014  0.5952
12792SOL     OW39988   8.880   6.969   9.314 -0.1160 -0.1748 -0.0718
12792SOL    HW139989   8.967   6.954   9.350  0.0152  0.9886  0.1253
12792SOL    HW239990   8.845   6.881   9.299  1.1975 -0.6518 -0.4329
12793SOL     OW39991   7.049   7.547   9.516  0.2977 -0.1863 -0.0453
12793SOL    HW139992   7.138   7.536   9.550  0.2151  1.6555  0.9294
12793SOL    HW239993   7.053   7.628   9.466 -0.9081  0.1606  0.3773
12794SOL     OW39994   0.240   6.003   6.463 -0.4062 -0.7474  0.2653
12794SOL    HW139995   0.306   6.065   6.432  0.4160 -1.4320  0.6116
12794SOL    HW239996   0.163   6.057   6.482  0.6037  0.3256  1.5005
12795SOL     OW39997   9.539   1.317   0.123  1.0283  0.9819 -0.2868
12795SOL    HW139998   9.569   1.377   0.055  0.2438 -0.2948 -1.8160
12795SOL    HW239999   9.511   1.375   0.194  3.5219  2.3015 -0.2694
12796SOL     OW40000   9.491   0.656   4.867  0.0388 -0.6815  0.1468
12796SOL    HW140001   9.442   0.579   4.896 -0.9271  1.0568  3.6439
12796SOL    HW240002   9.517   0.700   4.948  2.5632  1.5059 -1.6702
12797SOL     OW40003   4.712   0.828   0.083 -0.2890  0.1515  0.2961
12797SOL    HW140004   4.684   0.888   0.013 -1.9717 -0.4689  0.4018
12797SOL    HW240005   4.631   0.801   0.125  0.5910 -0.7547  1.4639
12798SOL     OW40006   6.888   9.842   9.726 -0.3722  0.3246  0.4185
12798SOL    HW140007   6.845   9.886   9.799  1.5862  2.5999  0.3011
12798SOL    HW240008   6.862   9.893   9.649 -0.2929 -0.4464 -0.1301
12799SOL     OW40009   5.988   5.652   2.733 -0.6185 -0.5991  0.2401
12799SOL    HW140010   5.938   5.683   2.808  0.8672 -3.4246  2.6227
12799SOL    HW240011   5.939   5.577   2.701 -0.1679 -0.6980 -0.2274
12800SOL     OW40012   6.608   4.488   0.845  0.0389 -0.2811 -0.6040
12800SOL    HW140013   6.578   4.409   0.889  0.1640 -1.2885 -2.2417
12800SOL    HW240014   6.702   4.491   0.860 -0.1184  0.1377  0.3293
12801SOL     OW40015   6.728   2.701   3.759  0.1216  0.2888  0.0378
12801SOL    HW140016   6.714   2.749   3.841  1.4151  0.2403  0.3082
12801SOL    HW240017   6.746   2.768   3.694  0.8939  0.2404  0.1927
12802SOL     OW40018   6.510   9.264   0.489  0.3173 -0.3087  0.1356
12802SOL    HW140019   6.565   9.280   0.565  0.3936 -1.6011  0.3661
12802SOL    HW240020   6.550   9.315   0.419  1.1174 -0.3061  0.5898
12803SOL     OW40021   0.569   5.251   0.789 -0.0640 -0.2487 -0.4782
12803SOL    HW140022   0.587   5.337   0.827 -1.8322 -0.2309  0.3831
12803SOL    HW240023   0.613   5.189   0.847 -1.8270 -0.1457  1.0432
12804SOL     OW40024   1.459   7.791   6.432  0.1489 -0.4322 -0.0493
12804SOL    HW140025   1.481   7.875   6.472  0.5150 -1.0771  1.1618
12804SOL    HW240026   1.523   7.780   6.362 -0.5009  0.7203 -0.8579
12805SOL     OW40027   7.058   7.276   8.122  0.2600  0.2556 -0.1775
12805SOL    HW140028   7.030   7.215   8.054 -1.8795  2.1792 -1.1522
12805SOL    HW240029   7.139   7.314   8.088 -0.3686  0.6165 -1.3362
12806SOL     OW40030   5.481   6.107   1.887 -0.4297 -0.4383  0.1957
12806SOL    HW140031   5.454   6.185   1.837  1.4044 -0.1348 -0.4052
12806SOL    HW240032   5.576   6.107   1.881 -0.2966 -1.7439  1.7392
12807SOL     OW40033   7.732   5.181   6.500 -0.2247  1.1192  0.0113
12807SOL    HW140034   7.818   5.201   6.462  0.4905  0.8589  1.4088
12807SOL    HW240035   7.708   5.096   6.462  0.0023  1.3332 -0.6153
12808SOL     OW40036   8.831   1.917   5.627 -0.4196 -0.2540 -0.1137
12808SOL    HW140037   8.762   1.926   5.692  0.6183 -0.0675  0.9849
12808SOL    HW240038   8.859   2.007   5.608  0.3197 -0.3755  0.3428
12809SOL     OW40039   8.842   1.166   7.205  0.8301 -0.3785 -0.1286
12809SOL    HW140040   8.769   1.112   7.236  1.1464 -1.1814 -0.7500
12809SOL    HW240041   8.866   1.220   7.280  0.0675 -0.6309  0.2985
12810SOL     OW40042   4.535   8.231   7.542  0.1932 -0.2985 -0.3541
12810SOL    HW140043   4.522   8.189   7.457  2.2727  1.5092 -1.6813
12810SOL    HW240044   4.624   8.267   7.537 -0.7555  2.5752  1.3777
12811SOL     OW40045   6.937   9.406   0.679 -0.6822 -0.0893  0.3705
12811SOL    HW140046   6.953   9.334   0.619 -1.1388 -0.6593  0.9065
12811SOL    HW240047   7.023   9.427   0.716 -0.6936 -1.1212  1.0351
12812SOL     OW40048   0.458   0.001   4.175  0.6004 -0.6372 -0.1296
12812SOL    HW140049   0.419   0.058   4.108 -0.7182 -1.7631 -0.3762
12812SOL    HW240050   0.386  -0.056   4.202  0.4984  1.0372  3.7440
12813SOL     OW40051   5.362   8.143   4.536  0.0133  0.3273 -0.4405
12813SOL    HW140052   5.286   8.200   4.526 -1.4689 -1.6232 -0.8581
12813SOL    HW240053   5.359   8.114   4.627 -1.5318 -2.0380 -1.1644
12814SOL     OW40054   1.428   2.734   1.218  0.0612  0.1234 -0.2477
12814SOL    HW140055   1.361   2.671   1.190 -0.1757  1.2246 -2.3588
12814SOL    HW240056   1.432   2.798   1.147  1.4999  1.5623  1.0480
12815SOL     OW40057   9.261   1.120   9.340 -0.0567  0.1950  0.1377
12815SOL    HW140058   9.282   1.144   9.430 -0.3692 -0.9351  0.5390
12815SOL    HW240059   9.254   1.024   9.342 -0.0129  0.1474 -1.1009
12816SOL     OW40060   1.919   0.953   5.139  0.9504  0.1491 -0.1295
12816SOL    HW140061   2.013   0.952   5.159  1.3194  1.7474 -1.5532
12816SOL    HW240062   1.878   0.981   5.221  1.7083 -0.4537  0.4784
12817SOL     OW40063   7.092   6.276   2.857  0.4462  0.3813 -0.2530
12817SOL    HW140064   7.025   6.336   2.825 -0.8224 -0.6275  0.4598
12817SOL    HW240065   7.093   6.290   2.952  0.1767 -0.6722 -0.0853
12818SOL     OW40066   2.734   4.913   3.203 -0.4723  0.0441 -0.5083
12818SOL    HW140067   2.676   4.985   3.225 -1.5380 -0.7869 -0.5543
12818SOL    HW240068   2.737   4.858   3.281  0.8489  0.4466 -0.2446
12819SOL     OW40069   5.919   5.010   3.287 -0.2671  0.1151 -0.6790
12819SOL    HW140070   5.888   4.948   3.222 -1.5558  0.3763 -0.3333
12819SOL    HW240071   5.947   5.086   3.235  0.3156 -0.3212 -1.0242
12820SOL     OW40072   8.124   8.015   5.213  0.7668 -0.9291 -0.4711
12820SOL    HW140073   8.101   8.096   5.167 -0.3477 -1.2393 -0.5075
12820SOL    HW240074   8.048   7.998   5.270  1.7688 -0.9849  0.8997
12821SOL     OW40075   4.812   7.350   1.526 -0.8805  0.4960 -0.4161
12821SOL    HW140076   4.881   7.291   1.497 -0.2393  1.3576 -0.7042
12821SOL    HW240077   4.813   7.421   1.461 -1.4995  0.9164  0.0262
12822SOL     OW40078   2.288   4.177   2.461 -0.0477 -0.0812 -0.9232
12822SOL    HW140079   2.375   4.193   2.496 -0.7542  1.9875  0.0163
12822SOL    HW240080   2.270   4.085   2.482  0.9223  0.1427  1.0551
12823SOL     OW40081   3.781   1.720   1.594  0.0669  0.1064  0.1660
12823SOL    HW140082   3.859   1.718   1.650  0.0464 -0.4429  0.1746
12823SOL    HW240083   3.813   1.695   1.507  0.5458  3.0845 -0.6471
12824SOL     OW40084   2.386   9.037   5.708 -0.3662  0.4500 -0.0525
12824SOL    HW140085   2.384   9.053   5.802  1.5151  0.4562  0.0240
12824SOL    HW240086   2.469   9.074   5.679 -0.7645  0.1622 -1.6692
12825SOL     OW40087   4.552   1.103   7.130 -0.5626  0.1626 -0.0000
12825SOL    HW140088   4.546   1.065   7.043 -0.3334 -0.0159  0.0608
12825SOL    HW240089   4.595   1.036   7.183 -0.9212  0.1710  0.3082
12826SOL     OW40090   7.675   3.185   5.570 -0.2882 -0.0969  0.2073
12826SOL    HW140091   7.698   3.118   5.633 -1.5457 -1.4786 -0.7293
12826SOL    HW240092   7.647   3.136   5.492 -1.1104  1.5087 -0.5567
12827SOL     OW40093   3.924   6.428   7.546 -0.3809  0.2346 -0.1475
12827SOL    HW140094   3.908   6.334   7.537 -3.0427  0.7466 -1.9604
12827SOL    HW240095   3.914   6.445   7.639  0.5982 -1.3165  0.2801
12828SOL     OW40096   8.508   5.745   3.315  0.0124  0.2597 -0.1638
12828SOL    HW140097   8.531   5.828   3.273 -2.0245  0.6584 -0.6093
12828SOL    HW240098   8.526   5.679   3.249  1.3184  0.3590  0.0678
12829SOL     OW40099   1.437   0.700   9.287  0.1433  0.1767 -0.8078
12829SOL    HW140100   1.429   0.692   9.192  0.6983  2.2525 -1.0787
12829SOL    HW240101   1.397   0.785   9.307  1.1112  0.3154  0.6557
12830SOL     OW40102   6.546   2.296   4.235  0.2376 -0.3256  0.0077
12830SOL    HW140103   6.612   2.360   4.207 -0.6045  0.2145 -0.7838
12830SOL    HW240104   6.584   2.256   4.314  1.0107  0.7701  0.2174
12831SOL     OW40105   0.372   3.967   3.651  0.3684 -0.2536  0.0744
12831SOL    HW140106   0.302   4.009   3.601 -1.5381 -1.1567  1.8245
12831SOL    HW240107   0.387   3.884   3.606 -1.2914 -1.0315  0.8424
12832SOL     OW40108   7.392   4.388   3.387  0.0392  0.1854 -0.3696
12832SOL    HW140109   7.364   4.321   3.450 -1.3788 -0.1191 -1.2839
12832SOL    HW240110   7.376   4.348   3.301  1.8222  0.6424 -0.9557
12833SOL     OW40111   5.989   0.291   9.435 -0.4097  0.3740 -0.2067
12833SOL    HW140112   6.069   0.337   9.459  0.9781 -1.7343 -0.4532
12833SOL    HW240113   5.939   0.353   9.382  1.0445  1.7595  0.0002
12834SOL     OW40114   5.525   5.852   0.993  0.1885 -0.2060  0.2872
12834SOL    HW140115   5.470   5.876   1.067 -2.0779 -0.6564 -1.1706
12834SOL    HW240116   5.489   5.900   0.918  2.7965  0.7421 -0.4913
12835SOL     OW40117   4.576   8.023   0.914 -0.1556  0.2800 -0.6018
12835SOL    HW140118   4.639   7.969   0.866 -0.5206  0.2044 -0.9981
12835SOL    HW240119   4.578   7.987   1.003  0.4934  0.3982 -0.5669
12836SOL     OW40120   3.261   1.218   9.342  0.0348 -0.3794 -0.1598
12836SOL    HW140121   3.196   1.194   9.408 -0.8509 -0.1405 -0.9226
12836SOL    HW240122   3.211   1.263   9.274  0.9537 -0.4471 -0.9084
12837SOL     OW40123   3.597   4.952   3.124  0.4585 -0.0279 -0.3662
12837SOL    HW140124   3.647   5.030   3.147  1.7050 -1.1096  0.7958
12837SOL    HW240125   3.621   4.933   3.033  1.4694 -0.0042 -0.1138
12838SOL     OW40126   2.131   6.671   7.995 -0.1006  0.2571 -0.3293
12838SOL    HW140127   2.054   6.727   7.990  0.9126  2.0327  2.0347
12838SOL    HW240128   2.104   6.596   8.047 -0.4122  0.5694 -0.0339
12839SOL     OW40129   7.705   8.649   9.707 -0.3278  0.2243 -0.2233
12839SOL    HW140130   7.697   8.591   9.783 -2.5127  0.4579 -0.2073
12839SOL    HW240131   7.732   8.591   9.636 -0.4716 -0.4267  0.2406
12840SOL     OW40132   3.367   8.901   1.724  0.5687  0.0426 -0.0760
12840SOL    HW140133   3.354   8.961   1.798 -0.5331 -0.1839 -0.0604
12840SOL    HW240134   3.456   8.867   1.734  0.9205  1.0657  0.3640
12841SOL     OW40135   0.131   4.056   8.011 -0.3126 -0.2840 -0.4452
12841SOL    HW140136   0.203   4.004   7.975  0.5824  0.5462  0.1129
12841SOL    HW240137   0.138   4.046   8.106 -0.9864 -0.2603 -0.3864
12842SOL     OW40138   6.912   9.321   8.829 -0.3147 -0.5819  0.3410
12842SOL    HW140139   6.942   9.411   8.816 -0.0163 -0.6653  0.4458
12842SOL    HW240140   6.969   9.286   8.897 -1.7019 -0.2273  1.7399
12843SOL     OW40141   5.432   9.031   0.057  0.5024 -0.3866 -0.1527
12843SOL    HW140142   5.349   8.985   0.069 -0.6888  1.6226 -0.1464
12843SOL    HW240143   5.453   9.020  -0.036  0.2040 -0.8465 -0.1707
12844SOL     OW40144   6.366   6.993   9.679 -0.3516 -0.2237 -0.5452
12844SOL    HW140145   6.334   6.931   9.613 -0.7284 -0.6561  0.0329
12844SOL    HW240146   6.450   6.957   9.708  0.5193  0.7258 -1.8095
12845SOL     OW40147   4.778   6.850   5.158  0.2457 -0.5624  0.0090
12845SOL    HW140148   4.863   6.807   5.149  0.7709  0.2477  0.9389
12845SOL    HW240149   4.774   6.909   5.083  1.4522  0.9288  1.0621
12846SOL     OW40150   7.599   2.130   6.350  0.0002 -0.4199  0.5375
12846SOL    HW140151   7.638   2.153   6.434 -2.1140 -1.1792  1.8040
12846SOL    HW240152   7.674   2.111   6.293  1.4916  0.3513  2.1560
12847SOL     OW40153   9.374   6.884   3.760 -0.2537 -0.0970  0.1808
12847SOL    HW140154   9.378   6.970   3.803  0.5216 -0.0223 -0.0229
12847SOL    HW240155   9.329   6.828   3.823 -0.5037  0.3896  0.4384
12848SOL     OW40156   1.333   0.122   2.103  0.3815  0.3030 -0.5343
12848SOL    HW140157   1.290   0.132   2.019 -0.2472  0.5898 -0.1859
12848SOL    HW240158   1.385   0.202   2.113  0.4997  0.2432 -0.6783
12849SOL     OW40159   2.509   3.318   7.345  0.0953  0.2154  0.7652
12849SOL    HW140160   2.598   3.308   7.378 -0.2994 -1.3765  1.4529
12849SOL    HW240161   2.465   3.372   7.410  0.4290  0.6605  0.6308
12850SOL     OW40162   8.511   5.302   4.680 -0.0069 -0.4965  0.4709
12850SOL    HW140163   8.507   5.394   4.707 -1.2118 -0.5463  0.5277
12850SOL    HW240164   8.547   5.304   4.591  0.0942  0.0202  0.5243
12851SOL     OW40165   1.643   5.989   6.244  0.4355  0.2563 -0.2050
12851SOL    HW140166   1.583   6.044   6.294 -1.3482 -1.8429  0.1414
12851SOL    HW240167   1.722   5.985   6.297 -0.5357  0.0141  1.2915
12852SOL     OW40168   2.222   0.983   5.608  0.0476  0.1074 -0.1059
12852SOL    HW140169   2.221   1.051   5.539  0.8299  0.6175  0.3755
12852SOL    HW240170   2.195   1.029   5.687 -1.6263 -0.6505 -0.1959
12853SOL     OW40171   8.729   7.616   0.256  0.0179  0.6577  0.1400
12853SOL    HW140172   8.661   7.552   0.234  0.6329  0.2142 -0.5235
12853SOL    HW240173   8.805   7.563   0.280 -0.5232  1.1043  3.2799
12854SOL     OW40174   7.021   6.178   1.736  0.3150 -0.3021 -0.3030
12854SOL    HW140175   7.025   6.213   1.647 -1.2967 -2.3207 -1.2646
12854SOL    HW240176   7.002   6.085   1.725 -0.9954 -0.4387  2.1435
12855SOL     OW40177   8.466   3.261   0.573 -0.4065  0.0176 -0.1603
12855SOL    HW140178   8.392   3.222   0.526 -0.7879  0.7966 -0.2365
12855SOL    HW240179   8.440   3.258   0.665  0.2099 -1.2370 -0.0147
12856SOL     OW40180   4.045   1.995   1.499 -0.2443  0.0085 -0.5181
12856SOL    HW140181   4.108   1.998   1.427  0.3132 -0.4630 -0.0583
12856SOL    HW240182   3.973   1.941   1.466  0.5873 -1.2810 -0.2889
12857SOL     OW40183   6.270   6.106   1.379 -0.3395  0.4934  0.0297
12857SOL    HW140184   6.281   6.139   1.290 -0.9669 -0.5294 -0.4499
12857SOL    HW240185   6.327   6.161   1.433  0.9824  0.3583 -1.1776
12858SOL     OW40186   7.515   0.104   7.683  0.2431 -0.2187  0.0899
12858SOL    HW140187   7.476   0.188   7.658  1.6264 -0.2939 -2.7422
12858SOL    HW240188   7.440   0.045   7.691 -0.5573  0.5113 -1.4094
12859SOL     OW40189   0.553   8.340   2.240 -0.1702 -0.3282 -0.1827
12859SOL    HW140190   0.573   8.332   2.333 -0.1860 -1.1003 -0.2371
12859SOL    HW240191   0.482   8.276   2.225 -1.7719  1.3817 -0.2698
12860SOL     OW40192   3.864   3.283   7.264  0.3957  0.2153 -0.2271
12860SOL    HW140193   3.934   3.232   7.306  0.2083 -0.9428 -1.2771
12860SOL    HW240194   3.817   3.220   7.210 -0.8679  1.1887 -0.3034
12861SOL     OW40195   0.951   5.179   3.283  0.1158 -0.4350  0.0302
12861SOL    HW140196   0.998   5.102   3.316 -0.5623 -1.5554 -1.4647
12861SOL    HW240197   0.858   5.156   3.290 -0.1823  0.9477  1.1052
12862SOL     OW40198   6.335   3.896   8.983  0.5290  0.6575 -0.4100
12862SOL    HW140199   6.372   3.809   8.966 -1.3950 -0.5178  0.8784
12862SOL    HW240200   6.335   3.939   8.898  1.1433 -0.7831 -1.1786
12863SOL     OW40201   5.537   1.544   9.082  0.1933 -0.0203 -0.2727
12863SOL    HW140202   5.621   1.571   9.043 -1.0427  2.0415 -1.7599
12863SOL    HW240203   5.556   1.533   9.175  2.2209 -0.1902 -0.6482
12864SOL     OW40204   1.493   9.436   0.645  0.3987  0.1852 -0.2330
12864SOL    HW140205   1.478   9.479   0.729  0.2518 -0.7253  0.2192
12864SOL    HW240206   1.588   9.426   0.639  0.3624 -0.4529  0.1915
12865SOL     OW40207   3.991   1.370   7.223  0.1044 -0.3711  0.2717
12865SOL    HW140208   4.018   1.315   7.150  0.4469 -0.6200  0.5818
12865SOL    HW240209   3.968   1.309   7.293 -1.0184 -0.1542  0.1033
12866SOL     OW40210   1.354   8.258   7.536  0.1431  0.3429  0.2752
12866SOL    HW140211   1.399   8.173   7.537 -1.6470 -0.6605  0.4645
12866SOL    HW240212   1.272   8.242   7.583 -0.3897  2.0998  0.0160
12867SOL     OW40213   1.643   1.578   8.397  0.2365  0.0054 -0.0244
12867SOL    HW140214   1.616   1.622   8.478 -0.2566 -1.4684  0.6677
12867SOL    HW240215   1.570   1.590   8.337  0.5144  0.9324 -0.1775
12868SOL     OW40216   0.929   9.013   5.491  0.4848 -0.1055  0.3813
12868SOL    HW140217   0.901   8.932   5.534  1.5851 -0.7094  0.0133
12868SOL    HW240218   1.000   8.985   5.433  0.2748  0.9892 -0.4316
12869SOL     OW40219   7.114   1.673   0.386  0.0155 -0.0059 -0.7514
12869SOL    HW140220   7.100   1.579   0.371  0.1873  0.0925 -1.5617
12869SOL    HW240221   7.029   1.705   0.415  0.4602 -0.7930  1.6134
12870SOL     OW40222   2.867   6.269   3.994 -0.2783 -0.5971  0.1452
12870SOL    HW140223   2.953   6.304   3.970 -1.1343  0.1735 -2.1513
12870SOL    HW240224   2.823   6.341   4.038 -1.0654  0.4570 -2.1741
12871SOL     OW40225   9.637   3.507   6.501 -0.2615 -0.0083  0.2687
12871SOL    HW140226   9.649   3.577   6.565  0.5915 -0.7150  0.9147
12871SOL    HW240227   9.597   3.436   6.550 -1.4778  0.1461 -0.4751
12872SOL     OW40228   1.178   1.456   8.326  0.3543 -0.2533 -0.2967
12872SOL    HW140229   1.117   1.390   8.292  1.4671 -1.1454 -0.6378
12872SOL    HW240230   1.126   1.507   8.388 -1.0184 -0.3059 -1.3504
12873SOL     OW40231   1.511   9.062   8.874  1.0253 -0.2921 -0.1864
12873SOL    HW140232   1.467   9.081   8.791  1.1526  1.5302  0.1266
12873SOL    HW240233   1.604   9.055   8.851  1.2271  1.4777 -0.0662
12874SOL     OW40234   4.627   0.137   7.281 -0.5586 -0.4394 -0.2822
12874SOL    HW140235   4.642   0.042   7.286 -2.6355 -0.7708  1.3638
12874SOL    HW240236   4.559   0.153   7.347 -1.3130  1.9852 -1.5550
12875SOL     OW40237   4.949   8.671   9.314 -0.3709  0.1366 -0.0745
12875SOL    HW140238   5.007   8.603   9.281 -0.5034 -0.7604  1.4612
12875SOL    HW240239   5.006   8.746   9.331  0.5813 -1.0167  2.2668
12876SOL     OW40240   6.522   3.606   5.572 -0.5248 -0.3005  0.3057
12876SOL    HW140241   6.575   3.581   5.647  1.9220  1.1095 -0.8164
12876SOL    HW240242   6.469   3.679   5.604 -0.2957 -0.4108  0.9547
12877SOL     OW40243   1.514   6.509   2.158 -0.5039  0.1409  0.0827
12877SOL    HW140244   1.538   6.549   2.241  1.6337 -1.7228  0.4642
12877SOL    HW240245   1.462   6.432   2.182  1.4571 -1.3225 -0.1025
12878SOL     OW40246   2.146   9.189   0.180  0.1465 -0.1987  0.4042
12878SOL    HW140247   2.110   9.124   0.241 -0.5829  0.9438  1.2381
12878SOL    HW240248   2.240   9.173   0.181  0.2953  0.3943  2.6477
12879SOL     OW40249   8.255   8.583   7.225  0.7933 -0.7729 -0.0817
12879SOL    HW140250   8.304   8.663   7.248 -0.8610  0.2488  0.0495
12879SOL    HW240251   8.312   8.538   7.162  1.8245  0.4404 -0.0746
12880SOL     OW40252   8.256   8.985   2.031 -0.0592  0.0609  0.5401
12880SOL    HW140253   8.273   8.920   2.099  0.9493  1.1033  1.3183
12880SOL    HW240254   8.302   9.063   2.061 -1.0085  1.0518 -0.5178
12881SOL     OW40255   1.710   7.918   9.398 -0.1283  0.2773  0.7934
12881SOL    HW140256   1.708   8.004   9.357 -2.5826 -0.2044 -0.2234
12881SOL    HW240257   1.749   7.860   9.332 -0.7884  0.1580  0.5045
12882SOL     OW40258   5.998   8.789   4.139 -0.0317  0.1952  0.4237
12882SOL    HW140259   6.070   8.839   4.102  1.7024 -1.1988  1.7029
12882SOL    HW240260   5.976   8.836   4.220 -0.3712  0.4848  0.1601
12883SOL     OW40261   7.444   9.311   0.509  0.1840 -0.2730  0.2559
12883SOL    HW140262   7.433   9.336   0.417  0.8795  0.2723  0.3054
12883SOL    HW240263   7.368   9.257   0.529 -0.7748  0.8350 -0.2217
12884SOL     OW40264   2.256   6.051   2.994 -0.2586  0.0292  0.2888
12884SOL    HW140265   2.301   6.009   3.067 -0.4556  1.4182  1.2573
12884SOL    HW240266   2.319   6.048   2.921  1.2345  1.4499  1.4461
12885SOL     OW40267   1.897   1.793   9.669 -0.4030 -0.0819 -0.1217
12885SOL    HW140268   1.810   1.832   9.679 -0.8286 -1.0116 -0.1084
12885SOL    HW240269   1.887   1.732   9.596  0.4675  0.4266 -0.6749
12886SOL     OW40270   3.163   2.749   8.311 -0.0020 -0.1186  0.2724
12886SOL    HW140271   3.135   2.680   8.250 -0.0693  1.2333 -1.2953
12886SOL    HW240272   3.222   2.804   8.259  0.2941  0.8360  1.5740
12887SOL     OW40273   4.423   6.068   9.364  0.7623 -0.0904  0.1731
12887SOL    HW140274   4.501   6.030   9.404  1.5151  1.7977  0.6314
12887SOL    HW240275   4.350   6.015   9.396  1.6921 -0.7728  1.1974
12888SOL     OW40276   7.332   1.808   6.020  0.4389 -0.0953  0.2924
12888SOL    HW140277   7.359   1.896   5.996  1.8861 -0.0567  1.9052
12888SOL    HW240278   7.322   1.810   6.115  0.3326 -1.6211  0.3493
12889SOL     OW40279   2.338   8.085   8.440 -0.0919  0.3568  0.0409
12889SOL    HW140280   2.402   8.091   8.369 -0.4533  1.3801 -0.2205
12889SOL    HW240281   2.256   8.065   8.395  0.1613 -1.7608  0.4469
12890SOL     OW40282   6.833   7.730   0.453 -0.0443  0.2327  0.3432
12890SOL    HW140283   6.783   7.767   0.380  1.6166  0.7401 -0.5865
12890SOL    HW240284   6.820   7.636   0.445 -2.0353  0.3901  1.0474
12891SOL     OW40285   3.226   2.462   8.722 -0.0460 -0.6906  0.4963
12891SOL    HW140286   3.232   2.513   8.642  2.2251  0.0727  1.0750
12891SOL    HW240287   3.223   2.371   8.692  1.6486 -0.4644 -0.4892
12892SOL     OW40288   6.114   4.196   7.209 -0.1916  0.0730  0.5298
12892SOL    HW140289   6.175   4.150   7.152  0.2440  1.5711 -0.2778
12892SOL    HW240290   6.107   4.141   7.287  1.0566 -0.8364  0.0259
12893SOL     OW40291   1.373   3.583   5.182  0.3166  0.1436  0.0352
12893SOL    HW140292   1.329   3.501   5.203  0.7074 -0.2271 -0.5621
12893SOL    HW240293   1.462   3.557   5.157  0.8178  0.8540  1.0048
12894SOL     OW40294   9.632   1.312   9.214 -0.0214 -0.0167  0.1816
12894SOL    HW140295   9.636   1.398   9.256 -0.0636  0.4733 -0.8060
12894SOL    HW240296   9.671   1.325   9.128 -1.8565 -0.5173 -0.7592
12895SOL     OW40297   7.897   0.014   4.631 -0.0747  0.2807 -0.5190
12895SOL    HW140298   7.806  -0.015   4.630  0.2008 -0.8716  1.8082
12895SOL    HW240299   7.941  -0.040   4.565 -0.8005 -0.1729 -0.6364
12896SOL     OW40300   6.953   0.878   0.594 -0.8019 -0.3513  0.1497
12896SOL    HW140301   7.033   0.923   0.622 -0.8014 -1.4165  2.0924
12896SOL    HW240302   6.892   0.948   0.572 -0.4319  0.6091  1.9865
12897SOL     OW40303   9.545   1.547   8.363 -0.0703 -0.0387  0.3874
12897SOL    HW140304   9.615   1.532   8.300 -0.8152  0.9445 -0.7291
12897SOL    HW240305   9.573   1.625   8.411  0.1953 -0.4104  0.8454
12898SOL     OW40306   9.426   3.115   7.204 -0.7194 -0.0277  0.4270
12898SOL    HW140307   9.393   3.073   7.283  1.0898  0.7825  1.7043
12898SOL    HW240308   9.450   3.204   7.233  1.3867 -0.1979 -0.6063
12899SOL     OW40309   1.356   6.083   2.467  0.1742  0.2021 -0.3357
12899SOL    HW140310   1.360   6.110   2.559 -1.0018 -1.2311  0.1669
12899SOL    HW240311   1.263   6.081   2.447  0.3500 -0.8604 -1.1352
12900SOL     OW40312   4.997   0.597   9.420 -0.4251  0.1973 -0.1179
12900SOL    HW140313   5.061   0.658   9.384 -0.4591 -0.4182 -1.2311
12900SOL    HW240314   5.050   0.529   9.461 -0.3107 -0.9014 -2.0034
12901SOL     OW40315   0.806   0.880   2.738  0.4656  0.4179  0.2819
12901SOL    HW140316   0.899   0.864   2.756  0.0401  0.5184  2.9658
12901SOL    HW240317   0.763   0.797   2.758 -0.2027  0.8396  0.6253
12902SOL     OW40318   5.757   2.224   9.038  0.1078 -0.1110 -0.4069
12902SOL    HW140319   5.793   2.312   9.046 -0.0852  0.3145 -3.1552
12902SOL    HW240320   5.830   2.166   9.059  0.9500  0.7378 -0.8876
12903SOL     OW40321   0.414   8.904   0.707  0.4288  0.0954  0.1304
12903SOL    HW140322   0.498   8.875   0.742  0.9431  1.1228 -0.2190
12903SOL    HW240323   0.359   8.825   0.708  0.5941 -0.0808  2.6414
12904SOL     OW40324   7.356   7.540   0.895  0.3137 -0.3032 -0.1883
12904SOL    HW140325   7.357   7.539   0.991  1.9520 -1.0008 -0.1846
12904SOL    HW240326   7.441   7.504   0.870  1.1137  2.4446 -1.8875
12905SOL     OW40327   1.465   5.886   2.268  0.2559 -0.2139 -0.2193
12905SOL    HW140328   1.454   5.794   2.290  2.9275 -0.2022  1.7417
12905SOL    HW240329   1.423   5.933   2.340  2.7496 -0.0621  1.2509
12906SOL     OW40330   9.310   5.628   5.120 -0.2832  0.4152 -0.4845
12906SOL    HW140331   9.347   5.699   5.172  0.0413  0.9979 -1.4829
12906SOL    HW240332   9.361   5.551   5.146 -2.0902  0.0020  2.2526
12907SOL     OW40333   2.873   1.967   8.168  0.0908  0.1373 -0.4101
12907SOL    HW140334   2.830   2.046   8.202 -0.5904 -0.7123  0.7768
12907SOL    HW240335   2.814   1.936   8.100  0.3248  0.6053 -0.8318
12908SOL     OW40336   6.445   1.020   0.485 -0.0749  0.5825 -0.1528
12908SOL    HW140337   6.414   0.929   0.487 -2.3218  1.2791  1.6742
12908SOL    HW240338   6.365   1.072   0.479  1.1718  2.4817 -1.4554
12909SOL     OW40339   7.775   5.716   4.772  0.4853  0.0928  0.0611
12909SOL    HW140340   7.804   5.697   4.861 -1.7206 -0.0739  0.8030
12909SOL    HW240341   7.679   5.719   4.778  0.3011  0.5170 -2.2226
12910SOL     OW40342   9.750   8.398   5.123  0.0615 -0.0661  0.3149
12910SOL    HW140343   9.793   8.483   5.108 -0.3251  0.1301  0.3097
12910SOL    HW240344   9.736   8.396   5.218 -1.3162  0.5582  0.1419
12911SOL     OW40345   7.418   9.738   8.176 -0.1576  0.0741  0.0869
12911SOL    HW140346   7.373   9.655   8.186  3.1871 -1.7858  1.5121
12911SOL    HW240347   7.413   9.779   8.263 -1.6884  1.3909 -0.5752
12912SOL     OW40348   7.183   7.831   9.583  0.3053  0.9200  0.4796
12912SOL    HW140349   7.243   7.792   9.519 -1.7209  0.8411 -1.4760
12912SOL    HW240350   7.162   7.917   9.547 -0.2521  1.2116  1.4727
12913SOL     OW40351   9.833   2.402   0.047  0.1045 -0.5508 -0.1195
12913SOL    HW140352   9.915   2.387  -0.001 -0.0764  1.1274 -1.0412
12913SOL    HW240353   9.859   2.456   0.121 -0.1550  0.0322 -0.4460
12914SOL     OW40354   1.431   2.796   5.472 -0.4250 -0.3810 -0.2975
12914SOL    HW140355   1.336   2.783   5.471 -0.3908 -0.9064  0.8546
12914SOL    HW240356   1.444   2.868   5.535 -0.3161  2.8051 -3.6427
12915SOL     OW40357   8.429   6.763   1.089 -0.2087 -0.0331  0.0731
12915SOL    HW140358   8.387   6.841   1.053  0.9683  0.7986  0.4032
12915SOL    HW240359   8.446   6.707   1.013  1.4461  1.3007 -0.6280
12916SOL     OW40360   2.519   6.073   2.510 -0.4138  0.5373  0.4694
12916SOL    HW140361   2.542   6.145   2.451 -1.5539  0.1824 -0.4331
12916SOL    HW240362   2.598   6.059   2.563  0.5317  1.0699 -0.7655
12917SOL     OW40363   4.709   9.207   3.099  0.3881 -0.1571 -0.1703
12917SOL    HW140364   4.714   9.300   3.075  1.1516 -0.2338 -0.3184
12917SOL    HW240365   4.796   9.186   3.133  0.7315 -1.2157 -1.6119
12918SOL     OW40366   6.384   6.760   4.575 -1.3740 -0.1712  0.0892
12918SOL    HW140367   6.462   6.705   4.571 -0.9937  0.4064 -1.1906
12918SOL    HW240368   6.350   6.748   4.663  2.1175  2.1703  2.0060
12919SOL     OW40369   6.579   9.048   0.990  0.1965  0.0687 -0.2492
12919SOL    HW140370   6.611   9.031   1.079 -0.6845 -1.0696 -0.1165
12919SOL    HW240371   6.654   9.085   0.944  1.1367 -0.7536  0.5642
12920SOL     OW40372   3.292   3.809   6.683  0.4036  0.0849  0.6435
12920SOL    HW140373   3.350   3.738   6.711 -0.2254  0.0419  1.9117
12920SOL    HW240374   3.270   3.855   6.764 -2.2442 -0.6061  0.3945
12921SOL     OW40375   1.630   9.531   1.481 -0.6331  0.0055  0.0837
12921SOL    HW140376   1.665   9.475   1.550  0.9387 -0.9376 -1.4038
12921SOL    HW240377   1.547   9.564   1.517 -0.9625 -2.1943  1.5655
12922SOL     OW40378   2.957   5.045   1.420 -0.0860  0.3877  0.0888
12922SOL    HW140379   3.033   5.102   1.434  0.0448  0.4168 -0.7272
12922SOL    HW240380   2.883   5.097   1.450  0.4030 -0.4732  3.1001
12923SOL     OW40381   5.401   8.302   7.908  0.1655  0.1324  0.0313
12923SOL    HW140382   5.314   8.285   7.944 -0.0922 -0.5509 -0.8659
12923SOL    HW240383   5.457   8.236   7.948  0.2055  0.3416  0.3283
12924SOL     OW40384   7.666   9.266   5.319  0.0297  0.5992  0.1952
12924SOL    HW140385   7.622   9.346   5.292  1.0130  0.8789 -0.5985
12924SOL    HW240386   7.614   9.196   5.280  0.8889  0.9656 -1.6849
12925SOL     OW40387   8.491   6.927   5.097  0.0969 -0.3747  0.4886
12925SOL    HW140388   8.579   6.913   5.132 -0.1722 -0.5978  1.0929
12925SOL    HW240389   8.464   6.842   5.064  0.0125 -0.3649  0.5319
12926SOL     OW40390   8.321   8.169   2.018 -0.0435 -0.2770  0.3272
12926SOL    HW140391   8.324   8.227   2.094 -0.4088 -0.1523  0.2446
12926SOL    HW240392   8.412   8.140   2.007  0.1765  0.4313  0.2468
12927SOL     OW40393   4.414   7.327   6.802  0.5939  0.2001 -0.0432
12927SOL    HW140394   4.433   7.298   6.713 -0.0188  0.6175 -0.3163
12927SOL    HW240395   4.384   7.418   6.792 -3.4026 -0.9073  0.0976
12928SOL     OW40396   2.788   3.685   4.925  0.5017 -0.3459  0.0857
12928SOL    HW140397   2.727   3.758   4.922 -0.0149 -0.7891 -0.3255
12928SOL    HW240398   2.865   3.716   4.876 -0.3782 -0.6659 -1.5724
12929SOL     OW40399   1.487   8.189   0.716  0.6709  0.0287 -0.0995
12929SOL    HW140400   1.475   8.277   0.680  0.1034  0.0931  0.2423
12929SOL    HW240401   1.493   8.132   0.639  2.4646  0.5196 -0.3787
12930SOL     OW40402   6.539   5.076   2.394  0.5184 -0.6443  0.2521
12930SOL    HW140403   6.517   5.013   2.325 -1.4688 -0.4327  0.6355
12930SOL    HW240404   6.584   5.024   2.461 -0.6506 -1.5784  0.3395
12931SOL     OW40405   5.064   4.714   3.723 -0.1597  0.3335  0.0168
12931SOL    HW140406   5.055   4.619   3.718  1.0722  0.1475  0.7362
12931SOL    HW240407   4.994   4.749   3.669 -1.3591 -0.9682  0.6752
12932SOL     OW40408   9.109   1.126   8.289 -0.0514  0.5003 -0.1170
12932SOL    HW140409   9.145   1.139   8.201  0.7003 -0.3033  0.0593
12932SOL    HW240410   9.185   1.124   8.346  0.2496 -4.8903 -0.1414
12933SOL     OW40411   1.961   5.736   8.102  0.3557 -0.3201 -0.0977
12933SOL    HW140412   1.939   5.666   8.041  2.1125 -2.1325  1.2293
12933SOL    HW240413   1.918   5.711   8.184  0.2645  0.6588  0.1702
12934SOL     OW40414   5.967   4.735   8.819 -0.1739  0.3854  0.2827
12934SOL    HW140415   5.995   4.689   8.898 -0.4629  1.6402  1.1317
12934SOL    HW240416   6.033   4.803   8.805 -1.8672  2.3290  1.3861
12935SOL     OW40417   4.839   8.824   3.958 -0.0651  0.0824 -0.2670
12935SOL    HW140418   4.920   8.810   4.006  0.0261  0.5563 -0.2731
12935SOL    HW240419   4.779   8.862   4.022 -0.1426  0.1363 -0.3700
12936SOL     OW40420   5.900   9.018   6.168  0.4788 -0.6124  0.0954
12936SOL    HW140421   5.835   8.961   6.128 -0.0803  0.2611 -0.2598
12936SOL    HW240422   5.977   9.010   6.110 -0.7081  1.5854 -1.9765
12937SOL     OW40423   0.579   7.764   1.858  0.6974 -0.2627  0.0365
12937SOL    HW140424   0.616   7.788   1.943  1.3634 -0.8818 -0.0728
12937SOL    HW240425   0.534   7.681   1.874  1.2962 -0.6655 -0.3331
12938SOL     OW40426   9.511   8.207   0.641  0.2100  0.0357  0.0021
12938SOL    HW140427   9.564   8.286   0.645  0.5183 -0.2122  0.9609
12938SOL    HW240428   9.518   8.168   0.728  0.5628 -1.3688 -0.6279
12939SOL     OW40429   9.367   6.307   0.179  0.2197  0.4812 -0.1757
12939SOL    HW140430   9.326   6.222   0.164 -1.8341  1.4626 -0.4203
12939SOL    HW240431   9.298   6.371   0.160  1.7827  2.2204 -0.2584
12940SOL     OW40432   1.376   4.386   6.779  0.1001  0.4125 -0.2543
12940SOL    HW140433   1.355   4.404   6.687  0.5170  0.6149 -0.3109
12940SOL    HW240434   1.298   4.415   6.827 -0.8439 -1.2912 -0.6793
12941SOL     OW40435   4.259   1.046   8.614 -0.1966  0.3701 -0.4381
12941SOL    HW140436   4.188   0.987   8.591  0.6083 -0.0347 -2.0013
12941SOL    HW240437   4.309   1.056   8.534  2.1277 -0.1732  0.8577
12942SOL     OW40438   4.132   4.326   1.247 -0.1437 -0.4130 -0.3386
12942SOL    HW140439   4.057   4.385   1.242 -0.2078 -0.4626  0.0508
12942SOL    HW240440   4.121   4.280   1.330 -0.2975 -1.2444 -0.8004
12943SOL     OW40441   2.860   8.115   6.453  0.1079 -0.2697  0.0659
12943SOL    HW140442   2.880   8.206   6.475  0.1995 -0.2321 -0.1713
12943SOL    HW240443   2.939   8.083   6.408 -0.2788 -0.1827 -0.6965
12944SOL     OW40444   3.723   3.030   9.767 -0.0954  0.0291 -0.4051
12944SOL    HW140445   3.812   3.040   9.802 -0.2350 -0.2080  0.0268
12944SOL    HW240446   3.716   3.097   9.699 -0.2013  1.2864  0.7966
12945SOL     OW40447   7.443   7.770   7.506 -0.8706  0.2306 -0.1214
12945SOL    HW140448   7.477   7.711   7.573  1.9436  1.9142  0.0741
12945SOL    HW240449   7.380   7.825   7.552 -1.4069 -0.7480  0.3383
12946SOL     OW40450   5.173   4.734   2.615  0.0005  0.0031  0.1294
12946SOL    HW140451   5.094   4.784   2.635  1.1117  1.0225  2.3657
12946SOL    HW240452   5.145   4.643   2.621 -1.2277  0.3413 -0.1389
12947SOL     OW40453   5.355   0.804   0.628  0.3467 -0.1712 -0.1596
12947SOL    HW140454   5.350   0.827   0.536 -1.2310 -0.2582 -0.1275
12947SOL    HW240455   5.303   0.872   0.672  0.7202 -0.3791  0.6174
12948SOL     OW40456   0.433   0.794   3.477 -0.6525  0.0150 -0.1083
12948SOL    HW140457   0.385   0.862   3.430 -3.3455 -0.3829  1.8822
12948SOL    HW240458   0.491   0.842   3.536  0.2098  0.5009 -1.2989
12949SOL     OW40459   2.413   6.076   6.194  0.2027 -0.6260 -0.0921
12949SOL    HW140460   2.491   6.115   6.234 -0.5576  0.5816  0.2746
12949SOL    HW240461   2.445   5.998   6.150  1.4770 -0.6262  0.7871
12950SOL     OW40462   4.014   1.705   8.021 -0.2823  0.0033 -0.6707
12950SOL    HW140463   3.957   1.629   8.016 -0.5508  0.1275  0.1922
12950SOL    HW240464   3.961   1.772   8.065 -0.1343  0.7768 -1.6346
12951SOL     OW40465   1.910   8.729   1.482  0.0541  0.0878 -0.5938
12951SOL    HW140466   1.890   8.805   1.537 -1.3942  0.8285 -2.0563
12951SOL    HW240467   1.986   8.689   1.524 -0.5531  1.0014  1.5300
12952SOL     OW40468   1.386   0.711   9.030  0.2399  0.1123 -0.0674
12952SOL    HW140469   1.429   0.760   8.959 -1.6786  1.2882 -0.4846
12952SOL    HW240470   1.302   0.755   9.042 -0.4615 -1.5121  1.3689
12953SOL     OW40471   9.484   1.213   2.971  0.3952  0.6611 -1.0524
12953SOL    HW140472   9.511   1.230   2.881  0.6587  0.3905 -1.0271
12953SOL    HW240473   9.507   1.121   2.986  1.2580  0.9675 -0.3953
12954SOL     OW40474   8.671   0.288   8.472 -0.6632 -0.5154 -0.3230
12954SOL    HW140475   8.671   0.244   8.558  0.7833  0.2310  0.0788
12954SOL    HW240476   8.697   0.378   8.491 -3.2817  0.5061 -1.1788
12955SOL     OW40477   8.192   6.692   0.819 -0.2361  0.0080  0.1245
12955SOL    HW140478   8.110   6.647   0.838 -0.3798  0.1930 -0.0603
12955SOL    HW240479   8.260   6.636   0.857 -0.4329 -0.2470  0.0996
12956SOL     OW40480   2.275   6.344   5.377  0.4006  0.3298  0.2503
12956SOL    HW140481   2.356   6.295   5.385 -0.2389 -0.9113 -0.4924
12956SOL    HW240482   2.263   6.386   5.462  0.1536 -2.1734  1.5317
12957SOL     OW40483   1.165   7.935   1.629 -0.0898  0.7586 -0.7821
12957SOL    HW140484   1.088   7.880   1.630  0.5026 -0.0728  0.1513
12957SOL    HW240485   1.194   7.933   1.537 -0.7519  0.4989 -0.9922
12958SOL     OW40486   4.936   2.222   7.500  0.4104  0.0006  0.6471
12958SOL    HW140487   5.017   2.218   7.550  0.5339  2.8151  0.8418
12958SOL    HW240488   4.867   2.218   7.565  0.5119  0.8728  0.8275
12959SOL     OW40489   4.807   9.331   2.419 -0.6477 -0.4923 -0.1059
12959SOL    HW140490   4.802   9.346   2.513  0.9371 -0.3163 -0.0296
12959SOL    HW240491   4.761   9.249   2.405 -0.7912 -0.5842  0.8355
12960SOL     OW40492   0.329   0.299   3.841  0.2990 -0.0313  0.0306
12960SOL    HW140493   0.399   0.333   3.897  0.1827  2.2406 -1.0395
12960SOL    HW240494   0.306   0.374   3.786 -2.6978 -0.8397  0.0535
12961SOL     OW40495   7.092   5.537   4.016  0.4623  0.3408 -0.3571
12961SOL    HW140496   7.149   5.574   3.949  0.2637 -0.9936 -1.2989
12961SOL    HW240497   7.061   5.455   3.979  0.6959 -0.6819  1.5418
12962SOL     OW40498   9.481   6.309   1.205  0.2901  0.4948  0.2127
12962SOL    HW140499   9.498   6.372   1.274 -1.7309 -0.1967  1.4242
12962SOL    HW240500   9.388   6.288   1.213  0.2147 -0.3967 -2.0744
12963SOL     OW40501   2.492   7.888   9.661  0.1552 -0.2741  0.1420
12963SOL    HW140502   2.417   7.936   9.696  0.8534  1.0128 -0.0687
12963SOL    HW240503   2.542   7.953   9.611  1.5251 -1.0477  0.4450
12964SOL     OW40504   7.377   5.697   6.155 -0.1645  0.2631  0.2329
12964SOL    HW140505   7.325   5.617   6.149 -1.8573  1.3738 -0.7606
12964SOL    HW240506   7.467   5.667   6.165 -0.8083 -1.7475  0.3300
12965SOL     OW40507   8.999   5.660   5.983  0.0477  0.4978  0.6950
12965SOL    HW140508   8.983   5.666   5.888 -2.5139  0.3492  1.0432
12965SOL    HW240509   9.055   5.583   5.993  0.9870  0.9493 -0.7305
12966SOL     OW40510   9.551   6.761   8.433  0.0438 -0.2165  0.7846
12966SOL    HW140511   9.586   6.850   8.430 -0.4046 -0.0588  0.1948
12966SOL    HW240512   9.603   6.718   8.502  1.4773 -0.0248 -0.1272
12967SOL     OW40513   9.167   6.822   2.385  0.4099 -0.1613  0.3625
12967SOL    HW140514   9.251   6.840   2.343  0.0130 -1.1079 -0.9028
12967SOL    HW240515   9.156   6.893   2.448  0.7142  1.7580 -1.6324
12968SOL     OW40516   1.711   9.693   2.828  0.0335 -0.2374 -0.1076
12968SOL    HW140517   1.697   9.770   2.773 -0.2102 -0.2858 -0.1129
12968SOL    HW240518   1.631   9.642   2.819 -0.7976  0.6460  1.7485
12969SOL     OW40519   1.364   3.960   5.241 -0.5737  0.0717  0.0232
12969SOL    HW140520   1.294   4.025   5.248 -0.4609  0.3408 -1.1717
12969SOL    HW240521   1.342   3.894   5.308  0.0646  1.9692  2.2553
12970SOL     OW40522   8.253   5.886   3.589  0.2663  0.5429 -0.5105
12970SOL    HW140523   8.309   5.824   3.636  0.8686  0.4404 -1.3476
12970SOL    HW240524   8.232   5.953   3.654  0.5797  0.0828  0.0753
12971SOL     OW40525   5.052   2.630   7.051  0.2368 -0.0658 -0.2201
12971SOL    HW140526   4.966   2.671   7.061 -1.1168 -2.8633  0.5875
12971SOL    HW240527   5.103   2.664   7.126 -1.4276 -1.1222  1.4870
12972SOL     OW40528   5.486   8.788   9.550 -0.1748  0.1348 -0.4355
12972SOL    HW140529   5.511   8.739   9.627  0.4041  1.8317  0.5134
12972SOL    HW240530   5.525   8.740   9.477  1.2570 -0.2472  0.5375
12973SOL     OW40531   5.517   1.859   3.264  0.0754 -0.2155 -0.5261
12973SOL    HW140532   5.508   1.897   3.352  0.0175 -0.8895 -0.2357
12973SOL    HW240533   5.611   1.858   3.248  0.1102 -0.4202 -0.3209
12974SOL     OW40534   5.373   0.786   6.008  0.4089 -0.5558  0.2448
12974SOL    HW140535   5.438   0.749   6.068 -0.2746  0.6514  1.7849
12974SOL    HW240536   5.386   0.880   6.013 -1.8224 -0.2439  1.0708
12975SOL     OW40537   2.310   0.909   9.603  0.5557  0.3411 -0.2018
12975SOL    HW140538   2.319   0.830   9.550 -1.2709  0.9082 -1.4893
12975SOL    HW240539   2.304   0.878   9.693 -0.7239 -1.0754 -0.7260
12976SOL     OW40540   3.923   9.167   2.279  0.0908  0.5220  0.3281
12976SOL    HW140541   3.947   9.256   2.306  3.1607 -0.0848 -0.1047
12976SOL    HW240542   3.882   9.179   2.194  3.9745  1.3968 -1.6310
12977SOL     OW40543   4.631   1.132   6.200  0.0727  0.5409  0.1109
12977SOL    HW140544   4.638   1.168   6.289  0.1753  1.1720 -0.1508
12977SOL    HW240545   4.688   1.187   6.147 -0.6687  0.7250 -0.5150
12978SOL     OW40546   2.774   0.575   3.736  0.9548  0.0117 -0.5142
12978SOL    HW140547   2.831   0.498   3.733 -1.6487 -2.3074  2.6807
12978SOL    HW240548   2.691   0.546   3.697  0.1637  1.4732 -0.0074
12979SOL     OW40549   6.971   2.502   1.095 -0.2273  0.4913  0.2344
12979SOL    HW140550   6.990   2.432   1.158  0.7716  1.0470  0.5738
12979SOL    HW240551   6.921   2.567   1.144  0.0764  0.6697  0.3107
12980SOL     OW40552   3.108   6.840   9.257  0.0700  0.5890 -0.6981
12980SOL    HW140553   3.172   6.909   9.238 -0.7852  1.5032 -0.3258
12980SOL    HW240554   3.107   6.786   9.178  2.3990 -0.3562 -0.1693
12981SOL     OW40555   5.647   1.706   4.474  0.1263  0.5345 -0.6913
12981SOL    HW140556   5.742   1.718   4.484  0.3582 -1.0351 -0.6737
12981SOL    HW240557   5.631   1.619   4.510 -1.5032  1.1794  0.2425
12982SOL     OW40558   3.244   2.878   0.620 -0.1261  0.3654 -0.3565
12982SOL    HW140559   3.294   2.837   0.550 -2.0230 -1.4851 -0.7392
12982SOL    HW240560   3.289   2.851   0.701 -0.4488 -1.2737 -0.6841
12983SOL     OW40561   3.732   6.120   0.240 -0.4368 -0.3579 -0.0504
12983SOL    HW140562   3.753   6.193   0.182 -0.5557  0.2584  0.6687
12983SOL    HW240563   3.727   6.044   0.182 -2.0356  0.4801 -1.1034
12984SOL     OW40564   5.105   3.847   9.657 -0.7630  0.3371 -0.2375
12984SOL    HW140565   5.025   3.816   9.699 -0.7704 -0.2303 -0.6621
12984SOL    HW240566   5.135   3.772   9.605 -0.4589  0.8489 -0.8044
12985SOL     OW40567   4.288   4.235   8.495 -0.4339 -0.4797 -0.4224
12985SOL    HW140568   4.371   4.226   8.541 -0.0994 -0.2035 -0.9707
12985SOL    HW240569   4.279   4.328   8.478 -0.9287 -0.4895 -0.2351
12986SOL     OW40570   2.172   7.966   3.989 -0.0855  0.3858 -0.3459
12986SOL    HW140571   2.090   8.005   4.018 -0.4431  0.5778 -1.5456
12986SOL    HW240572   2.148   7.915   3.911  0.9205  0.4354 -0.7019
12987SOL     OW40573   3.908   8.905   7.645 -0.1243 -0.3491  0.3510
12987SOL    HW140574   3.952   8.824   7.671 -0.3716 -0.9397 -0.9909
12987SOL    HW240575   3.831   8.910   7.703  1.0089  0.0764  1.8954
12988SOL     OW40576   3.254   1.566   2.824  0.2860 -0.3556  0.5562
12988SOL    HW140577   3.278   1.594   2.912 -2.7901 -1.5519  1.9221
12988SOL    HW240578   3.274   1.473   2.823  0.8572 -0.2321 -0.2573
12989SOL     OW40579   0.451   6.530   8.952 -0.0655 -0.6160  0.1884
12989SOL    HW140580   0.389   6.525   9.025 -0.6207 -1.7818 -0.3350
12989SOL    HW240581   0.536   6.509   8.992 -0.5442 -2.4837  0.3318
12990SOL     OW40582   0.203   9.456   9.625 -0.2287 -0.3182 -0.3253
12990SOL    HW140583   0.219   9.479   9.717 -3.0574 -1.6542  0.6278
12990SOL    HW240584   0.289   9.431   9.591  1.0693  1.1548  1.6288
12991SOL     OW40585   0.694   9.418   0.426 -0.8100  0.1961 -0.0763
12991SOL    HW140586   0.756   9.349   0.404 -0.4864  0.8271 -1.2319
12991SOL    HW240587   0.609   9.374   0.433 -0.2274 -0.6999  1.7065
12992SOL     OW40588   1.070   1.795   1.419  0.7075  0.0660 -0.1139
12992SOL    HW140589   1.070   1.845   1.501 -0.3031  1.4057 -0.8855
12992SOL    HW240590   1.103   1.709   1.443  0.6895  0.5177  1.6485
12993SOL     OW40591   3.211   5.632   5.299 -0.3607 -0.7019  0.4160
12993SOL    HW140592   3.273   5.681   5.353  0.5992 -0.2124 -1.0551
12993SOL    HW240593   3.253   5.626   5.213 -2.4761 -0.1075 -0.7430
12994SOL     OW40594   8.803   4.740   5.950  0.1312  0.4982 -0.7552
12994SOL    HW140595   8.853   4.815   5.982  1.6690 -0.2514 -1.2939
12994SOL    HW240596   8.742   4.777   5.886 -0.4610  1.5077  0.3405
12995SOL     OW40597   6.171   1.712   0.428 -0.2431 -0.6211  0.1987
12995SOL    HW140598   6.097   1.759   0.468  0.5549  0.5704  0.3287
12995SOL    HW240599   6.146   1.703   0.336 -1.5022 -2.1933  0.6566
12996SOL     OW40600   1.240   5.921   0.073 -0.6386 -0.5939 -0.1632
12996SOL    HW140601   1.197   5.836   0.065  0.3406 -1.2247  0.8590
12996SOL    HW240602   1.325   5.909   0.031 -0.8241  0.1537 -0.7703
12997SOL     OW40603   5.012   3.007   9.735 -0.2364  0.2541  1.0521
12997SOL    HW140604   4.961   2.938   9.693 -1.2811  2.0847 -0.9217
12997SOL    HW240605   4.974   3.016   9.822 -0.9073 -0.7914  0.8832
12998SOL     OW40606   7.134   9.834   9.010 -0.6303  0.0313  0.3138
12998SOL    HW140607   7.066   9.835   8.943 -1.1500 -2.4274  0.7143
12998SOL    HW240608   7.086   9.841   9.093 -0.4566 -1.6337  0.5923
12999SOL     OW40609   4.070   5.490   1.260  0.1903 -0.8427  0.7577
12999SOL    HW140610   4.067   5.513   1.167 -0.1648 -1.5874  0.5813
12999SOL    HW240611   4.140   5.545   1.296 -0.6076  0.4949  0.3460
13000SOL     OW40612   0.824   8.262   2.621  0.1521 -0.1396  0.1766
13000SOL    HW140613   0.856   8.333   2.676  0.3379 -0.0259 -0.0734
13000SOL    HW240614   0.882   8.263   2.545 -0.4417  0.0670 -0.2831
13001SOL     OW40615   6.580   7.134   2.976  0.2876  0.1839  0.7083
13001SOL    HW140616   6.511   7.177   3.026 -0.2058  0.1473  0.0777
13001SOL    HW240617   6.597   7.194   2.903  0.2348 -0.2586  0.3282
13002SOL     OW40618   8.356   8.993   1.085 -0.0107  0.5545 -0.3161
13002SOL    HW140619   8.429   9.014   1.144  0.0708  0.3290 -0.3362
13002SOL    HW240620   8.389   8.922   1.030 -0.2124  0.5182 -0.3903
13003SOL     OW40621   7.224   3.624   7.274  0.4587  0.6267 -0.4344
13003SOL    HW140622   7.259   3.714   7.267  1.1157  0.4189  0.1085
13003SOL    HW240623   7.282   3.573   7.217 -0.5726  0.7098 -1.6149
13004SOL     OW40624   0.256   0.178   7.246  0.4435  0.3881 -0.2394
13004SOL    HW140625   0.315   0.212   7.179 -0.1685  1.3557 -0.2960
13004SOL    HW240626   0.171   0.214   7.224  0.1121  0.2047  0.6969
13005SOL     OW40627   0.054   5.796   7.374  0.1016 -0.6136 -0.4271
13005SOL    HW140628   0.090   5.709   7.357  0.2005 -1.0056  1.4932
13005SOL    HW240629   0.130   5.854   7.376 -0.0376 -0.3081 -2.4730
13006SOL     OW40630   4.442   5.607   5.831  0.2668 -0.1328  0.1037
13006SOL    HW140631   4.459   5.517   5.862  0.7807  0.2270  0.8997
13006SOL    HW240632   4.348   5.619   5.845  0.1294 -0.6649 -0.3272
13007SOL     OW40633   1.151   2.197   2.311 -0.3069  0.4621  0.4919
13007SOL    HW140634   1.145   2.102   2.319  0.5721  0.4527  1.0855
13007SOL    HW240635   1.060   2.226   2.315 -0.6836 -0.4270 -0.8061
13008SOL     OW40636   0.854   9.450   5.005 -0.2360 -0.2842 -0.4984
13008SOL    HW140637   0.786   9.480   4.944 -0.9014 -0.1180  0.3197
13008SOL    HW240638   0.911   9.525   5.016 -0.3574 -0.1788 -0.5811
13009SOL     OW40639   3.932   8.398   6.084 -0.8717  0.3288 -0.4967
13009SOL    HW140640   3.844   8.383   6.049 -1.9177 -0.1152  2.1357
13009SOL    HW240641   3.971   8.310   6.089 -0.9492  0.3214 -0.0141
13010SOL     OW40642   5.208   4.682   3.075 -0.3705  0.0672 -1.0623
13010SOL    HW140643   5.278   4.707   3.014  1.7123 -0.7397  0.8320
13010SOL    HW240644   5.164   4.609   3.033 -0.1971  0.6955 -2.3802
13011SOL     OW40645   1.543   7.046   8.019 -0.2560  0.8495  0.1722
13011SOL    HW140646   1.617   7.084   8.067  0.5440 -0.0587 -0.2984
13011SOL    HW240647   1.573   7.043   7.928 -1.1171  1.0316 -0.1200
13012SOL     OW40648   1.665   0.717   2.891  0.1902  0.0534  0.3525
13012SOL    HW140649   1.639   0.795   2.843  0.1092 -0.1270  0.1019
13012SOL    HW240650   1.682   0.748   2.980  0.7728  0.4574  0.0992
13013SOL     OW40651   9.366   2.757   7.510  0.1170  0.6791 -0.2272
13013SOL    HW140652   9.459   2.780   7.511  0.2034  0.3221  0.4903
13013SOL    HW240653   9.320   2.840   7.502  0.5313  0.7274 -3.5168
13014SOL     OW40654   3.652   5.287   6.268  0.1839  0.8614  0.0846
13014SOL    HW140655   3.686   5.246   6.188 -0.6660  1.1533 -0.4362
13014SOL    HW240656   3.589   5.352   6.237 -0.7959  0.3880  1.0173
13015SOL     OW40657   4.059   6.247   7.844 -0.0754 -0.2399 -0.2614
13015SOL    HW140658   4.004   6.323   7.828 -0.0350 -0.1220  0.1365
13015SOL    HW240659   4.074   6.208   7.758  1.0916  1.0128 -0.6609
13016SOL     OW40660   0.788   4.722   3.994 -0.3962  0.3303  0.3187
13016SOL    HW140661   0.824   4.783   4.059  0.3565  0.7850 -0.4987
13016SOL    HW240662   0.830   4.748   3.912 -1.2598 -0.2929 -0.3340
13017SOL     OW40663   9.793   2.995   7.604  0.1104  0.5247  0.0301
13017SOL    HW140664   9.865   3.041   7.561 -0.5785  1.3258 -0.2923
13017SOL    HW240665   9.768   3.053   7.677  0.1492 -0.0136  0.4811
13018SOL     OW40666   7.622   0.840   7.860  0.0754  0.2532 -0.4043
13018SOL    HW140667   7.600   0.813   7.950 -1.7432 -0.7904 -1.1167
13018SOL    HW240668   7.555   0.904   7.837  0.4887  0.4588 -1.0544
13019SOL     OW40669   5.775   0.400   1.577 -0.0222 -0.3823  0.1269
13019SOL    HW140670   5.727   0.387   1.495 -1.5615 -0.8663  1.0686
13019SOL    HW240671   5.750   0.325   1.631  1.1060 -0.1645  0.9901
13020SOL     OW40672   7.261   7.112   7.249 -0.4886 -0.3594  0.1424
13020SOL    HW140673   7.235   7.077   7.163 -0.1887 -0.2780  0.0169
13020SOL    HW240674   7.203   7.068   7.311  0.3817 -1.6674  0.0746
13021SOL     OW40675   0.115   0.737   2.829 -0.0200  1.1248 -0.2037
13021SOL    HW140676   0.099   0.652   2.787 -2.2944  1.5912 -0.4074
13021SOL    HW240677   0.205   0.759   2.804  0.6888 -1.2616 -0.0325
13022SOL     OW40678   1.617   9.385   9.259  0.3938 -0.6899  0.6874
13022SOL    HW140679   1.663   9.312   9.300  1.4364 -0.1167  0.5819
13022SOL    HW240680   1.621   9.455   9.324  0.4475 -0.3611  0.3340
13023SOL     OW40681   6.555   3.922   7.621 -0.3021  0.1918 -0.4789
13023SOL    HW140682   6.629   3.934   7.680  0.7806  0.5123 -1.8389
13023SOL    HW240683   6.589   3.945   7.535 -1.8262 -0.2409 -1.2407
13024SOL     OW40684   2.959   4.155   0.535  0.1198  0.4159  0.1298
13024SOL    HW140685   3.025   4.168   0.603  0.7055  0.6044 -0.4705
13024SOL    HW240686   3.008   4.139   0.455 -0.5594  0.5356 -0.3257
13025SOL     OW40687   6.881   7.790   9.104  0.0725 -0.1386  0.0828
13025SOL    HW140688   6.793   7.783   9.141  0.1838 -1.2736  0.1957
13025SOL    HW240689   6.868   7.775   9.010  0.2307 -1.2895  0.2232
13026SOL     OW40690   1.691   9.265   8.381 -0.4623  0.5480  0.1370
13026SOL    HW140691   1.703   9.353   8.417 -2.6814  1.3889 -1.0110
13026SOL    HW240692   1.614   9.231   8.427  0.9030 -1.2444  1.2540
13027SOL     OW40693   0.231   7.207   8.836  0.6918  0.4156  0.3433
13027SOL    HW140694   0.276   7.124   8.822  0.5078  0.2446  0.7295
13027SOL    HW240695   0.152   7.201   8.783  0.1856 -0.0710  1.1239
13028SOL     OW40696   4.588   6.617   8.352 -0.2091  0.0456 -0.3232
13028SOL    HW140697   4.506   6.571   8.333 -0.8560  0.4430  1.3376
13028SOL    HW240698   4.631   6.625   8.267 -3.0428  2.0361 -1.7443
13029SOL     OW40699   9.157   2.826   7.235  0.0892  0.4170 -0.2878
13029SOL    HW140700   9.081   2.876   7.204 -0.2379  1.5043  2.0350
13029SOL    HW240701   9.188   2.875   7.311  2.8761 -0.2619 -0.8775
13030SOL     OW40702   5.576   5.326   8.684  0.2805  0.1818 -0.0909
13030SOL    HW140703   5.638   5.280   8.739 -0.1552 -0.9266 -0.4957
13030SOL    HW240704   5.529   5.385   8.743  1.1490  0.4282  0.3545
13031SOL     OW40705   2.609   3.804   5.739 -0.2688  0.0831 -0.5042
13031SOL    HW140706   2.595   3.711   5.725 -2.6512  0.0216  1.6637
13031SOL    HW240707   2.664   3.809   5.817  1.0968  0.5420 -1.4488
13032SOL     OW40708   9.837   9.564   6.189  0.2861 -0.3509 -0.3293
13032SOL    HW140709   9.919   9.609   6.169  0.1509 -0.7850 -2.1082
13032SOL    HW240710   9.850   9.527   6.276  1.1545  1.3654  0.3264
13033SOL     OW40711   8.912   8.045   9.378 -0.1576  0.2893  0.0849
13033SOL    HW140712   8.953   7.964   9.409 -0.1064  0.3480  0.1714
13033SOL    HW240713   8.839   8.016   9.323 -0.6148  0.1814  0.7398
13034SOL     OW40714   0.832   0.334   0.677  0.3128  0.0887 -0.0437
13034SOL    HW140715   0.782   0.264   0.719 -2.1039  2.0921  0.6467
13034SOL    HW240716   0.886   0.369   0.748 -0.5700  0.6964  0.3457
13035SOL     OW40717   5.210   6.604   8.862  0.1614 -0.3642 -0.1037
13035SOL    HW140718   5.259   6.570   8.786 -1.0245 -0.4593 -0.8549
13035SOL    HW240719   5.219   6.699   8.856  1.3951 -0.4175  0.5682
13036SOL     OW40720   1.473   4.423   2.996  0.2639 -0.2029  0.0311
13036SOL    HW140721   1.401   4.369   3.028  2.2228 -3.0004  0.0753
13036SOL    HW240722   1.451   4.441   2.905 -0.1905 -1.6564 -0.1745
13037SOL     OW40723   6.085   4.230   5.332  0.0362 -0.3795  0.3784
13037SOL    HW140724   6.111   4.245   5.241 -1.0155  0.7637  0.2318
13037SOL    HW240725   6.102   4.137   5.347  2.5016 -0.0875 -0.1937
13038SOL     OW40726   2.473   2.018   6.457  0.1068 -0.4152 -0.3384
13038SOL    HW140727   2.553   1.966   6.450 -1.1128 -2.3788 -0.3860
13038SOL    HW240728   2.433   1.989   6.539 -0.4405  0.7426 -0.1745
13039SOL     OW40729   7.204   1.271   7.445 -0.3431  0.3356 -0.4776
13039SOL    HW140730   7.116   1.309   7.444 -0.2535  0.5466 -0.3137
13039SOL    HW240731   7.191   1.183   7.483 -0.4010  0.5740  0.0655
13040SOL     OW40732   1.027   8.040   1.215 -0.5660 -0.4067 -0.0742
13040SOL    HW140733   0.998   8.128   1.237  1.0847  0.3878 -0.9637
13040SOL    HW240734   1.105   8.026   1.269 -0.8847 -1.3881  0.1546
13041SOL     OW40735   5.031   7.954   6.222  0.3636  0.2028  0.2887
13041SOL    HW140736   4.981   7.904   6.159  0.6144  0.5946 -0.2270
13041SOL    HW240737   4.968   8.016   6.260  0.0261 -0.5587  1.0106
13042SOL     OW40738   6.504   9.341   8.613 -0.5181 -0.1274  0.1165
13042SOL    HW140739   6.421   9.339   8.662 -0.1936  2.0460  0.8705
13042SOL    HW240740   6.481   9.379   8.529 -0.3691  0.0147  0.1398
13043SOL     OW40741   8.475   3.726   1.949 -0.4834  0.2842  0.0210
13043SOL    HW140742   8.526   3.803   1.973 -1.2148  0.7196  0.1745
13043SOL    HW240743   8.384   3.755   1.949 -0.6901 -0.2990 -0.9677
13044SOL     OW40744   9.542   0.193   0.129 -0.0601 -0.5100 -0.2410
13044SOL    HW140745   9.553   0.279   0.089  0.9104 -0.2157  0.6301
13044SOL    HW240746   9.570   0.131   0.061 -0.4004 -0.1284 -0.7355
13045SOL     OW40747   2.571   3.163   2.299  0.2234  0.3851 -0.7747
13045SOL    HW140748   2.589   3.090   2.358 -0.0994  0.2153 -0.8805
13045SOL    HW240749   2.496   3.208   2.339  0.3489  0.5895 -0.7695
13046SOL     OW40750   0.910   9.836   2.177  0.0687  0.4484 -0.0769
13046SOL    HW140751   0.981   9.775   2.156 -0.8986 -0.8037  0.1410
13046SOL    HW240752   0.942   9.921   2.149  0.8048 -0.4053 -1.9569
13047SOL     OW40753   9.534   4.101   3.365 -0.2080  0.2166 -0.3328
13047SOL    HW140754   9.581   4.091   3.282 -0.2083 -2.2708 -0.1165
13047SOL    HW240755   9.596   4.145   3.423  0.1657  1.0411 -1.3389
13048SOL     OW40756   3.175   5.383   4.648 -0.4053  0.3396  0.5381
13048SOL    HW140757   3.144   5.472   4.665  3.6834  1.4939  3.4204
13048SOL    HW240758   3.239   5.393   4.578  1.4081  0.0874  2.1006
13049SOL     OW40759   7.590   8.979   3.106 -0.0254 -0.0168  0.0682
13049SOL    HW140760   7.582   8.912   3.038  1.0754  1.7779 -1.9739
13049SOL    HW240761   7.650   8.941   3.170 -0.0542 -1.2969 -0.6283
13050SOL     OW40762   8.067   2.568   0.413 -0.5815  0.2259 -0.6521
13050SOL    HW140763   8.050   2.519   0.494 -1.6648  1.3450 -0.1730
13050SOL    HW240764   8.130   2.635   0.438 -1.8309  1.3491 -0.4025
13051SOL     OW40765   0.777   5.775   7.862 -0.5486 -0.0003 -0.4935
13051SOL    HW140766   0.846   5.753   7.799  0.5077 -0.3588  0.7637
13051SOL    HW240767   0.764   5.869   7.852  1.8523  0.5483  0.9154
13052SOL     OW40768   6.420   6.911   3.152 -0.3802 -0.5583  0.2239
13052SOL    HW140769   6.430   6.929   3.245  0.2036  0.5675 -0.0365
13052SOL    HW240770   6.338   6.955   3.128  0.2100  0.4119 -0.0767
13053SOL     OW40771   5.038   7.314   7.957  0.1002  0.1905 -0.7861
13053SOL    HW140772   5.099   7.387   7.961 -0.1660  0.4854 -1.7124
13053SOL    HW240773   5.071   7.259   7.886  2.0657 -2.2707  1.8288
13054SOL     OW40774   4.370   1.710   1.517  0.1034  0.3015 -0.1125
13054SOL    HW140775   4.399   1.622   1.495  1.3789  1.0848 -1.7577
13054SOL    HW240776   4.275   1.709   1.500  0.1471 -0.6702 -0.3749
13055SOL     OW40777   9.631   4.283   1.917  0.0256 -0.5194 -0.2515
13055SOL    HW140778   9.726   4.285   1.906  0.1146 -1.4098  0.2741
13055SOL    HW240779   9.605   4.375   1.916  0.8665 -0.2760 -0.5972
13056SOL     OW40780   8.340   1.344   7.942  0.4520  0.0765  0.3186
13056SOL    HW140781   8.250   1.374   7.931  0.7679  0.6867 -0.6153
13056SOL    HW240782   8.353   1.281   7.872  0.7766  0.0332  0.4170
13057SOL     OW40783   8.116   4.225   4.598 -0.6888 -0.1257 -0.0248
13057SOL    HW140784   8.113   4.131   4.615 -2.6254 -0.3889 -1.3919
13057SOL    HW240785   8.120   4.266   4.684 -3.0096 -1.4527  0.8101
13058SOL     OW40786   9.165   2.775   3.602  0.5361  0.5812  0.0813
13058SOL    HW140787   9.180   2.870   3.608 -0.5665  0.8765 -1.1969
13058SOL    HW240788   9.093   2.767   3.539 -0.3825 -1.0217  1.2554
13059SOL     OW40789   2.953   8.447   8.204  0.4163  0.1919 -0.2043
13059SOL    HW140790   2.883   8.495   8.159  0.8770  0.3755 -0.7235
13059SOL    HW240791   2.911   8.414   8.284 -0.0029  1.1856  0.0105
13060SOL     OW40792   3.110   0.929   9.091  0.5830 -0.6071  0.4795
13060SOL    HW140793   3.035   0.908   9.146  1.7026 -3.9577  0.9645
13060SOL    HW240794   3.078   0.919   9.002 -0.1758  0.6261  0.5963
13061SOL     OW40795   7.746   4.471   8.112 -0.3191  0.0629  0.2392
13061SOL    HW140796   7.751   4.499   8.020 -0.5352  1.6571  0.6801
13061SOL    HW240797   7.803   4.395   8.117  0.2900  0.4067 -1.0606
13062SOL     OW40798   7.502   2.457   1.410 -0.6104 -0.3019  0.0446
13062SOL    HW140799   7.539   2.540   1.381 -3.2518  0.1721 -2.3794
13062SOL    HW240800   7.544   2.391   1.354 -0.3329 -0.3003  0.2498
13063SOL     OW40801   6.141   2.411   6.299  0.2734 -0.3461  0.1506
13063SOL    HW140802   6.059   2.440   6.258  0.4969  1.6812  0.9955
13063SOL    HW240803   6.204   2.406   6.227 -0.3411 -0.9785 -0.3591
13064SOL     OW40804   5.276   8.368   3.966 -0.1445  0.3138 -0.2967
13064SOL    HW140805   5.280   8.457   3.932 -2.8071 -0.4301 -2.9875
13064SOL    HW240806   5.349   8.323   3.923 -0.5471  0.5337 -1.2217
13065SOL     OW40807   0.490   6.859   0.495  0.0284 -0.0042 -0.2513
13065SOL    HW140808   0.477   6.919   0.569  1.6972  0.6197 -0.4291
13065SOL    HW240809   0.416   6.799   0.500 -0.4401  0.6543  1.3122
13066SOL     OW40810   8.253   6.657   3.771 -0.2190  0.6117 -0.2295
13066SOL    HW140811   8.215   6.598   3.706 -1.2852  0.2990  0.6449
13066SOL    HW240812   8.185   6.668   3.837  1.1572  0.1037  1.3709
13067SOL     OW40813   4.657   4.144   9.562 -0.2680 -0.3146 -0.1937
13067SOL    HW140814   4.603   4.074   9.598 -1.3423  0.6446  0.0963
13067SOL    HW240815   4.596   4.206   9.523  0.2877  2.1004  2.3592
13068SOL     OW40816   9.270   3.740   7.988 -0.4846 -0.1362 -0.3350
13068SOL    HW140817   9.294   3.806   8.053  0.8703 -1.1890  0.2951
13068SOL    HW240818   9.176   3.753   7.973 -0.2344  1.9408 -0.2864
13069SOL     OW40819   7.042   1.164   6.903 -0.1294  0.1013 -0.9869
13069SOL    HW140820   6.965   1.124   6.942  0.3542 -0.5381 -0.6744
13069SOL    HW240821   7.018   1.179   6.811 -0.6593  0.0148 -0.8630
13070SOL     OW40822   2.206   0.023   7.451  0.0505  0.2005  0.3813
13070SOL    HW140823   2.171   0.084   7.385 -1.5993 -1.4377 -0.3332
13070SOL    HW240824   2.220  -0.058   7.403 -0.0656 -0.6827  1.8059
13071SOL     OW40825   7.138   0.188   1.983  0.1212  1.0118 -0.3578
13071SOL    HW140826   7.213   0.208   1.928  1.0700  1.4848  1.0726
13071SOL    HW240827   7.067   0.242   1.948  0.5495  0.9098 -1.4222
13072SOL     OW40828   0.894   7.202   0.158  0.0622 -0.3594 -0.0006
13072SOL    HW140829   0.822   7.163   0.207 -2.2186  1.6561 -1.5197
13072SOL    HW240830   0.894   7.156   0.074  1.5632 -1.3296  0.4924
13073SOL     OW40831   7.939   0.649   6.792  0.0718 -0.1443  0.0545
13073SOL    HW140832   7.892   0.655   6.708  3.4591 -0.5281 -2.0613
13073SOL    HW240833   7.905   0.569   6.832  0.5336 -1.7801 -2.5487
13074SOL     OW40834   0.259   0.094   4.859  0.4220  0.0333  0.0301
13074SOL    HW140835   0.184   0.122   4.806  0.2394 -1.0127 -0.2791
13074SOL    HW240836   0.279   0.006   4.827 -0.8824 -1.4341  2.9649
13075SOL     OW40837   1.243   2.180   7.175 -0.3859 -0.2589 -0.3211
13075SOL    HW140838   1.161   2.168   7.221 -0.5526 -0.0440 -0.5586
13075SOL    HW240839   1.251   2.103   7.118  0.2502 -0.9694  0.6992
13076SOL     OW40840   1.877   3.271   5.957  0.4694  0.5439 -0.4625
13076SOL    HW140841   1.905   3.301   5.870 -0.0265  2.2761 -0.0704
13076SOL    HW240842   1.837   3.348   5.996 -2.0891 -0.9970  0.1543
13077SOL     OW40843   0.667   5.042   2.927  0.5141 -0.0906 -0.1614
13077SOL    HW140844   0.762   5.031   2.938  0.2499 -0.0610  3.1916
13077SOL    HW240845   0.656   5.065   2.835  3.8687  1.1536 -0.3807
13078SOL     OW40846   7.397   6.284   7.539  0.1693  0.3843 -0.3628
13078SOL    HW140847   7.357   6.319   7.619  0.9025 -2.3561  1.3331
13078SOL    HW240848   7.490   6.306   7.547  0.2687 -0.0166 -0.3951
13079SOL     OW40849   6.712   2.706   9.825 -0.8298  0.2663 -0.0424
13079SOL    HW140850   6.702   2.618   9.862  0.3349  0.2443  0.2696
13079SOL    HW240851   6.749   2.758   9.897 -0.5913  0.7654 -0.5199
13080SOL     OW40852   7.761   6.781   7.202 -0.0650 -0.1308 -0.4029
13080SOL    HW140853   7.798   6.745   7.121  0.0019  1.5166 -1.1541
13080SOL    HW240854   7.818   6.855   7.223 -1.7843  1.3120 -0.5475
13081SOL     OW40855   0.926   8.844   2.897  0.3111  0.2081 -0.2166
13081SOL    HW140856   0.873   8.915   2.934 -0.3000  0.2786 -1.1650
13081SOL    HW240857   0.994   8.828   2.961 -1.2616 -0.3602  1.3963
13082SOL     OW40858   4.955   1.094   7.341 -0.8249 -0.8167  0.2748
13082SOL    HW140859   4.883   1.076   7.280 -0.2080  1.1119 -1.1393
13082SOL    HW240860   5.024   1.129   7.285  0.8655 -1.7051  1.7429
13083SOL     OW40861   4.026   2.034   8.902 -0.3286  0.8102 -0.3819
13083SOL    HW140862   4.100   2.056   8.847  0.2938 -0.9587 -0.3102
13083SOL    HW240863   4.065   1.997   8.981 -1.2585  1.6859  0.5276
13084SOL     OW40864   7.150   0.792   4.555  0.0935  0.2942 -0.6808
13084SOL    HW140865   7.207   0.865   4.577  0.5055  0.9501 -3.5038
13084SOL    HW240866   7.203   0.736   4.498 -0.3620 -2.0557  1.0407
13085SOL     OW40867   5.448   5.975   5.117  0.3984  0.4230 -0.1564
13085SOL    HW140868   5.456   6.016   5.203 -0.7524 -1.8813  1.1421
13085SOL    HW240869   5.355   5.957   5.107  0.6525 -0.3296 -1.4073
13086SOL     OW40870   2.191   6.942   9.537 -0.7971 -0.5249 -0.0110
13086SOL    HW140871   2.248   6.893   9.477 -0.6966 -0.4636  0.0347
13086SOL    HW240872   2.202   7.033   9.512 -1.6538 -0.5922 -0.6759
13087SOL     OW40873   2.405   9.120   5.437  0.0903  0.4664  0.3969
13087SOL    HW140874   2.350   9.111   5.514 -1.2845  0.1734 -0.5829
13087SOL    HW240875   2.399   9.036   5.392 -2.6575  1.8255 -2.2189
13088SOL     OW40876   5.586   9.029   0.391  0.0261 -0.3888 -0.0785
13088SOL    HW140877   5.529   9.101   0.363  0.2291 -0.8571 -1.8225
13088SOL    HW240878   5.620   8.992   0.310  2.3765 -0.5126  0.8552
13089SOL     OW40879   6.518   9.366   1.710 -0.2087 -0.0977  0.4424
13089SOL    HW140880   6.475   9.450   1.727  0.6210  0.6199 -0.8756
13089SOL    HW240881   6.573   9.382   1.634 -0.4930 -2.0224 -0.2113
13090SOL     OW40882   6.643   8.908   2.722 -0.0674 -0.0348 -0.2442
13090SOL    HW140883   6.566   8.854   2.740 -0.0579 -0.0934 -0.3768
13090SOL    HW240884   6.649   8.967   2.797  0.4186 -0.7726  0.3008
13091SOL     OW40885   8.091   7.656   7.385 -0.4251  0.5454 -0.3091
13091SOL    HW140886   8.020   7.629   7.442 -1.1171 -0.1266 -1.4563
13091SOL    HW240887   8.088   7.595   7.312 -0.4366  2.1833 -1.7413
13092SOL     OW40888   2.547   4.839   2.935  0.3407  0.0584 -0.2304
13092SOL    HW140889   2.552   4.751   2.971  2.5123  0.2208 -0.0067
13092SOL    HW240890   2.547   4.897   3.012  0.9421  0.2971 -0.4043
13093SOL     OW40891   5.973   2.905   6.599  0.2285 -0.0220  0.1096
13093SOL    HW140892   6.008   2.929   6.513 -1.0504 -1.2059 -0.7828
13093SOL    HW240893   5.932   2.984   6.632 -0.2902  0.1535 -0.9100
13094SOL     OW40894   3.211   3.778   0.915 -0.0200 -0.7160 -0.0790
13094SOL    HW140895   3.272   3.752   0.984 -0.6727  0.3924  0.9366
13094SOL    HW240896   3.264   3.779   0.836  1.8512  2.1037  1.0518
13095SOL     OW40897   6.110   8.419   9.674  0.1128 -0.1891  0.3523
13095SOL    HW140898   6.120   8.354   9.605  0.2741 -1.5131  1.5632
13095SOL    HW240899   6.197   8.425   9.714 -0.1581 -0.0250  0.9285
13096SOL     OW40900   5.781   7.291   2.549  0.0569 -0.0731  0.1143
13096SOL    HW140901   5.734   7.363   2.506  1.0310  0.0887 -0.7464
13096SOL    HW240902   5.871   7.323   2.555  0.3041 -0.8470  0.5978
13097SOL     OW40903   7.601   9.300   7.143  0.6258 -0.0230  0.2100
13097SOL    HW140904   7.635   9.305   7.053  1.4374  0.5800  0.5357
13097SOL    HW240905   7.573   9.389   7.162  1.6912  0.1612  1.0112
13098SOL     OW40906   4.656   8.557   2.168  0.1263 -0.1628 -0.2387
13098SOL    HW140907   4.598   8.633   2.161 -0.3988 -0.3205  1.6858
13098SOL    HW240908   4.737   8.593   2.204  0.2043 -0.3524 -0.2284
13099SOL     OW40909   7.967   6.565   2.664  0.1638 -0.4536  0.6444
13099SOL    HW140910   7.959   6.638   2.725  0.5041 -0.1465  0.3222
13099SOL    HW240911   7.980   6.489   2.720 -1.2113 -0.4338  1.0394
13100SOL     OW40912   9.527   6.544   5.672 -0.3605 -0.4751 -0.9006
13100SOL    HW140913   9.443   6.559   5.627  0.4317 -0.5991 -2.4797
13100SOL    HW240914   9.534   6.448   5.677 -0.5021 -0.4650 -0.3402
13101SOL     OW40915   1.008   3.751   6.560 -0.2010  0.3995  0.2076
13101SOL    HW140916   1.030   3.808   6.486  0.2069  0.2471  0.2122
13101SOL    HW240917   1.037   3.800   6.637 -1.6080  1.0432  0.3509
13102SOL     OW40918   2.781   7.446   6.339 -0.1103 -0.6712  0.4617
13102SOL    HW140919   2.817   7.441   6.251 -1.2345  0.9938 -0.1486
13102SOL    HW240920   2.786   7.538   6.362 -3.8610 -0.2547  0.2861
13103SOL     OW40921   5.225   8.532   4.829  0.4493 -0.3089  0.4708
13103SOL    HW140922   5.140   8.554   4.789  0.6476 -2.3239 -1.1900
13103SOL    HW240923   5.270   8.617   4.836 -1.6133  0.7970  1.3017
13104SOL     OW40924   4.475   3.885   9.326 -0.1732 -0.6605  1.0528
13104SOL    HW140925   4.492   3.870   9.233 -1.2323  1.2714  0.4828
13104SOL    HW240926   4.549   3.939   9.355 -1.9380  2.5701  0.0983
13105SOL     OW40927   9.562   4.351   6.278 -0.2572  0.6157 -0.3505
13105SOL    HW140928   9.631   4.409   6.245  0.4793 -0.4493 -0.7507
13105SOL    HW240929   9.512   4.326   6.200 -0.3105  0.3851 -0.2438
13106SOL     OW40930   6.130   3.183   1.095  0.2860 -0.0156  0.0724
13106SOL    HW140931   6.179   3.231   1.162 -1.3034  0.1704  1.1508
13106SOL    HW240932   6.181   3.194   1.015  0.8775  1.9687  0.6805
13107SOL     OW40933   9.303   2.544   4.207 -0.1144  0.2335 -0.1241
13107SOL    HW140934   9.224   2.494   4.228  0.6003 -1.1193 -0.4866
13107SOL    HW240935   9.284   2.585   4.123  0.6584 -2.8283 -1.9839
13108SOL     OW40936   2.208   0.130   1.824 -0.1098 -0.1873 -0.4577
13108SOL    HW140937   2.128   0.078   1.816 -0.4319  0.3231 -0.6483
13108SOL    HW240938   2.264   0.100   1.753  0.0642 -0.8789 -0.0373
13109SOL     OW40939   1.866   8.282   5.468 -0.6307  0.2371  0.2480
13109SOL    HW140940   1.800   8.236   5.520 -0.8155 -1.6631 -1.5645
13109SOL    HW240941   1.825   8.367   5.448 -1.3728  0.1904  1.4360
13110SOL     OW40942   8.785   1.699   7.822 -0.1350 -0.2841  0.1941
13110SOL    HW140943   8.738   1.682   7.740 -0.6404 -0.0925  0.4467
13110SOL    HW240944   8.794   1.613   7.862 -1.0136 -0.2173  0.5500
13111SOL     OW40945   7.320   0.613   9.683 -0.2500 -0.0019  0.2709
13111SOL    HW140946   7.349   0.522   9.679 -1.1271 -0.3157  0.6025
13111SOL    HW240947   7.362   0.656   9.609  0.8155 -0.4854  0.5862
13112SOL     OW40948   2.642   3.349   1.757  0.3327  0.2115  0.7138
13112SOL    HW140949   2.631   3.280   1.693 -1.8367 -0.1650  1.3900
13112SOL    HW240950   2.637   3.430   1.706 -0.4312 -0.0930  0.2946
13113SOL     OW40951   3.485   0.529   8.337 -0.0860  0.4789 -0.1336
13113SOL    HW140952   3.573   0.567   8.333 -0.4995  1.3764 -1.3580
13113SOL    HW240953   3.479   0.490   8.425  1.1899  1.2292  0.3096
13114SOL     OW40954   0.875   4.170   1.779  0.0827 -0.4104 -0.1239
13114SOL    HW140955   0.870   4.199   1.871  0.1140  0.2792 -0.3333
13114SOL    HW240956   0.962   4.196   1.751  0.5612 -1.7904  0.0232
13115SOL     OW40957   0.065   1.560   1.486 -0.3466  0.1739 -0.4847
13115SOL    HW140958   0.154   1.564   1.522 -0.1960 -1.5889 -0.5898
13115SOL    HW240959   0.075   1.591   1.396  0.4230 -1.1126 -0.8755
13116SOL     OW40960   9.761   7.876   9.033 -0.5861  0.0888 -0.2912
13116SOL    HW140961   9.729   7.889   9.122 -2.4222  4.4297 -1.3569
13116SOL    HW240962   9.692   7.826   8.990 -1.5159  1.2862 -0.2115
13117SOL     OW40963   9.772   9.197   4.926  0.1439  0.4166 -0.5248
13117SOL    HW140964   9.846   9.152   4.887  0.2574  0.2395 -0.1032
13117SOL    HW240965   9.793   9.204   5.019 -1.1295 -1.1741 -0.0789
13118SOL     OW40966   8.620   3.481   5.238 -0.8101  0.3606 -0.0358
13118SOL    HW140967   8.638   3.441   5.323 -0.7210  0.9995  0.2512
13118SOL    HW240968   8.687   3.445   5.180 -1.7280 -1.2067 -0.2134
13119SOL     OW40969   4.635   1.059   8.257  0.5178  0.5110  0.2432
13119SOL    HW140970   4.578   1.134   8.271  0.8711  0.4981  2.0048
13119SOL    HW240971   4.722   1.096   8.248  0.6037  0.3450  0.4056
13120SOL     OW40972   0.038   0.983   8.095 -0.1732  0.3890  0.1347
13120SOL    HW140973  -0.030   1.048   8.076 -0.3812  0.5291  1.3110
13120SOL    HW240974  -0.008   0.913   8.141  0.5344  0.6679  1.2985
13121SOL     OW40975   6.199   5.595   3.139  0.3018 -0.5020 -0.1582
13121SOL    HW140976   6.119   5.542   3.147  1.4131 -2.1553  0.4799
13121SOL    HW240977   6.212   5.605   3.045 -2.1175  2.2029 -0.3639
13122SOL     OW40978   0.604   9.603   9.747 -0.2026  0.0000 -0.4343
13122SOL    HW140979   0.622   9.574   9.836  0.0032  0.8974 -0.1714
13122SOL    HW240980   0.627   9.696   9.747  0.1293 -0.0711 -1.5206
13123SOL     OW40981   7.668   2.628   8.821 -0.0620 -0.0789 -0.1780
13123SOL    HW140982   7.761   2.613   8.802  0.0893  0.2040  0.3290
13123SOL    HW240983   7.629   2.541   8.821  0.1667 -0.1849 -0.5797
13124SOL     OW40984   6.164   9.026   4.760 -0.1725 -0.0716  0.3043
13124SOL    HW140985   6.194   8.980   4.839 -0.2931  1.0769  1.0345
13124SOL    HW240986   6.244   9.038   4.708 -0.0523 -0.6128  0.3470
13125SOL     OW40987   6.143   8.270   5.414 -0.3657 -0.3709 -0.4883
13125SOL    HW140988   6.132   8.175   5.416  1.9771 -0.7045  0.1764
13125SOL    HW240989   6.156   8.291   5.321 -0.1210 -0.8230 -0.5581
13126SOL     OW40990   6.772   8.334   0.819 -0.1906  0.3056 -0.2679
13126SOL    HW140991   6.825   8.356   0.742  2.2252  3.3898  2.0261
13126SOL    HW240992   6.697   8.393   0.813 -1.1006 -0.9022 -1.2209
13127SOL     OW40993   8.122   5.613   4.420  0.7035  0.1059 -0.1051
13127SOL    HW140994   8.067   5.678   4.375  0.5761 -0.0618 -0.1896
13127SOL    HW240995   8.086   5.611   4.509 -0.0200 -0.6687 -0.4008
13128SOL     OW40996   1.343   8.344   9.315  0.2407 -0.4921  0.0215
13128SOL    HW140997   1.291   8.297   9.381  0.4733 -0.1364  0.4652
13128SOL    HW240998   1.326   8.297   9.233 -0.5095 -0.5910  0.2231
13129SOL     OW40999   9.764   5.650   5.060  0.1133 -0.2570 -0.1912
13129SOL    HW141000   9.798   5.688   4.979  0.2053 -1.3459 -0.6851
13129SOL    HW241001   9.719   5.723   5.103  1.0056  0.6133 -0.6747
13130SOL     OW41002   2.863   5.280   8.549 -0.6221 -0.3923  0.1849
13130SOL    HW141003   2.923   5.307   8.618  0.3155 -1.0475 -0.3449
13130SOL    HW241004   2.891   5.191   8.526 -1.8374 -0.7445 -0.0437
13131SOL     OW41005   4.277   8.488   2.184  0.1211 -0.1478  0.8138
13131SOL    HW141006   4.187   8.501   2.153 -0.1332 -0.8236  1.2585
13131SOL    HW241007   4.305   8.575   2.213  0.5794  0.6561 -1.8191
13132SOL     OW41008   4.600   1.790   4.259 -0.1695 -0.3855 -0.2437
13132SOL    HW141009   4.536   1.721   4.277 -1.4168  1.0987  1.4127
13132SOL    HW241010   4.644   1.804   4.343  2.4637 -1.3978 -1.3528
13133SOL     OW41011   4.898   8.336   6.227  0.1993 -0.2169 -0.3839
13133SOL    HW141012   4.858   8.422   6.216 -1.6095 -0.9828 -0.2141
13133SOL    HW241013   4.883   8.292   6.144  1.3056 -0.3110 -0.5426
13134SOL     OW41014   2.954   6.367   8.134  0.7757  0.2381 -0.2954
13134SOL    HW141015   2.888   6.375   8.203 -0.0081 -0.2530 -0.9799
13134SOL    HW241016   2.924   6.425   8.064  1.2013  0.1933 -0.5215
13135SOL     OW41017   1.711   5.190   8.173 -0.0537 -0.2662  0.0057
13135SOL    HW141018   1.744   5.162   8.088  0.4098 -0.2911  0.1876
13135SOL    HW241019   1.617   5.171   8.171  0.3812 -2.7463  0.4945
13136SOL     OW41020   8.919   8.683   0.638  0.1645  0.0246 -0.2642
13136SOL    HW141021   8.919   8.678   0.542 -0.9800  1.3363 -0.3676
13136SOL    HW241022   8.969   8.762   0.658  0.2964 -0.1789  0.2249
13137SOL     OW41023   0.065   9.224   2.543 -0.3241 -0.8276 -0.1475
13137SOL    HW141024   0.088   9.317   2.542 -0.4040 -0.8006 -1.7719
13137SOL    HW241025  -0.030   9.222   2.537 -0.4149 -1.0129  1.1649
13138SOL     OW41026   4.801   7.462   0.334 -0.7129  0.9292  0.9806
13138SOL    HW141027   4.776   7.488   0.245 -1.1407  1.0655  1.1355
13138SOL    HW241028   4.896   7.470   0.336 -0.5708 -0.3537  0.1364
13139SOL     OW41029   8.787   7.390   8.019 -0.0782 -0.2374 -0.0684
13139SOL    HW141030   8.781   7.406   7.925 -0.1996  1.0488  0.1332
13139SOL    HW241031   8.725   7.319   8.036  1.5485 -2.0533 -1.2759
13140SOL     OW41032   6.403   4.890   8.288 -0.0873  1.2211  0.7586
13140SOL    HW141033   6.320   4.934   8.268 -0.5448  0.3864  0.7866
13140SOL    HW241034   6.458   4.959   8.325 -0.2552  2.1107 -0.5990
13141SOL     OW41035   5.571   2.487   0.856  0.0954 -0.4924 -0.0467
13141SOL    HW141036   5.490   2.480   0.906  1.0557  0.6896  1.8221
13141SOL    HW241037   5.640   2.486   0.923  1.4873  0.5272 -1.3917
13142SOL     OW41038   7.068   2.223   0.896  0.2951  0.5149  0.4972
13142SOL    HW141039   7.029   2.136   0.891  1.1130  0.2084 -1.0024
13142SOL    HW241040   7.016   2.276   0.834  0.4830  0.8145  0.5905
13143SOL     OW41041   5.785   6.556   5.736 -0.0861  0.2101 -0.2502
13143SOL    HW141042   5.696   6.538   5.707 -0.1177  0.0395 -0.0456
13143SOL    HW241043   5.839   6.539   5.659 -0.0852 -1.0010  0.0089
13144SOL     OW41044   9.316   6.872   3.417 -0.4160  0.4195 -0.3495
13144SOL    HW141045   9.236   6.820   3.425 -0.3377  0.4266  0.5492
13144SOL    HW241046   9.375   6.816   3.365 -0.0640 -0.7549  1.2234
13145SOL     OW41047   4.807   4.553   6.601 -0.0931  0.5836 -0.9080
13145SOL    HW141048   4.895   4.538   6.636  0.7376  1.0618 -2.6971
13145SOL    HW241049   4.811   4.521   6.511 -2.2728 -0.9916 -0.5306
13146SOL     OW41050   6.622   9.261   6.922 -0.0513 -0.0385  0.2444
13146SOL    HW141051   6.565   9.218   6.858  1.1001  0.4866 -1.1983
13146SOL    HW241052   6.617   9.205   6.999 -0.7475 -1.2368 -0.6262
13147SOL     OW41053   9.045   5.674   2.545  0.0434  0.0470 -0.3237
13147SOL    HW141054   8.957   5.653   2.512  0.2929  0.2896 -1.1696
13147SOL    HW241055   9.049   5.631   2.630 -0.3720 -1.2115 -0.9112
13148SOL     OW41056   9.437   7.003   9.829 -0.1011 -0.2079 -0.5954
13148SOL    HW141057   9.486   7.040   9.902  0.4263 -0.7225 -0.6867
13148SOL    HW241058   9.422   7.077   9.770  2.0953 -0.3553 -1.4191
13149SOL     OW41059   8.435   0.306   0.031 -0.4017 -0.1959 -0.6220
13149SOL    HW141060   8.459   0.293  -0.061  0.3669 -0.7543 -0.3496
13149SOL    HW241061   8.364   0.370   0.028 -0.1587  0.0457 -1.5844
13150SOL     OW41062   7.462   1.922   7.090 -0.1119 -0.4990  0.2797
13150SOL    HW141063   7.523   1.944   7.019 -1.0352  2.4977  0.2757
13150SOL    HW241064   7.517   1.919   7.169  0.4761 -0.8865 -0.1386
13151SOL     OW41065   2.363   1.372   1.250 -0.0383 -0.0013  0.0605
13151SOL    HW141066   2.416   1.305   1.205  0.0927  0.0518  0.1379
13151SOL    HW241067   2.427   1.430   1.290 -0.0794  1.4407 -1.8135
13152SOL     OW41068   8.853   8.369   7.857 -0.0158  0.1565  0.4551
13152SOL    HW141069   8.785   8.338   7.797  1.1793  0.1881 -0.9861
13152SOL    HW241070   8.809   8.377   7.942 -1.9710  0.8008 -0.5485
13153SOL     OW41071   9.806   9.463   8.036 -0.1703  0.6683  0.0732
13153SOL    HW141072   9.850   9.386   8.073 -0.3062  0.7678  0.4512
13153SOL    HW241073   9.877   9.521   8.009 -0.0172  1.3965  1.8537
13154SOL     OW41074   6.395   3.837   7.127 -0.4077  0.0674  0.1073
13154SOL    HW141075   6.363   3.806   7.212  1.3759  0.6218  1.0434
13154SOL    HW241076   6.490   3.839   7.137 -0.0083 -1.5631 -2.5285
13155SOL     OW41077   8.523   6.881   6.681  0.3830  0.0794 -0.2979
13155SOL    HW141078   8.502   6.802   6.731  1.2505 -0.7126 -1.1570
13155SOL    HW241079   8.451   6.889   6.618  0.4611 -0.2222 -0.4283
13156SOL     OW41080   8.989   7.369   3.587  0.0839  0.2078 -0.4906
13156SOL    HW141081   9.033   7.285   3.579 -2.6330 -1.4691  0.9451
13156SOL    HW241082   9.054   7.426   3.629  1.1367 -1.9400  0.9515
13157SOL     OW41083   8.044   7.794   5.903 -0.6875 -0.2489  0.5691
13157SOL    HW141084   8.065   7.706   5.934  0.7685  0.1028  0.6797
13157SOL    HW241085   7.988   7.780   5.827  0.5142 -1.3291 -0.1629
13158SOL     OW41086   0.401   0.200   1.650  0.0863  0.1511 -0.2644
13158SOL    HW141087   0.465   0.134   1.624 -1.8690 -1.5449 -0.9937
13158SOL    HW241088   0.361   0.228   1.568 -1.3398 -0.1438  0.3149
13159SOL     OW41089   0.360   8.594   6.645 -0.7779 -0.0550 -0.1401
13159SOL    HW141090   0.311   8.655   6.589 -2.0001 -0.4034  0.4994
13159SOL    HW241091   0.326   8.611   6.733  2.3341  1.7052  0.8563
13160SOL     OW41092   9.636   4.106   3.076 -0.8774 -0.2018 -0.1683
13160SOL    HW141093   9.582   4.143   3.006 -1.9431 -0.2841  0.5906
13160SOL    HW241094   9.714   4.162   3.078 -1.3667  0.5137 -0.6533
13161SOL     OW41095   8.023   6.526   9.362  0.7685  0.1192  0.1022
13161SOL    HW141096   8.117   6.522   9.379  0.9131 -0.6011 -0.7713
13161SOL    HW241097   7.993   6.435   9.369  0.1245  0.3477  0.4159
13162SOL     OW41098   4.304   4.974   0.006 -0.6663  0.2359 -0.3692
13162SOL    HW141099   4.336   4.885   0.018 -2.3217 -0.3277  0.1804
13162SOL    HW241100   4.334   5.021   0.084 -1.0127 -0.2366  0.0590
13163SOL     OW41101   4.407   2.193   8.767  0.3590  0.2127  0.5087
13163SOL    HW141102   4.454   2.115   8.799 -0.1673 -0.6565 -0.7549
13163SOL    HW241103   4.316   2.164   8.760  0.3262  0.6201 -0.9366
13164SOL     OW41104   9.403   1.786   1.483  0.0507  0.5448 -0.1610
13164SOL    HW141105   9.368   1.774   1.395  0.5091 -0.1917 -0.2490
13164SOL    HW241106   9.416   1.698   1.517  2.3315  0.7377 -0.3586
13165SOL     OW41107   1.834   6.818   1.584  0.1401  0.2781  0.0584
13165SOL    HW141108   1.874   6.894   1.541  0.4168  0.1457  0.0816
13165SOL    HW241109   1.888   6.744   1.557  0.6307  0.2552  1.0398
13166SOL     OW41110   3.605   9.094   6.463  0.9447 -0.6162  0.4221
13166SOL    HW141111   3.533   9.034   6.483 -0.7690  1.3682  0.5884
13166SOL    HW241112   3.604   9.158   6.535  2.9778 -0.5937  0.4901
13167SOL     OW41113   0.587   7.606   8.074  0.1774  0.0534  0.1681
13167SOL    HW141114   0.649   7.604   8.147  1.0827 -0.4531 -0.5822
13167SOL    HW241115   0.638   7.577   7.998 -0.9968 -0.4401 -0.4714
13168SOL     OW41116   4.742   1.215   0.013  0.5517 -0.5356 -0.6804
13168SOL    HW141117   4.777   1.186  -0.071 -0.8212  1.6040 -2.0950
13168SOL    HW241118   4.650   1.189   0.011 -0.2076  1.9366 -1.1413
13169SOL     OW41119   6.112   7.040   9.338 -0.0378 -0.0667 -0.2646
13169SOL    HW141120   6.129   7.124   9.382  0.6430 -0.6678  0.6621
13169SOL    HW241121   6.125   7.059   9.245 -0.9435  1.1043 -0.1860
13170SOL     OW41122   4.499   0.208   9.252 -0.6504  0.1111  0.2801
13170SOL    HW141123   4.461   0.146   9.315 -2.4911  1.2156  0.3325
13170SOL    HW241124   4.573   0.161   9.214 -0.9867 -1.4968  1.4923
13171SOL     OW41125   9.428   9.672   6.426 -0.2629 -0.5918 -0.0412
13171SOL    HW141126   9.363   9.630   6.483  0.4698  1.1328  2.1767
13171SOL    HW241127   9.508   9.621   6.440  0.4872  1.0500  2.2501
13172SOL     OW41128   0.116   0.762   3.632  0.2661  0.4072 -0.1531
13172SOL    HW141129   0.043   0.710   3.597 -0.3933  1.4865 -0.4326
13172SOL    HW241130   0.193   0.728   3.588 -0.2984  0.4164 -1.1684
13173SOL     OW41131   6.591   9.113   7.141 -0.1083 -0.3495 -0.1250
13173SOL    HW141132   6.530   9.041   7.124 -0.2919  0.1032 -1.4360
13173SOL    HW241133   6.571   9.140   7.231 -0.7540 -1.2439  0.0147
13174SOL     OW41134   5.797   3.033   3.223  0.2089  0.0225 -0.0875
13174SOL    HW141135   5.879   2.987   3.240  0.3814  0.0032 -0.9283
13174SOL    HW241136   5.753   2.981   3.156 -0.7471 -0.2569  0.7434
13175SOL     OW41137   5.377   2.772   9.564 -0.0493 -0.0985 -0.4813
13175SOL    HW141138   5.329   2.781   9.646  1.0668 -1.1270  0.3357
13175SOL    HW241139   5.310   2.773   9.496 -0.9718  1.1831  0.3940
13176SOL     OW41140   8.988   8.304   2.790  0.0826  0.1830 -0.8634
13176SOL    HW141141   8.971   8.318   2.883  0.8161 -0.2640 -0.6535
13176SOL    HW241142   8.976   8.390   2.750 -0.9922  0.2194 -0.4844
13177SOL     OW41143   6.532   2.891   3.381 -0.6470  0.4533 -0.2972
13177SOL    HW141144   6.538   2.824   3.449  0.4200  0.4298 -0.3979
13177SOL    HW241145   6.455   2.943   3.405 -0.9645 -0.2615  0.2705
13178SOL     OW41146   8.635   6.619   1.624 -0.5276  0.4822  0.0878
13178SOL    HW141147   8.562   6.650   1.678 -0.3831 -1.0394  1.2442
13178SOL    HW241148   8.601   6.541   1.581  0.4106 -0.2624  0.6680
13179SOL     OW41149   3.557   5.538   0.615  0.3125  0.4525  0.2656
13179SOL    HW141150   3.512   5.585   0.684 -2.9961  1.1047 -2.0865
13179SOL    HW241151   3.602   5.605   0.564  2.0978  0.0595  1.2332
13180SOL     OW41152   7.232   7.703   5.247 -0.3205 -0.2290 -0.4356
13180SOL    HW141153   7.137   7.710   5.256 -0.1590  0.1312  1.3005
13180SOL    HW241154   7.248   7.613   5.220 -1.0476 -0.9972  1.5539
13181SOL     OW41155   0.924   0.269   9.303 -0.0354 -0.2093 -0.1479
13181SOL    HW141156   0.901   0.287   9.395  0.3525  0.7307 -0.2261
13181SOL    HW241157   0.880   0.339   9.254  0.9741  0.1705 -0.5285
13182SOL     OW41158   1.328   1.062   2.060 -0.2707 -0.2485  0.2689
13182SOL    HW141159   1.356   1.093   1.974  1.6743 -0.1082  0.8933
13182SOL    HW241160   1.380   0.982   2.074  0.0170  0.1427  1.6029
13183SOL     OW41161   0.963   6.348   7.432 -0.5376  0.2764 -0.2008
13183SOL    HW141162   0.881   6.394   7.451 -0.4801  0.1582  0.3450
13183SOL    HW241163   0.965   6.275   7.493 -1.0060 -0.9402 -1.5890
13184SOL     OW41164   2.512   7.211   3.570  0.3427 -0.2739  0.3697
13184SOL    HW141165   2.551   7.210   3.658 -0.9756  0.7822  0.9925
13184SOL    HW241166   2.586   7.194   3.512  1.2116 -1.2361  1.6819
13185SOL     OW41167   4.781   5.384   3.504 -0.1571  0.0379 -0.4490
13185SOL    HW141168   4.802   5.350   3.417  0.8647  1.9607 -1.0177
13185SOL    HW241169   4.689   5.360   3.517 -1.1162  1.7663 -3.1322
13186SOL     OW41170   4.406   2.391   3.563 -0.0185 -0.5756 -0.0474
13186SOL    HW141171   4.379   2.342   3.640 -0.6483 -0.8533 -0.4319
13186SOL    HW241172   4.331   2.447   3.542  0.7005  0.5841  0.3984
13187SOL     OW41173   6.403   2.718   2.711 -0.2430 -0.0470  0.0028
13187SOL    HW141174   6.308   2.720   2.700 -0.4753 -1.0073  1.4421
13187SOL    HW241175   6.436   2.686   2.627 -1.5123 -3.1244  0.5365
13188SOL     OW41176   9.824   1.983   1.640 -0.3999  0.1751  0.2565
13188SOL    HW141177   9.762   1.978   1.567 -0.9500 -4.2962  0.7477
13188SOL    HW241178   9.908   1.958   1.602 -0.0590  0.7870  0.6023
13189SOL     OW41179   3.714   0.738   8.344 -0.9894  0.6429  0.3478
13189SOL    HW141180   3.769   0.723   8.268 -2.0347 -0.4651 -0.2250
13189SOL    HW241181   3.736   0.827   8.373 -0.4817  1.0308 -1.1577
13190SOL     OW41182   7.073   4.254   9.422  0.2228 -0.5074  0.2768
13190SOL    HW141183   7.102   4.221   9.337 -0.0727  0.6159 -0.2787
13190SOL    HW241184   6.983   4.284   9.407 -0.2859 -1.4522  1.3025
13191SOL     OW41185   7.125   9.557   2.557 -0.0072  0.8220  0.1545
13191SOL    HW141186   7.049   9.553   2.500 -0.3959  0.0032  0.7190
13191SOL    HW241187   7.158   9.647   2.547  0.4487  0.4631 -2.0040
13192SOL     OW41188   2.567   0.920   2.232  0.0162  0.0044 -0.8759
13192SOL    HW141189   2.554   0.852   2.165 -2.2134 -1.8906  1.2918
13192SOL    HW241190   2.662   0.928   2.239  0.4216 -3.0717 -1.1760
13193SOL     OW41191   7.579   6.810   8.889 -0.6883  0.4971 -0.2017
13193SOL    HW141192   7.616   6.762   8.814  0.1441 -0.9724  1.0745
13193SOL    HW241193   7.567   6.742   8.956 -3.2740  1.4032  0.3569
13194SOL     OW41194   1.033   0.380   2.682  0.2411  0.1304 -0.0649
13194SOL    HW141195   1.058   0.295   2.647 -1.4357  0.8471 -3.4193
13194SOL    HW241196   0.969   0.361   2.751  0.8819 -1.3353  0.1363
13195SOL     OW41197   1.096   8.857   5.346  0.1821 -0.1907 -0.3198
13195SOL    HW141198   1.077   8.764   5.360 -0.1755 -0.1047 -0.2208
13195SOL    HW241199   1.165   8.858   5.280  0.5917 -0.5474  0.0995
13196SOL     OW41200   9.244   6.794   5.000  0.6938  0.4501  0.3975
13196SOL    HW141201   9.225   6.829   5.087  1.6528 -1.2110  1.3199
13196SOL    HW241202   9.333   6.826   4.980 -0.0387  1.9728 -0.6182
13197SOL     OW41203   8.816   8.682   7.003 -0.5153  0.3276 -0.0840
13197SOL    HW141204   8.851   8.765   7.034 -1.7099  0.4908  0.9210
13197SOL    HW241205   8.730   8.675   7.045 -0.7335 -1.0868 -0.7002
13198SOL     OW41206   6.096   4.917   9.502  0.0649  0.2942 -0.0013
13198SOL    HW141207   6.021   4.944   9.449  1.7459 -0.1980 -2.8331
13198SOL    HW241208   6.135   4.998   9.533 -1.4430  0.5606  1.3338
13199SOL     OW41209   9.253   4.769   5.394 -0.1718  0.4295 -0.2233
13199SOL    HW141210   9.314   4.843   5.389 -0.1664  0.5080  0.8121
13199SOL    HW241211   9.233   4.748   5.303  1.1243  0.6271 -0.5680
13200SOL     OW41212   1.103   1.572   4.560  0.3049  0.6279 -0.1533
13200SOL    HW141213   1.009   1.557   4.575  0.4432  0.5839  0.6949
13200SOL    HW241214   1.105   1.635   4.489 -0.4187  2.0175  1.0115
13201SOL     OW41215   3.631   2.075   4.283 -0.6923  0.2898 -0.8210
13201SOL    HW141216   3.635   2.034   4.197  0.0274  0.7016 -0.9910
13201SOL    HW241217   3.630   2.000   4.344 -2.1922 -0.0207 -1.1909
13202SOL     OW41218   2.364   4.657   7.849  0.1732  0.3732  0.6983
13202SOL    HW141219   2.424   4.682   7.919  0.4488  0.0177  0.5919
13202SOL    HW241220   2.391   4.711   7.774  0.2346  0.3550  0.7071
13203SOL     OW41221   0.258   1.973   8.804 -0.0938  0.2448  0.0421
13203SOL    HW141222   0.235   1.923   8.726 -0.2851  1.7083 -0.8985
13203SOL    HW241223   0.340   1.934   8.834  0.9227  0.6870 -1.9375
13204SOL     OW41224   7.655   2.368   9.636 -0.3172  0.0759 -0.1152
13204SOL    HW141225   7.735   2.417   9.653  1.5485 -3.3171  2.2035
13204SOL    HW241226   7.590   2.405   9.696  1.1469 -0.4004  1.8707
13205SOL     OW41227   2.368   6.669   4.163 -0.0358 -0.1129 -0.1427
13205SOL    HW141228   2.316   6.739   4.203  0.4147  0.1829 -0.0648
13205SOL    HW241229   2.445   6.661   4.219  0.4315  0.0595 -0.7401
13206SOL     OW41230   2.336   0.828   6.732  0.0094 -0.3721  0.5320
13206SOL    HW141231   2.325   0.781   6.649  1.1784 -0.9087  0.6498
13206SOL    HW241232   2.253   0.872   6.747 -2.0637 -4.1713  1.5082
13207SOL     OW41233   3.082   0.134   5.696 -0.2838  0.1126 -0.6216
13207SOL    HW141234   3.059   0.220   5.731  1.7654 -0.6378  3.1207
13207SOL    HW241235   3.177   0.128   5.708 -0.5790 -3.4372  1.5921
13208SOL     OW41236   3.447   7.006   4.118 -0.1281 -0.4076  0.2087
13208SOL    HW141237   3.405   6.921   4.131 -0.1098 -0.4954 -0.2811
13208SOL    HW241238   3.391   7.068   4.165  0.5662 -0.8509  1.6856
13209SOL     OW41239   7.082   2.479   9.544 -0.5143 -0.2536  0.3703
13209SOL    HW141240   7.081   2.413   9.474  0.8416 -0.7574  0.8142
13209SOL    HW241241   7.043   2.435   9.619 -0.5175 -0.2159  0.3904
13210SOL     OW41242   6.015   9.600   3.228  0.3045 -0.3235  0.1715
13210SOL    HW141243   5.946   9.588   3.163  1.3014  0.3130 -1.0646
13210SOL    HW241244   6.089   9.549   3.194 -0.0128 -2.2961  2.2795
13211SOL     OW41245   5.612   2.480   4.713  0.0765  0.1306  0.0149
13211SOL    HW141246   5.697   2.448   4.745  0.5371  1.7060  0.4468
13211SOL    HW241247   5.610   2.453   4.621  1.6626  1.1993 -0.3852
13212SOL     OW41248   2.765   8.192   3.126 -0.5092  0.6474  0.6525
13212SOL    HW141249   2.719   8.153   3.052  0.0318  0.1865  0.5502
13212SOL    HW241250   2.750   8.131   3.198  0.7324 -0.0323  0.3741
13213SOL     OW41251   9.138   1.631   9.211  0.1628 -0.0794 -0.5743
13213SOL    HW141252   9.125   1.590   9.297 -0.6675  0.8977 -0.2134
13213SOL    HW241253   9.158   1.722   9.231  0.6428 -0.0020 -1.4029
13214SOL     OW41254   9.672   2.594   0.991 -0.2608  0.3883 -0.3986
13214SOL    HW141255   9.613   2.519   0.984  0.9803 -0.4929 -1.9662
13214SOL    HW241256   9.730   2.573   1.063 -1.0752  0.7277  0.3815
13215SOL     OW41257   6.607   6.855   9.677 -0.6348 -0.1867  0.1642
13215SOL    HW141258   6.595   6.763   9.697  1.0854 -0.5954 -0.5019
13215SOL    HW241259   6.698   6.874   9.702 -0.4359  0.8848 -1.2306
13216SOL     OW41260   6.646   5.688   4.135  0.1882 -0.1451  0.0078
13216SOL    HW141261   6.622   5.611   4.187 -0.1842  0.3378  0.5838
13216SOL    HW241262   6.679   5.653   4.053 -1.2016 -0.9033 -0.2706
13217SOL     OW41263   6.975   1.350   9.078  0.4759  0.4663  0.5343
13217SOL    HW141264   7.039   1.304   9.133  0.2603  2.3119  2.4815
13217SOL    HW241265   6.892   1.337   9.123  0.3074  2.1258  0.7466
13218SOL     OW41266   3.221   0.312   7.310  0.1289  0.6080  0.0453
13218SOL    HW141267   3.236   0.341   7.400  0.1167  0.2232  0.1737
13218SOL    HW241268   3.135   0.349   7.287 -0.4501 -0.3098  0.6337
13219SOL     OW41269   7.236   4.513   4.888  0.2587  0.1165  0.1313
13219SOL    HW141270   7.194   4.433   4.855 -2.3943  1.7403 -0.7462
13219SOL    HW241271   7.186   4.536   4.966  1.7261  0.3600  1.0409
13220SOL     OW41272   0.254   0.760   6.342  0.2891  0.0899 -0.2634
13220SOL    HW141273   0.330   0.797   6.387  1.2779  0.2011 -1.9668
13220SOL    HW241274   0.195   0.734   6.413  0.3285  3.2037  1.0787
13221SOL     OW41275   4.039   1.412   2.307  0.2017 -0.0470 -0.4131
13221SOL    HW141276   3.973   1.345   2.286  0.0389 -0.5278  1.4564
13221SOL    HW241277   4.003   1.493   2.271 -0.8686 -0.5106 -0.4297
13222SOL     OW41278   6.081   2.291   7.983  0.3146  0.1173  0.1334
13222SOL    HW141279   6.002   2.335   8.014 -0.2300 -0.3976 -0.4902
13222SOL    HW241280   6.050   2.231   7.916  1.4125  0.8527 -1.0742
13223SOL     OW41281   8.732   6.893   9.653 -0.1990 -0.9534  0.1210
13223SOL    HW141282   8.825   6.914   9.639 -0.3232 -0.3451  0.1876
13223SOL    HW241283   8.724   6.801   9.627  0.2973 -0.8398 -0.4499
13224SOL     OW41284   2.029   3.434   6.905 -0.7942  0.1259 -0.0572
13224SOL    HW141285   2.029   3.528   6.925  0.7412  0.0748  0.2710
13224SOL    HW241286   2.115   3.403   6.932 -0.9056 -1.1885 -1.0918
13225SOL     OW41287   9.615   3.093   6.744 -0.0485  0.5223 -0.0186
13225SOL    HW141288   9.590   3.004   6.718 -1.2207  0.6556  0.5537
13225SOL    HW241289   9.671   3.082   6.820 -0.0291  0.2649 -0.0711
13226SOL     OW41290   0.137   2.619   7.239  0.1675 -0.6310 -0.3202
13226SOL    HW141291   0.214   2.568   7.264 -0.0270 -0.4916  0.6011
13226SOL    HW241292   0.161   2.710   7.259  0.1881 -0.4575 -1.1247
13227SOL     OW41293   6.974   0.791   2.252 -0.1670  0.4112 -0.3212
13227SOL    HW141294   6.908   0.824   2.313  0.3327  1.2960 -0.2366
13227SOL    HW241295   6.925   0.746   2.183 -0.8933  1.6157 -0.5993
13228SOL     OW41296   2.477   3.932   4.927 -0.0087 -0.0271  0.4772
13228SOL    HW141297   2.531   3.888   4.861 -0.4715 -0.3997  0.3463
13228SOL    HW241298   2.519   4.017   4.938 -0.3682  0.3596 -0.8814
13229SOL     OW41299   4.787   8.388   8.215  0.4161  0.0650  0.1725
13229SOL    HW141300   4.713   8.380   8.275  1.1327 -1.0217  0.9621
13229SOL    HW241301   4.787   8.306   8.165  1.4622 -0.2502  0.6499
13230SOL     OW41302   5.769   0.268   6.699  0.0498  0.1267 -0.2073
13230SOL    HW141303   5.776   0.175   6.719 -0.6133  0.4856  2.0316
13230SOL    HW241304   5.859   0.299   6.695  0.2551 -0.3665  0.4593
13231SOL     OW41305   3.730   4.606   0.159  0.4992 -0.1444 -0.1958
13231SOL    HW141306   3.697   4.518   0.138  2.2271 -0.7752 -0.4925
13231SOL    HW241307   3.654   4.663   0.150 -0.5886 -1.5572 -0.3641
13232SOL     OW41308   8.420   4.202   1.272 -0.3241 -0.0439 -0.2092
13232SOL    HW141309   8.363   4.235   1.342  0.7039  0.0238  0.6275
13232SOL    HW241310   8.365   4.201   1.194 -0.9586  1.7690  0.1711
13233SOL     OW41311   8.899   0.654   7.683  0.0968 -0.1964 -0.3878
13233SOL    HW141312   8.979   0.677   7.731 -0.2958 -0.7095  0.5411
13233SOL    HW241313   8.829   0.662   7.748 -0.6727  0.6204 -1.2877
13234SOL     OW41314   7.718   4.569   3.830  0.1949  0.0786  0.0694
13234SOL    HW141315   7.653   4.626   3.871  0.1843 -0.6624  1.1228
13234SOL    HW241316   7.802   4.606   3.857  0.2051  0.4332 -0.4408
13235SOL     OW41317   4.073   0.523   5.695 -0.1746 -0.0093 -0.5243
13235SOL    HW141318   4.126   0.531   5.774 -0.6785 -1.0119 -0.0583
13235SOL    HW241319   4.135   0.494   5.627  0.2105  0.6169 -0.4481
13236SOL     OW41320   4.033   5.767   0.810 -0.8575 -0.4899 -0.3681
13236SOL    HW141321   3.991   5.818   0.741 -0.9825  0.4105  0.3571
13236SOL    HW241322   4.030   5.823   0.888 -1.2073 -1.6882  0.5225
13237SOL     OW41323   9.243   5.686   4.502 -0.5998 -0.0883  0.0720
13237SOL    HW141324   9.161   5.698   4.455 -0.1181 -1.5379 -1.2191
13237SOL    HW241325   9.286   5.612   4.459  0.6704 -0.3951  1.7232
13238SOL     OW41326   0.392   4.589   1.702 -1.1753  0.0530 -0.3085
13238SOL    HW141327   0.397   4.615   1.610 -0.5633 -0.8360 -0.5357
13238SOL    HW241328   0.358   4.667   1.747 -0.8123  0.7291 -1.1800
13239SOL     OW41329   2.162   5.327   3.763  0.3666 -0.1766 -0.2093
13239SOL    HW141330   2.152   5.233   3.747  0.5912 -0.9110  3.2848
13239SOL    HW241331   2.256   5.343   3.752  1.1773 -1.4735  3.6023
13240SOL     OW41332   2.297   5.100   8.850  0.6624 -0.4316  0.1224
13240SOL    HW141333   2.239   5.036   8.892  1.0308  0.1889  1.6518
13240SOL    HW241334   2.276   5.183   8.894  1.2558  0.1992 -0.7662
13241SOL     OW41335   7.149   6.144   8.939 -0.4222  0.5139  0.2122
13241SOL    HW141336   7.146   6.053   8.971  0.5737  0.6001  0.5654
13241SOL    HW241337   7.093   6.192   9.000  0.0270  0.3507  0.7641
13242SOL     OW41338   7.891   6.697   4.624  0.1680  0.4456  0.4237
13242SOL    HW141339   7.874   6.696   4.530  0.2937 -0.8371  0.3851
13242SOL    HW241340   7.983   6.672   4.632  0.2937  1.0192  0.8755
13243SOL     OW41341   6.918   7.067   3.593 -0.5320  0.3833 -0.6223
13243SOL    HW141342   6.892   6.982   3.628 -0.1276  0.4364 -0.1742
13243SOL    HW241343   7.013   7.059   3.580 -0.7352  0.2041 -2.1714
13244SOL     OW41344   5.403   1.217   0.166 -0.1165  0.3037 -0.0401
13244SOL    HW141345   5.391   1.309   0.189  0.9249  0.1663  1.1487
13244SOL    HW241346   5.334   1.171   0.215 -0.5566  0.4252 -0.5348
13245SOL     OW41347   3.221   9.389   4.823 -0.6215  0.3318  0.1222
13245SOL    HW141348   3.249   9.333   4.751 -0.9954  0.5934 -0.2314
13245SOL    HW241349   3.274   9.360   4.897 -2.6909 -2.3622  0.6973
13246SOL     OW41350   2.380   5.795   4.932 -0.0042 -0.3330 -0.0696
13246SOL    HW141351   2.336   5.723   4.887 -0.2465  0.8694 -1.8677
13246SOL    HW241352   2.469   5.794   4.899  0.6936 -1.2303  1.7036
13247SOL     OW41353   3.539   7.591   6.363  0.3658  0.2415 -0.4432
13247SOL    HW141354   3.608   7.656   6.352  1.3758 -0.8999 -1.1201
13247SOL    HW241355   3.577   7.510   6.329 -0.4582 -0.9475  1.3216
13248SOL     OW41356   9.640   6.590   4.875 -0.7581 -0.0040 -0.7602
13248SOL    HW141357   9.698   6.516   4.890 -0.2601  0.9290  2.8907
13248SOL    HW241358   9.698   6.665   4.869 -1.3729  0.7127  1.2225
13249SOL     OW41359   5.520   6.222   9.167  0.1538  0.6449 -0.0667
13249SOL    HW141360   5.459   6.152   9.143  0.5077  0.0989  0.5754
13249SOL    HW241361   5.587   6.219   9.098 -0.1071  0.6926 -0.3224
13250SOL     OW41362   1.846   0.044   5.672 -0.0486  0.0975  0.5904
13250SOL    HW141363   1.788   0.045   5.597  3.7216 -0.1704 -2.6757
13250SOL    HW241364   1.909   0.114   5.654  1.8354 -0.8957  2.7855
13251SOL     OW41365   8.207   7.114   6.820 -0.0582 -0.7315 -0.2845
13251SOL    HW141366   8.207   7.204   6.852  0.0311 -0.8251 -0.0194
13251SOL    HW241367   8.144   7.114   6.748 -0.3179 -0.5383 -0.0567
13252SOL     OW41368   4.134   3.586   7.225  0.2089 -0.2038  0.0868
13252SOL    HW141369   4.192   3.621   7.157 -1.7073 -0.4186 -1.7585
13252SOL    HW241370   4.099   3.505   7.188  0.5071 -1.3445  2.1384
13253SOL     OW41371   5.448   4.375   0.499  0.4153  0.7127 -0.8567
13253SOL    HW141372   5.379   4.311   0.480  0.8397  0.3409 -1.1579
13253SOL    HW241373   5.526   4.322   0.515  0.8766  1.1662 -1.5601
13254SOL     OW41374   7.499   5.199   0.379  0.1005  0.0206  0.6062
13254SOL    HW141375   7.589   5.190   0.412  1.0489  4.3425 -0.2156
13254SOL    HW241376   7.466   5.278   0.421 -2.7111 -0.4834 -0.4666
13255SOL     OW41377   2.266   4.002   0.623 -0.1047 -0.0321  0.3986
13255SOL    HW141378   2.315   3.974   0.701  0.5898 -0.8847 -0.3131
13255SOL    HW241379   2.243   4.093   0.640  0.9954  0.1288  1.1362
13256SOL     OW41380   9.702   0.816   2.871 -0.1532  0.5707  0.0528
13256SOL    HW141381   9.664   0.731   2.892 -1.1114  1.1851  0.9211
13256SOL    HW241382   9.796   0.800   2.865 -0.2426 -0.3957  0.9985
13257SOL     OW41383   1.674   0.949   0.913 -0.0811  0.3873 -0.3141
13257SOL    HW141384   1.603   0.987   0.862 -0.4077 -0.2697 -0.3547
13257SOL    HW241385   1.631   0.887   0.971  0.5137 -0.3654 -0.6685
13258SOL     OW41386   2.969   5.090   9.608 -0.2362 -0.4765 -0.2280
13258SOL    HW141387   2.924   5.174   9.609 -2.4711 -1.5781 -1.0164
13258SOL    HW241388   2.900   5.026   9.623  1.2586 -2.2420 -0.5184
13259SOL     OW41389   6.448   7.832   8.929  0.2939  0.0961 -0.0162
13259SOL    HW141390   6.381   7.784   8.880  0.0909 -0.2466  0.5825
13259SOL    HW241391   6.523   7.772   8.932  0.1864 -0.0185  0.3817
13260SOL     OW41392   0.712   6.091   3.140  0.3811  0.7576 -0.5093
13260SOL    HW141393   0.780   6.148   3.105 -1.0701  3.2785  0.4698
13260SOL    HW241394   0.680   6.042   3.065  2.0511  0.7794 -1.2884
13261SOL     OW41395   0.088   3.562   6.503  0.4880  0.5168 -0.1430
13261SOL    HW141396  -0.006   3.551   6.484  0.1187  0.0646  1.7625
13261SOL    HW241397   0.116   3.631   6.443 -1.5787  2.2042  0.6919
13262SOL     OW41398   6.685   6.063   8.427 -0.1495 -0.0201  0.1963
13262SOL    HW141399   6.770   6.106   8.432  0.5457 -1.5055  2.1247
13262SOL    HW241400   6.648   6.071   8.515 -0.2660 -2.7315  0.4715
13263SOL     OW41401   4.302   1.103   7.976  0.3316  0.5367  0.3289
13263SOL    HW141402   4.323   1.196   7.985  2.7430  0.0755  0.1508
13263SOL    HW241403   4.347   1.076   7.896 -0.3366 -0.7749  0.3739
13264SOL     OW41404   2.819   7.894   9.687  0.3384  0.0737 -0.1004
13264SOL    HW141405   2.745   7.942   9.649 -0.1896 -0.7358 -0.1031
13264SOL    HW241406   2.810   7.805   9.653  1.7147  0.1229 -0.6696
13265SOL     OW41407   7.856   9.029   4.663 -0.2236 -0.0674 -0.0892
13265SOL    HW141408   7.780   9.002   4.715  0.0682 -0.4224  0.1610
13265SOL    HW241409   7.930   9.022   4.723 -0.0558  0.7401 -0.1953
13266SOL     OW41410   2.665   7.988   1.649 -0.2867  0.2886 -0.0157
13266SOL    HW141411   2.710   7.949   1.724 -1.1665  0.1908  0.4640
13266SOL    HW241412   2.594   7.928   1.629 -1.1133  1.1921  0.1613
13267SOL     OW41413   3.350   7.763   5.809  0.0701  0.0802  0.2829
13267SOL    HW141414   3.312   7.749   5.722  2.1331  1.2333 -0.8917
13267SOL    HW241415   3.315   7.847   5.837 -0.3014 -0.1116  0.3943
13268SOL     OW41416   1.702   8.969   1.369 -0.0788  0.1669  0.2564
13268SOL    HW141417   1.697   8.886   1.417 -1.8142  1.2468  2.1122
13268SOL    HW241418   1.631   9.022   1.405 -0.2293  1.8135 -2.1866
13269SOL     OW41419   5.410   1.504   5.686 -0.1411  0.6657  0.5982
13269SOL    HW141420   5.386   1.426   5.737 -0.2734  1.7611  2.2940
13269SOL    HW241421   5.400   1.477   5.595 -1.6478 -0.8479  1.1619
13270SOL     OW41422   4.027   3.496   3.913  0.6940  0.1681 -0.3246
13270SOL    HW141423   4.055   3.549   3.987  0.3955  0.4498 -0.4086
13270SOL    HW241424   4.021   3.558   3.840  2.1498 -0.2999 -0.8972
13271SOL     OW41425   5.589   2.273   2.496 -0.2213  0.0809 -0.2882
13271SOL    HW141426   5.629   2.210   2.436  2.0026 -0.6617  1.8036
13271SOL    HW241427   5.646   2.350   2.492 -0.6027  0.3922  0.1676
13272SOL     OW41428   1.870   2.358   6.348 -0.2619 -1.1008  0.4421
13272SOL    HW141429   1.869   2.276   6.300 -0.8355 -0.3211 -0.9421
13272SOL    HW241430   1.804   2.412   6.304  0.7062  0.4042  0.7637
13273SOL     OW41431   1.410   6.205   9.081  0.0475 -0.3261  0.1916
13273SOL    HW141432   1.389   6.127   9.029 -1.7502  0.1466  0.1270
13273SOL    HW241433   1.395   6.278   9.021 -1.3905  0.1924  1.1255
13274SOL     OW41434   4.586   5.015   9.641  0.4069 -0.0291  0.0313
13274SOL    HW141435   4.564   4.936   9.690  3.9072 -1.1569  0.0126
13274SOL    HW241436   4.597   5.083   9.707  0.2067 -0.2722  0.3130
13275SOL     OW41437   0.155   4.062   1.730 -0.3038 -0.1547  0.6825
13275SOL    HW141438   0.218   4.035   1.663  0.1036 -1.5929  1.6111
13275SOL    HW241439   0.197   4.040   1.813 -1.2215  0.6853  1.3933
13276SOL     OW41440   8.822   3.951   7.345  0.5408 -0.1564 -0.2223
13276SOL    HW141441   8.833   4.045   7.332  0.1403 -0.0786 -0.0184
13276SOL    HW241442   8.740   3.943   7.394  0.9793 -0.5655  0.4650
13277SOL     OW41443   0.821   7.316   5.808  0.3585 -0.2343  0.5377
13277SOL    HW141444   0.897   7.334   5.864  1.2913 -2.5769  0.1325
13277SOL    HW241445   0.832   7.225   5.782 -2.2608 -0.4205 -0.1096
13278SOL     OW41446   1.574   9.215   2.713 -0.2767  0.2666 -0.0766
13278SOL    HW141447   1.573   9.123   2.739  0.8339 -0.1108 -1.2342
13278SOL    HW241448   1.658   9.248   2.747 -1.3507  1.3135  1.7087
13279SOL     OW41449   3.963   1.486   2.789 -0.5418  0.2596  0.2224
13279SOL    HW141450   4.042   1.442   2.821 -1.9664 -1.7473  1.1484
13279SOL    HW241451   3.981   1.579   2.805  1.7249 -0.0941  0.1361
13280SOL     OW41452   6.927   2.498   7.685  0.9390 -0.1884  0.6183
13280SOL    HW141453   6.962   2.578   7.723  1.5065 -0.9442  1.7337
13280SOL    HW241454   6.885   2.452   7.758  0.7699 -0.9931  0.0376
13281SOL     OW41455   0.155   2.939   8.849  0.2232 -0.0488 -0.2193
13281SOL    HW141456   0.165   2.849   8.879 -1.1804 -0.2457 -0.2560
13281SOL    HW241457   0.071   2.939   8.802  1.6411  0.5568 -2.9326
13282SOL     OW41458   2.611   1.645   3.500  0.0547  0.1911 -0.4555
13282SOL    HW141459   2.656   1.657   3.416 -1.2513  0.0898 -1.2020
13282SOL    HW241460   2.653   1.708   3.559  1.6977 -0.4502 -0.8767
13283SOL     OW41461   8.882   8.913   8.330  0.4144  0.2286 -0.2083
13283SOL    HW141462   8.977   8.908   8.319  0.7439  0.3959  2.0402
13283SOL    HW241463   8.868   8.990   8.385 -1.1498  0.8204 -1.3602
13284SOL     OW41464   8.655   3.210   4.367  0.0179  0.4438  0.0805
13284SOL    HW141465   8.693   3.291   4.331 -1.1482  1.1713  0.4164
13284SOL    HW241466   8.711   3.189   4.442 -1.0266  2.3273  1.4850
13285SOL     OW41467   2.290   8.589   0.352 -0.1426  0.2177 -0.1974
13285SOL    HW141468   2.359   8.564   0.290 -0.0513 -0.7595  0.2787
13285SOL    HW241469   2.208   8.577   0.304 -0.0176  0.8435 -0.5822
13286SOL     OW41470   0.726   5.844   6.993  0.1473  0.2780 -0.1149
13286SOL    HW141471   0.774   5.789   7.055 -0.0267  0.1051 -0.1316
13286SOL    HW241472   0.659   5.785   6.956  0.6672  0.1993 -0.9504
13287SOL     OW41473   8.281   2.657   9.463  0.3312 -0.2232 -0.6564
13287SOL    HW141474   8.218   2.690   9.527  0.2217 -0.6279 -0.5507
13287SOL    HW241475   8.314   2.735   9.419  0.3070  0.0500 -0.1992
13288SOL     OW41476   9.701   3.560   3.330 -0.0063  0.2499  0.0748
13288SOL    HW141477   9.664   3.647   3.313  2.2855  0.9007 -2.1663
13288SOL    HW241478   9.735   3.565   3.419  1.0197  2.0324 -0.3797
13289SOL     OW41479   4.181   1.715   1.240 -0.2932  0.0746 -0.1464
13289SOL    HW141480   4.236   1.641   1.215  0.5293  0.4860  0.3766
13289SOL    HW241481   4.109   1.676   1.290  0.6551 -0.3114  0.9649
13290SOL     OW41482   9.413   3.538   5.985  0.5097  0.1943 -0.1083
13290SOL    HW141483   9.472   3.465   6.003 -0.5915 -0.2034  2.2798
13290SOL    HW241484   9.464   3.616   6.006  1.0831  0.0285 -0.8525
13291SOL     OW41485   8.296   4.206   5.207 -0.4870  0.6564 -0.6863
13291SOL    HW141486   8.333   4.196   5.295 -0.9186  2.2343 -0.3045
13291SOL    HW241487   8.201   4.204   5.221 -0.5579  0.8544 -1.1316
13292SOL     OW41488   0.202   4.473   9.473 -0.0305 -0.7859  0.4825
13292SOL    HW141489   0.153   4.402   9.514 -0.4031 -0.8652 -0.0870
13292SOL    HW241490   0.291   4.440   9.466  0.0005 -0.8309  1.0785
13293SOL     OW41491   8.153   9.756   4.027  0.2363  0.0479 -0.8750
13293SOL    HW141492   8.153   9.841   4.071  2.0680 -0.9169  1.1378
13293SOL    HW241493   8.060   9.735   4.016 -0.2599  1.5589  0.0883
13294SOL     OW41494   5.040   0.737   3.312 -0.8944 -0.2176  0.1975
13294SOL    HW141495   5.022   0.768   3.401  1.6740  0.6214  0.4865
13294SOL    HW241496   5.038   0.816   3.258  0.8114 -0.2132  0.1001
13295SOL     OW41497   3.622   9.063   9.226 -0.2042 -0.3760  0.2743
13295SOL    HW141498   3.534   9.093   9.252 -0.2049  0.2204 -0.4099
13295SOL    HW241499   3.632   8.980   9.272 -1.1958 -0.5346  0.2325
13296SOL     OW41500   7.524   8.995   0.098  0.0932 -0.3134  0.2933
13296SOL    HW141501   7.493   8.994   0.189 -0.1493  0.1206  0.2194
13296SOL    HW241502   7.451   9.034   0.049 -0.6615 -2.4706 -0.4167
13297SOL     OW41503   4.850   4.119   0.654  0.0416 -0.1831 -0.4537
13297SOL    HW141504   4.908   4.143   0.726 -0.5541  2.4782 -0.7690
13297SOL    HW241505   4.899   4.138   0.575 -0.0102 -1.2950 -0.7812
13298SOL     OW41506   5.388   7.149   2.551 -0.1607 -0.0192  0.1363
13298SOL    HW141507   5.303   7.113   2.577 -0.6742  0.8457 -0.2763
13298SOL    HW241508   5.449   7.075   2.558 -0.9739 -0.6935  0.2916
13299SOL     OW41509   4.411   7.078   2.880 -0.2811 -0.7182  0.4308
13299SOL    HW141510   4.320   7.100   2.860 -0.4360 -0.3716  1.4615
13299SOL    HW241511   4.433   7.135   2.954  0.4474 -1.5378  0.8542
13300SOL     OW41512   5.926   8.993   2.573  0.0657  0.1826 -0.0353
13300SOL    HW141513   5.961   9.016   2.487  0.4503  0.3028  0.1492
13300SOL    HW241514   5.983   8.922   2.603 -0.3672 -0.1888 -0.0857
13301SOL     OW41515   3.498   0.303   9.245  0.0338 -0.3386  0.0592
13301SOL    HW141516   3.585   0.331   9.218  0.0196  0.2559  0.5917
13301SOL    HW241517   3.486   0.218   9.204  0.8883 -0.4476  0.0218
13302SOL     OW41518   6.874   7.938   0.048 -0.1249 -0.1985 -0.1677
13302SOL    HW141519   6.880   8.029   0.020  1.5865  0.2205  1.4125
13302SOL    HW241520   6.918   7.889  -0.021 -0.0995  0.2768 -0.4954
13303SOL     OW41521   9.021   3.130   4.170 -1.0456  0.1067  0.0254
13303SOL    HW141522   9.116   3.129   4.177 -0.9473 -4.3916  1.1674
13303SOL    HW241523   8.993   3.201   4.228  1.5565  0.7650  0.5946
13304SOL     OW41524   9.269   1.433   9.557  0.1227  0.6233 -0.3766
13304SOL    HW141525   9.216   1.507   9.527 -0.2928 -0.2711 -1.9564
13304SOL    HW241526   9.351   1.472   9.586 -0.3742  1.7702 -0.4714
13305SOL     OW41527   3.287   1.766   9.225  0.6276 -0.1346  0.0025
13305SOL    HW141528   3.241   1.840   9.266  0.9658  0.3847 -0.5522
13305SOL    HW241529   3.216   1.712   9.189  0.3628 -0.2451  0.6619
13306SOL     OW41530   6.918   4.477   1.602  0.5240 -0.0374  0.1461
13306SOL    HW141531   6.891   4.545   1.663 -1.4611  0.2528 -0.9937
13306SOL    HW241532   6.854   4.407   1.614  1.8723 -1.2699  0.4934
13307SOL     OW41533   2.527   3.143   6.589  0.1395  0.4737  0.3923
13307SOL    HW141534   2.491   3.128   6.501  0.3190 -1.0526  0.5547
13307SOL    HW241535   2.450   3.144   6.646  0.0442  1.2206  0.2631
13308SOL     OW41536   4.376   5.850   1.367  0.1127  0.6870 -0.4207
13308SOL    HW141537   4.287   5.883   1.380  0.5673  1.4717  1.0005
13308SOL    HW241538   4.364   5.765   1.325 -1.4312 -0.1087  1.4360
13309SOL     OW41539   5.758   4.657   7.487  0.2284 -0.3145  0.5897
13309SOL    HW141540   5.838   4.618   7.454  0.1485 -0.5840  0.7140
13309SOL    HW241541   5.776   4.673   7.580 -0.6826 -2.5877  1.2213
13310SOL     OW41542   6.313   5.219   6.946 -0.2657 -0.2773  0.4692
13310SOL    HW141543   6.286   5.180   7.030 -0.5889  2.6439  1.8276
13310SOL    HW241544   6.238   5.206   6.888 -2.0444  1.7898  2.1478
13311SOL     OW41545   8.134   4.544   0.097  0.5476  0.4288 -0.0978
13311SOL    HW141546   8.103   4.456   0.075  0.4719  0.0697  1.3064
13311SOL    HW241547   8.216   4.529   0.144 -0.3745  0.9518  1.7808
13312SOL     OW41548   5.956   6.765   6.183  0.3667 -0.6823  0.0980
13312SOL    HW141549   5.964   6.670   6.187  0.2500 -0.6829  0.3645
13312SOL    HW241550   5.999   6.796   6.262  1.6609 -0.4222 -0.6776
13313SOL     OW41551   9.327   8.439   1.826  0.1021 -0.2075  0.1703
13313SOL    HW141552   9.339   8.344   1.822 -1.0694 -0.3345 -0.9346
13313SOL    HW241553   9.414   8.473   1.846  0.7735 -1.4574 -0.4838
13314SOL     OW41554   1.677   6.826   0.330  0.2001 -0.4949  0.0529
13314SOL    HW141555   1.690   6.741   0.287  0.9941 -0.1315 -0.4598
13314SOL    HW241556   1.630   6.806   0.410 -0.1092 -1.3566 -0.3359
13315SOL     OW41557   1.193   4.863   0.764  0.8988  0.0425 -0.5801
13315SOL    HW141558   1.172   4.864   0.858  1.0278 -0.2716 -0.5467
13315SOL    HW241559   1.127   4.805   0.725  0.2120  0.9816 -0.8412
13316SOL     OW41560   6.384   6.802   0.783 -0.5998  0.0739  0.3069
13316SOL    HW141561   6.417   6.888   0.807 -0.2263  0.1237 -0.3599
13316SOL    HW241562   6.451   6.766   0.724 -1.1686 -0.3054 -0.1210
13317SOL     OW41563   1.983   1.344   9.823  0.1374 -0.1566 -1.0799
13317SOL    HW141564   1.937   1.290   9.759 -0.6079 -0.8777  0.0275
13317SOL    HW241565   2.042   1.284   9.868  1.1975  0.4914 -1.5735
13318SOL     OW41566   8.381   0.411   7.050 -0.2058  0.0378  0.5278
13318SOL    HW141567   8.290   0.394   7.026  0.1029 -0.2872 -0.4700
13318SOL    HW241568   8.382   0.504   7.074 -0.9955 -0.2083  1.5712
13319SOL     OW41569   3.576   4.387   0.128  0.1466 -0.2810  0.2345
13319SOL    HW141570   3.520   4.344   0.192  1.8139 -1.0967  1.2208
13319SOL    HW241571   3.520   4.400   0.051 -1.2962 -1.2681  1.0755
13320SOL     OW41572   3.921   0.022   6.506  0.5452  0.1873  0.2599
13320SOL    HW141573   3.973   0.002   6.584 -2.3568 -1.3587  1.9637
13320SOL    HW241574   3.922  -0.059   6.455  1.2490  0.7470 -0.6674
13321SOL     OW41575   6.292   4.526   3.167  0.4898 -0.6533  0.0839
13321SOL    HW141576   6.217   4.471   3.188 -1.4940  1.4351 -1.0769
13321SOL    HW241577   6.306   4.513   3.073  2.4392 -1.9309  0.4947
13322SOL     OW41578   0.878   6.743   3.811  0.3045  0.1850  1.0266
13322SOL    HW141579   0.810   6.803   3.843 -0.2215 -1.6125  3.6175
13322SOL    HW241580   0.959   6.777   3.848  0.4816  0.8981  0.0338
13323SOL     OW41581   3.566   9.797   2.577  0.2165 -0.4814  0.4500
13323SOL    HW141582   3.597   9.875   2.622  0.7145 -0.8496  0.7522
13323SOL    HW241583   3.531   9.830   2.494  0.1442  0.0920  0.6998
13324SOL     OW41584   3.275   3.396   6.474 -0.2392  0.1451 -0.2648
13324SOL    HW141585   3.293   3.313   6.519  1.1264  0.8489  0.5258
13324SOL    HW241586   3.221   3.445   6.536  2.7810  1.6839  1.3720
13325SOL     OW41587   4.941   3.773   2.704 -0.6207  0.1450  0.3174
13325SOL    HW141588   4.979   3.832   2.770 -0.9663 -0.2244  0.8568
13325SOL    HW241589   4.985   3.797   2.623  0.1405  0.3044  0.7672
13326SOL     OW41590   0.553   7.769   9.032 -0.2841 -0.0047 -0.1774
13326SOL    HW141591   0.597   7.800   8.953 -1.3085  1.3647 -0.2585
13326SOL    HW241592   0.560   7.674   9.028  1.0176  0.1077 -1.1211
13327SOL     OW41593   8.103   3.744   2.144  0.3745 -0.1090  0.1073
13327SOL    HW141594   8.074   3.825   2.101 -0.5476  0.2320  1.3122
13327SOL    HW241595   8.075   3.675   2.085 -0.5997  0.3630 -0.0122
13328SOL     OW41596   5.801   5.051   2.197  0.4935 -0.0313 -0.2220
13328SOL    HW141597   5.743   5.108   2.147 -0.0567 -0.6591 -0.3112
13328SOL    HW241598   5.884   5.099   2.201 -0.0187  0.8623 -0.1098
13329SOL     OW41599   0.341   9.034   0.016  0.0637 -0.0115 -0.1381
13329SOL    HW141600   0.246   9.029   0.008 -0.0010  0.4685  0.2959
13329SOL    HW241601   0.370   8.942   0.018 -0.4141 -0.1576  0.0708
13330SOL     OW41602   8.703   2.243   1.100 -0.0786  0.6815 -0.0170
13330SOL    HW141603   8.622   2.280   1.064  0.3557  0.9418 -0.7670
13330SOL    HW241604   8.685   2.229   1.192 -2.0111 -2.1018 -0.7059
13331SOL     OW41605   2.452   2.512   8.895  0.1028 -0.6869  0.4167
13331SOL    HW141606   2.529   2.537   8.946 -0.7139 -2.9870  3.0400
13331SOL    HW241607   2.487   2.463   8.820  1.2490  0.5595  0.1051
13332SOL     OW41608   8.635   5.240   4.220 -0.3306  0.2327  0.5184
13332SOL    HW141609   8.574   5.177   4.181  0.0468  0.7712 -1.0083
13332SOL    HW241610   8.655   5.301   4.149  1.5535  0.3985  1.1458
13333SOL     OW41611   3.602   6.693   3.001  0.2320 -0.1085 -0.1722
13333SOL    HW141612   3.670   6.750   2.964  0.7503 -0.7485 -0.2186
13333SOL    HW241613   3.648   6.641   3.067  0.2370 -1.9498 -1.5630
13334SOL     OW41614   7.397   0.187   6.153  0.2986 -0.0376 -0.2004
13334SOL    HW141615   7.402   0.278   6.180 -1.1097  0.8692 -2.6768
13334SOL    HW241616   7.472   0.174   6.096  0.6213 -0.5063  0.3245
13335SOL     OW41617   9.054   3.668   1.768 -0.2615 -0.0322 -0.2912
13335SOL    HW141618   9.059   3.587   1.819 -0.3856  0.1415 -0.0014
13335SOL    HW241619   9.117   3.656   1.697  0.0470 -0.2001  0.0096
13336SOL     OW41620   8.385   0.010   4.229  0.2207  0.0770  0.7396
13336SOL    HW141621   8.296   0.044   4.233  0.3068  0.3651  0.2696
13336SOL    HW241622   8.414   0.005   4.320  0.4742  1.9618  0.7931
13337SOL     OW41623   7.707   3.455   8.206  0.5995 -0.4952  0.5019
13337SOL    HW141624   7.695   3.544   8.238 -0.1862 -0.3275 -0.2284
13337SOL    HW241625   7.784   3.461   8.148  0.6926 -0.3425  0.6415
13338SOL     OW41626   2.122   8.880   9.195  0.6069  0.5759  0.2315
13338SOL    HW141627   2.165   8.795   9.190 -2.4512 -1.1073 -0.4380
13338SOL    HW241628   2.123   8.902   9.288  3.0741  0.8400  0.2085
13339SOL     OW41629   2.906   2.524   3.724  0.0817 -0.0618  0.3253
13339SOL    HW141630   2.891   2.432   3.702  0.6069  0.1208 -0.9210
13339SOL    HW241631   2.990   2.524   3.771  2.3167  0.1203 -3.2591
13340SOL     OW41632   4.817   3.396   5.513 -0.4157  0.1785  0.1619
13340SOL    HW141633   4.862   3.377   5.431  0.2487  1.5644  0.1752
13340SOL    HW241634   4.726   3.373   5.496  0.0987 -1.8185 -0.1621
13341SOL     OW41635   7.854   1.206   9.562  0.0756 -0.0583 -0.3599
13341SOL    HW141636   7.923   1.237   9.621 -0.5118 -0.2018  0.4057
13341SOL    HW241637   7.834   1.118   9.592 -1.4181  0.4904  0.3085
13342SOL     OW41638   2.596   2.181   7.701  0.4842 -0.2868  0.9341
13342SOL    HW141639   2.669   2.193   7.640  0.0502 -0.4112  0.3868
13342SOL    HW241640   2.550   2.265   7.701 -0.9717 -1.0179 -0.8362
13343SOL     OW41641   3.557   1.398   2.529 -0.1883 -0.4594  0.4831
13343SOL    HW141642   3.576   1.426   2.440  0.1933  1.4814  1.1212
13343SOL    HW241643   3.635   1.348   2.555  1.5001  2.1743  0.9498
13344SOL     OW41644   6.674   1.926   0.294  0.3900 -0.1954 -0.3158
13344SOL    HW141645   6.648   1.997   0.353 -1.0667  0.4189 -1.6202
13344SOL    HW241646   6.635   1.848   0.334 -0.1151  0.1279 -0.1535
13345SOL     OW41647   7.748   0.088   7.858 -0.0254 -0.2136 -0.0815
13345SOL    HW141648   7.671   0.082   7.801  0.7446 -1.5350 -1.0383
13345SOL    HW241649   7.720   0.051   7.941 -0.7041  0.2543 -0.0924
13346SOL     OW41650   6.363   2.004   7.301  0.2249  0.5323  0.1099
13346SOL    HW141651   6.292   1.981   7.241  0.6090 -0.8746  0.1737
13346SOL    HW241652   6.442   2.001   7.248  0.2910  1.9570  0.0742
13347SOL     OW41653   3.792   3.832   4.015  0.7040  0.0720  0.3278
13347SOL    HW141654   3.792   3.922   3.982  0.5452  0.1079  0.4245
13347SOL    HW241655   3.807   3.841   4.109 -1.9902  0.1932  0.8275
13348SOL     OW41656   4.227   8.866   7.734 -0.1684  0.5894 -0.5440
13348SOL    HW141657   4.242   8.903   7.648  1.4710 -0.9203 -0.9633
13348SOL    HW241658   4.311   8.828   7.759 -0.4879  1.3537  1.9231
13349SOL     OW41659   6.657   5.038   6.102  0.3229  0.4163  0.3580
13349SOL    HW141660   6.660   4.975   6.030  0.5368 -0.0008  0.7208
13349SOL    HW241661   6.564   5.058   6.113  0.2357  0.0369  0.3370
13350SOL     OW41662   2.174   4.965   5.416 -0.0092 -0.1067 -0.2470
13350SOL    HW141663   2.243   4.900   5.426 -0.0193 -0.0739  0.0639
13350SOL    HW241664   2.107   4.938   5.479 -0.9643 -1.0082 -1.6032
13351SOL     OW41665   2.749   2.539   5.726 -0.4450 -0.1107 -0.0733
13351SOL    HW141666   2.780   2.522   5.637  2.2787 -0.0365  0.7804
13351SOL    HW241667   2.827   2.536   5.780 -1.9612  0.2796  2.2999
13352SOL     OW41668   8.815   4.092   3.093 -0.4512  1.0347 -0.3096
13352SOL    HW141669   8.757   4.162   3.063 -0.2397  1.7140  0.8019
13352SOL    HW241670   8.760   4.014   3.090 -0.4278  1.0262 -2.4631
13353SOL     OW41671   4.150   3.442   0.700  0.2761  0.1438  0.2981
13353SOL    HW141672   4.244   3.457   0.695  0.4477 -1.0971 -0.3973
13353SOL    HW241673   4.133   3.424   0.792  0.8057 -0.1451  0.3404
13354SOL     OW41674   3.596   0.599   5.635  0.3806 -0.0450 -0.1829
13354SOL    HW141675   3.687   0.624   5.617  0.1976  1.4947  0.8731
13354SOL    HW241676   3.602   0.535   5.706  0.6982 -1.1791 -1.1884
13355SOL     OW41677   9.597   1.025   2.697 -0.6961  0.3583 -0.0941
13355SOL    HW141678   9.651   0.954   2.731  1.6368  0.2110 -3.5758
13355SOL    HW241679   9.657   1.099   2.686 -2.5036  2.1166  0.9966
13356SOL     OW41680   1.132   1.102   6.003 -0.1900  0.2502 -0.0329
13356SOL    HW141681   1.172   1.127   5.920 -0.6739 -2.4332 -1.2063
13356SOL    HW241682   1.055   1.158   6.011  0.2680  1.0474 -1.0064
13357SOL     OW41683   2.640   7.464   5.867 -0.0520  0.1834  0.1919
13357SOL    HW141684   2.598   7.378   5.861 -2.1577  1.1481  0.1658
13357SOL    HW241685   2.567   7.526   5.873  1.3726  2.0398 -0.5458
13358SOL     OW41686   0.628   0.134   0.774  0.1331 -0.5566 -0.0235
13358SOL    HW141687   0.588   0.091   0.699 -1.2789  0.4137  0.1359
13358SOL    HW241688   0.557   0.184   0.814  1.5877  1.6564 -0.0314
13359SOL     OW41689   3.808   2.263   1.106  0.1717  0.4045  0.7292
13359SOL    HW141690   3.834   2.172   1.093 -1.2881 -0.0079  0.4091
13359SOL    HW241691   3.825   2.280   1.199  1.0747  0.0248  0.6381
13360SOL     OW41692   8.620   1.880   2.317  0.2491  0.4834 -0.3084
13360SOL    HW141693   8.681   1.825   2.365 -0.4454  0.1612  0.2259
13360SOL    HW241694   8.667   1.962   2.303  1.2895 -0.2318 -1.1052
13361SOL     OW41695   8.088   5.765   4.992  0.4759 -0.3768  0.1676
13361SOL    HW141696   8.026   5.692   4.991  0.7572 -0.6155 -0.1230
13361SOL    HW241697   8.037   5.840   5.023  0.0808 -0.6040  0.0698
13362SOL     OW41698   7.685   9.640   8.958  0.1215 -0.1095  0.3489
13362SOL    HW141699   7.756   9.590   8.919  1.4417  1.8161  0.1366
13362SOL    HW241700   7.663   9.706   8.892 -0.0568  0.9649  1.4417
13363SOL     OW41701   3.277   9.522   3.773  0.4864 -0.3753 -0.0811
13363SOL    HW141702   3.347   9.586   3.762 -2.0600  2.6830  0.0796
13363SOL    HW241703   3.239   9.541   3.859 -3.2854  1.2968 -1.8584
13364SOL     OW41704   0.662   4.133   8.317  0.2417 -0.7268  0.5092
13364SOL    HW141705   0.685   4.090   8.399  0.5888 -1.6052 -0.0245
13364SOL    HW241706   0.573   4.166   8.331  1.5834  2.4827  2.5170
13365SOL     OW41707   8.545   0.632   2.031  0.7961 -0.2896  0.3942
13365SOL    HW141708   8.522   0.644   2.123 -2.7444 -0.8650 -0.2489
13365SOL    HW241709   8.541   0.538   2.017 -0.1999 -0.1370 -0.5934
13366SOL     OW41710   6.031   6.263   8.542 -0.3325  0.3361 -0.0986
13366SOL    HW141711   6.104   6.315   8.576 -0.8910  1.7620 -0.9906
13366SOL    HW241712   6.073   6.193   8.493  0.4525  0.5568  0.2359
13367SOL     OW41713   9.528   3.084   5.356 -0.7838 -1.0407  0.4032
13367SOL    HW141714   9.619   3.079   5.326 -0.9345 -2.6539  0.0979
13367SOL    HW241715   9.532   3.062   5.449 -0.6681  0.8907  0.8949
13368SOL     OW41716   8.244   1.371   2.198  0.0973  0.5401 -0.1644
13368SOL    HW141717   8.257   1.362   2.104  1.4195  1.3278 -0.0863
13368SOL    HW241718   8.275   1.459   2.219 -2.2840  1.2421  0.6917
13369SOL     OW41719   3.872   0.627   5.565 -0.2115  0.1042  0.5855
13369SOL    HW141720   3.915   0.710   5.586  1.4617 -0.6357  0.2633
13369SOL    HW241721   3.933   0.560   5.596  0.0657 -1.0004 -2.0989
13370SOL     OW41722   5.848   7.761   6.607 -0.0300 -0.0184  0.0331
13370SOL    HW141723   5.770   7.766   6.551  0.5413  0.8882 -0.6971
13370SOL    HW241724   5.902   7.835   6.581  0.5290  0.0838  1.3890
13371SOL     OW41725   7.570   8.732   5.968  0.3149  0.1819  0.0587
13371SOL    HW141726   7.570   8.819   5.927  2.4711 -0.2240 -0.9021
13371SOL    HW241727   7.484   8.727   6.011 -0.6852  1.9838 -1.5399
13372SOL     OW41728   6.176   1.874   2.219  0.4812  0.0205  0.3262
13372SOL    HW141729   6.136   1.819   2.286  1.0904  1.9458  2.4102
13372SOL    HW241730   6.103   1.920   2.179  0.0270 -1.7545 -1.0115
13373SOL     OW41731   3.293   2.527   9.078 -0.5183 -0.1301  0.5476
13373SOL    HW141732   3.349   2.451   9.099 -0.7208  0.0502  1.8245
13373SOL    HW241733   3.310   2.544   8.985  0.9310 -0.5961  0.6921
13374SOL     OW41734   5.699   7.020   3.778  0.6448  0.0870  0.1615
13374SOL    HW141735   5.721   7.056   3.692  1.2542 -2.7070 -0.9718
13374SOL    HW241736   5.623   6.964   3.762 -0.0117  0.4806  1.7287
13375SOL     OW41737   3.135   3.998   8.384 -0.1677 -0.2934  0.2343
13375SOL    HW141738   3.058   3.955   8.420 -0.3749 -0.5795 -0.5209
13375SOL    HW241739   3.179   4.037   8.459 -1.2361  0.1798  0.6300
13376SOL     OW41740   5.924   2.782   8.990 -0.1129 -0.1192 -0.2396
13376SOL    HW141741   5.927   2.756   8.898 -0.7372  0.6514 -0.4834
13376SOL    HW241742   6.014   2.809   9.011 -0.2592  0.9785 -1.0001
13377SOL     OW41743   3.523   3.416   4.823 -0.4053  0.0820 -0.0621
13377SOL    HW141744   3.521   3.417   4.727  0.1897 -0.4731 -0.0910
13377SOL    HW241745   3.431   3.420   4.849 -0.6241 -0.6036 -0.6824
13378SOL     OW41746   1.056   3.937   5.738  0.4753  0.3290 -0.6522
13378SOL    HW141747   1.002   3.930   5.816  0.3625  1.8373 -0.5665
13378SOL    HW241748   1.124   4.001   5.762  3.3284 -2.6307 -0.1936
13379SOL     OW41749   2.520   3.744   5.286 -0.4582  0.4470  0.3735
13379SOL    HW141750   2.435   3.710   5.313 -0.3303 -0.8547 -0.7559
13379SOL    HW241751   2.515   3.749   5.191  0.9057 -0.2209  0.2357
13380SOL     OW41752   2.991   0.496   0.178  0.0220 -0.1969 -0.3533
13380SOL    HW141753   2.990   0.558   0.252  0.0342  2.9419 -2.7895
13380SOL    HW241754   2.903   0.458   0.178 -0.1801  0.2047  0.8871
13381SOL     OW41755   0.200   5.484   0.905  0.1837 -0.0094 -0.3998
13381SOL    HW141756   0.171   5.505   0.994  0.7993  0.6381 -0.3392
13381SOL    HW241757   0.243   5.564   0.875  0.3064 -0.3499 -1.1491
13382SOL     OW41758   6.979   0.749   0.344  0.2142 -0.4422 -0.3440
13382SOL    HW141759   6.964   0.756   0.438 -0.3923 -0.6344 -0.4205
13382SOL    HW241760   7.062   0.794   0.329 -0.9272  1.8617 -0.0834
13383SOL     OW41761   1.455   2.064   1.886  0.6358  0.0423 -0.0917
13383SOL    HW141762   1.480   2.085   1.977 -0.1561  0.2647  0.0877
13383SOL    HW241763   1.423   2.147   1.851 -1.0170 -0.4741  0.0989
13384SOL     OW41764   3.152   7.082   1.362  0.4085 -0.6476  0.0121
13384SOL    HW141765   3.169   6.990   1.384  0.8508 -0.8146 -0.9668
13384SOL    HW241766   3.210   7.100   1.287  1.7095  0.9838  1.3427
13385SOL     OW41767   7.883   5.387   8.988 -0.2029  0.4126 -0.0043
13385SOL    HW141768   7.973   5.394   8.958 -0.4003 -0.3584 -0.8143
13385SOL    HW241769   7.887   5.402   9.082  0.9438 -0.8788  0.1759
13386SOL     OW41770   4.267   6.230   3.938 -0.1542 -0.3903  0.3354
13386SOL    HW141771   4.267   6.197   3.848 -1.4872  0.6068 -0.0643
13386SOL    HW241772   4.199   6.179   3.982 -0.4646  0.0789  0.4000
13387SOL     OW41773   2.616   5.129   3.319 -0.3293  0.4723 -0.4713
13387SOL    HW141774   2.626   5.178   3.237  0.3306  0.7736 -0.2247
13387SOL    HW241775   2.542   5.170   3.363 -1.4460 -0.4471 -1.4302
13388SOL     OW41776   6.442   7.693   0.494  0.5134 -0.6083 -0.0284
13388SOL    HW141777   6.503   7.660   0.427  2.9514 -1.7806  2.5288
13388SOL    HW241778   6.402   7.614   0.531 -0.2657 -0.0512  0.3383
13389SOL     OW41779   5.620   2.880   9.471 -0.1164  0.5551  0.1663
13389SOL    HW141780   5.596   2.949   9.409 -3.1975 -1.0743 -0.6271
13389SOL    HW241781   5.538   2.853   9.510  1.2386 -1.4004  1.8720
13390SOL     OW41782   4.216   0.621   4.067 -0.3469  0.8413 -0.2247
13390SOL    HW141783   4.176   0.549   4.019 -0.2281 -0.0049  0.8910
13390SOL    HW241784   4.143   0.676   4.094 -0.4827  0.8851 -0.6777
13391SOL     OW41785   1.547   2.193   5.862  0.3600  0.2126  0.2452
13391SOL    HW141786   1.566   2.168   5.952  0.6255  1.2537  0.5032
13391SOL    HW241787   1.626   2.240   5.834 -1.0489  3.0788  0.7252
13392SOL     OW41788   2.198   9.363   3.149 -0.0676 -0.1272 -0.2435
13392SOL    HW141789   2.115   9.324   3.178 -0.1037  0.3146  0.2577
13392SOL    HW241790   2.239   9.294   3.096  0.8855 -1.7433  2.4117
13393SOL     OW41791   7.504   9.658   9.154  0.1058 -0.2748 -0.0473
13393SOL    HW141792   7.552   9.738   9.177 -0.2498  0.1868 -0.8717
13393SOL    HW241793   7.543   9.630   9.072 -1.1065  0.1891 -0.8124
13394SOL     OW41794   8.634   8.788   1.599 -0.2189 -0.7259  0.6490
13394SOL    HW141795   8.658   8.697   1.614  1.9191 -0.3526 -0.1959
13394SOL    HW241796   8.591   8.787   1.514  2.1660 -0.6703 -0.6512
13395SOL     OW41797   1.970   9.183   4.551 -0.0420  0.1541 -0.8933
13395SOL    HW141798   1.916   9.143   4.618  0.5447  0.9962  0.1088
13395SOL    HW241799   1.959   9.277   4.565  1.5116  0.3413 -0.7929
13396SOL     OW41800   3.403   9.366   8.580 -0.6192 -0.1172  0.1133
13396SOL    HW141801   3.342   9.293   8.594  2.0706 -2.4467  0.6792
13396SOL    HW241802   3.410   9.372   8.485  0.6049 -2.0681  0.0151
13397SOL     OW41803   4.402   3.255   3.078  0.1962  0.0290  0.0478
13397SOL    HW141804   4.472   3.315   3.052 -0.2533  0.9710  0.9265
13397SOL    HW241805   4.352   3.304   3.143 -1.6240 -0.4148 -0.9729
13398SOL     OW41806   9.219   9.349   5.525  0.2641  0.1655 -0.4608
13398SOL    HW141807   9.285   9.412   5.496  2.3676 -1.2950  0.9133
13398SOL    HW241808   9.209   9.289   5.451  0.1782  0.5964 -0.8058
13399SOL     OW41809   4.241   6.213   3.319 -0.1771  0.1946  0.3190
13399SOL    HW141810   4.171   6.228   3.255 -0.8581 -0.5324  0.8839
13399SOL    HW241811   4.296   6.145   3.279  0.7749  1.4269 -0.5506
13400SOL     OW41812   4.447   4.953   1.890  0.0391  0.4470 -0.1302
13400SOL    HW141813   4.369   5.002   1.865 -0.8471 -0.3999  0.9346
13400SOL    HW241814   4.476   4.911   1.808 -0.7519  0.5760 -0.4822
13401SOL     OW41815   6.802   9.724   5.454 -0.4027  0.4412  0.4364
13401SOL    HW141816   6.803   9.780   5.377  0.7534 -0.2667 -0.0986
13401SOL    HW241817   6.875   9.755   5.508  1.3215 -1.5052 -0.6396
13402SOL     OW41818   8.980   3.191   1.403  0.0299  0.0430 -0.3405
13402SOL    HW141819   9.001   3.199   1.310  0.9317  0.2007 -0.1353
13402SOL    HW241820   8.917   3.119   1.408  0.5787 -0.5027 -0.9984
13403SOL     OW41821   2.319   9.352   0.874 -0.1263 -0.2552 -0.1865
13403SOL    HW141822   2.303   9.284   0.939 -0.5639 -0.3237 -0.3600
13403SOL    HW241823   2.381   9.313   0.813 -0.0085 -0.3282 -0.0210
13404SOL     OW41824   8.345   1.208   8.189 -0.8999 -0.4620  0.1475
13404SOL    HW141825   8.332   1.271   8.260 -0.1476  0.2875 -0.3652
13404SOL    HW241826   8.320   1.256   8.109 -2.1367 -1.4216 -0.0816
13405SOL     OW41827   7.651   8.604   3.571 -0.0439 -0.2791  0.2704
13405SOL    HW141828   7.701   8.680   3.542  0.1756 -0.7247 -0.5194
13405SOL    HW241829   7.701   8.570   3.645  1.9343 -1.8755 -1.6899
13406SOL     OW41830   5.747   5.516   8.281 -0.1561 -0.4147  0.1493
13406SOL    HW141831   5.678   5.514   8.216  0.2805 -1.1567 -0.3057
13406SOL    HW241832   5.737   5.601   8.325  0.0314  0.4339 -1.3976
13407SOL     OW41833   9.131   9.659   7.071 -0.0425 -1.1049 -0.5080
13407SOL    HW141834   9.114   9.609   7.150  0.5548 -0.2523  0.1805
13407SOL    HW241835   9.092   9.745   7.087  2.6679  0.0998  0.1559
13408SOL     OW41836   1.097   9.259   3.379  0.2582 -0.4425 -0.2371
13408SOL    HW141837   1.009   9.272   3.414  0.3330 -1.4033  0.3586
13408SOL    HW241838   1.125   9.174   3.415  2.3251  0.8599  1.5079
13409SOL     OW41839   5.359   3.520   6.697  0.7622  0.6659  0.7483
13409SOL    HW141840   5.383   3.427   6.691 -2.2450 -0.1196 -1.7754
13409SOL    HW241841   5.275   3.520   6.744 -0.0538  1.8571 -0.6134
13410SOL     OW41842   7.456   6.020   0.909 -0.0984 -0.2644 -0.4986
13410SOL    HW141843   7.406   6.022   0.828 -0.0840  1.1143 -0.5041
13410SOL    HW241844   7.428   6.098   0.957  1.8442  0.4540 -0.4092
13411SOL     OW41845   4.666   8.486   7.431 -0.3141  0.2212  0.1609
13411SOL    HW141846   4.706   8.523   7.353  1.2361  1.3536  1.4186
13411SOL    HW241847   4.709   8.531   7.504 -0.9575 -1.5178  1.7029
13412SOL     OW41848   1.061   5.150   2.395 -0.6358 -0.0663 -0.4936
13412SOL    HW141849   1.094   5.101   2.320 -1.6069  0.7599 -1.5045
13412SOL    HW241850   0.966   5.142   2.388 -0.7490 -1.5163  1.7299
13413SOL     OW41851   4.384   5.998   3.046 -0.4602 -0.0036  0.2722
13413SOL    HW141852   4.479   6.003   3.032 -0.4795 -0.5443 -0.0589
13413SOL    HW241853   4.346   6.048   2.974 -0.4824 -1.1118 -0.4964
13414SOL     OW41854   9.120   3.965   5.851  0.4814 -0.3932 -0.2732
13414SOL    HW141855   9.159   3.878   5.854 -0.5336 -0.8809 -0.5962
13414SOL    HW241856   9.029   3.949   5.825 -0.7196  0.4061  2.8916
13415SOL     OW41857   8.456   1.678   6.245  0.2690 -0.4022  0.0714
13415SOL    HW141858   8.380   1.637   6.288  0.1840  0.8264  1.1567
13415SOL    HW241859   8.464   1.631   6.162 -2.1095 -0.1122 -0.4031
13416SOL     OW41860   0.140   5.011   6.965  0.0209  0.2580 -0.0467
13416SOL    HW141861   0.229   4.995   6.997  0.0372  1.2651  0.4481
13416SOL    HW241862   0.121   5.101   6.992 -1.6994 -0.4207  1.1991
13417SOL     OW41863   3.736   3.240   1.101  0.1200  0.0061 -0.0343
13417SOL    HW141864   3.731   3.180   1.175  0.4361  0.1111  0.0744
13417SOL    HW241865   3.655   3.224   1.052  0.6303 -1.2082 -0.5353
13418SOL     OW41866   1.790   1.506   7.750  0.6680  0.5113  0.4359
13418SOL    HW141867   1.749   1.523   7.665  0.0146  0.6577  0.7718
13418SOL    HW241868   1.733   1.440   7.791  2.5783 -1.8039 -0.4172
13419SOL     OW41869   0.682   3.578   7.134  0.0637 -0.3247  0.3420
13419SOL    HW141870   0.592   3.563   7.105 -0.3411  1.8685  0.3322
13419SOL    HW241871   0.701   3.503   7.190 -2.3490 -0.0433  1.6857
13420SOL     OW41872   1.033   5.754   7.096  0.1381  0.2972 -0.0192
13420SOL    HW141873   1.111   5.710   7.130  1.0987 -1.0051 -3.4834
13420SOL    HW241874   0.974   5.683   7.072 -0.3864  1.0756 -1.1484
13421SOL     OW41875   4.943   2.810   4.950  0.2994 -0.3758  0.3735
13421SOL    HW141876   5.035   2.827   4.973  0.8213 -0.7052 -1.2833
13421SOL    HW241877   4.943   2.809   4.854 -1.7495  1.2161  0.2880
13422SOL     OW41878   7.681   1.231   2.118 -0.2671 -0.5051 -0.5364
13422SOL    HW141879   7.752   1.263   2.174 -0.6645 -1.1946  0.3865
13422SOL    HW241880   7.601   1.247   2.168 -0.9353  1.4117 -2.0847
13423SOL     OW41881   3.890   6.002   2.080 -0.2863 -0.6663  0.2632
13423SOL    HW141882   3.821   6.021   2.016  0.6671  1.1084 -0.3097
13423SOL    HW241883   3.850   5.939   2.140 -2.2775  0.0181 -0.2485
13424SOL     OW41884   9.347   4.847   6.720 -0.0660 -0.3106  0.8315
13424SOL    HW141885   9.391   4.817   6.800 -0.6525  0.0330  1.2951
13424SOL    HW241886   9.356   4.942   6.721  2.0733 -0.4315 -0.8067
13425SOL     OW41887   3.989   0.444   4.575  0.0545 -0.0308 -0.3846
13425SOL    HW141888   4.031   0.370   4.620  0.1645  0.6819  0.7402
13425SOL    HW241889   4.047   0.518   4.593 -0.5014  0.5064 -0.7652
13426SOL     OW41890   8.600   4.512   6.343  0.6096 -0.0199  0.1512
13426SOL    HW141891   8.514   4.530   6.381  0.8192 -1.0025  1.1137
13426SOL    HW241892   8.583   4.504   6.249 -0.4819 -0.9162  0.4069
13427SOL     OW41893   0.842   2.894   6.954  0.2772 -0.1524 -0.4230
13427SOL    HW141894   0.788   2.830   6.907 -1.8524  1.0248  0.2966
13427SOL    HW241895   0.895   2.841   7.014 -1.2958 -1.2912  0.0220
13428SOL     OW41896   6.670   4.746   3.815  0.5625 -0.2282  0.1446
13428SOL    HW141897   6.725   4.823   3.829  0.4806 -0.2852  0.8007
13428SOL    HW241898   6.581   4.778   3.829  0.5198 -0.4113  0.2872
13429SOL     OW41899   4.016   3.264   0.551  0.3329  0.0871 -0.4243
13429SOL    HW141900   4.079   3.332   0.575 -0.8295  0.2914  2.4311
13429SOL    HW241901   4.024   3.198   0.621 -0.5972 -1.2975 -1.5718
13430SOL     OW41902   8.219   6.593   3.292  0.1229  0.4501 -0.2904
13430SOL    HW141903   8.224   6.548   3.376 -0.1923  1.7203  0.4530
13430SOL    HW241904   8.268   6.538   3.231 -0.9116 -1.2599  0.3710
13431SOL     OW41905   6.764   7.302   8.686 -0.3276 -0.4040  0.4206
13431SOL    HW141906   6.765   7.207   8.669 -0.0652 -0.0632 -1.8045
13431SOL    HW241907   6.681   7.331   8.647 -0.8209  0.1977  1.8558
13432SOL     OW41908   5.844   4.468   9.061  0.0475 -0.0905 -0.6781
13432SOL    HW141909   5.757   4.508   9.055 -0.0807 -0.5276 -2.1759
13432SOL    HW241910   5.835   4.400   9.128 -0.8748 -0.3600 -1.0624
13433SOL     OW41911   6.569   4.380   5.878  0.5579  0.2442 -0.5726
13433SOL    HW141912   6.561   4.316   5.808  0.6526 -0.1630 -0.2112
13433SOL    HW241913   6.608   4.457   5.836  0.0582  0.2184 -1.0960
13434SOL     OW41914   9.245   0.046   4.377  0.0281  0.3855 -0.2042
13434SOL    HW141915   9.287   0.120   4.419  0.2644 -0.8999  1.9838
13434SOL    HW241916   9.310   0.013   4.315  0.6315  0.9006  0.1432
13435SOL     OW41917   9.376   3.543   8.152 -0.2991 -0.0679  0.1312
13435SOL    HW141918   9.380   3.607   8.082  1.7479  0.5599  0.7706
13435SOL    HW241919   9.283   3.541   8.177 -0.4754  2.4559 -0.0809
13436SOL     OW41920   6.928   4.975   2.589  0.0991  0.4516 -0.9678
13436SOL    HW141921   6.996   5.036   2.562  0.5058  0.1179 -0.7127
13436SOL    HW241922   6.935   4.902   2.528 -0.0006  0.3977 -0.9165
13437SOL     OW41923   9.347   9.384   5.826  0.2141 -0.3641 -0.3357
13437SOL    HW141924   9.319   9.309   5.879  0.4379  0.6893  1.3791
13437SOL    HW241925   9.276   9.447   5.837  1.3982  0.8323  0.8184
13438SOL     OW41926   9.810   7.393   8.940  0.2866 -0.3703  0.2082
13438SOL    HW141927   9.894   7.436   8.954 -0.2945  0.8948 -0.0729
13438SOL    HW241928   9.829   7.325   8.874  0.7905  0.9390 -1.0591
13439SOL     OW41929   2.478   7.122   0.727  0.4026 -0.0638  0.4360
13439SOL    HW141930   2.403   7.108   0.668  1.1585 -1.5183 -0.2230
13439SOL    HW241931   2.531   7.043   0.718  1.1950  0.2303  2.1388
13440SOL     OW41932   1.303   1.947   2.384  0.2921  0.3000 -0.3688
13440SOL    HW141933   1.379   1.985   2.427  0.5497 -0.5006 -0.1122
13440SOL    HW241934   1.328   1.857   2.365 -1.1227 -0.4395  1.0981
13441SOL     OW41935   3.858   9.659   1.603  0.1000  0.2771  0.4582
13441SOL    HW141936   3.770   9.630   1.577  1.3148 -2.1392 -1.3700
13441SOL    HW241937   3.845   9.746   1.639 -3.0845 -0.1116  0.5187
13442SOL     OW41938   8.196   2.226   0.059 -0.0893  0.0430  0.0550
13442SOL    HW141939   8.278   2.240   0.105  0.7773 -0.5321 -1.2672
13442SOL    HW241940   8.188   2.131   0.052 -1.6655  0.0228  1.5152
13443SOL     OW41941   6.830   7.341   3.888 -0.2654  0.1396 -0.1825
13443SOL    HW141942   6.907   7.364   3.836  0.8202  0.4219  1.4653
13443SOL    HW241943   6.862   7.337   3.978 -2.1629  0.1292  0.5440
13444SOL     OW41944   7.374   7.403   6.046 -0.3532 -0.0644  0.6099
13444SOL    HW141945   7.435   7.339   6.011 -1.7750 -1.4189  0.5045
13444SOL    HW241946   7.422   7.445   6.118  0.4823 -1.5257  0.9412
13445SOL     OW41947   8.193   6.452   1.744 -0.0557 -0.0815 -0.2063
13445SOL    HW141948   8.282   6.417   1.737  0.1189  0.2382  0.3538
13445SOL    HW241949   8.196   6.510   1.820 -0.7895 -0.1944 -0.0866
13446SOL     OW41950   6.892   0.823   3.058  0.3120 -0.4460  0.3068
13446SOL    HW141951   6.925   0.911   3.039  1.2694 -1.0954 -1.2296
13446SOL    HW241952   6.804   0.822   3.021  0.0649  0.0258  0.8552
13447SOL     OW41953   3.933   2.093   1.749 -0.1795  0.3317  0.8163
13447SOL    HW141954   3.929   2.179   1.706 -0.6582  0.0234  0.2235
13447SOL    HW241955   3.970   2.035   1.682  1.3417  0.3137  1.6319
13448SOL     OW41956   6.611   4.739   1.957 -0.2462 -0.0013 -0.0083
13448SOL    HW141957   6.538   4.696   1.911 -1.3161  0.1370  1.4656
13448SOL    HW241958   6.672   4.668   1.975 -0.7911 -0.4377  0.1605
13449SOL     OW41959   8.899   0.718   6.318 -0.1031 -0.5066 -0.0112
13449SOL    HW141960   8.961   0.788   6.300 -0.8147 -0.1133 -0.9946
13449SOL    HW241961   8.915   0.653   6.250 -0.2184 -0.7726  0.2138
13450SOL     OW41962   8.754   9.790   4.692  0.1410  0.4276 -0.0678
13450SOL    HW141963   8.728   9.784   4.600 -0.0352 -1.1858  0.0577
13450SOL    HW241964   8.683   9.839   4.734 -0.1227  0.5671 -0.6673
13451SOL     OW41965   8.408   7.164   7.386  0.6327 -0.5665  0.6105
13451SOL    HW141966   8.442   7.130   7.303  1.0897  0.1530  0.4951
13451SOL    HW241967   8.313   7.169   7.373  0.7885  0.4792 -0.2303
13452SOL     OW41968   7.580   7.955   6.157  0.1251 -0.1431  0.2747
13452SOL    HW141969   7.671   7.934   6.135 -0.1789  0.2321 -1.5115
13452SOL    HW241970   7.528   7.899   6.100 -0.7292  1.3381 -0.4595
13453SOL     OW41971   3.831   1.140   4.223 -0.3379  0.0356 -0.8152
13453SOL    HW141972   3.767   1.207   4.243  1.6615  1.4373  1.5181
13453SOL    HW241973   3.787   1.057   4.243 -1.6835  0.8859 -0.1684
13454SOL     OW41974   4.812   6.628   7.153 -0.1518  0.3833  0.0130
13454SOL    HW141975   4.779   6.585   7.073  1.8110 -2.3349  0.5267
13454SOL    HW241976   4.838   6.715   7.124 -1.5789  0.2774 -1.7918
13455SOL     OW41977   6.792   4.151   3.183 -0.1671  0.0320 -0.4906
13455SOL    HW141978   6.817   4.244   3.177 -0.9136  0.2590 -0.2316
13455SOL    HW241979   6.859   4.105   3.133  0.0200  0.7497 -0.9186
13456SOL     OW41980   2.418   5.365   1.861 -0.6750 -0.1246  0.1392
13456SOL    HW141981   2.457   5.356   1.774  2.2364 -2.4349  1.4984
13456SOL    HW241982   2.324   5.362   1.846 -0.3143  1.0071 -3.0147
13457SOL     OW41983   2.026   3.837   0.521  0.3994  0.5503 -0.1321
13457SOL    HW141984   1.977   3.881   0.590 -0.9068 -0.7492 -0.1843
13457SOL    HW241985   2.111   3.879   0.521  0.2503  0.9275  1.9170
13458SOL     OW41986   4.077   3.611   5.314 -0.2920  0.8242  0.0739
13458SOL    HW141987   4.002   3.664   5.338 -1.2589 -0.1744 -0.6252
13458SOL    HW241988   4.093   3.632   5.222  0.2114  0.9462  0.1873
13459SOL     OW41989   1.591   3.421   3.229  0.2112 -0.4952  0.0108
13459SOL    HW141990   1.517   3.362   3.213  0.2027 -0.8236  1.1337
13459SOL    HW241991   1.586   3.440   3.323  0.1879  1.3440 -0.3100
13460SOL     OW41992   5.913   8.571   2.193  0.2344  0.5636  0.5881
13460SOL    HW141993   5.837   8.513   2.186  0.7647  0.0024 -0.7101
13460SOL    HW241994   5.923   8.609   2.106 -0.0309  2.5572  1.3685
13461SOL     OW41995   2.962   2.747   2.694 -0.0787 -0.2459 -0.0842
13461SOL    HW141996   3.018   2.783   2.626 -1.3397  1.2686 -0.3652
13461SOL    HW241997   2.968   2.809   2.766 -0.1192 -0.9266  0.5228
13462SOL     OW41998   7.406   1.346   1.333  0.0788  0.3963 -0.3659
13462SOL    HW141999   7.397   1.257   1.298  0.7363  0.4331 -0.6589
13462SOL    HW242000   7.319   1.369   1.365 -0.3544  0.0367 -1.2401
13463SOL     OW42001   7.530   8.709   0.125 -0.1008  0.2387 -0.3606
13463SOL    HW142002   7.536   8.804   0.115 -1.1360  0.3637 -0.0042
13463SOL    HW242003   7.572   8.690   0.209 -0.4795  0.4685 -0.1177
13464SOL     OW42004   9.206   3.046   3.627 -0.2918 -0.1772  0.6439
13464SOL    HW142005   9.273   3.109   3.653  1.0201 -0.2421 -2.1712
13464SOL    HW242006   9.148   3.095   3.569  0.5563 -1.3552 -1.3133
13465SOL     OW42007   3.707   7.078   3.069  0.2178  0.1243 -0.1019
13465SOL    HW142008   3.694   7.173   3.076  0.0090  0.0882  0.0091
13465SOL    HW242009   3.700   7.046   3.158  1.4263  0.1405  0.0150
13466SOL     OW42010   7.087   6.603   2.674 -0.4323 -0.2365  0.7548
13466SOL    HW142011   7.007   6.566   2.710 -1.4558  1.2346  0.0783
13466SOL    HW242012   7.145   6.613   2.749 -1.5579  0.3593  1.5636
13467SOL     OW42013   3.009   7.522   1.175  0.6687 -0.2085  0.3485
13467SOL    HW142014   3.028   7.448   1.117  0.6448  0.1380 -0.1029
13467SOL    HW242015   3.089   7.574   1.176 -0.0716  1.0308 -1.2298
13468SOL     OW42016   8.953   5.569   7.240  0.1472  0.1640  0.3126
13468SOL    HW142017   9.037   5.524   7.234  0.1677  0.3831 -1.7267
13468SOL    HW242018   8.918   5.568   7.151 -2.2529 -0.3415  1.1668
13469SOL     OW42019   3.034   4.914   1.824  0.1822  0.1113 -0.2118
13469SOL    HW142020   2.978   4.992   1.823  0.7611  0.6080  1.8341
13469SOL    HW242021   3.030   4.883   1.914 -0.3756 -2.5373 -1.0501
13470SOL     OW42022   6.094   2.833   0.706  0.2373  0.0874  0.0298
13470SOL    HW142023   6.148   2.824   0.628  0.4582  0.2183  0.1653
13470SOL    HW242024   6.100   2.926   0.728 -2.1379  0.6805 -1.4519
13471SOL     OW42025   8.001   3.301   1.042  0.1045 -0.0500  0.7094
13471SOL    HW142026   8.029   3.392   1.055 -2.1337  0.5538  1.7762
13471SOL    HW242027   8.050   3.272   0.965  1.3724  1.8273  0.7365
13472SOL     OW42028   0.471   4.348   7.427 -0.5469 -0.2296 -0.0725
13472SOL    HW142029   0.457   4.284   7.497 -1.4610  1.0272  0.9485
13472SOL    HW242030   0.439   4.431   7.463 -0.5353  0.5782 -1.7878
13473SOL     OW42031   0.818   1.820   1.751  0.0084 -0.5165 -0.1706
13473SOL    HW142032   0.875   1.744   1.759  1.0464  0.3484  1.3597
13473SOL    HW242033   0.878   1.893   1.736 -0.7806  0.2573  0.3253
13474SOL     OW42034   8.526   7.320   7.601 -0.3385  0.0861  0.2529
13474SOL    HW142035   8.542   7.297   7.510  1.8896  0.9286  0.3556
13474SOL    HW242036   8.431   7.328   7.608 -0.5106  1.1700 -2.2875
13475SOL     OW42037   7.669   8.406   2.986  0.5431 -0.4091  0.2941
13475SOL    HW142038   7.643   8.396   2.894 -0.5504 -0.3147  0.5791
13475SOL    HW242039   7.725   8.484   2.986 -0.3290  0.2438 -0.1430
13476SOL     OW42040   0.857   2.078   5.851  0.4146  0.4341  0.2043
13476SOL    HW142041   0.947   2.096   5.823  1.1548 -1.4544  1.2202
13476SOL    HW242042   0.846   2.131   5.930  0.7145  0.4927  0.2088
13477SOL     OW42043   8.687   2.105   0.340  0.6143  0.1583  0.5628
13477SOL    HW142044   8.747   2.052   0.288  1.5439  2.5469 -0.9753
13477SOL    HW242045   8.610   2.117   0.284  0.4395  0.5058  0.8720
13478SOL     OW42046   9.767   9.150   1.976  0.2001 -0.0292 -0.2323
13478SOL    HW142047   9.729   9.090   1.913  2.5913  0.6149 -2.4899
13478SOL    HW242048   9.787   9.229   1.925 -1.1197  2.0289  2.1984
13479SOL     OW42049   1.588   8.742   9.506 -0.7614  0.3919  0.2889
13479SOL    HW142050   1.622   8.655   9.529 -0.5052  0.4076 -0.0178
13479SOL    HW242051   1.562   8.780   9.590 -1.3158 -0.1622  0.3738
13480SOL     OW42052   6.732   5.074   2.132 -0.9162  0.3916  0.2813
13480SOL    HW142053   6.680   5.017   2.188 -0.5304 -1.1331 -0.8391
13480SOL    HW242054   6.669   5.136   2.095 -1.2199  1.2388  2.1065
13481SOL     OW42055   6.965   7.257   6.451 -0.3731  0.3911  0.4878
13481SOL    HW142056   7.048   7.225   6.417 -0.7216 -0.3107  0.2950
13481SOL    HW242057   6.932   7.316   6.383 -0.2544  0.3156  0.3644
13482SOL     OW42058   1.890   1.630   3.336 -0.5382  0.3107  0.5948
13482SOL    HW142059   1.865   1.681   3.413 -0.1093  1.9059 -0.2739
13482SOL    HW242060   1.971   1.672   3.305  0.0286 -1.1350  0.0291
13483SOL     OW42061   9.683   0.174   0.539  0.4760 -0.6386 -0.2281
13483SOL    HW142062   9.769   0.213   0.523 -0.8309  1.2899 -3.5297
13483SOL    HW242063   9.622   0.247   0.533 -1.6128 -2.3096 -0.6235
13484SOL     OW42064   4.313   4.445   7.381  0.1505  0.5995  0.5319
13484SOL    HW142065   4.337   4.529   7.420 -4.6514  2.2607  0.4683
13484SOL    HW242066   4.286   4.391   7.455  1.4784 -0.3273  0.3831
13485SOL     OW42067   5.091   8.515   7.671 -0.0851 -0.0395  0.2146
13485SOL    HW142068   5.042   8.529   7.590  0.3348  0.4832  0.0468
13485SOL    HW242069   5.183   8.523   7.646  0.1401 -1.7966  0.3779
13486SOL     OW42070   2.760   1.402   3.599 -0.1509 -0.0669 -0.9688
13486SOL    HW142071   2.698   1.475   3.595  0.4397  0.4026 -2.8789
13486SOL    HW242072   2.748   1.364   3.686 -0.9954  1.8526 -0.1881
13487SOL     OW42073   0.834   1.282   4.328  0.4651 -0.1842  0.3762
13487SOL    HW142074   0.889   1.230   4.269 -1.2703 -0.6219 -0.9557
13487SOL    HW242075   0.839   1.237   4.412  0.6250 -1.3285 -0.2274
13488SOL     OW42076   7.939   8.546   1.634 -0.2254 -0.0313 -0.3406
13488SOL    HW142077   7.904   8.486   1.569  1.3995  0.2031 -1.4837
13488SOL    HW242078   7.966   8.623   1.584  0.5949  0.3709  0.6795
13489SOL     OW42079   6.814   3.145   9.074 -0.0553  0.0346  0.3516
13489SOL    HW142080   6.790   3.069   9.128  3.5141 -1.1450  0.5172
13489SOL    HW242081   6.819   3.110   8.985  4.5424 -0.9983  0.7556
13490SOL     OW42082   4.451   8.388   4.250 -0.5141 -0.7614 -0.4377
13490SOL    HW142083   4.360   8.415   4.261 -0.6569 -1.3079 -0.2321
13490SOL    HW242084   4.475   8.417   4.162 -0.0974  1.5847  0.3814
13491SOL     OW42085   1.493   0.443   0.773 -0.6518  0.0783  1.3239
13491SOL    HW142086   1.463   0.530   0.798 -2.0294  0.3555 -1.0735
13491SOL    HW242087   1.414   0.390   0.767 -0.1037 -0.6549  0.2253
13492SOL     OW42088   2.547   9.498   0.375 -0.1780  0.6459 -0.8500
13492SOL    HW142089   2.640   9.520   0.379 -0.7295  3.1402  2.4692
13492SOL    HW242090   2.532   9.440   0.449 -1.4173  1.1209 -0.6973
13493SOL     OW42091   9.326   9.578   2.120  0.4185  0.3294 -0.5903
13493SOL    HW142092   9.339   9.484   2.107 -0.6686  0.1754 -0.6565
13493SOL    HW242093   9.391   9.602   2.186  1.0202 -0.3675 -0.9086
13494SOL     OW42094   7.528   2.072   4.563  0.2092  0.1362  1.1105
13494SOL    HW142095   7.432   2.066   4.568  0.1059  0.3729 -0.2301
13494SOL    HW242096   7.545   2.163   4.540  0.6867 -0.1862  0.1494
13495SOL     OW42097   1.107   3.703   4.580 -0.0772  0.2527  0.0650
13495SOL    HW142098   1.084   3.692   4.673 -1.4253  2.7374  0.1178
13495SOL    HW242099   1.027   3.679   4.533  0.2510  0.0624 -0.4044
13496SOL     OW42100   7.008   0.616   4.268 -0.0903 -0.2388 -0.1929
13496SOL    HW142101   7.066   0.545   4.242  1.7171  1.2446 -0.4335
13496SOL    HW242102   7.005   0.610   4.364  0.6511 -0.2202 -0.1609
13497SOL     OW42103   4.018   6.763   9.291 -0.7377  0.1285  0.5558
13497SOL    HW142104   4.106   6.737   9.265 -0.9888  0.7101 -1.0150
13497SOL    HW242105   4.030   6.809   9.374  0.1824 -1.4237  1.3319
13498SOL     OW42106   5.109   0.705   1.272  0.1512 -0.2437 -0.1787
13498SOL    HW142107   5.100   0.691   1.178  0.7262  0.3607 -0.3276
13498SOL    HW242108   5.147   0.623   1.305  0.4967 -0.2388 -0.5610
13499SOL     OW42109   3.320   8.781   2.671 -0.0484 -0.5172 -0.0340
13499SOL    HW142110   3.288   8.739   2.751 -2.9186  0.5614 -0.4909
13499SOL    HW242111   3.405   8.817   2.696  0.0343 -1.9250  1.9296
13500SOL     OW42112   2.967   3.462   2.212  0.4518  0.2890  0.1449
13500SOL    HW142113   2.900   3.451   2.145  0.3959 -0.5043  0.3187
13500SOL    HW242114   2.924   3.440   2.294  1.0120 -0.6395  0.2119
13501SOL     OW42115   6.076   4.226   6.848  0.0920  0.0202  0.3067
13501SOL    HW142116   6.106   4.216   6.938  0.5603  0.8569  0.2596
13501SOL    HW242117   5.984   4.202   6.850 -0.2180  1.1950  1.2695
13502SOL     OW42118   0.482   8.447   8.249 -0.2619  0.2711 -0.0536
13502SOL    HW142119   0.481   8.353   8.230 -0.6550 -0.3364  2.6629
13502SOL    HW242120   0.497   8.488   8.163 -0.5814 -2.2120 -1.3945
13503SOL     OW42121   4.472   4.320   1.949  0.8434  0.0121 -0.3409
13503SOL    HW142122   4.423   4.377   1.891  0.2179  1.1011  1.1969
13503SOL    HW242123   4.563   4.351   1.942  0.9484 -0.4935 -1.4238
13504SOL     OW42124   7.321   8.880   7.416  0.3765 -0.1108  0.6799
13504SOL    HW142125   7.410   8.844   7.418 -0.0045 -1.0770  1.0971
13504SOL    HW242126   7.275   8.824   7.353  0.1397  0.6084  0.1964
13505SOL     OW42127   5.409   2.468   1.115 -0.0711  0.3454  0.0132
13505SOL    HW142128   5.474   2.432   1.176  0.6685  0.9314 -0.4077
13505SOL    HW242129   5.345   2.398   1.105  0.4093 -0.1924  0.5657
13506SOL     OW42130   4.608   3.070   8.653 -0.5526  0.3393 -0.3519
13506SOL    HW142131   4.658   3.106   8.726 -1.2703 -0.2923  0.4743
13506SOL    HW242132   4.517   3.092   8.673 -0.7252  0.4807 -1.2502
13507SOL     OW42133   0.609   1.747   4.404 -0.5796  0.4603 -0.3723
13507SOL    HW142134   0.599   1.824   4.461 -2.0320  0.4825 -0.6041
13507SOL    HW242135   0.696   1.756   4.367  0.1003  0.8891  1.2087
13508SOL     OW42136   6.819   7.615   0.074 -0.0055 -0.2321 -0.0353
13508SOL    HW142137   6.887   7.639   0.010  0.7013  1.3793  1.2460
13508SOL    HW242138   6.775   7.698   0.094 -0.7963 -0.8640  0.9064
13509SOL     OW42139   1.752   8.062   6.374  0.6497  0.4602  0.2993
13509SOL    HW142140   1.758   8.139   6.430 -0.2918  0.6833  0.1179
13509SOL    HW242141   1.766   7.988   6.433 -0.9110  0.6571  0.9642
13510SOL     OW42142   5.820   2.831   8.539  0.4637 -0.3920  0.0632
13510SOL    HW142143   5.815   2.884   8.459 -0.0587 -0.1748  0.2364
13510SOL    HW242144   5.900   2.861   8.582  0.9420 -0.7618 -0.5500
13511SOL     OW42145   2.042   5.388   7.186 -0.2640  0.2902 -0.6170
13511SOL    HW142146   1.975   5.457   7.187 -0.6618 -0.0727  1.0277
13511SOL    HW242147   2.125   5.435   7.184 -0.5484  0.7699 -1.6467
13512SOL     OW42148   3.066   0.040   2.782 -0.1932  0.1355 -0.4921
13512SOL    HW142149   3.151  -0.005   2.776 -0.4085 -0.9609  2.7823
13512SOL    HW242150   3.059   0.067   2.873 -1.9474  3.2916 -1.4149
13513SOL     OW42151   9.130   9.737   6.496  0.2241  0.3037  0.1478
13513SOL    HW142152   9.173   9.677   6.557  2.0251 -1.4244 -2.5707
13513SOL    HW242153   9.185   9.815   6.496  2.1469 -0.9322 -1.4654
13514SOL     OW42154   8.608   8.751   0.715  0.2859 -0.3739 -0.7456
13514SOL    HW142155   8.697   8.754   0.680 -0.3021  0.7412 -2.2582
13514SOL    HW242156   8.609   8.680   0.780  2.1915 -0.5427 -0.9247
13515SOL     OW42157   3.988   7.121   5.873  0.1397 -0.1801 -0.5836
13515SOL    HW142158   3.972   7.026   5.868 -1.4522  0.0761 -0.9828
13515SOL    HW242159   4.083   7.130   5.863  0.3338 -1.7319 -0.4428
13516SOL     OW42160   4.541   9.469   7.107 -0.3662 -0.3029 -0.0374
13516SOL    HW142161   4.538   9.540   7.171  0.2807  0.1837 -0.5330
13516SOL    HW242162   4.577   9.510   7.028  0.2030 -1.2307 -0.2663
13517SOL     OW42163   8.892   0.291   5.917 -0.1884 -0.1246 -0.7223
13517SOL    HW142164   8.821   0.253   5.864 -0.1151 -0.4741 -0.5695
13517SOL    HW242165   8.883   0.385   5.903 -2.0424  0.0222  0.9779
13518SOL     OW42166   9.505   3.223   0.170 -0.0812 -0.4958 -0.1022
13518SOL    HW142167   9.453   3.202   0.248 -1.8072  2.6719 -0.2420
13518SOL    HW242168   9.590   3.250   0.205  0.0172 -1.5137  0.4751
13519SOL     OW42169   4.233   8.360   5.714  0.2041  0.4332 -0.0372
13519SOL    HW142170   4.293   8.369   5.789 -1.2307 -1.6242  1.4768
13519SOL    HW242171   4.146   8.372   5.753 -0.6493 -1.8659 -1.1098
13520SOL     OW42172   4.037   1.570   9.106  0.6923 -0.4655 -0.2237
13520SOL    HW142173   3.998   1.484   9.093  1.1346 -0.3367 -2.8536
13520SOL    HW242174   3.962   1.627   9.127  0.1038 -1.0783 -0.6126
13521SOL     OW42175   0.783   0.940   2.471 -0.4589 -0.4879 -0.6272
13521SOL    HW142176   0.751   0.903   2.554 -0.6212 -3.1069 -1.7664
13521SOL    HW242177   0.878   0.938   2.479 -0.3761 -3.1075 -1.3529
13522SOL     OW42178   0.304   4.322   1.731  0.3526 -0.3300  0.1633
13522SOL    HW142179   0.370   4.296   1.666  0.9495 -0.0084  0.6275
13522SOL    HW242180   0.326   4.412   1.753 -1.5627  0.5515 -1.2576
13523SOL     OW42181   4.648   1.475   9.288  0.0957 -0.0910  0.1967
13523SOL    HW142182   4.605   1.448   9.369  1.3445  2.8051  1.9794
13523SOL    HW242183   4.741   1.482   9.311  1.0264 -2.0529 -2.3813
13524SOL     OW42184   1.549   7.786   6.812 -0.2469 -0.0731  0.0584
13524SOL    HW142185   1.609   7.740   6.870 -1.6388 -2.1634 -0.0613
13524SOL    HW242186   1.513   7.857   6.866 -0.1066 -0.8212  1.1759
13525SOL     OW42187   2.942   9.393   9.071  0.3400 -0.5927 -0.1426
13525SOL    HW142188   3.012   9.388   9.136  0.2926  2.7681  0.3592
13525SOL    HW242189   2.875   9.333   9.104  0.5365  0.5996  2.7312
13526SOL     OW42190   4.536   3.098   0.369  0.0926  0.2237 -0.5074
13526SOL    HW142191   4.467   3.105   0.435  0.7480 -1.3685  0.4043
13526SOL    HW242192   4.519   3.014   0.326  1.6882 -0.3899  0.0140
13527SOL     OW42193   9.501   0.139   9.530 -0.0863 -0.2378 -0.2988
13527SOL    HW142194   9.487   0.077   9.602  0.4420  0.9362  0.8492
13527SOL    HW242195   9.536   0.085   9.459  1.3430 -1.1350  1.0044
13528SOL     OW42196   6.337   5.130   5.735 -0.1155  0.0807 -0.2624
13528SOL    HW142197   6.277   5.072   5.781  1.2768  0.4281  2.1697
13528SOL    HW242198   6.301   5.218   5.748  0.6347  0.2466  0.8289
13529SOL     OW42199   7.679   6.609   8.721 -0.3476  0.1992 -0.0480
13529SOL    HW142200   7.653   6.517   8.712 -0.8611 -0.0394  3.0318
13529SOL    HW242201   7.769   6.605   8.753 -0.4600  0.7689  0.3397
13530SOL     OW42202   6.971   4.399   3.871 -0.5039  0.1912  0.0103
13530SOL    HW142203   6.902   4.457   3.905  0.6255  1.0578  0.8906
13530SOL    HW242204   6.992   4.341   3.943 -1.1114 -0.8710 -0.6399
13531SOL     OW42205   3.213   6.228   7.405  0.2798  0.2668  0.4380
13531SOL    HW142206   3.167   6.310   7.426 -0.2175  0.2250 -0.4141
13531SOL    HW242207   3.306   6.252   7.407  0.2132  0.4771  1.6807
13532SOL     OW42208   2.884   9.569   8.814  0.1671 -0.1642 -0.5148
13532SOL    HW142209   2.919   9.555   8.902  0.3012  0.8453 -0.4016
13532SOL    HW242210   2.793   9.596   8.828 -0.2405 -1.3582 -0.7525
13533SOL     OW42211   0.300   1.784   1.049  0.1837 -0.2765  0.3752
13533SOL    HW142212   0.394   1.789   1.035  0.5195  0.3771  2.4938
13533SOL    HW242213   0.262   1.786   0.961  2.1761 -2.1791 -0.5972
13534SOL     OW42214   0.302   1.776   4.385  0.3256 -0.4657  0.0179
13534SOL    HW142215   0.369   1.728   4.335 -1.0174 -1.1502 -1.2008
13534SOL    HW242216   0.352   1.822   4.453  2.4475  1.5005 -2.6117
13535SOL     OW42217   6.397   4.137   4.851 -0.0576  0.1583  0.2256
13535SOL    HW142218   6.387   4.042   4.859  1.3082 -0.0551 -0.4043
13535SOL    HW242219   6.313   4.166   4.815 -0.8941 -0.6454  1.4547
13536SOL     OW42220   6.836   3.498   2.267  0.1207 -0.2629  0.1038
13536SOL    HW142221   6.812   3.519   2.357 -0.9099  1.6952 -0.5503
13536SOL    HW242222   6.932   3.496   2.267  0.1359 -2.3628  1.6118
13537SOL     OW42223   2.717   6.654   7.158 -0.0933 -0.6470 -0.8302
13537SOL    HW142224   2.756   6.707   7.088  0.0589  1.8396  0.9884
13537SOL    HW242225   2.630   6.693   7.170 -0.2165 -1.2132  0.1670
13538SOL     OW42226   2.256   0.334   2.011 -0.5858 -0.0630  0.0069
13538SOL    HW142227   2.259   0.253   1.960 -0.1497  0.2012 -0.3839
13538SOL    HW242228   2.181   0.322   2.070 -0.9218 -0.4776 -0.5022
13539SOL     OW42229   7.134   8.479   6.829  0.1597  0.6618 -0.3672
13539SOL    HW142230   7.128   8.439   6.742 -0.6028  1.1039 -0.5287
13539SOL    HW242231   7.177   8.413   6.882  0.8008  0.4556 -1.1241
13540SOL     OW42232   3.417   4.977   5.605 -0.1233  0.2400  0.2021
13540SOL    HW142233   3.454   5.014   5.525  0.4489 -2.6060 -0.9905
13540SOL    HW242234   3.420   4.882   5.591 -1.3241 -0.3277  3.0417
13541SOL     OW42235   9.598   1.275   7.711  0.3087 -0.1582 -0.8005
13541SOL    HW142236   9.603   1.257   7.805  1.2909  0.8254 -0.6464
13541SOL    HW242237   9.515   1.236   7.684 -0.7255  0.8086  0.7712
13542SOL     OW42238   7.356   3.267   2.236  0.2586 -0.1262  0.5495
13542SOL    HW142239   7.309   3.272   2.152  0.9774  2.3390  0.2090
13542SOL    HW242240   7.291   3.237   2.298 -1.0892  0.6843 -0.4097
13543SOL     OW42241   9.697   2.735   5.677  0.2002  0.1272  0.9133
13543SOL    HW142242   9.700   2.669   5.747 -0.4065  1.4983  2.2916
13543SOL    HW242243   9.789   2.753   5.658  0.3807 -1.3097  0.2861
13544SOL     OW42244   7.684   0.821   4.044 -0.5497 -0.2099 -0.2176
13544SOL    HW142245   7.690   0.726   4.060 -1.7444 -0.5143 -1.3251
13544SOL    HW242246   7.707   0.831   3.951  3.7385  1.1689  0.7995
13545SOL     OW42247   7.150   4.757   2.126 -0.1224  0.3942 -0.4852
13545SOL    HW142248   7.088   4.828   2.144 -0.8059 -0.7691  2.2863
13545SOL    HW242249   7.229   4.782   2.174  0.5278  0.4033 -1.5223
13546SOL     OW42250   1.275   6.436   3.104  0.0623 -0.3012  0.0928
13546SOL    HW142251   1.186   6.453   3.137 -0.3226  0.4931 -1.2693
13546SOL    HW242252   1.330   6.438   3.182 -0.5775  3.1348  0.6041
13547SOL     OW42253   7.731   4.304   3.744  0.7570 -0.8866 -0.3104
13547SOL    HW142254   7.787   4.256   3.805 -0.2386  0.0387  1.4162
13547SOL    HW242255   7.749   4.396   3.762  1.1020 -0.5648 -2.1047
13548SOL     OW42256   4.994   0.093   4.155 -0.0134  0.6405  0.1449
13548SOL    HW142257   4.922   0.155   4.168  0.9863  2.7152 -2.9605
13548SOL    HW242258   5.059   0.117   4.222 -1.4510 -0.1706  1.9007
13549SOL     OW42259   1.536   5.318   1.668  0.2346 -0.4603 -0.0357
13549SOL    HW142260   1.524   5.259   1.742  1.0637  1.8662  2.0821
13549SOL    HW242261   1.492   5.399   1.694  0.6360  0.4736 -2.0481
13550SOL     OW42262   2.276   3.330   7.024  0.0308  0.1672  0.2749
13550SOL    HW142263   2.351   3.366   7.073 -0.0436 -0.8152  1.1297
13550SOL    HW242264   2.316   3.282   6.952  0.1676  0.8362 -0.1081
13551SOL     OW42265   6.930   9.030   1.837 -0.1718  0.3038  0.0025
13551SOL    HW142266   7.002   8.980   1.798  0.7179  0.9430  0.7729
13551SOL    HW242267   6.924   9.109   1.783  0.5487  0.8295  0.6675
13552SOL     OW42268   9.798   8.940   0.749  0.0275 -0.4091 -0.1133
13552SOL    HW142269   9.864   8.998   0.788  0.8792 -0.3190 -1.6246
13552SOL    HW242270   9.843   8.898   0.676 -1.3595 -0.9824 -0.6693
13553SOL     OW42271   1.570   5.962   6.834  0.0014  0.1749  0.1184
13553SOL    HW142272   1.572   5.974   6.739  0.2455  0.7613  0.1931
13553SOL    HW242273   1.662   5.960   6.860 -0.0246  2.4569  0.6159
13554SOL     OW42274   1.427   0.041   1.212  0.0386 -0.4687  0.2289
13554SOL    HW142275   1.501   0.012   1.265 -0.0454  0.5269  0.9152
13554SOL    HW242276   1.447   0.131   1.189 -0.2489 -0.6741 -0.8902
13555SOL     OW42277   5.760   3.782   1.357  0.0922  0.0725  0.5151
13555SOL    HW142278   5.778   3.730   1.435  0.5674 -0.4187  0.0942
13555SOL    HW242279   5.806   3.735   1.287 -1.5930 -0.3792 -0.3452
13556SOL     OW42280   7.417   6.731   6.537 -0.0927 -0.1283 -0.3148
13556SOL    HW142281   7.335   6.781   6.533 -0.0754 -0.1564 -1.4697
13556SOL    HW242282   7.458   6.758   6.619 -1.2551 -0.1107  0.2805
13557SOL     OW42283   2.557   6.697   4.368 -0.2925 -0.1491 -0.6924
13557SOL    HW142284   2.548   6.603   4.384  0.5184 -0.2451 -0.7470
13557SOL    HW242285   2.585   6.733   4.453  2.5033 -0.4345 -1.3995
13558SOL     OW42286   8.389   5.547   6.718 -0.5080 -0.0330  0.5892
13558SOL    HW142287   8.370   5.459   6.750 -3.0883 -0.4874 -1.8023
13558SOL    HW242288   8.467   5.537   6.664 -0.3663 -0.7072  0.9123
13559SOL     OW42289   3.305   7.854   5.187  0.1617 -1.1251 -0.2349
13559SOL    HW142290   3.347   7.847   5.101  1.0254  1.2361 -0.0833
13559SOL    HW242291   3.342   7.781   5.237  1.7330 -0.9566 -1.0601
13560SOL     OW42292   9.714   9.550   9.113 -0.3853  0.2774  0.2227
13560SOL    HW142293   9.681   9.552   9.202 -1.8405  0.4926 -0.3003
13560SOL    HW242294   9.783   9.616   9.111 -2.4321  2.5604  0.4291
13561SOL     OW42295   3.938   7.754   2.494  0.1158 -0.6140 -0.5127
13561SOL    HW142296   3.988   7.709   2.562  0.0439  0.6604  0.4167
13561SOL    HW242297   4.004   7.800   2.442  0.0321 -0.2435 -0.2880
13562SOL     OW42298   0.897   2.727   5.556 -0.3702 -0.5874  0.6017
13562SOL    HW142299   0.853   2.772   5.484 -1.5598  0.0418  1.6737
13562SOL    HW242300   0.828   2.713   5.621  0.8950 -0.0784  2.1096
13563SOL     OW42301   5.825   9.452   4.582 -0.3735 -0.4502  0.5955
13563SOL    HW142302   5.781   9.532   4.550  0.5166  0.1993  0.9672
13563SOL    HW242303   5.854   9.475   4.670  0.6366 -0.9005  0.3823
13564SOL     OW42304   9.015   3.667   9.708  0.3489 -0.2969 -0.6787
13564SOL    HW142305   9.061   3.598   9.661 -0.4246 -1.2722 -0.0350
13564SOL    HW242306   8.922   3.645   9.698  0.1595 -1.0264  1.9662
13565SOL     OW42307   4.380   8.296   3.300  0.4447 -0.2418  0.0871
13565SOL    HW142308   4.317   8.366   3.284  0.8919  0.0722 -0.3645
13565SOL    HW242309   4.329   8.225   3.338 -0.5714 -0.7021 -1.9779
13566SOL     OW42310   3.656   0.567   3.016 -0.3917  0.2208 -0.4884
13566SOL    HW142311   3.715   0.535   3.085 -0.8521  0.2768 -0.0654
13566SOL    HW242312   3.622   0.649   3.050 -1.3044 -0.1882 -0.3966
13567SOL     OW42313   1.462   6.340   5.177 -0.8268 -0.3135  0.6731
13567SOL    HW142314   1.386   6.380   5.135 -0.7819 -0.1826  0.7136
13567SOL    HW242315   1.474   6.391   5.257 -0.0696  0.3365  0.1597
13568SOL     OW42316   5.018   4.640   9.145  0.1951 -0.2508 -0.1441
13568SOL    HW142317   4.929   4.676   9.149 -0.7278 -2.4199  0.2003
13568SOL    HW242318   5.041   4.623   9.236  1.2507  0.8151 -0.1773
13569SOL     OW42319   8.947   3.241   7.874 -0.3336 -0.5538 -0.6297
13569SOL    HW142320   8.863   3.287   7.877 -1.5227 -2.5613 -0.9665
13569SOL    HW242321   8.934   3.163   7.928  1.5502 -0.5870 -0.1581
13570SOL     OW42322   2.332   0.214   5.356 -0.1282 -0.7326  0.3265
13570SOL    HW142323   2.258   0.231   5.297  1.1674 -0.6699 -1.3848
13570SOL    HW242324   2.337   0.291   5.412  1.1768  1.4098 -2.4241
13571SOL     OW42325   9.667   9.401   2.429  0.4656 -0.1887  0.0198
13571SOL    HW142326   9.727   9.379   2.358  1.2655 -1.7467  1.1399
13571SOL    HW242327   9.720   9.452   2.490  0.2126 -0.1981  0.2490
13572SOL     OW42328   0.661   5.769   8.474 -0.5335  0.1247  0.5150
13572SOL    HW142329   0.598   5.700   8.496 -0.7646  0.6873  1.6740
13572SOL    HW242330   0.746   5.735   8.504 -0.3766 -0.3411 -0.4216
13573SOL     OW42331   5.613   5.621   4.696  0.4788  0.8589  0.1911
13573SOL    HW142332   5.658   5.540   4.670 -0.5602 -0.0119  0.9855
13573SOL    HW242333   5.560   5.644   4.620 -0.4305 -0.1222  0.4962
13574SOL     OW42334   6.264   0.628   6.045  0.4861  0.1360  0.7690
13574SOL    HW142335   6.291   0.710   6.087 -0.0281 -0.0532  1.4926
13574SOL    HW242336   6.169   0.634   6.040  0.3624 -0.7713  1.6233
13575SOL     OW42337   0.116   2.829   5.631 -0.3872 -0.4137 -0.5231
13575SOL    HW142338   0.118   2.884   5.709  0.6523 -0.7859 -0.2614
13575SOL    HW242339   0.161   2.881   5.564  0.0688 -0.6974 -0.4419
13576SOL     OW42340   9.048   4.190   5.030  0.2335 -0.5139 -0.0777
13576SOL    HW142341   9.013   4.279   5.031  1.8999  0.2044 -0.8857
13576SOL    HW242342   9.007   4.148   4.955  0.9643  0.2614 -0.9299
13577SOL     OW42343   2.450   2.682   5.965 -0.4124 -0.0304 -0.4844
13577SOL    HW142344   2.373   2.665   6.019 -0.9463  1.4951 -0.6982
13577SOL    HW242345   2.464   2.777   5.973  1.3629 -0.2351 -0.5750
13578SOL     OW42346   7.776   8.457   1.155 -0.2431 -0.0152 -0.0534
13578SOL    HW142347   7.721   8.405   1.214  0.3518  0.1795  0.6777
13578SOL    HW242348   7.737   8.442   1.068  0.3033 -2.2283  0.0095
13579SOL     OW42349   0.367   3.770   5.878 -0.4030 -0.2730 -0.2973
13579SOL    HW142350   0.322   3.810   5.803 -1.3331 -0.9602 -0.1219
13579SOL    HW242351   0.329   3.813   5.955  0.3314  0.2128 -0.1958
13580SOL     OW42352   2.888   5.616   1.976  0.0944 -0.2991 -0.2003
13580SOL    HW142353   2.899   5.592   2.068 -1.9617 -0.8220 -0.0321
13580SOL    HW242354   2.810   5.672   1.976  0.8866  0.8302 -1.4635
13581SOL     OW42355   5.922   8.294   9.048 -0.6848  0.3143 -0.2892
13581SOL    HW142356   5.870   8.290   9.128 -0.0554  2.3537  0.2922
13581SOL    HW242357   5.945   8.203   9.030 -0.3019 -0.1602  2.2212
13582SOL     OW42358   4.010   3.887   7.112  0.6502 -0.3023  0.8954
13582SOL    HW142359   4.053   3.936   7.182  3.3961  1.3085 -1.6951
13582SOL    HW242360   4.067   3.812   7.097 -0.8859 -1.6561  1.5065
13583SOL     OW42361   6.094   5.604   4.886 -0.3508 -0.6245  0.4503
13583SOL    HW142362   6.027   5.657   4.842 -1.6971 -0.6576  2.3497
13583SOL    HW242363   6.128   5.547   4.817 -1.4873  0.1647 -0.8189
13584SOL     OW42364   1.252   8.048   6.377 -0.1506 -0.1623 -0.1191
13584SOL    HW142365   1.336   8.017   6.411  1.0283  2.3386 -0.5332
13584SOL    HW242366   1.267   8.062   6.284 -1.1113  0.0544 -0.2553
13585SOL     OW42367   0.101   6.709   7.734 -0.2930  0.4271 -0.1986
13585SOL    HW142368   0.033   6.703   7.801  0.2724  2.1652  0.5883
13585SOL    HW242369   0.081   6.791   7.688 -0.8431 -0.8585 -2.4089
13586SOL     OW42370   2.456   3.644   7.194 -0.1493 -0.6944 -0.4429
13586SOL    HW142371   2.480   3.578   7.128 -0.7711 -0.9260 -0.4427
13586SOL    HW242372   2.457   3.596   7.277 -2.6898 -1.2915 -0.6607
13587SOL     OW42373   1.834   8.466   4.369  0.3362  0.0964 -0.0052
13587SOL    HW142374   1.757   8.427   4.411  1.3853  0.8460  2.8910
13587SOL    HW242375   1.801   8.545   4.327 -0.6310 -0.0768  0.3980
13588SOL     OW42376   6.769   2.176   7.333  0.2192 -0.3480  0.2183
13588SOL    HW142377   6.843   2.117   7.348  1.5623  0.7483 -1.6428
13588SOL    HW242378   6.809   2.262   7.321 -1.7012  1.2840  3.7371
13589SOL     OW42379   9.257   1.897   4.658  0.0119 -0.5893  0.3053
13589SOL    HW142380   9.165   1.921   4.661  0.1098 -0.2271  0.3908
13589SOL    HW242381   9.302   1.975   4.627  0.1081 -1.2700 -1.3932
13590SOL     OW42382   4.463   3.911   1.511  0.2532 -0.1519 -0.2056
13590SOL    HW142383   4.536   3.971   1.499 -0.4439  0.7595  0.0072
13590SOL    HW242384   4.474   3.876   1.600 -0.2281  0.9167  0.2892
13591SOL     OW42385   1.357   1.349   7.496 -0.5058  0.1057 -0.6498
13591SOL    HW142386   1.412   1.365   7.419 -0.6963  3.6433 -0.1986
13591SOL    HW242387   1.267   1.361   7.463 -0.7026 -0.2402 -0.2469
13592SOL     OW42388   3.342   6.614   1.978 -0.4494  0.3316 -0.3501
13592SOL    HW142389   3.394   6.598   2.057  0.0016  1.5685 -0.3789
13592SOL    HW242390   3.283   6.538   1.973  1.5156 -1.2859 -0.4812
13593SOL     OW42391   7.301   2.008   2.555 -0.0190 -0.0768 -0.5406
13593SOL    HW142392   7.372   1.945   2.556 -2.3554 -2.9052 -0.9065
13593SOL    HW242393   7.270   2.009   2.465 -0.8201  0.6691 -0.2732
13594SOL     OW42394   5.258   2.760   4.756  0.2154  0.2796 -0.6471
13594SOL    HW142395   5.349   2.776   4.733  1.3901 -2.4288  1.4201
13594SOL    HW242396   5.252   2.784   4.849 -2.0830  3.2242 -1.4152
13595SOL     OW42397   8.802   3.140   4.577 -0.9915  0.1773 -0.6442
13595SOL    HW142398   8.787   3.197   4.653 -3.1297  0.4916 -1.2376
13595SOL    HW242399   8.848   3.064   4.613 -0.5137  1.0453  0.6556
13596SOL     OW42400   0.358   8.059   7.475 -0.1922  0.0584  0.4700
13596SOL    HW142401   0.268   8.028   7.479  0.4615 -1.8604  1.1498
13596SOL    HW242402   0.377   8.066   7.381 -1.7060  2.7283  0.2483
13597SOL     OW42403   6.125   8.125   3.843  0.4318 -0.2537 -0.3701
13597SOL    HW142404   6.197   8.112   3.905 -0.4075 -1.6896  0.3554
13597SOL    HW242405   6.051   8.079   3.882 -0.4195 -0.3052 -1.9480
13598SOL     OW42406   3.045   5.277   4.904  0.0083  0.1044 -0.1097
13598SOL    HW142407   3.084   5.281   4.817  0.0109  2.0657 -0.0722
13598SOL    HW242408   3.069   5.191   4.938  2.5857  0.4677 -0.8525
13599SOL     OW42409   5.999   8.952   2.953  0.4720 -0.2889 -0.1809
13599SOL    HW142410   5.976   8.976   3.043 -1.3385  0.5637 -0.8057
13599SOL    HW242411   6.043   9.030   2.919 -1.9265  0.8150 -1.0162
13600SOL     OW42412   0.754   3.143   3.291 -0.3925  0.0625 -0.1006
13600SOL    HW142413   0.820   3.106   3.350 -0.6866 -1.0108 -0.4224
13600SOL    HW242414   0.701   3.199   3.347 -0.0990 -0.2088  0.4597
13601SOL     OW42415   4.999   8.897   5.611  0.7436 -0.2966  0.2556
13601SOL    HW142416   5.030   8.947   5.535  0.0316 -0.5483 -0.2095
13601SOL    HW242417   5.079   8.861   5.650  1.0433 -1.1527 -1.0704
13602SOL     OW42418   8.900   0.729   2.244 -0.6455 -0.2474  0.2004
13602SOL    HW142419   8.964   0.800   2.238 -0.2473 -0.4777  1.4314
13602SOL    HW242420   8.930   0.664   2.180  0.3749 -0.3615  0.7777
13603SOL     OW42421   4.370   9.702   5.263  0.7663 -0.0718  0.0724
13603SOL    HW142422   4.410   9.788   5.278  1.0819 -0.2827  0.4305
13603SOL    HW242423   4.303   9.719   5.196  1.7499  0.1871 -0.8577
13604SOL     OW42424   6.467   2.632   5.069  0.2962  0.1936 -0.6974
13604SOL    HW142425   6.501   2.612   4.982 -1.7312 -0.9118 -1.3206
13604SOL    HW242426   6.376   2.657   5.054 -0.6708 -1.7966  1.1930
13605SOL     OW42427   9.390   7.235   1.002 -0.5162  0.5811  0.4203
13605SOL    HW142428   9.365   7.229   1.094  0.2676 -0.0682  0.6079
13605SOL    HW242429   9.455   7.165   0.990  0.6700  1.7471 -0.2010
13606SOL     OW42430   4.767   3.695   1.137  0.3096  0.0254 -0.0946
13606SOL    HW142431   4.823   3.673   1.062 -1.1454  0.3205 -1.3249
13606SOL    HW242432   4.677   3.685   1.103 -0.3925  2.0328  1.0441
13607SOL     OW42433   9.023   4.763   6.957 -0.3164 -0.4491  0.5063
13607SOL    HW142434   8.937   4.727   6.936 -0.5092  0.0911  0.3389
13607SOL    HW242435   9.084   4.691   6.944 -0.6302 -0.5637 -0.3488
13608SOL     OW42436   7.747   4.718   6.580  0.1384 -0.0724  0.8058
13608SOL    HW142437   7.752   4.764   6.665 -3.3898  0.3466  0.9162
13608SOL    HW242438   7.693   4.642   6.597  3.2091 -2.7168 -0.1598
13609SOL     OW42439   4.474   1.747   5.419  0.5501 -0.7096 -0.7003
13609SOL    HW142440   4.430   1.664   5.441  0.2454 -0.4388 -0.2821
13609SOL    HW242441   4.433   1.774   5.337 -4.1517  2.3122  2.1593
13610SOL     OW42442   1.641   7.304   6.300  0.0114  0.4351  0.4044
13610SOL    HW142443   1.614   7.296   6.392  0.5628 -1.8130  0.4323
13610SOL    HW242444   1.560   7.327   6.254 -0.1404  2.2946  1.4987
13611SOL     OW42445   9.678   5.780   7.158  0.2369  0.1166 -0.8063
13611SOL    HW142446   9.643   5.867   7.139 -1.5703 -0.4884 -0.4309
13611SOL    HW242447   9.753   5.797   7.214 -0.0604  1.4360 -0.7583
13612SOL     OW42448   7.433   8.349   7.363  0.9518  0.3100 -0.0008
13612SOL    HW142449   7.498   8.348   7.434  0.8277  0.1361  0.1104
13612SOL    HW242450   7.362   8.404   7.396  0.7723  0.0080  0.1185
13613SOL     OW42451   5.380   5.686   2.023 -0.0472 -0.0072  0.5545
13613SOL    HW142452   5.412   5.718   1.938 -0.0148  2.5406  1.4349
13613SOL    HW242453   5.459   5.680   2.077 -0.2825  0.1502  0.9170
13614SOL     OW42454   3.860   5.187   3.933  0.7071 -0.1249 -0.0946
13614SOL    HW142455   3.950   5.157   3.917  0.9386  0.2248  0.5067
13614SOL    HW242456   3.811   5.107   3.951  0.6822 -0.4132 -1.3735
13615SOL     OW42457   1.312   0.262   4.780 -0.3999 -0.2066 -0.1820
13615SOL    HW142458   1.388   0.224   4.736  1.2130 -0.7163  2.8041
13615SOL    HW242459   1.317   0.356   4.760 -1.0339 -0.6413 -2.7586
13616SOL     OW42460   6.017   3.951   5.125  0.1408 -0.2863 -0.2425
13616SOL    HW142461   5.973   3.884   5.177 -1.0320  1.3976  1.0144
13616SOL    HW242462   6.098   3.968   5.173  0.1773 -0.4075 -0.2605
13617SOL     OW42463   9.145   7.746   2.850 -0.0405  0.0536 -0.1925
13617SOL    HW142464   9.182   7.764   2.764  1.2628 -2.5941 -0.2956
13617SOL    HW242465   9.196   7.801   2.910  0.7851  0.0123 -0.8432
13618SOL     OW42466   4.994   7.157   0.473  0.2799  0.5807  0.5159
13618SOL    HW142467   4.944   7.204   0.541 -0.0252  0.6220  0.2664
13618SOL    HW242468   5.070   7.123   0.519  0.2381  0.8809  0.8141
13619SOL     OW42469   4.870   2.476   9.332  0.0912 -0.2430  0.8007
13619SOL    HW142470   4.904   2.447   9.247  0.7437  4.1836 -0.7006
13619SOL    HW242471   4.775   2.470   9.324  0.1403  0.3039 -0.3863
13620SOL     OW42472   9.517   4.864   1.122  0.0738  0.3647 -0.4383
13620SOL    HW142473   9.518   4.910   1.038  0.7681 -0.2047 -0.7589
13620SOL    HW242474   9.476   4.925   1.183  2.9226  2.3535 -0.3149
13621SOL     OW42475   1.837   2.024   3.187  0.4157 -0.0497 -0.3009
13621SOL    HW142476   1.928   1.996   3.188  1.1166  2.0987 -0.5550
13621SOL    HW242477   1.833   2.093   3.122 -1.2161  0.4874  0.3099
13622SOL     OW42478   6.649   4.638   7.327  0.9042 -0.0813 -0.1870
13622SOL    HW142479   6.654   4.721   7.280 -1.7409  0.6318  0.6243
13622SOL    HW242480   6.619   4.575   7.261  2.2246 -0.2967 -0.6248
13623SOL     OW42481   0.401   4.415   7.985  1.0867  0.1556  0.1132
13623SOL    HW142482   0.446   4.499   7.998  0.4118  0.4665  0.5004
13623SOL    HW242483   0.471   4.350   7.992  1.5792  0.6667  0.0918
13624SOL     OW42484   7.158   3.624   6.823  0.0278 -0.6356  0.5575
13624SOL    HW142485   7.191   3.678   6.895  0.2313 -0.3017  0.2167
13624SOL    HW242486   7.237   3.592   6.779 -0.0982 -0.1972  0.0068
13625SOL     OW42487   2.415   9.719   6.756 -0.0184 -0.4784  0.3768
13625SOL    HW142488   2.446   9.782   6.691  1.5088 -0.8023  0.7556
13625SOL    HW242489   2.480   9.723   6.826 -0.3911 -1.8068  0.8262
13626SOL     OW42490   0.365   4.288   8.244 -0.2620 -0.1684 -0.4190
13626SOL    HW142491   0.275   4.310   8.268 -1.2282 -1.8759 -2.2275
13626SOL    HW242492   0.379   4.332   8.160  0.6159  0.0756 -0.1583
13627SOL     OW42493   2.536   8.826   9.272  0.1008  0.1076 -0.2115
13627SOL    HW142494   2.576   8.779   9.199  2.5781  0.8601  0.5636
13627SOL    HW242495   2.561   8.776   9.349 -1.8015 -0.2236  0.2262
13628SOL     OW42496   2.654   7.830   5.350 -0.4664  0.0891  0.0432
13628SOL    HW142497   2.741   7.810   5.385 -1.1236  0.2710  1.8686
13628SOL    HW242498   2.672   7.880   5.270  1.1006 -0.7093 -0.1505
13629SOL     OW42499   3.180   0.987   3.610  0.4735  0.0675  0.1856
13629SOL    HW142500   3.159   0.958   3.521  0.5912 -0.1412  0.2255
13629SOL    HW242501   3.126   1.065   3.623  1.4638  0.9099 -0.5840
13630SOL     OW42502   9.439   3.966   8.957 -0.1036  0.3260 -0.2425
13630SOL    HW142503   9.419   3.898   8.893 -0.1719 -0.1805  0.3082
13630SOL    HW242504   9.427   3.924   9.042  0.1778  0.9322  0.1078
13631SOL     OW42505   6.342   4.045   1.203 -0.1130 -0.5303  0.1828
13631SOL    HW142506   6.384   4.131   1.202  1.0059 -0.9826  1.9980
13631SOL    HW242507   6.270   4.054   1.265 -1.4424 -0.3311 -1.3372
13632SOL     OW42508   1.103   3.929   3.635  0.1009 -0.7177 -0.4471
13632SOL    HW142509   1.120   3.902   3.725 -0.3782 -0.1219 -0.1744
13632SOL    HW242510   1.039   3.865   3.603  0.3905 -1.0226 -0.4143
13633SOL     OW42511   5.229   6.614   0.727  0.2191 -0.2859  0.1174
13633SOL    HW142512   5.223   6.540   0.787  2.2644  0.5170  1.4337
13633SOL    HW242513   5.318   6.648   0.740 -0.2780  1.7210 -1.2622
13634SOL     OW42514   7.652   7.609   1.568 -0.4890 -0.0742  0.3250
13634SOL    HW142515   7.698   7.541   1.519 -0.4517 -1.1259  1.7626
13634SOL    HW242516   7.648   7.683   1.507  2.6217 -0.0936 -0.1070
13635SOL     OW42517   9.046   6.872   7.414  0.6978 -0.3784 -0.3078
13635SOL    HW142518   8.992   6.890   7.491  1.8031 -0.7812  0.5918
13635SOL    HW242519   8.996   6.908   7.341  0.5143  1.8751  0.8128
13636SOL     OW42520   2.377   2.817   2.126  0.0613  0.2918  0.4293
13636SOL    HW142521   2.457   2.778   2.093 -0.5424 -0.9318  0.3561
13636SOL    HW242522   2.306   2.764   2.089 -0.7499  0.8551  1.1123
13637SOL     OW42523   8.172   5.396   7.000  0.3682 -0.0159 -0.0516
13637SOL    HW142524   8.086   5.354   7.000  0.1957  0.3280  0.1754
13637SOL    HW242525   8.229   5.335   6.954 -0.2405  0.2565 -1.1898
13638SOL     OW42526   6.881   7.122   2.739  0.0030 -0.2327 -0.2501
13638SOL    HW142527   6.831   7.045   2.766 -0.2700 -0.3704 -1.1201
13638SOL    HW242528   6.972   7.094   2.742  0.1526  0.3094  2.2960
13639SOL     OW42529   7.972   5.181   8.349 -0.4691  0.2709  0.5886
13639SOL    HW142530   7.996   5.164   8.440 -1.2966  0.6335  0.8790
13639SOL    HW242531   7.989   5.098   8.304  0.8424  0.3563  0.8672
13640SOL     OW42532   5.276   0.413   2.634  0.5497 -0.1055 -0.2255
13640SOL    HW142533   5.193   0.441   2.597  0.1597 -1.3632 -0.3572
13640SOL    HW242534   5.254   0.380   2.721  0.9919  0.0213 -0.0616
13641SOL     OW42535   6.016   1.551   2.142  0.8167 -0.0820 -0.2139
13641SOL    HW142536   5.930   1.584   2.116  0.0344 -1.6838  0.2046
13641SOL    HW242537   6.014   1.554   2.238  1.5869  0.7194 -0.2164
13642SOL     OW42538   1.198   1.520   7.874  0.2369  0.4238  0.3119
13642SOL    HW142539   1.127   1.460   7.851  0.0268  0.2680  1.3333
13642SOL    HW242540   1.242   1.537   7.791 -1.0159  0.5572 -0.3572
13643SOL     OW42541   1.635   3.024   3.860 -0.4859 -0.4920 -0.1219
13643SOL    HW142542   1.722   3.008   3.824 -0.5993 -1.8276  0.1667
13643SOL    HW242543   1.605   3.103   3.815  1.9472  1.6405  1.7043
13644SOL     OW42544   5.920   5.274   1.840 -0.1450  0.2318  0.0487
13644SOL    HW142545   6.003   5.249   1.799  0.1335 -1.1935  1.3862
13644SOL    HW242546   5.855   5.216   1.800  0.0795 -0.9546  1.3503
13645SOL     OW42547   9.698   8.595   3.307  0.2809  0.2693  0.1542
13645SOL    HW142548   9.625   8.585   3.367  0.3244  0.3829  0.2276
13645SOL    HW242549   9.725   8.506   3.285  0.9053  0.2124  1.0854
13646SOL     OW42550   8.793   2.814   9.040 -0.9399 -0.1836  0.0485
13646SOL    HW142551   8.732   2.886   9.024 -1.8637 -1.1773 -1.1372
13646SOL    HW242552   8.802   2.771   8.955  2.8920  0.9575 -0.2941
13647SOL     OW42553   3.407   5.702   0.790  0.8065  0.4784  0.7979
13647SOL    HW142554   3.395   5.781   0.843 -0.2808  0.9559 -0.1088
13647SOL    HW242555   3.342   5.640   0.824  0.0695  0.8041  0.0367
13648SOL     OW42556   7.099   3.257   6.816  0.4925 -0.2861 -0.1854
13648SOL    HW142557   7.121   3.283   6.726  2.9529  0.4710  0.5613
13648SOL    HW242558   7.142   3.172   6.827  0.2004 -0.3750  0.2828
13649SOL     OW42559   4.077   7.224   2.110  0.2112  0.2475  0.1096
13649SOL    HW142560   3.996   7.254   2.070 -1.2469 -2.0663  1.1551
13649SOL    HW242561   4.061   7.133   2.134  3.8316 -1.0040 -1.4783
13650SOL     OW42562   5.669   6.394   5.256  0.7318  0.3461 -0.0873
13650SOL    HW142563   5.682   6.348   5.339  2.2601  0.2439 -0.3535
13650SOL    HW242564   5.587   6.358   5.221  0.2313  0.1729  1.2254
13651SOL     OW42565   1.971   7.584   4.693 -0.0127 -0.3482  0.5540
13651SOL    HW142566   1.992   7.514   4.755 -2.8960 -1.1083  0.7810
13651SOL    HW242567   2.003   7.664   4.736  2.0384 -1.3180  0.9390
13652SOL     OW42568   1.291   8.371   2.862  0.4369 -0.4231  0.4701
13652SOL    HW142569   1.365   8.409   2.909  0.5886  0.5310 -0.5074
13652SOL    HW242570   1.223   8.361   2.929  0.5713  1.1182  0.8729
13653SOL     OW42571   1.479   8.711   7.545  0.8497 -0.7402  0.4435
13653SOL    HW142572   1.435   8.705   7.460 -0.6383  1.5963  0.9259
13653SOL    HW242573   1.409   8.695   7.609  0.2526  3.7061  1.2600
13654SOL     OW42574   3.805   3.436   4.492 -0.0620  0.4276  0.0125
13654SOL    HW142575   3.715   3.465   4.479 -0.1639 -0.5418 -1.7602
13654SOL    HW242576   3.848   3.451   4.408  1.2848  0.3546  0.6565
13655SOL     OW42577   6.893   0.081   3.892 -0.1535 -0.1317 -0.3274
13655SOL    HW142578   6.984   0.062   3.869  0.5753  1.1717  1.2571
13655SOL    HW242579   6.882   0.174   3.870 -0.6385  0.0984  0.8395
13656SOL     OW42580   5.880   7.804   7.814 -0.0828  0.1844 -0.3372
13656SOL    HW142581   5.908   7.714   7.800 -0.1556  0.3345 -1.5762
13656SOL    HW242582   5.854   7.807   7.906 -1.5471 -1.4552 -0.6432
13657SOL     OW42583   5.622   9.268   4.071 -0.2290 -0.6876  0.0864
13657SOL    HW142584   5.552   9.329   4.098  1.3912  0.5212  1.8600
13657SOL    HW242585   5.611   9.260   3.976 -1.1295  1.6288 -0.0923
13658SOL     OW42586   7.772   3.468   4.539  0.3717 -0.2382  0.1424
13658SOL    HW142587   7.782   3.382   4.579 -0.1806 -0.2457  0.2728
13658SOL    HW242588   7.859   3.489   4.505  0.1372 -1.6153 -1.4620
13659SOL     OW42589   6.393   7.044   3.725 -0.1880 -0.3272 -0.5156
13659SOL    HW142590   6.479   7.078   3.752 -1.5474  1.9542  1.3808
13659SOL    HW242591   6.382   6.964   3.776  0.7681 -0.6039 -0.7213
13660SOL     OW42592   2.361   6.459   5.142 -0.4374 -0.9507 -0.0873
13660SOL    HW142593   2.291   6.501   5.091  0.7062  0.5583 -0.4907
13660SOL    HW242594   2.321   6.442   5.228 -1.1478  0.4023 -0.1263
13661SOL     OW42595   1.791   6.502   7.429  0.1146 -0.1362 -0.3484
13661SOL    HW142596   1.765   6.594   7.424  1.1506  0.1726 -0.2873
13661SOL    HW242597   1.770   6.466   7.343  0.4968  0.3768 -0.6607
13662SOL     OW42598   7.212   1.791   5.383  0.6960  0.7385 -0.2936
13662SOL    HW142599   7.271   1.781   5.308  0.3478  1.7178 -0.7134
13662SOL    HW242600   7.270   1.801   5.458  1.0816 -2.2785 -0.0781
13663SOL     OW42601   6.295   7.286   6.749 -0.0622 -0.7188 -0.7990
13663SOL    HW142602   6.315   7.294   6.656  1.2670  1.7407 -0.3689
13663SOL    HW242603   6.199   7.290   6.753 -0.1204  3.3419 -1.8715
13664SOL     OW42604   2.042   8.534   7.848 -0.4803  0.5166 -0.5074
13664SOL    HW142605   1.992   8.541   7.929  0.8603  0.8022  0.3256
13664SOL    HW242606   2.134   8.533   7.876  0.1058  2.3983 -2.1059
13665SOL     OW42607   5.884   3.262   5.951 -0.4280 -0.2845  0.1717
13665SOL    HW142608   5.970   3.240   5.986 -0.4791  1.2192  1.3101
13665SOL    HW242609   5.825   3.198   5.992 -0.1706  0.1329  1.2326
13666SOL     OW42610   1.116   3.808   8.329  0.9740  0.3683 -0.0632
13666SOL    HW142611   1.210   3.804   8.313  1.0233 -0.5169  0.3504
13666SOL    HW242612   1.086   3.885   8.282  1.7964  0.2746 -0.7551
13667SOL     OW42613   5.225   1.365   0.433  0.0890 -0.1930  0.1314
13667SOL    HW142614   5.220   1.448   0.384 -1.2580  0.7336  1.7352
13667SOL    HW242615   5.134   1.342   0.449  0.4670 -1.7206  0.1941
13668SOL     OW42616   7.046   5.377   1.508  0.0242 -0.3522  0.1961
13668SOL    HW142617   7.135   5.366   1.542  0.5899 -1.2739 -1.4609
13668SOL    HW242618   7.045   5.465   1.472  0.2247 -0.2864  0.3472
13669SOL     OW42619   3.474   3.145   7.290  0.1164  0.1079 -0.4899
13669SOL    HW142620   3.549   3.151   7.230  2.5210 -1.2699  2.1211
13669SOL    HW242621   3.466   3.233   7.326  1.8532 -0.1079  0.5875
13670SOL     OW42622   0.842   5.095   8.132 -0.3438 -0.6184 -0.0865
13670SOL    HW142623   0.772   5.159   8.134  0.4751  0.3034  1.6511
13670SOL    HW242624   0.918   5.141   8.169  1.1446 -1.6158 -1.7445
13671SOL     OW42625   5.105   1.336   5.498  0.1864  0.2358  0.2731
13671SOL    HW142626   5.096   1.315   5.591 -1.1420 -0.2396  0.0581
13671SOL    HW242627   5.195   1.311   5.477 -0.4222 -2.7661  0.7164
13672SOL     OW42628   3.403   1.080   7.866 -0.3574  0.0204 -0.2107
13672SOL    HW142629   3.370   1.169   7.856 -0.3690  0.0143 -0.2272
13672SOL    HW242630   3.498   1.090   7.879 -0.1412 -0.0348 -1.6034
13673SOL     OW42631   2.642   0.905   8.921  0.2707  0.0810  0.2693
13673SOL    HW142632   2.582   0.922   8.848  1.0833  3.5193  0.2185
13673SOL    HW242633   2.586   0.872   8.991 -1.4345  1.6634 -0.2775
13674SOL     OW42634   1.824   3.004   5.785 -0.0270  0.0581  0.4429
13674SOL    HW142635   1.762   2.995   5.857 -0.2320  0.1407  0.2796
13674SOL    HW242636   1.849   3.097   5.786 -0.2262  0.1173  0.2531
13675SOL     OW42637   8.134   6.816   9.447 -0.4988  0.5055 -0.0850
13675SOL    HW142638   8.124   6.744   9.385  0.1430  0.8072 -0.5455
13675SOL    HW242639   8.046   6.831   9.481 -0.8866  0.4103 -1.0086
13676SOL     OW42640   7.732   9.190   4.158 -0.4782  0.5570  0.5256
13676SOL    HW142641   7.719   9.262   4.097 -0.2789 -1.1605 -1.6934
13676SOL    HW242642   7.673   9.121   4.128  0.5496 -0.8187  1.4820
13677SOL     OW42643   8.093   0.586   5.587 -0.5120  0.1419 -0.4240
13677SOL    HW142644   8.043   0.531   5.526 -0.3406 -2.8216  1.8766
13677SOL    HW242645   8.184   0.564   5.571 -0.4487 -0.4661  0.6281
13678SOL     OW42646   5.467   0.524   1.620 -0.1111 -0.2172  0.4657
13678SOL    HW142647   5.516   0.535   1.701  3.6489 -0.3585 -1.5684
13678SOL    HW242648   5.459   0.612   1.584  2.0520 -0.5154 -0.9200
13679SOL     OW42649   3.810   9.198   4.703  0.0568  0.2001 -0.1167
13679SOL    HW142650   3.716   9.201   4.722  0.4804  1.5110  2.1328
13679SOL    HW242651   3.844   9.131   4.763  0.8488  1.4043  0.8279
13680SOL     OW42652   6.983   2.870   4.982 -0.3672 -0.5981 -0.8546
13680SOL    HW142653   6.988   2.828   5.068  3.7949  1.0674 -0.0289
13680SOL    HW242654   7.005   2.801   4.920  2.3807 -0.7015  0.0953
13681SOL     OW42655   7.976   3.403   3.601  0.1031 -0.1465  0.1048
13681SOL    HW142656   7.937   3.490   3.590 -0.1106 -0.3776 -1.1423
13681SOL    HW242657   7.965   3.383   3.694 -0.8321  0.6999  0.1925
13682SOL     OW42658   6.445   1.837   3.122 -0.2923 -0.1010  0.4431
13682SOL    HW142659   6.469   1.926   3.096 -1.0090 -0.0769 -0.1408
13682SOL    HW242660   6.528   1.790   3.125 -0.2459 -0.9834 -5.0339
13683SOL     OW42661   4.838   8.093   0.360 -0.5187 -0.7625  0.1859
13683SOL    HW142662   4.812   8.183   0.342 -1.8099 -1.0618  0.4789
13683SOL    HW242663   4.895   8.100   0.437 -0.0690 -0.1358 -0.1958
13684SOL     OW42664   7.366   4.217   5.047 -0.2154  0.1664  0.9494
13684SOL    HW142665   7.279   4.239   5.012  0.9218  0.9168 -1.6757
13684SOL    HW242666   7.414   4.184   4.971  1.1198 -2.5103  2.8338
13685SOL     OW42667   9.214   3.896   6.218 -0.2074 -0.1927 -0.0578
13685SOL    HW142668   9.181   3.964   6.277 -2.2819  0.8468 -2.2476
13685SOL    HW242669   9.262   3.945   6.150  0.3349 -1.1484 -0.3809
13686SOL     OW42670   4.668   5.266   4.197 -0.1876  0.3931 -0.9288
13686SOL    HW142671   4.696   5.232   4.282  1.5637  1.2571 -1.1101
13686SOL    HW242672   4.592   5.322   4.217  0.1218  0.4746  0.0479
13687SOL     OW42673   9.094   3.769   5.165  0.4979  0.6392 -0.1575
13687SOL    HW142674   9.009   3.725   5.160 -0.3032  2.2088 -1.2814
13687SOL    HW242675   9.075   3.852   5.208  1.5003  0.9265 -0.2520
13688SOL     OW42676   1.601   2.447   3.537 -0.2015  0.0269 -0.3372
13688SOL    HW142677   1.672   2.402   3.581 -0.7638  0.3557  0.9411
13688SOL    HW242678   1.630   2.455   3.446  1.4076  0.1976  0.1629
13689SOL     OW42679   2.814   5.589   7.818 -0.6417  0.4420  0.1271
13689SOL    HW142680   2.897   5.599   7.864 -1.6135 -0.9578  2.3259
13689SOL    HW242681   2.791   5.678   7.791  0.8503  1.0491  0.7342
13690SOL     OW42682   0.406   5.828   5.679  0.2924 -0.1694 -0.0660
13690SOL    HW142683   0.385   5.794   5.766 -0.4593 -0.0009 -0.1786
13690SOL    HW242684   0.388   5.755   5.620  0.0941 -0.0431 -0.1600
13691SOL     OW42685   2.154   7.818   6.224  0.4252 -0.3545  0.7328
13691SOL    HW142686   2.208   7.836   6.147 -1.1507  0.5288 -0.2079
13691SOL    HW242687   2.094   7.749   6.196  0.7340 -0.9899  1.6125
13692SOL     OW42688   7.693   3.777   4.752 -0.3732  0.2974  0.5665
13692SOL    HW142689   7.638   3.746   4.680  1.5781 -0.9656 -0.4540
13692SOL    HW242690   7.719   3.865   4.725  2.5202 -1.1060 -1.7311
13693SOL     OW42691   3.582   9.293   8.844  0.0291 -0.3078 -0.5590
13693SOL    HW142692   3.545   9.207   8.866 -2.9261  1.3286  1.6398
13693SOL    HW242693   3.557   9.307   8.752 -2.2448 -0.6137 -0.0526
13694SOL     OW42694   3.207   3.696   7.364 -0.3259  0.5880 -0.1088
13694SOL    HW142695   3.174   3.613   7.329  0.8967  0.0157  0.0481
13694SOL    HW242696   3.302   3.687   7.361 -0.1667  2.0729 -0.2766
13695SOL     OW42697   6.926   0.655   5.504  0.0647  0.1029  0.2519
13695SOL    HW142698   6.987   0.716   5.545 -1.3934  0.7370  1.5885
13695SOL    HW242699   6.854   0.649   5.566  0.4282 -3.5442  0.5079
13696SOL     OW42700   0.304   1.491   8.051  0.7138  0.1062  0.4607
13696SOL    HW142701   0.289   1.521   8.141  1.6979  0.3558  0.5511
13696SOL    HW242702   0.217   1.464   8.020  0.5800 -1.3429  1.9703
13697SOL     OW42703   2.661   8.687   6.945  0.5061 -0.0573  0.2508
13697SOL    HW142704   2.728   8.733   6.995  3.3647 -2.6693 -0.8576
13697SOL    HW242705   2.620   8.754   6.892  1.7658  1.7644  1.4649
13698SOL     OW42706   3.022   6.174   6.123 -0.0575  0.3186 -0.3586
13698SOL    HW142707   2.935   6.134   6.130 -0.1352  0.3497 -1.0746
13698SOL    HW242708   3.005   6.268   6.113  0.0759  0.3769 -0.0453
13699SOL     OW42709   6.215   2.486   3.031  0.0554  0.9580 -0.7268
13699SOL    HW142710   6.162   2.460   3.107 -0.7872  0.0872 -1.5829
13699SOL    HW242711   6.287   2.536   3.068 -0.9515  1.5166  0.5522
13700SOL     OW42712   3.530   9.423   6.091 -0.3483  0.5006  0.0642
13700SOL    HW142713   3.599   9.466   6.040 -1.3527 -1.0071 -2.8201
13700SOL    HW242714   3.556   9.331   6.093 -0.3732  0.4941  2.3917
13701SOL     OW42715   4.596   8.736   8.910 -0.1016 -0.4227 -0.2366
13701SOL    HW142716   4.629   8.656   8.869  1.7193 -0.1745  0.6590
13701SOL    HW242717   4.654   8.751   8.985 -2.3153  0.0468  1.4726
13702SOL     OW42718   7.284   3.883   4.354 -0.6934 -0.0322  0.1255
13702SOL    HW142719   7.245   3.848   4.274  0.1694  0.9409 -0.7598
13702SOL    HW242720   7.211   3.926   4.398 -1.3205 -1.1560  0.2105
13703SOL     OW42721   4.270   7.185   5.296  0.5327  0.7604  0.2635
13703SOL    HW142722   4.338   7.149   5.239  0.1929  1.6343 -0.7239
13703SOL    HW242723   4.192   7.190   5.241  0.3582  2.2324  0.5854
13704SOL     OW42724   8.460   7.248   0.616  0.4530 -0.1843 -0.0501
13704SOL    HW142725   8.545   7.292   0.625  0.6235 -0.0079 -2.0815
13704SOL    HW242726   8.462   7.210   0.528 -0.4222 -2.7401  0.9435
13705SOL     OW42727   0.087   5.684   5.635 -0.1354  0.4188 -0.4680
13705SOL    HW142728   0.001   5.706   5.599 -0.8312  0.6772  1.2355
13705SOL    HW242729   0.106   5.756   5.696  0.7284 -0.2510  0.0770
13706SOL     OW42730   3.262   5.694   6.827  0.1269  0.0890 -0.2170
13706SOL    HW142731   3.288   5.611   6.866  0.8232  0.2754 -0.2689
13706SOL    HW242732   3.195   5.729   6.886  0.0655 -0.3531 -0.0221
13707SOL     OW42733   9.681   3.107   4.388  0.1353  0.6712 -0.1605
13707SOL    HW142734   9.596   3.062   4.385  0.2346  0.4479  0.3056
13707SOL    HW242735   9.701   3.126   4.297  0.7936 -1.5720 -0.5531
13708SOL     OW42736   6.906   3.435   0.751  0.1960 -0.0115 -0.2045
13708SOL    HW142737   6.812   3.423   0.735  0.1187  0.8663 -0.4610
13708SOL    HW242738   6.947   3.411   0.668  0.1595  0.0226 -0.2330
13709SOL     OW42739   6.963   8.000   4.465  0.4236  0.0817  0.0996
13709SOL    HW142740   6.969   7.905   4.470  0.5023  0.0228 -0.9354
13709SOL    HW242741   7.053   8.029   4.446  0.4167  0.3703  0.4895
13710SOL     OW42742   2.600   5.703   7.624  0.0164  0.3873 -0.2183
13710SOL    HW142743   2.591   5.609   7.641 -0.0057  0.5056  0.4294
13710SOL    HW242744   2.691   5.712   7.594 -0.6794 -0.1884 -2.7334
13711SOL     OW42745   3.415   6.747   9.063 -0.0569 -0.1420 -0.0811
13711SOL    HW142746   3.320   6.763   9.059 -0.6902 -3.3483 -0.4762
13711SOL    HW242747   3.424   6.654   9.047  3.2703  0.1463 -0.5231
13712SOL     OW42748   8.320   5.624   1.513 -0.4332  0.8208  0.2900
13712SOL    HW142749   8.328   5.536   1.476  0.4925  1.0713 -0.1440
13712SOL    HW242750   8.333   5.683   1.438 -0.3236  1.3264  0.6971
13713SOL     OW42751   4.955   1.339   0.466 -0.2967 -0.2463 -0.4224
13713SOL    HW142752   4.868   1.362   0.500 -0.8711 -2.1069 -0.5400
13713SOL    HW242753   4.942   1.329   0.372 -0.4920 -2.5963 -0.2019
13714SOL     OW42754   3.933   9.201   5.792 -0.7394  0.2707 -0.4216
13714SOL    HW142755   4.015   9.235   5.756  0.0425 -1.5555 -0.4825
13714SOL    HW242756   3.952   9.187   5.885 -0.9217 -0.2672 -0.4589
13715SOL     OW42757   6.304   1.095   8.098 -0.0250 -0.3715 -0.1519
13715SOL    HW142758   6.354   1.014   8.107 -0.5595 -0.9969 -2.1735
13715SOL    HW242759   6.231   1.087   8.159  0.7603 -0.7113  0.7579
13716SOL     OW42760   6.472   2.637   7.070 -0.0622  0.3664 -0.1016
13716SOL    HW142761   6.442   2.715   7.117  0.8846 -0.3996  1.8504
13716SOL    HW242762   6.456   2.658   6.978 -0.6410  2.5108  0.4253
13717SOL     OW42763   6.325   2.349   1.165 -0.3966  0.1932  0.6517
13717SOL    HW142764   6.286   2.428   1.129 -1.2809 -0.0983  0.9434
13717SOL    HW242765   6.363   2.304   1.090 -0.7382  0.4171  0.3419
13718SOL     OW42766   2.129   9.048   6.905 -0.2058  0.1191  0.0731
13718SOL    HW142767   2.199   9.027   6.843 -0.5949 -0.9039 -0.0370
13718SOL    HW242768   2.058   8.989   6.881 -0.3799 -0.2661  1.4530
13719SOL     OW42769   1.722   7.009   6.967 -0.7451  0.0584 -0.6659
13719SOL    HW142770   1.810   7.021   7.003 -0.7372  1.5859 -1.1186
13719SOL    HW242771   1.713   6.914   6.958 -0.2055 -0.3142  1.9244
13720SOL     OW42772   6.413   2.936   5.543  0.1996  0.3923  0.2132
13720SOL    HW142773   6.412   2.938   5.638 -1.3081 -1.4967  0.2954
13720SOL    HW242774   6.322   2.947   5.517 -0.4187 -4.5541 -0.6773
13721SOL     OW42775   7.816   2.385   6.640 -0.3000 -0.5814  0.2858
13721SOL    HW142776   7.794   2.467   6.596 -0.4342 -1.1817 -0.8193
13721SOL    HW242777   7.908   2.396   6.665 -0.6961  0.4107  1.3700
13722SOL     OW42778   2.652   5.550   4.862  0.2009 -0.2805  0.1312
13722SOL    HW142779   2.711   5.482   4.894 -1.3969 -2.1700 -0.7337
13722SOL    HW242780   2.710   5.614   4.819  1.8860 -0.1972  2.3594
13723SOL     OW42781   6.338   2.805   1.959 -0.5718 -0.4516 -0.0917
13723SOL    HW142782   6.305   2.724   1.922 -1.9474  0.1124 -0.1647
13723SOL    HW242783   6.379   2.851   1.886 -0.8747 -0.5457 -0.3210
13724SOL     OW42784   5.966   4.825   4.421  0.0564  0.1521 -0.4162
13724SOL    HW142785   6.016   4.835   4.341  0.3743  2.8906  0.0431
13724SOL    HW242786   6.022   4.862   4.490 -0.9233 -0.5042  0.7849
13725SOL     OW42787   6.484   2.081   3.652  0.3458  0.6995  0.0931
13725SOL    HW142788   6.517   2.016   3.590  0.2142 -0.8051  1.5594
13725SOL    HW242789   6.562   2.114   3.696  0.4304  1.7078 -0.7584
13726SOL     OW42790   9.032   1.671   7.241 -0.6613 -0.4327  0.6779
13726SOL    HW142791   9.107   1.730   7.248 -0.4713 -0.4270 -0.9081
13726SOL    HW242792   9.072   1.583   7.239 -0.6462 -0.4157 -0.4589
13727SOL     OW42793   8.939   3.826   5.468  0.3191 -0.6944  0.0336
13727SOL    HW142794   9.033   3.817   5.454  0.6559  1.5810  0.2945
13727SOL    HW242795   8.902   3.834   5.380  0.7909  1.1809 -0.0431
13728SOL     OW42796   1.386   1.181   6.166 -0.4287 -0.1952  0.0751
13728SOL    HW142797   1.440   1.103   6.174 -0.3328 -0.0702  0.6918
13728SOL    HW242798   1.317   1.157   6.103 -0.1715 -0.6402 -0.0368
13729SOL     OW42799   8.776   9.268   2.031 -0.7429  0.4962  0.4910
13729SOL    HW142800   8.851   9.306   2.076  0.7032  0.0596 -1.3979
13729SOL    HW242801   8.700   9.298   2.081  0.6317  1.5489  2.0584
13730SOL     OW42802   7.845   0.220   3.160  1.0159 -0.3350  0.0644
13730SOL    HW142803   7.926   0.266   3.184  0.5246 -0.1272  1.4121
13730SOL    HW242804   7.846   0.218   3.065  2.2416  0.3329  0.0402
13731SOL     OW42805   3.909   3.701   3.750  0.0944 -0.3984  0.2485
13731SOL    HW142806   3.843   3.665   3.691 -0.0292  0.0691  0.0950
13731SOL    HW242807   3.860   3.719   3.831  0.1518 -0.5500  0.3179
13732SOL     OW42808   4.723   0.985   2.018  0.1072  0.0006  0.3158
13732SOL    HW142809   4.695   1.026   1.936  0.5642 -0.4458 -0.0678
13732SOL    HW242810   4.715   1.055   2.083 -0.9608  0.1571  0.0438
13733SOL     OW42811   1.294   4.188   0.528  0.1151 -0.1617 -0.7124
13733SOL    HW142812   1.365   4.125   0.541 -1.7426 -2.1353  0.3820
13733SOL    HW242813   1.288   4.198   0.433  1.5129 -0.3200 -0.8418
13734SOL     OW42814   6.810   1.455   6.567 -0.5190  0.6629  0.3624
13734SOL    HW142815   6.843   1.544   6.553 -0.1479  0.3460 -0.9527
13734SOL    HW242816   6.806   1.417   6.479 -1.3237 -0.3988  0.8303
13735SOL     OW42817   3.537   1.659   5.736  0.5403 -0.0229  0.0711
13735SOL    HW142818   3.628   1.661   5.765  0.8240  0.1492 -0.7838
13735SOL    HW242819   3.531   1.730   5.672  0.2747 -1.1302 -1.1855
13736SOL     OW42820   1.371   8.056   0.906  0.9011 -0.3589  0.8537
13736SOL    HW142821   1.394   8.120   0.840  2.6268 -1.0366  0.7460
13736SOL    HW242822   1.424   7.979   0.885 -1.9239 -2.3437  0.2525
13737SOL     OW42823   8.443   4.178   2.551  0.4593  0.5345 -0.2308
13737SOL    HW142824   8.490   4.142   2.475 -2.0371 -3.4158 -0.2066
13737SOL    HW242825   8.500   4.161   2.625  1.2127  0.7366 -0.7471
13738SOL     OW42826   4.460   3.161   6.184  0.3212  0.3322 -0.0158
13738SOL    HW142827   4.550   3.188   6.200  0.1154  1.1795 -0.2680
13738SOL    HW242828   4.421   3.234   6.136  0.1813 -1.0080 -2.0771
13739SOL     OW42829   5.873   1.455   8.791 -0.4222  0.0296  0.6932
13739SOL    HW142830   5.830   1.533   8.825 -0.2129  1.1570 -1.4494
13739SOL    HW242831   5.966   1.477   8.790 -0.4264  0.0607 -0.6097
13740SOL     OW42832   4.006   9.246   2.687  0.3476  0.1872 -0.0997
13740SOL    HW142833   4.072   9.234   2.756  1.0850  1.0359 -0.6384
13740SOL    HW242834   4.045   9.207   2.609 -0.4769 -0.7450 -0.0626
13741SOL     OW42835   4.699   2.330   2.122 -0.1923 -0.2953 -0.5249
13741SOL    HW142836   4.676   2.357   2.033  1.5338  0.6487 -0.7253
13741SOL    HW242837   4.646   2.387   2.178  0.8547  1.1785 -0.9670
13742SOL     OW42838   5.437   9.182   4.931  0.2002 -0.6155  0.2020
13742SOL    HW142839   5.382   9.214   4.860  0.1613 -1.5034 -0.1889
13742SOL    HW242840   5.521   9.226   4.919  0.8599 -2.2088 -1.6360
13743SOL     OW42841   4.321   7.362   9.194 -0.6592  0.0793 -0.0031
13743SOL    HW142842   4.353   7.293   9.137 -0.8582  0.6664 -0.8471
13743SOL    HW242843   4.230   7.377   9.166 -0.8250  0.2470  0.5910
13744SOL     OW42844   0.649   4.187   2.247 -0.1821 -0.1211  0.0439
13744SOL    HW142845   0.567   4.211   2.203  0.8349  0.2769 -1.7090
13744SOL    HW242846   0.638   4.220   2.336 -1.9620 -0.1706 -0.1131
13745SOL     OW42847   9.743   1.687   6.766 -0.3666 -0.2796  0.4346
13745SOL    HW142848   9.821   1.741   6.770 -1.2465  1.0064  0.8860
13745SOL    HW242849   9.687   1.729   6.700 -0.8250 -0.9709  0.3685
13746SOL     OW42850   2.445   3.450   1.521  0.3660  0.0920 -0.1927
13746SOL    HW142851   2.493   3.495   1.591  0.1802 -1.7898  1.2466
13746SOL    HW242852   2.440   3.514   1.450 -1.2025  2.8949  2.2189
13747SOL     OW42853   5.106   0.609   8.612  0.0914 -0.2380  0.6962
13747SOL    HW142854   5.083   0.699   8.590 -0.2088 -0.6286 -0.6378
13747SOL    HW242855   5.098   0.605   8.707  0.8072  1.3342  0.8563
13748SOL     OW42856   8.471   8.671   7.598  1.0913  0.4230  0.3079
13748SOL    HW142857   8.550   8.627   7.568  0.8761  0.0673  0.2525
13748SOL    HW242858   8.409   8.600   7.616  0.1196  0.7237 -1.5236
13749SOL     OW42859   8.353   7.075   4.907 -0.2586 -0.1368 -0.3159
13749SOL    HW142860   8.297   7.141   4.948 -0.9739 -0.8132 -0.1818
13749SOL    HW242861   8.397   7.032   4.980  0.1160  0.1043 -0.3960
13750SOL     OW42862   5.241   9.730   8.668  0.3157  0.4575  0.0660
13750SOL    HW142863   5.192   9.718   8.587  0.7057 -0.1188 -0.0931
13750SOL    HW242864   5.289   9.812   8.656  0.4121  0.3471 -0.3053
13751SOL     OW42865   0.816   3.765   3.778  0.0537  0.0785 -0.3831
13751SOL    HW142866   0.825   3.858   3.799 -1.0325  0.3264 -0.9443
13751SOL    HW242867   0.878   3.721   3.836  2.6280  1.3645 -1.9976
13752SOL     OW42868   7.471   6.084   1.498 -0.5485  0.8655  0.3460
13752SOL    HW142869   7.444   6.176   1.493  0.3478  1.3527  3.0058
13752SOL    HW242870   7.566   6.086   1.496 -0.5274 -0.1033 -0.4443
13753SOL     OW42871   9.400   6.822   0.916  0.1276 -0.2394  0.3338
13753SOL    HW142872   9.370   6.907   0.885  1.8903  0.3635  0.1749
13753SOL    HW242873   9.340   6.800   0.988 -0.0946  1.3339  0.6517
13754SOL     OW42874   2.504   8.872   6.822 -0.2086 -0.2305  1.0598
13754SOL    HW142875   2.483   8.940   6.885 -1.3533 -0.6128  1.1081
13754SOL    HW242876   2.529   8.920   6.743  0.4515  0.2390  1.5355
13755SOL     OW42877   5.697   9.795   2.007  0.4781  0.0890 -0.0791
13755SOL    HW142878   5.689   9.711   2.053  3.2629 -0.4940 -0.4745
13755SOL    HW242879   5.648   9.783   1.926  1.7733 -1.6667 -0.6825
13756SOL     OW42880   4.160   5.183   9.137 -0.0523  0.6339  0.2167
13756SOL    HW142881   4.214   5.110   9.167  0.8490  0.5957 -1.3604
13756SOL    HW242882   4.070   5.150   9.141  0.1431  0.1997  1.5415
13757SOL     OW42883   7.567   1.924   9.096  0.9157  0.1602  0.4623
13757SOL    HW142884   7.549   1.850   9.154  1.1581 -0.3417 -0.0904
13757SOL    HW242885   7.657   1.910   9.066  0.5613  0.0221 -0.5827
13758SOL     OW42886   9.804   9.564   0.312 -0.0184 -0.0167  0.4145
13758SOL    HW142887   9.861   9.627   0.357  0.5283 -0.5046  0.4292
13758SOL    HW242888   9.737   9.542   0.377  0.5925 -0.4883  0.9107
13759SOL     OW42889   0.101   2.456   8.752  0.1419  0.2592  0.3440
13759SOL    HW142890   0.066   2.376   8.792  2.5244 -0.3757  1.2956
13759SOL    HW242891   0.026   2.516   8.751 -0.7604 -0.6465  3.2447
13760SOL     OW42892   4.667   3.407   4.283  0.4501 -0.1447 -0.3461
13760SOL    HW142893   4.623   3.492   4.294 -1.9692 -1.1165 -1.7174
13760SOL    HW242894   4.624   3.349   4.346  0.5306 -0.8770 -0.9546
13761SOL     OW42895   0.692   3.994   3.116 -0.3410  0.0481  0.2298
13761SOL    HW142896   0.603   3.997   3.151  0.0093  0.3576  1.1128
13761SOL    HW242897   0.748   4.014   3.191  0.5866 -1.9546  0.1284
13762SOL     OW42898   5.821   5.677   3.431  0.3964  0.0919 -0.1297
13762SOL    HW142899   5.786   5.733   3.500 -1.2812 -0.1226 -0.7392
13762SOL    HW242900   5.896   5.633   3.470  0.0600  0.6922  1.2368
13763SOL     OW42901   3.761   2.541   5.730  0.5712 -0.1838  0.2739
13763SOL    HW142902   3.734   2.458   5.691  0.1945 -0.6441  1.4972
13763SOL    HW242903   3.762   2.525   5.824 -2.2905  1.9751  0.8043
13764SOL     OW42904   7.163   8.409   8.121 -0.5013  0.5513  0.4790
13764SOL    HW142905   7.094   8.343   8.130 -0.3585  0.2916 -0.2457
13764SOL    HW242906   7.139   8.458   8.042 -0.4400  1.1679  0.8404
13765SOL     OW42907   5.754   1.392   0.580 -0.5019  0.1238  0.0366
13765SOL    HW142908   5.684   1.380   0.515 -1.1165 -2.8189  1.0778
13765SOL    HW242909   5.709   1.400   0.664  0.3208 -2.1005  0.7649
13766SOL     OW42910   6.835   6.011   6.141  0.3372 -0.2244  0.0378
13766SOL    HW142911   6.915   6.029   6.092  0.7904 -1.4038  0.3285
13766SOL    HW242912   6.863   5.959   6.216 -0.8467 -1.7630 -0.5288
13767SOL     OW42913   8.303   1.903   7.372 -0.0143 -0.2824 -0.1721
13767SOL    HW142914   8.320   1.811   7.392 -0.6228 -0.7339 -1.6093
13767SOL    HW242915   8.213   1.904   7.340  0.6377  0.4609 -2.1140
13768SOL     OW42916   3.435   7.042   4.545  0.6900 -0.2117  0.0572
13768SOL    HW142917   3.362   7.004   4.496  1.4388  0.1831 -1.4112
13768SOL    HW242918   3.401   7.126   4.577  0.8860  0.6430 -1.8209
13769SOL     OW42919   9.817   8.665   0.335  0.0249 -0.4225 -0.1099
13769SOL    HW142920   9.894   8.653   0.279 -0.5002  0.0333 -0.9525
13769SOL    HW242921   9.744   8.631   0.282 -0.4863  0.0747  0.2746
13770SOL     OW42922   8.486   8.955   3.602  0.2740  0.2642 -0.2396
13770SOL    HW142923   8.403   8.945   3.556 -0.0118  1.9638 -0.1531
13770SOL    HW242924   8.542   8.887   3.564 -1.0500 -0.7459 -0.4754
13771SOL     OW42925   2.616   4.542   3.869  0.0806 -0.2441  0.0700
13771SOL    HW142926   2.626   4.460   3.821  0.5597 -0.4423  0.4944
13771SOL    HW242927   2.554   4.522   3.939 -0.3857 -0.0353 -0.2762
13772SOL     OW42928   0.557   2.314   6.312 -0.2426  0.5091  0.1922
13772SOL    HW142929   0.548   2.242   6.250 -1.0886  1.3422 -0.7013
13772SOL    HW242930   0.491   2.296   6.379  1.6490 -1.1645  1.7073
13773SOL     OW42931   3.581   9.443   7.493  0.6508 -0.0340  0.3695
13773SOL    HW142932   3.569   9.382   7.421  0.3957  1.1582 -0.6429
13773SOL    HW242933   3.600   9.388   7.569 -3.0206 -1.6598  0.3308
13774SOL     OW42934   2.802   6.904   7.648 -0.6341  0.2084 -0.3605
13774SOL    HW142935   2.814   6.846   7.572  1.1594  1.4631 -1.1054
13774SOL    HW242936   2.882   6.957   7.649 -1.5347  1.5849  1.2373
13775SOL     OW42937   1.359   0.820   5.828  0.0802 -0.4456 -0.0188
13775SOL    HW142938   1.318   0.843   5.911  0.8904  0.7147  0.0797
13775SOL    HW242939   1.377   0.726   5.835 -0.1872 -0.4304  0.9690
13776SOL     OW42940   3.908   1.910   2.379 -0.1365 -0.1161  0.7827
13776SOL    HW142941   3.826   1.930   2.424 -1.3305  0.0289 -1.3267
13776SOL    HW242942   3.881   1.865   2.299  1.8508  0.0019 -0.0060
13777SOL     OW42943   0.481   0.181   7.461  0.2284  0.1648 -0.3667
13777SOL    HW142944   0.449   0.091   7.467  1.2274 -0.2253 -0.7052
13777SOL    HW242945   0.418   0.231   7.513 -0.4611 -0.6891 -0.3372
13778SOL     OW42946   6.285   9.354   7.554  0.0787 -0.0148 -0.5097
13778SOL    HW142947   6.249   9.283   7.608  1.7826  0.5291  1.4666
13778SOL    HW242948   6.269   9.433   7.605  1.3579  0.5812 -0.9873
13779SOL     OW42949   3.331   2.816   3.840 -0.4647  0.3222 -0.3562
13779SOL    HW142950   3.391   2.857   3.902  0.0130  0.5228 -0.9489
13779SOL    HW242951   3.289   2.890   3.796  1.2906  0.2256 -2.3010
13780SOL     OW42952   2.277   6.148   2.214 -0.1475  0.0515  0.2991
13780SOL    HW142953   2.334   6.073   2.234 -1.3971 -1.3922 -1.2637
13780SOL    HW242954   2.188   6.114   2.225 -0.8229  0.4571 -2.8947
13781SOL     OW42955   3.931   0.163   1.249 -0.2638  0.1836 -0.1881
13781SOL    HW142956   3.942   0.241   1.194 -0.4131  0.1430 -0.2771
13781SOL    HW242957   4.019   0.142   1.279 -0.4967  1.7735  1.7613
13782SOL     OW42958   7.803   4.974   9.411  0.2615  0.3454 -0.0913
13782SOL    HW142959   7.777   4.953   9.321  0.9092 -0.4453 -0.1077
13782SOL    HW242960   7.899   4.979   9.408  0.2281  1.5063  0.3142
13783SOL     OW42961   5.217   2.000   4.524  0.2670  0.4394 -0.0533
13783SOL    HW142962   5.268   2.081   4.515 -1.2796  1.2341 -2.8017
13783SOL    HW242963   5.273   1.932   4.486 -0.0340  1.0497 -1.6986
13784SOL     OW42964   9.510   3.936   4.461 -0.0282  0.3108 -0.3757
13784SOL    HW142965   9.447   3.868   4.437  0.7299 -0.2849 -0.7210
13784SOL    HW242966   9.457   4.014   4.476 -0.8815 -0.2806 -0.2746
13785SOL     OW42967   3.729   8.739   9.512  0.4688 -0.4304 -0.3102
13785SOL    HW142968   3.771   8.674   9.569 -0.7349  0.0830  1.2429
13785SOL    HW242969   3.756   8.823   9.548 -0.0551 -0.0885 -0.7041
13786SOL     OW42970   8.724   1.633   5.611 -0.7766 -0.5876 -0.3741
13786SOL    HW142971   8.765   1.718   5.627 -0.0326 -0.6489 -1.8355
13786SOL    HW242972   8.720   1.626   5.516 -1.6073 -1.8313 -0.2692
13787SOL     OW42973   8.699   7.038   0.934  0.1931  0.5589  0.1078
13787SOL    HW142974   8.616   7.080   0.913  0.0526 -0.1471 -0.8174
13787SOL    HW242975   8.736   7.092   1.004 -1.9583 -0.2546  1.9599
13788SOL     OW42976   7.081   2.262   9.385  0.2963 -0.0457  0.0438
13788SOL    HW142977   7.173   2.270   9.362  0.5326 -0.0303  0.9607
13788SOL    HW242978   7.063   2.168   9.381  0.6648 -0.1643  1.0146
13789SOL     OW42979   9.737   0.334   1.983  0.4784 -0.0658  0.4834
13789SOL    HW142980   9.762   0.340   1.890  0.9426 -2.1112  0.4320
13789SOL    HW242981   9.662   0.392   1.991  1.4309  1.4523 -0.7807
13790SOL     OW42982   6.471   1.349   3.949  0.4868  0.0792 -0.1497
13790SOL    HW142983   6.459   1.433   3.906  0.7320  1.3215  2.0634
13790SOL    HW242984   6.564   1.328   3.937  0.5772  0.4585 -0.1070
13791SOL     OW42985   7.687   6.581   1.340 -0.1951 -0.6428  0.2222
13791SOL    HW142986   7.779   6.555   1.343  0.4351  1.1177 -1.4826
13791SOL    HW242987   7.642   6.505   1.304  0.8587 -0.9999 -0.4072
13792SOL     OW42988   0.230   4.611   5.405 -0.3835  1.4157  0.2846
13792SOL    HW142989   0.220   4.517   5.418 -1.6610  1.3154 -1.1842
13792SOL    HW242990   0.182   4.651   5.478 -1.2425  0.9137  0.0017
13793SOL     OW42991   9.803   9.367   1.808  0.4391 -0.2962 -0.0680
13793SOL    HW142992   9.859   9.438   1.777  1.2109 -0.4797  0.8544
13793SOL    HW242993   9.741   9.409   1.868  1.5929 -0.5176  1.3434
13794SOL     OW42994   0.406   3.209   7.124  0.2754 -0.5521 -0.0704
13794SOL    HW142995   0.312   3.223   7.114  0.3269 -0.2284 -0.1346
13794SOL    HW242996   0.446   3.283   7.077  0.5469 -0.1977  0.7046
13795SOL     OW42997   9.307   2.568   6.195 -0.5799  0.6388  0.8370
13795SOL    HW142998   9.297   2.499   6.261 -1.5685  0.3002  0.3658
13795SOL    HW242999   9.382   2.619   6.224 -0.1987 -0.2766  1.5253
13796SOL     OW43000   1.159   0.930   0.918  0.3364  0.1625 -0.2609
13796SOL    HW143001   1.103   0.881   0.979  0.4525 -1.2373 -1.2375
13796SOL    HW243002   1.101   0.997   0.881 -0.8971 -1.5521 -1.5957
13797SOL     OW43003   4.490   7.209   8.824 -0.3858 -0.3865  0.1404
13797SOL    HW143004   4.511   7.185   8.733 -1.7902 -1.6641  0.1177
13797SOL    HW243005   4.396   7.193   8.832 -0.8684  2.3838  1.0479
13798SOL     OW43006   6.926   1.983   4.695 -0.0618 -0.1871 -0.0305
13798SOL    HW143007   6.860   1.929   4.739  0.5228 -0.7817  0.1448
13798SOL    HW243008   7.009   1.945   4.723  0.4089  1.3841  0.8337
13799SOL     OW43009   4.319   8.272   7.957 -0.4391  0.2569  0.1895
13799SOL    HW143010   4.361   8.245   8.039  0.6512 -1.7594 -0.9170
13799SOL    HW243011   4.362   8.217   7.891 -3.1591 -0.1252 -1.3748
13800SOL     OW43012   8.636   9.369   6.528  0.6324 -0.1814  0.1703
13800SOL    HW143013   8.700   9.438   6.512  0.4071  0.3804  1.5477
13800SOL    HW243014   8.562   9.414   6.568  0.5864 -1.2352  1.3304
13801SOL     OW43015   3.494   5.844   2.146  0.2995  0.4944 -0.1188
13801SOL    HW143016   3.457   5.919   2.099 -0.2019  1.6847  2.0749
13801SOL    HW243017   3.450   5.844   2.231  3.2424  0.2244  1.5303
13802SOL     OW43018   7.244   7.587   7.399  0.2858 -0.0830 -0.1941
13802SOL    HW143019   7.305   7.654   7.428 -0.0217 -0.1813  0.7055
13802SOL    HW243020   7.246   7.521   7.468 -2.0570  0.6993  0.7232
13803SOL     OW43021   9.046   2.470   3.420  0.0250  0.9188  0.0150
13803SOL    HW143022   9.140   2.488   3.428 -0.0755  1.5123 -0.0287
13803SOL    HW243023   9.021   2.437   3.506  0.3721  0.2734 -0.1283
13804SOL     OW43024   4.307   2.661   5.807  0.1611 -0.2511 -0.0790
13804SOL    HW143025   4.283   2.597   5.739 -1.8756  0.9632 -0.5719
13804SOL    HW243026   4.223   2.694   5.840  1.1482  0.9491  1.3502
13805SOL     OW43027   0.452   4.949   4.050  0.3400 -0.0865  0.4119
13805SOL    HW143028   0.358   4.956   4.068 -0.1060  0.1633 -1.7502
13805SOL    HW243029   0.463   4.858   4.020  0.6726  0.0614  0.0822
13806SOL     OW43030   2.159   2.142   3.738 -0.0828  0.1832 -0.6237
13806SOL    HW143031   2.140   2.103   3.653  1.5206 -1.3299 -0.3447
13806SOL    HW243032   2.199   2.227   3.717  1.2503 -0.6145 -1.4499
13807SOL     OW43033   3.221   0.264   4.546  0.4188 -0.3861 -0.3055
13807SOL    HW143034   3.227   0.349   4.590  1.8659 -1.2471  1.2854
13807SOL    HW243035   3.142   0.270   4.492 -0.2875  1.4583  0.8511
13808SOL     OW43036   9.421   1.762   7.618 -0.3357 -0.1478  0.1792
13808SOL    HW143037   9.437   1.855   7.605 -3.0575  0.5217  1.0193
13808SOL    HW243038   9.477   1.738   7.692 -0.8414  1.2609  1.0581
13809SOL     OW43039   3.779   7.945   7.154  0.1387  0.2698 -0.2422
13809SOL    HW143040   3.854   7.887   7.164 -0.7611 -0.8693  0.0334
13809SOL    HW243041   3.702   7.889   7.168 -0.7295  1.7424  1.1912
13810SOL     OW43042   7.030   2.200   4.479 -0.4364  0.4194  0.7691
13810SOL    HW143043   6.995   2.156   4.402 -0.2599  0.2776  0.7693
13810SOL    HW243044   7.110   2.243   4.449  0.9511 -1.6055  1.3853
13811SOL     OW43045   0.329   7.637   7.844 -0.3093 -0.5711 -0.1092
13811SOL    HW143046   0.367   7.578   7.910  0.7881 -0.0229 -0.2152
13811SOL    HW243047   0.308   7.717   7.893  0.9341  0.0106 -0.4598
13812SOL     OW43048   9.000   2.407   9.806  0.3235 -0.6273  0.6025
13812SOL    HW143049   9.045   2.436   9.726 -0.1536  0.0914  0.5836
13812SOL    HW243050   9.064   2.422   9.876  0.7551 -1.2841  0.3646
13813SOL     OW43051   9.322   7.829   4.091  0.6167 -0.3842 -0.0700
13813SOL    HW143052   9.318   7.768   4.164 -0.3625  0.3129  0.4694
13813SOL    HW243053   9.402   7.804   4.044  1.4338 -0.6529  1.3985
13814SOL     OW43054   0.408   9.590   2.946  0.2296  0.1042 -0.4367
13814SOL    HW143055   0.481   9.593   2.885 -1.9898  1.3978 -3.2630
13814SOL    HW243056   0.389   9.496   2.956  0.0204 -0.1434 -2.6677
13815SOL     OW43057   9.084   2.045   1.575 -0.3447 -0.1264 -0.6963
13815SOL    HW143058   9.062   1.963   1.619 -0.8243  0.9540  1.1878
13815SOL    HW243059   9.154   2.021   1.514  0.2446 -1.7470  0.5306
13816SOL     OW43060   4.685   2.444   3.487  0.2908  0.0387 -0.2709
13816SOL    HW143061   4.759   2.434   3.547  0.2187  0.0975 -0.1727
13816SOL    HW243062   4.614   2.394   3.528  0.2416  0.0788 -0.3073
13817SOL     OW43063   1.265   4.436   9.499 -0.0436 -0.3000  0.2024
13817SOL    HW143064   1.187   4.422   9.446 -0.4574  2.1904  0.0199
13817SOL    HW243065   1.240   4.410   9.588 -1.0010  0.2390  0.0942
13818SOL     OW43066   2.958   4.422   1.237 -0.7202  0.1161 -0.2195
13818SOL    HW143067   2.873   4.426   1.281 -0.4441 -1.3486  0.5045
13818SOL    HW243068   3.015   4.478   1.289 -0.6387 -0.8543  0.7700
13819SOL     OW43069   3.029   8.250   2.618  0.1190 -0.2516  0.5460
13819SOL    HW143070   3.000   8.178   2.673  0.0514  0.7773  1.9255
13819SOL    HW243071   3.086   8.210   2.552  0.0856 -1.5420  1.2865
13820SOL     OW43072   4.107   5.349   1.547 -0.1874  0.0082  0.0190
13820SOL    HW143073   4.110   5.428   1.601 -0.8324 -0.1604  0.3087
13820SOL    HW243074   4.060   5.375   1.468 -2.7790 -0.7087  1.2224
13821SOL     OW43075   6.512   0.060   1.487  0.4701 -0.1983  0.0324
13821SOL    HW143076   6.599   0.024   1.470 -0.3544 -1.6969 -1.3710
13821SOL    HW243077   6.474   0.072   1.400 -0.6946  0.5383  0.6132
13822SOL     OW43078   2.394   3.583   2.747  0.7186  0.0142  0.4155
13822SOL    HW143079   2.442   3.637   2.809  1.0993  0.0979  0.0556
13822SOL    HW243080   2.462   3.531   2.703  0.5376  0.4640 -0.4200
13823SOL     OW43081   4.140   3.078   1.834 -0.1410  0.1001 -0.2374
13823SOL    HW143082   4.132   3.164   1.874  0.1884  0.1891 -0.3535
13823SOL    HW243083   4.112   3.091   1.743 -0.0098  0.1057 -0.2778
13824SOL     OW43084   2.492   7.480   1.271  0.3382 -0.1936 -0.3169
13824SOL    HW143085   2.432   7.497   1.343  0.6388  0.8713 -0.3097
13824SOL    HW243086   2.554   7.416   1.306  0.2216 -0.0119  0.2279
13825SOL     OW43087   8.689   5.940   8.013  0.2607  0.2697  0.3475
13825SOL    HW143088   8.618   5.925   7.951  0.1249 -2.0360  0.9902
13825SOL    HW243089   8.761   5.976   7.960 -0.5293  0.2646 -0.7458
13826SOL     OW43090   8.751   3.974   6.104  0.0854  0.6587 -0.1480
13826SOL    HW143091   8.712   4.025   6.032  0.2437 -0.6119 -1.1702
13826SOL    HW243092   8.783   3.894   6.062 -1.1049 -0.7965  1.5565
13827SOL     OW43093   1.418   4.506   7.623  0.1064  0.1844 -0.1008
13827SOL    HW143094   1.481   4.470   7.685  1.4174  0.1648 -1.3906
13827SOL    HW243095   1.454   4.591   7.599 -1.0508  0.7560  0.1134
13828SOL     OW43096   6.702   9.353   1.489  0.0849 -0.0852  0.8441
13828SOL    HW143097   6.758   9.364   1.413  0.0804 -2.1522  0.4807
13828SOL    HW243098   6.762   9.337   1.561  0.0206 -1.3314  0.6387
13829SOL     OW43099   1.550   4.157   6.754  0.2171 -0.0642 -0.3056
13829SOL    HW143100   1.618   4.214   6.719 -0.0272 -0.1974 -1.0023
13829SOL    HW243101   1.482   4.216   6.787  0.6083  0.0656  0.2840
13830SOL     OW43102   5.783   3.611   6.317  0.3543 -0.8203  0.2940
13830SOL    HW143103   5.769   3.688   6.262  1.8437 -0.6019  0.1857
13830SOL    HW243104   5.734   3.630   6.397  0.2408 -0.0154  0.0392
13831SOL     OW43105   8.586   1.031   7.320 -0.2575 -0.0038 -0.0734
13831SOL    HW143106   8.613   0.950   7.364  1.9690  0.6878 -0.0365
13831SOL    HW243107   8.562   1.003   7.232 -0.7740 -0.8668  0.3303
13832SOL     OW43108   4.752   6.233   8.642  0.2596  0.0838  0.2246
13832SOL    HW143109   4.690   6.160   8.641  0.1095  0.1855  1.1639
13832SOL    HW243110   4.704   6.304   8.684  0.8960  0.2720  0.6459
13833SOL     OW43111   0.816   3.909   1.848  0.3877  0.2522  0.0942
13833SOL    HW143112   0.829   4.004   1.849  0.0695  0.3083 -0.5286
13833SOL    HW243113   0.830   3.882   1.939  1.3335  0.7758  0.1193
13834SOL     OW43114   6.403   2.422   4.586  0.3273 -0.0970 -0.2209
13834SOL    HW143115   6.342   2.441   4.657  1.2196  0.0445  0.5336
13834SOL    HW243116   6.393   2.329   4.568 -0.3146 -0.0108 -0.3073
13835SOL     OW43117   1.298   1.291   9.611  0.2262  0.1586  0.1541
13835SOL    HW143118   1.324   1.337   9.532 -1.6224 -0.8761 -1.1437
13835SOL    HW243119   1.202   1.292   9.609  0.1196 -1.7029  1.2462
13836SOL     OW43120   3.893   5.179   7.739  0.1639  0.4612 -0.0187
13836SOL    HW143121   3.937   5.264   7.743  1.0857  0.0029 -0.2665
13836SOL    HW243122   3.943   5.123   7.799 -2.3081  0.8793  2.7154
13837SOL     OW43123   4.266   5.603   4.407 -0.2746  0.1713  0.0104
13837SOL    HW143124   4.323   5.643   4.474 -1.2938  0.6447  0.6214
13837SOL    HW243125   4.185   5.654   4.412 -0.9043 -0.7608 -0.5496
13838SOL     OW43126   3.628   5.068   1.771  0.4823  0.4501 -0.3529
13838SOL    HW143127   3.632   5.031   1.859 -0.8176  0.6910 -0.1780
13838SOL    HW243128   3.571   5.008   1.722  0.9347  0.4950 -0.9557
13839SOL     OW43129   5.089   4.795   8.080  0.1542  0.0235  0.5876
13839SOL    HW143130   5.103   4.700   8.076  0.6353  0.0698  1.0871
13839SOL    HW243131   5.127   4.821   8.164  1.4691  0.8953 -0.2500
13840SOL     OW43132   7.022   6.402   6.221  0.5224  0.1805 -0.0331
13840SOL    HW143133   6.955   6.386   6.155 -0.2757 -0.4072  0.9032
13840SOL    HW243134   6.976   6.398   6.305  1.8067 -0.7035  0.6686
13841SOL     OW43135   8.173   3.878   9.772 -0.5171 -0.0278 -0.2473
13841SOL    HW143136   8.195   3.886   9.865 -1.7391 -0.3893  0.0873
13841SOL    HW243137   8.258   3.878   9.728  0.1181 -0.5518  0.9205
13842SOL     OW43138   9.198   3.789   6.674  0.3007 -0.5172  0.2310
13842SOL    HW143139   9.103   3.792   6.686  0.3521  3.2959  0.9998
13842SOL    HW243140   9.210   3.743   6.591 -2.2672 -0.5686 -0.2014
13843SOL     OW43141   3.528   6.146   2.907 -0.2300 -0.0681  0.1329
13843SOL    HW143142   3.570   6.214   2.855 -0.4473 -0.4717 -0.5755
13843SOL    HW243143   3.544   6.172   2.998  2.4632 -0.7646 -0.0590
13844SOL     OW43144   0.045   0.004   5.370  0.0109 -0.4868  0.5504
13844SOL    HW143145   0.103  -0.072   5.373  0.0909 -0.5676 -1.5629
13844SOL    HW243146   0.022   0.014   5.277 -0.0629  2.0174  0.7475
13845SOL     OW43147   9.548   4.991   5.416  0.3320  0.1420 -0.2722
13845SOL    HW143148   9.581   5.080   5.426 -0.7273  0.9443 -3.0172
13845SOL    HW243149   9.540   4.958   5.505  1.9718  2.2993  0.7733
13846SOL     OW43150   3.333   2.493   7.952 -0.3074 -0.0231 -0.6372
13846SOL    HW143151   3.373   2.440   7.884  0.1714  1.1960 -1.3479
13846SOL    HW243152   3.402   2.555   7.977  0.1481 -1.5275  2.2307
13847SOL     OW43153   3.499   1.495   8.635 -0.3885  0.2415  0.1311
13847SOL    HW143154   3.513   1.544   8.554  0.1749 -2.0900 -1.2897
13847SOL    HW243155   3.404   1.486   8.642 -0.4650  0.9542  0.0493
13848SOL     OW43156   2.230   3.760   1.494  0.5448 -0.0426  0.0519
13848SOL    HW143157   2.265   3.765   1.583 -0.0596  0.0892  0.2895
13848SOL    HW243158   2.142   3.724   1.505  0.5340 -0.2014 -0.5148
13849SOL     OW43159   3.359   1.024   9.163  0.2310  0.1311 -0.5275
13849SOL    HW143160   3.270   1.001   9.137  0.6270  0.8687 -2.7104
13849SOL    HW243161   3.348   1.092   9.229 -0.8156 -2.1280  1.8179
13850SOL     OW43162   3.783   4.848   7.244  0.4149 -0.2151 -0.1568
13850SOL    HW143163   3.876   4.826   7.244  0.5762  0.4179 -1.0457
13850SOL    HW243164   3.781   4.944   7.238 -0.2704  0.1140  3.2150
13851SOL     OW43165   9.182   8.575   5.107  0.1189 -0.3694 -0.1988
13851SOL    HW143166   9.181   8.526   5.189 -1.2205 -0.4233 -0.2236
13851SOL    HW243167   9.102   8.629   5.111  0.2952 -0.0110 -1.2491
13852SOL     OW43168   8.813   5.531   2.528  0.3142 -0.1920  0.0155
13852SOL    HW143169   8.744   5.521   2.462  0.2219 -0.7644  0.1941
13852SOL    HW243170   8.773   5.586   2.595  0.0580 -0.4517  0.0787
13853SOL     OW43171   9.369   6.194   7.629 -0.3740 -0.2466 -0.2929
13853SOL    HW143172   9.350   6.174   7.720 -0.9208 -1.7509 -0.7183
13853SOL    HW243173   9.292   6.165   7.580 -0.1894  0.7365 -1.2286
13854SOL     OW43174   8.158   1.928   9.422  0.2374 -0.0169  0.5469
13854SOL    HW143175   8.064   1.948   9.420  0.3920  0.6657 -0.6323
13854SOL    HW243176   8.201   2.013   9.435  0.7090 -0.3016  0.8908
13855SOL     OW43177   4.442   2.164   5.157 -0.0550  0.2579  0.0554
13855SOL    HW143178   4.508   2.144   5.223 -0.1174  1.1501  0.3939
13855SOL    HW243179   4.480   2.134   5.075  1.4540  2.1365  0.0002
13856SOL     OW43180   7.520   8.955   0.860 -0.0285 -0.1910 -0.6129
13856SOL    HW143181   7.575   9.033   0.871  1.8810 -1.5521  0.1161
13856SOL    HW243182   7.558   8.909   0.785 -0.8168 -0.6798 -0.7298
13857SOL     OW43183   4.067   0.515   0.552  0.1895  0.0664  0.0781
13857SOL    HW143184   4.062   0.424   0.580 -3.2789  0.7026  2.1648
13857SOL    HW243185   3.998   0.524   0.486  0.8982  1.0586 -0.5599
13858SOL     OW43186   6.401   6.150   9.299  0.1229 -0.7742  0.0872
13858SOL    HW143187   6.371   6.233   9.263  0.1484 -0.7195  0.1921
13858SOL    HW243188   6.353   6.083   9.250 -0.0804 -0.6904  0.1742
13859SOL     OW43189   8.208   9.280   0.096  0.2700  0.3082  0.1025
13859SOL    HW143190   8.243   9.219   0.160 -0.9885 -0.3953  0.1464
13859SOL    HW243191   8.148   9.228   0.043  0.4501  1.1292 -0.9487
13860SOL     OW43192   7.540   1.993   1.838 -0.4846  0.3107  0.3938
13860SOL    HW143193   7.481   2.069   1.835 -1.6778 -0.4233  2.8035
13860SOL    HW243194   7.608   2.020   1.900 -0.1881 -0.1118  0.2494
13861SOL     OW43195   1.865   2.304   0.260 -0.0736 -0.5535  0.6573
13861SOL    HW143196   1.847   2.231   0.320  2.3298 -2.0503 -0.2816
13861SOL    HW243197   1.795   2.301   0.196 -0.3656 -1.6608  1.0081
13862SOL     OW43198   2.473   0.654   5.219 -0.5435 -0.1473 -0.3005
13862SOL    HW143199   2.450   0.642   5.127 -0.6628  1.6388 -0.5461
13862SOL    HW243200   2.390   0.654   5.265 -0.4259 -1.9572 -0.0443
13863SOL     OW43201   4.148   2.980   9.498 -0.5089 -0.0909 -0.2281
13863SOL    HW143202   4.082   3.022   9.443  0.3966  1.8973  0.1373
13863SOL    HW243203   4.226   2.974   9.443  0.4822  2.1445  0.8264
13864SOL     OW43204   5.284   2.796   9.807 -0.1638  0.1725 -0.2310
13864SOL    HW143205   5.257   2.704   9.798  0.5170 -0.0698  0.1297
13864SOL    HW243206   5.208   2.839   9.847  0.4935 -0.8371  2.2987
13865SOL     OW43207   2.780   3.027   8.701 -0.2434 -0.0451  0.2021
13865SOL    HW143208   2.785   2.979   8.618  0.7005  0.6196 -0.1262
13865SOL    HW243209   2.737   2.965   8.761  0.8531 -1.2762 -0.2425
13866SOL     OW43210   2.515   7.178   2.335  0.5994  0.3045  0.5405
13866SOL    HW143211   2.578   7.230   2.386  0.6816  0.5387  0.1997
13866SOL    HW243212   2.499   7.101   2.390  0.7084  0.5405  0.9131
13867SOL     OW43213   5.472   8.970   2.005 -0.2094 -0.3626  0.2645
13867SOL    HW143214   5.381   8.990   2.027 -1.0339 -1.3053 -2.0411
13867SOL    HW243215   5.498   9.038   1.944  0.7349  0.0181  1.0626
13868SOL     OW43216   0.826   0.357   1.587  0.4339  0.1815 -0.1008
13868SOL    HW143217   0.885   0.412   1.638 -2.5899  1.4062  2.4379
13868SOL    HW243218   0.867   0.270   1.588  3.1724  1.3904 -0.4005
13869SOL     OW43219   5.215   6.255   8.967  0.0537  0.0145 -0.2577
13869SOL    HW143220   5.262   6.309   8.904  0.4165  0.7780  0.6473
13869SOL    HW243221   5.210   6.308   9.046  0.7408 -1.3939  0.7777
13870SOL     OW43222   8.352   6.876   3.566  0.4491 -0.1965  0.2449
13870SOL    HW143223   8.260   6.879   3.538  0.2812 -0.9346  0.6746
13870SOL    HW243224   8.350   6.825   3.647  1.0290  1.2361  1.1894
13871SOL     OW43225   3.521   3.881   3.020  0.3610 -0.8086 -0.7128
13871SOL    HW143226   3.511   3.820   2.947  0.7266  0.0276 -1.4658
13871SOL    HW243227   3.450   3.943   3.010  0.1953 -0.8977 -0.1414
13872SOL     OW43228   3.859   9.206   4.411 -0.3061 -0.1721  0.1985
13872SOL    HW143229   3.845   9.277   4.474 -1.7675 -0.8173  0.6632
13872SOL    HW243230   3.783   9.148   4.424 -2.5030  1.2399 -4.3263
13873SOL     OW43231   2.361   0.666   0.377  0.1943 -0.5109  0.0536
13873SOL    HW143232   2.343   0.605   0.449 -2.2271 -0.3122 -0.2945
13873SOL    HW243233   2.331   0.620   0.299  0.7114  0.1545 -0.5477
13874SOL     OW43234   5.174   7.470   3.577 -0.5311  0.7140  0.4877
13874SOL    HW143235   5.259   7.461   3.534 -0.2409 -2.0314  1.4744
13874SOL    HW243236   5.194   7.466   3.671 -1.8291 -2.1054  0.7391
13875SOL     OW43237   1.357   9.483   2.352  0.1071  0.4381  0.1528
13875SOL    HW143238   1.306   9.562   2.371 -0.8489 -0.0834 -0.1777
13875SOL    HW243239   1.337   9.423   2.423 -0.4117 -0.0738 -0.4070
13876SOL     OW43240   9.212   3.537   0.306 -0.1827 -0.4579 -0.1098
13876SOL    HW143241   9.176   3.591   0.236 -0.6231  0.0086  0.4636
13876SOL    HW243242   9.173   3.573   0.386  1.7644  0.2541  0.5750
13877SOL     OW43243   6.915   3.413   9.809  0.3525  0.4212 -0.4548
13877SOL    HW143244   7.003   3.418   9.769  1.3362 -1.0051  1.3795
13877SOL    HW243245   6.856   3.441   9.739  2.2544  1.4044 -1.7711
13878SOL     OW43246   9.842   2.597   3.470 -0.1164  0.2281 -0.1964
13878SOL    HW143247   9.834   2.692   3.461 -2.1408  0.2007  0.7010
13878SOL    HW243248   9.902   2.585   3.544  1.3109  0.7457 -1.2337
13879SOL     OW43249   1.432   0.884   4.400  0.2548 -0.0105  0.6520
13879SOL    HW143250   1.462   0.948   4.465 -0.7804  1.7726 -0.5437
13879SOL    HW243251   1.512   0.848   4.363  0.9553  1.8692  0.1851
13880SOL     OW43252   9.335   8.018   2.601 -0.0146 -0.4927  0.6664
13880SOL    HW143253   9.307   8.084   2.536 -0.8148 -1.3432  0.1244
13880SOL    HW243254   9.316   8.058   2.685  1.2330  0.7261  0.4158
13881SOL     OW43255   8.685   1.357   4.223  0.1613 -0.3809  0.1473
13881SOL    HW143256   8.731   1.392   4.147  2.3834 -0.7355  1.2226
13881SOL    HW243257   8.639   1.280   4.191 -1.1195  0.9478 -1.3330
13882SOL     OW43258   1.967   2.170   5.398  0.4200  0.4083 -0.0316
13882SOL    HW143259   1.887   2.166   5.344  1.8504 -1.1111 -2.2090
13882SOL    HW243260   1.960   2.253   5.444 -1.6527  1.0906 -1.3872
13883SOL     OW43261   0.693   5.990   0.212  0.3848  0.0645  0.0671
13883SOL    HW143262   0.656   6.073   0.243 -0.9057 -0.1969 -0.6789
13883SOL    HW243263   0.785   6.010   0.194  0.0903  1.3404 -0.1291
13884SOL     OW43264   6.882   2.479   8.462  0.3752  0.1343  0.7032
13884SOL    HW143265   6.822   2.417   8.503  0.2527 -1.8508 -2.1783
13884SOL    HW243266   6.967   2.434   8.461  0.8726  1.0407  0.7409
13885SOL     OW43267   4.996   9.672   7.166  0.3601  0.0054 -0.3177
13885SOL    HW143268   5.061   9.658   7.235  2.1876  1.7939 -1.5693
13885SOL    HW243269   5.030   9.746   7.116 -1.6850 -0.2565 -2.2293
13886SOL     OW43270   8.904   9.485   7.689  0.3035 -0.3885 -0.0939
13886SOL    HW143271   8.966   9.475   7.617  0.8104 -0.1584  0.3026
13886SOL    HW243272   8.926   9.570   7.728 -1.1022  0.3053 -0.7355
13887SOL     OW43273   7.669   3.417   1.678 -0.1654  0.2346  0.0639
13887SOL    HW143274   7.610   3.341   1.676 -0.8697  0.6677  2.0147
13887SOL    HW243275   7.756   3.380   1.686 -0.1451 -0.4117 -2.4538
13888SOL     OW43276   8.926   3.495   5.309 -0.2436  0.0865 -0.0991
13888SOL    HW143277   8.940   3.489   5.404  1.6866  2.7595 -0.1125
13888SOL    HW243278   8.987   3.431   5.272 -0.0824 -0.0758  0.4357
13889SOL     OW43279   4.063   3.188   4.259 -0.7104 -0.1033 -0.1370
13889SOL    HW143280   4.036   3.278   4.278 -0.3758  0.2942 -1.4475
13889SOL    HW243281   4.092   3.190   4.167 -1.1103 -1.6380 -0.3280
13890SOL     OW43282   8.389   4.006   2.185  0.1249  0.0277  0.0054
13890SOL    HW143283   8.316   4.063   2.159 -0.7674 -1.5102 -0.9834
13890SOL    HW243284   8.457   4.023   2.119 -0.0520  0.0839 -0.1616
13891SOL     OW43285   9.605   8.910   3.005 -0.0398 -0.0265  0.2629
13891SOL    HW143286   9.617   8.818   2.982  1.6126 -0.4798  2.5770
13891SOL    HW243287   9.666   8.958   2.949 -0.4144 -0.3868 -0.4676
13892SOL     OW43288   3.130   6.737   9.017 -0.1238 -0.1527  0.1871
13892SOL    HW143289   3.124   6.647   8.985  1.6646  0.3727 -1.8177
13892SOL    HW243290   3.056   6.782   8.977  0.1289 -0.2884 -0.4347
13893SOL     OW43291   2.094   4.375   6.125  0.0092 -0.0250 -0.1072
13893SOL    HW143292   2.076   4.369   6.219 -0.5693  0.4310 -0.1843
13893SOL    HW243293   2.030   4.317   6.084  0.3828 -0.3681 -0.2098
13894SOL     OW43294   4.639   1.381   1.833 -0.4132 -1.0903 -0.5674
13894SOL    HW143295   4.561   1.379   1.889 -0.6011 -1.0047 -0.8219
13894SOL    HW243296   4.692   1.452   1.868 -1.2640  0.0303 -1.4571
13895SOL     OW43297   0.947   4.255   9.116  0.2623 -0.0522  0.0644
13895SOL    HW143298   1.011   4.320   9.090  2.0346 -1.2964  1.1314
13895SOL    HW243299   0.998   4.176   9.133 -1.7548 -1.6721 -0.9010
13896SOL     OW43300   1.967   8.827   6.863  0.5455  0.1532 -0.4156
13896SOL    HW143301   1.971   8.734   6.885  0.1635  0.3843  0.7110
13896SOL    HW243302   1.990   8.831   6.770 -0.6580 -1.1976 -0.8147
13897SOL     OW43303   4.437   3.720   5.831  0.0299 -0.2821  0.1570
13897SOL    HW143304   4.497   3.780   5.875 -0.5961  0.4770  0.0036
13897SOL    HW243305   4.405   3.770   5.756  1.0624 -1.5320 -1.1740
13898SOL     OW43306   6.387   1.472   7.204 -0.2976 -0.0775 -0.0625
13898SOL    HW143307   6.422   1.390   7.239  0.0416  0.4917  0.9972
13898SOL    HW243308   6.455   1.504   7.144 -0.9228 -1.1129 -1.3642
13899SOL     OW43309   3.136   4.682   2.200  0.0690 -0.2541 -0.6077
13899SOL    HW143310   3.116   4.707   2.290 -0.1927  0.5750 -0.8871
13899SOL    HW243311   3.097   4.751   2.147  3.1591  1.1534 -1.2414
13900SOL     OW43312   7.040   2.723   4.780  0.2619 -0.4624  0.5496
13900SOL    HW143313   6.990   2.744   4.701  0.2797 -0.4599  0.5390
13900SOL    HW243314   7.078   2.637   4.762  1.7205  0.2918 -0.1553
13901SOL     OW43315   6.574   3.789   2.370  0.9123  0.2764 -0.2176
13901SOL    HW143316   6.650   3.742   2.337 -0.9158 -2.0177 -1.4571
13901SOL    HW243317   6.506   3.773   2.304 -0.4581  2.9092  0.4317
13902SOL     OW43318   4.861   1.555   5.563  0.2059  0.3407 -0.7134
13902SOL    HW143319   4.853   1.650   5.556  0.5124  0.4713  0.5524
13902SOL    HW243320   4.949   1.536   5.530  1.1975  0.8197  1.4855
13903SOL     OW43321   3.819   1.918   1.365 -0.2565  0.4447 -0.5223
13903SOL    HW143322   3.865   1.959   1.292  1.4253  0.8424  0.6907
13903SOL    HW243323   3.754   1.983   1.392  0.5260  1.1857 -0.3661
13904SOL     OW43324   9.308   8.445   9.115 -0.5109 -0.0136 -0.6068
13904SOL    HW143325   9.358   8.420   9.038 -0.3169 -0.6567 -0.2755
13904SOL    HW243326   9.255   8.368   9.137  0.3093 -0.2675  0.5868
13905SOL     OW43327   8.435   2.807   3.841 -0.8426  0.6180  0.2586
13905SOL    HW143328   8.479   2.841   3.919 -0.1617 -0.2888  0.2838
13905SOL    HW243329   8.384   2.881   3.808 -0.7310  1.1600  1.2678
13906SOL     OW43330   2.049   1.983   9.774 -0.0289  0.0797 -0.0398
13906SOL    HW143331   2.000   1.907   9.744  1.3575 -0.1743 -1.8172
13906SOL    HW243332   2.000   2.058   9.741 -1.3139  0.0020  1.5816
13907SOL     OW43333   8.300   4.902   3.337  0.4019 -0.3377  0.0367
13907SOL    HW143334   8.318   4.823   3.287 -0.2501  0.1528 -0.9976
13907SOL    HW243335   8.387   4.939   3.355  0.7248 -1.3962  0.7433
13908SOL     OW43336   0.373   0.269   0.841 -0.2473 -0.3621  0.4018
13908SOL    HW143337   0.377   0.282   0.747 -0.1681  0.9380  0.5628
13908SOL    HW243338   0.367   0.174   0.853 -1.0720 -0.4929 -0.9245
13909SOL     OW43339   2.576   9.235   4.818  0.0531  0.0858  0.2754
13909SOL    HW143340   2.526   9.255   4.897  1.0888  0.4902  0.8454
13909SOL    HW243341   2.556   9.307   4.758 -0.0274  0.2621  0.5115
13910SOL     OW43342   6.626   1.875   8.918 -0.0790  0.2347 -0.3639
13910SOL    HW143343   6.672   1.802   8.961  1.1571  0.5196 -1.1514
13910SOL    HW243344   6.534   1.861   8.940  0.3670 -0.3777  1.2413
13911SOL     OW43345   1.284   7.044   0.616  0.2821 -0.2891 -0.8895
13911SOL    HW143346   1.330   7.006   0.542  3.0865  0.6334  0.2559
13911SOL    HW243347   1.326   7.006   0.693 -0.6809  0.8456  0.2488
13912SOL     OW43348   7.348   8.615   4.078  0.4610  0.1700 -0.3849
13912SOL    HW143349   7.384   8.526   4.079  1.2610  0.4741  1.4521
13912SOL    HW243350   7.349   8.640   3.986  2.6542 -0.7602 -0.6754
13913SOL     OW43351   1.283   9.644   8.447  0.2650 -0.4072 -0.1248
13913SOL    HW143352   1.363   9.672   8.403  0.7234  1.4680  1.7294
13913SOL    HW243353   1.226   9.613   8.376  0.6705  3.0450 -2.1997
13914SOL     OW43354   1.248   5.338   0.022  0.1760 -0.4111  0.8045
13914SOL    HW143355   1.270   5.363   0.111 -1.2146 -1.2199  1.4161
13914SOL    HW243356   1.228   5.244   0.028 -2.1322 -0.0271  0.1399
13915SOL     OW43357   2.770   5.705   6.095 -0.1458  0.2502 -0.0375
13915SOL    HW143358   2.763   5.615   6.064 -1.8955  1.3957 -3.3920
13915SOL    HW243359   2.839   5.744   6.042  1.4784  0.6723  2.2391
13916SOL     OW43360   8.831   0.639   0.522 -0.1849 -0.7807 -0.2823
13916SOL    HW143361   8.787   0.557   0.545  0.6927 -1.1047  0.2693
13916SOL    HW243362   8.900   0.649   0.587 -0.2596  0.3906 -0.3593
13917SOL     OW43363   2.147   7.460   5.816 -0.7858  0.3260 -0.3448
13917SOL    HW143364   2.152   7.556   5.822 -0.3195  0.2338  1.1116
13917SOL    HW243365   2.134   7.431   5.906 -0.5406 -1.0137 -0.7163
13918SOL     OW43366   3.665   3.029   7.486  0.2212 -0.1049  0.1291
13918SOL    HW143367   3.606   3.061   7.418 -0.6692  1.2351  1.4722
13918SOL    HW243368   3.621   3.051   7.568  2.5332  0.8286  1.1923
13919SOL     OW43369   8.014   8.564   0.398  0.4256  0.2879  0.4062
13919SOL    HW143370   7.937   8.540   0.449 -0.7318  1.6270 -0.6363
13919SOL    HW243371   7.980   8.589   0.313  1.9146  1.8133  0.2061
13920SOL     OW43372   1.839   3.314   3.893  0.0045  0.3040  0.1368
13920SOL    HW143373   1.861   3.296   3.802  0.8598 -0.9017  0.5565
13920SOL    HW243374   1.923   3.312   3.939 -0.4621  0.4670  1.0199
13921SOL     OW43375   1.950   5.265   4.575 -0.3135  0.1320 -0.2669
13921SOL    HW143376   1.974   5.250   4.666 -2.0760 -0.2381  0.1608
13921SOL    HW243377   1.995   5.196   4.527 -0.1787 -0.2750  0.4348
13922SOL     OW43378   5.520   6.404   4.547  0.3494  0.4286  1.1529
13922SOL    HW143379   5.491   6.486   4.587 -0.0832  0.5952  0.5100
13922SOL    HW243380   5.447   6.377   4.492  1.0969  0.4369  0.1374
13923SOL     OW43381   3.725   6.760   8.735  0.1565 -0.7575 -0.1772
13923SOL    HW143382   3.815   6.792   8.736 -0.5943  1.5391  0.7981
13923SOL    HW243383   3.674   6.829   8.778 -2.3208 -1.2850 -2.0215
13924SOL     OW43384   5.367   8.163   3.555 -0.4966 -0.4366  0.0575
13924SOL    HW143385   5.294   8.213   3.518 -1.0117 -1.3485 -0.2044
13924SOL    HW243386   5.324   8.100   3.613  0.0902 -0.9787 -0.0920
13925SOL     OW43387   4.853   1.419   7.037  0.1346 -0.8939 -0.0260
13925SOL    HW143388   4.799   1.454   6.965 -1.7250  1.0741  2.1417
13925SOL    HW243389   4.939   1.459   7.024 -1.1869  2.6367  0.8075
13926SOL     OW43390   1.629   2.351   6.971  0.3039 -0.5813 -0.3018
13926SOL    HW143391   1.704   2.382   6.921  0.4044 -2.1800 -1.2291
13926SOL    HW243392   1.662   2.341   7.061  0.0224  2.6585  0.2679
13927SOL     OW43393   6.545   3.859   0.253  0.0923 -0.3245 -0.0643
13927SOL    HW143394   6.529   3.862   0.159 -0.1479 -0.4712 -0.0297
13927SOL    HW243395   6.574   3.769   0.269 -0.1985 -0.3993  0.0522
13928SOL     OW43396   7.886   9.812   5.691 -0.1738  0.2567 -0.3602
13928SOL    HW143397   7.825   9.856   5.749  0.8864  1.6697 -0.2440
13928SOL    HW243398   7.859   9.720   5.691 -3.6693  1.1454 -2.0774
13929SOL     OW43399   2.314   6.426   2.102  0.6452 -0.3859  0.0023
13929SOL    HW143400   2.322   6.340   2.143  0.1200 -0.4221  0.0323
13929SOL    HW243401   2.401   6.465   2.111  0.2143  0.1790  2.4417
13930SOL     OW43402   7.412   5.793   9.567 -0.3116  0.3892  0.3547
13930SOL    HW143403   7.427   5.713   9.516  0.2173 -1.1256  2.7612
13930SOL    HW243404   7.326   5.781   9.607  0.0775  0.6914  1.3026
13931SOL     OW43405   7.805   9.801   0.385  0.2191 -0.2171 -0.0006
13931SOL    HW143406   7.834   9.768   0.470  0.7866 -1.5825 -0.6865
13931SOL    HW243407   7.793   9.895   0.398  1.4349 -0.2061  1.2677
13932SOL     OW43408   5.740   5.874   5.168 -0.2493  0.4593  0.6192
13932SOL    HW143409   5.750   5.787   5.128  2.3636 -0.7019  3.3454
13932SOL    HW243410   5.646   5.884   5.180 -0.6273 -2.3231  0.7538
13933SOL     OW43411   8.608   1.950   1.864 -0.1870  0.3937 -0.1583
13933SOL    HW143412   8.563   1.986   1.787 -0.1367  0.1879 -0.2862
13933SOL    HW243413   8.547   1.964   1.936 -0.8794 -0.7292 -0.4906
13934SOL     OW43414   1.941   5.856   0.594  0.0440  0.2956 -0.1543
13934SOL    HW143415   1.959   5.819   0.680  0.7296  2.0552  0.5089
13934SOL    HW243416   1.877   5.797   0.555  0.5189 -1.1216  1.1248
13935SOL     OW43417   9.424   2.967   2.821 -0.0277 -0.2379  0.2597
13935SOL    HW143418   9.457   2.912   2.892 -0.5107 -0.6523  0.1705
13935SOL    HW243419   9.500   2.977   2.762  0.5400  0.6032  1.1176
13936SOL     OW43420   0.060   7.507   4.250  0.1287 -0.2518  0.0979
13936SOL    HW143421   0.071   7.583   4.307  1.1683 -0.5539  0.3051
13936SOL    HW243422  -0.033   7.485   4.259  0.1025  0.1774  1.0815
13937SOL     OW43423   5.694   5.066   5.350 -0.4087  0.3669  0.1030
13937SOL    HW143424   5.696   4.988   5.404  1.2906  0.7084  0.5716
13937SOL    HW243425   5.755   5.127   5.392 -0.2078  1.2073 -1.3341
13938SOL     OW43426   0.828   4.809   4.487 -0.4353 -0.1707 -0.3624
13938SOL    HW143427   0.852   4.893   4.526  1.2031 -0.8223  0.1200
13938SOL    HW243428   0.775   4.765   4.554 -0.2205 -0.0412 -0.1085
13939SOL     OW43429   9.614   6.201   2.404  0.1520 -0.1058  0.4760
13939SOL    HW143430   9.674   6.190   2.479 -0.1629  0.2953  0.7884
13939SOL    HW243431   9.583   6.112   2.386  1.4894 -0.4565 -0.2436
13940SOL     OW43432   8.483   2.601   3.394  0.3501  0.0267  0.3643
13940SOL    HW143433   8.430   2.549   3.455 -0.7577 -1.7393 -1.9586
13940SOL    HW243434   8.557   2.545   3.373  0.4765  0.4127 -0.2412
13941SOL     OW43435   9.015   4.606   2.386  0.0075 -0.4920  0.1271
13941SOL    HW143436   9.077   4.542   2.419 -0.2442  0.0838  1.8207
13941SOL    HW243437   9.032   4.611   2.292  0.4675 -2.5316  0.0732
13942SOL     OW43438   5.700   7.944   6.380  0.2451 -0.3746 -0.2831
13942SOL    HW143439   5.662   7.856   6.382 -0.9845  0.1343  1.9904
13942SOL    HW243440   5.640   7.994   6.324 -0.7091 -0.3281  0.7481
13943SOL     OW43441   1.741   2.753   2.922 -0.9531 -0.1541  0.1489
13943SOL    HW143442   1.661   2.726   2.966 -0.3636 -0.5685  0.9986
13943SOL    HW243443   1.808   2.754   2.991 -0.2677  0.3891 -0.4938
13944SOL     OW43444   0.275   8.748   5.681  0.3643 -0.1390 -0.0831
13944SOL    HW143445   0.320   8.814   5.734  0.5194 -0.1964 -0.1451
13944SOL    HW243446   0.206   8.715   5.739  0.0058  0.3866 -0.2038
13945SOL     OW43447   6.526   8.367   5.849 -0.4846  0.6517 -0.5527
13945SOL    HW143448   6.587   8.389   5.919 -1.3955  1.4188  0.0099
13945SOL    HW243449   6.580   8.366   5.769  0.7102 -0.9216  0.2084
13946SOL     OW43450   5.172   0.068   1.691 -0.3742  0.1945  0.1017
13946SOL    HW143451   5.237   0.023   1.638 -0.4336  0.1224  0.0888
13946SOL    HW243452   5.219   0.143   1.729 -0.4864  0.5910 -0.5272
13947SOL     OW43453   1.118   4.955   9.553 -0.2577  0.8284 -0.6262
13947SOL    HW143454   1.186   4.890   9.532  1.4836  2.3295  0.0513
13947SOL    HW243455   1.070   4.916   9.626 -0.1840 -0.2888 -1.1458
13948SOL     OW43456   2.109   5.711   3.591 -1.0307 -0.4588 -0.1085
13948SOL    HW143457   2.021   5.746   3.601 -0.8599  0.0134 -0.2349
13948SOL    HW243458   2.164   5.788   3.576 -0.6438 -0.7783 -0.3453
13949SOL     OW43459   6.092   5.215   4.432 -0.3077  0.3730 -0.3145
13949SOL    HW143460   6.050   5.241   4.350  0.0791  0.9380 -0.3441
13949SOL    HW243461   6.055   5.274   4.498 -1.1407 -0.5394  0.0601
13950SOL     OW43462   6.153   0.863   6.765  0.0904  0.3368 -0.0221
13950SOL    HW143463   6.202   0.855   6.683 -0.5572 -1.1250 -0.3053
13950SOL    HW243464   6.158   0.956   6.788  0.0674  0.8275 -1.8667
13951SOL     OW43465   8.393   3.519   5.025 -0.1216  0.1175 -0.1220
13951SOL    HW143466   8.352   3.459   5.087 -0.1273 -1.2461 -1.4014
13951SOL    HW243467   8.478   3.479   5.006 -0.4514  0.0575 -1.6073
13952SOL     OW43468   6.661   7.113   3.772 -0.3851  0.2993 -0.2697
13952SOL    HW143469   6.730   7.169   3.808 -1.2504  0.7065  0.8376
13952SOL    HW243470   6.681   7.106   3.679  1.5136 -0.1343  0.1199
13953SOL     OW43471   3.391   6.087   6.532  0.2626 -0.0700 -0.6823
13953SOL    HW143472   3.431   6.098   6.618 -0.6983 -3.6520  0.3792
13953SOL    HW243473   3.398   5.994   6.514 -2.0732  0.1250 -3.2431
13954SOL     OW43474   2.849   9.016   8.793  0.2052  0.1585  0.3090
13954SOL    HW143475   2.855   8.938   8.848  0.1683  0.0162  0.1096
13954SOL    HW243476   2.756   9.033   8.785 -0.0177 -1.7007 -2.3600
13955SOL     OW43477   2.399   1.540   3.737  1.0900  0.1014 -0.1894
13955SOL    HW143478   2.368   1.509   3.652 -0.2424  0.7040  0.0424
13955SOL    HW243479   2.341   1.497   3.801 -0.7167  2.7730  0.1442
13956SOL     OW43480   7.581   4.664   8.829  0.1633 -0.3483  0.0628
13956SOL    HW143481   7.582   4.580   8.784 -2.9139  0.6963 -2.3026
13956SOL    HW243482   7.656   4.712   8.793  0.4665 -1.1724 -0.4263
13957SOL     OW43483   4.978   6.076   4.447 -0.3444 -0.3682  0.3962
13957SOL    HW143484   4.912   6.062   4.515 -0.1022 -0.7427  0.5607
13957SOL    HW243485   5.004   5.988   4.420 -0.5519 -0.2188 -0.3003
13958SOL     OW43486   7.720   8.676   6.535 -0.0715 -0.3326 -0.0275
13958SOL    HW143487   7.810   8.706   6.541 -0.8397  2.1695 -0.0224
13958SOL    HW243488   7.713   8.640   6.446  1.2385 -1.8704  0.4433
13959SOL     OW43489   6.818   6.660   8.457 -0.5334 -0.5063 -0.0726
13959SOL    HW143490   6.909   6.637   8.476 -0.3019  0.2900 -0.1885
13959SOL    HW243491   6.774   6.575   8.447  0.1923 -0.8995 -0.0404
13960SOL     OW43492   9.833   0.204   2.720  0.2079 -0.3389 -0.2547
13960SOL    HW143493   9.919   0.165   2.739  0.1660 -0.1270  0.3773
13960SOL    HW243494   9.780   0.184   2.797 -0.0640  0.2393 -0.2882
13961SOL     OW43495   9.622   4.499   0.544 -0.1000 -0.3542  0.4462
13961SOL    HW143496   9.615   4.588   0.579 -1.3711 -0.9505  1.8002
13961SOL    HW243497   9.531   4.470   0.532  0.2969 -1.3706 -0.2638
13962SOL     OW43498   3.096   5.661   4.639  0.4789 -0.0332  0.9721
13962SOL    HW143499   3.125   5.744   4.600 -1.0969  0.2266  0.2705
13962SOL    HW243500   3.129   5.665   4.729  1.7754  0.6317  0.4995
13963SOL     OW43501   5.842   7.182   5.414  0.2209 -0.3045  0.5041
13963SOL    HW143502   5.797   7.248   5.466  0.6122  0.5630 -0.2381
13963SOL    HW243503   5.809   7.098   5.448 -3.2290  0.2441 -1.0921
13964SOL     OW43504   5.843   5.797   6.066  0.4230 -0.5493  0.4253
13964SOL    HW143505   5.908   5.854   6.108  0.7215 -0.7953  0.3058
13964SOL    HW243506   5.847   5.716   6.118 -0.2116 -0.3616  0.7806
13965SOL     OW43507   9.073   1.238   1.909 -0.1851 -0.6981  0.5715
13965SOL    HW143508   8.992   1.186   1.917 -0.2967 -0.2765  2.7254
13965SOL    HW243509   9.139   1.186   1.956  0.0451  0.3782  1.4761
13966SOL     OW43510   6.581   7.724   3.528  0.3015 -0.5441  0.7499
13966SOL    HW143511   6.609   7.632   3.534  3.1089  0.2606  1.3997
13966SOL    HW243512   6.512   7.732   3.594 -0.9391 -2.4486 -0.2272
13967SOL     OW43513   0.488   6.555   8.261 -0.1943 -0.4900  0.1130
13967SOL    HW143514   0.471   6.634   8.210 -0.7349  1.1369  2.6113
13967SOL    HW243515   0.420   6.555   8.329 -0.4560 -3.3642 -0.0272
13968SOL     OW43516   7.533   2.891   9.370 -0.2626 -0.6189  0.3631
13968SOL    HW143517   7.468   2.928   9.311  0.0914 -0.2202  0.2144
13968SOL    HW243518   7.485   2.870   9.450 -0.0735  2.5377  1.4558
13969SOL     OW43519   7.591   1.833   2.959 -0.1222  0.0550  0.0613
13969SOL    HW143520   7.602   1.753   3.011  1.7342  1.0949  1.3537
13969SOL    HW243521   7.593   1.904   3.022 -0.7060  1.2241 -1.1781
13970SOL     OW43522   8.911   3.619   8.561  0.6074  0.4572  0.2714
13970SOL    HW143523   8.851   3.662   8.499  1.5193  2.1135  0.4904
13970SOL    HW243524   8.950   3.548   8.510 -1.7165 -0.8843  0.2098
13971SOL     OW43525   2.632   5.209   5.831  0.1458  0.1738 -0.1942
13971SOL    HW143526   2.537   5.221   5.833  0.2495  1.4157  2.6613
13971SOL    HW243527   2.648   5.130   5.883  0.7350  1.9305  2.5252
13972SOL     OW43528   3.783   7.617   6.802 -0.6587  0.1570  0.3732
13972SOL    HW143529   3.853   7.560   6.834  0.4222 -0.4450 -2.6754
13972SOL    HW243530   3.743   7.653   6.881  2.0351 -0.7399  2.2994
13973SOL     OW43531   1.398   9.577   4.939  0.8738 -0.7666  0.4185
13973SOL    HW143532   1.383   9.496   4.890  0.4589 -1.4046  1.5460
13973SOL    HW243533   1.488   9.571   4.969  2.6292  1.5227 -3.5572
13974SOL     OW43534   3.676   7.262   2.248 -0.6106  0.1257 -0.5567
13974SOL    HW143535   3.684   7.352   2.217 -0.1813  0.7864  1.3707
13974SOL    HW243536   3.747   7.251   2.311 -2.1014 -0.7503  1.0636
13975SOL     OW43537   0.037   3.211   4.558 -0.0737  0.3417 -0.3624
13975SOL    HW143538   0.124   3.229   4.525 -0.4211 -0.4999 -1.8426
13975SOL    HW243539  -0.013   3.184   4.481 -1.2389 -0.6322  0.6790
13976SOL     OW43540   5.087   3.818   3.966  0.1108  0.3635  0.1058
13976SOL    HW143541   5.123   3.745   4.016 -0.0555  0.6320  0.6131
13976SOL    HW243542   5.102   3.793   3.874  0.3571 -0.1510  0.2827
13977SOL     OW43543   1.238   0.166   6.552 -0.1833 -0.1151  0.1102
13977SOL    HW143544   1.164   0.164   6.491 -0.4494  0.4249  0.4113
13977SOL    HW243545   1.202   0.132   6.634  0.1573 -0.7792 -0.0060
13978SOL     OW43546   2.834   5.637   0.047  0.1513 -0.4303 -0.2206
13978SOL    HW143547   2.799   5.556   0.084  0.5371  0.0362  1.2481
13978SOL    HW243548   2.835   5.698   0.121 -0.5785  1.0689 -1.3984
13979SOL     OW43549   9.629   3.846   5.565  0.4547 -0.6177  0.0663
13979SOL    HW143550   9.606   3.825   5.655  0.6441 -1.5166 -0.0846
13979SOL    HW243551   9.609   3.939   5.556  1.9578 -0.1079  1.4964
13980SOL     OW43552   9.083   1.819   1.739  0.6238  0.2138  0.3449
13980SOL    HW143553   9.106   1.870   1.817  1.1621 -1.8693  1.6275
13980SOL    HW243554   9.130   1.736   1.749  1.2434  0.1115 -2.5646
13981SOL     OW43555   1.520   3.719   1.625  0.5526  0.1571  0.2936
13981SOL    HW143556   1.599   3.701   1.576  0.2887  0.6215 -0.3209
13981SOL    HW243557   1.512   3.815   1.624  0.3551  0.1533  0.9376
13982SOL     OW43558   3.375   5.864   8.468 -0.6263 -0.4092  0.2145
13982SOL    HW143559   3.389   5.779   8.510  1.2703 -0.6401 -0.7899
13982SOL    HW243560   3.320   5.843   8.392 -0.1301 -0.7740 -0.0549
13983SOL     OW43561   3.719   6.130   4.713  0.0908  0.0619 -0.0031
13983SOL    HW143562   3.773   6.206   4.694  0.9255 -0.4128  0.3876
13983SOL    HW243563   3.690   6.099   4.628  1.8948 -0.7006 -0.3960
13984SOL     OW43564   7.522   4.106   8.152 -0.0980 -0.1730  0.2662
13984SOL    HW143565   7.607   4.065   8.166 -0.0415 -0.1536 -0.0080
13984SOL    HW243566   7.493   4.071   8.067  1.0310  2.1822 -1.1839
13985SOL     OW43567   7.458   2.951   6.696  0.1153 -0.4728 -0.3219
13985SOL    HW143568   7.505   2.910   6.769  0.2506  1.1672  0.5656
13985SOL    HW243569   7.520   3.015   6.661 -1.0266  0.9931  0.1977
13986SOL     OW43570   4.195   2.526   7.387 -0.2181  0.3420 -0.2509
13986SOL    HW143571   4.122   2.566   7.340 -0.0257 -0.2049 -1.0439
13986SOL    HW243572   4.167   2.435   7.400  0.2378  0.1805 -0.3896
13987SOL     OW43573   5.822   0.059   1.375 -0.0469  0.1666 -0.2355
13987SOL    HW143574   5.816   0.074   1.469 -1.6468 -0.2648 -0.2424
13987SOL    HW243575   5.835  -0.036   1.367  0.3791  0.2385 -0.4583
13988SOL     OW43576   2.857   7.321   8.214 -0.2571 -0.2662 -0.1119
13988SOL    HW143577   2.848   7.333   8.120 -0.0961 -2.4421 -0.4385
13988SOL    HW243578   2.766   7.311   8.245 -0.4970  2.4984  0.3430
13989SOL     OW43579   6.308   1.983   0.062 -0.5550 -0.4885 -0.2197
13989SOL    HW143580   6.377   2.048   0.044 -0.7607 -0.3099 -0.3756
13989SOL    HW243581   6.227   2.028   0.039 -0.6111 -1.2632 -1.6645
13990SOL     OW43582   4.807   8.822   0.729  0.6381  0.1012  0.1462
13990SOL    HW143583   4.867   8.857   0.795  1.5235  1.4564 -1.3224
13990SOL    HW243584   4.862   8.804   0.653 -0.0834 -2.9550  0.2147
13991SOL     OW43585   2.673   1.229   2.412 -0.0141  0.1185 -0.4565
13991SOL    HW143586   2.742   1.257   2.472  1.0248 -1.1743 -0.9972
13991SOL    HW243587   2.716   1.222   2.327 -1.6883  3.0700 -1.7497
13992SOL     OW43588   4.439   6.857   1.779 -0.0577  0.0905  0.0271
13992SOL    HW143589   4.380   6.880   1.707  0.6245 -1.1620 -0.9784
13992SOL    HW243590   4.509   6.921   1.774 -0.4767  0.5595  0.1531
13993SOL     OW43591   6.298   0.453   8.042 -0.4636 -0.0592  0.2652
13993SOL    HW143592   6.274   0.374   8.091  0.2130 -0.3943  0.0749
13993SOL    HW243593   6.380   0.429   7.998 -0.9033  0.3271 -0.7945
13994SOL     OW43594   6.528   3.043   7.612 -0.1608  0.3333 -0.5118
13994SOL    HW143595   6.621   3.041   7.634 -0.1848  0.6031 -0.3870
13994SOL    HW243596   6.524   3.006   7.523 -0.2320 -2.1443  0.4503
13995SOL     OW43597   1.067   1.864   8.428  0.7604 -0.5572  0.1846
13995SOL    HW143598   1.039   1.777   8.455 -1.9293  0.1394 -0.0929
13995SOL    HW243599   1.125   1.849   8.353 -1.0236 -2.0999 -0.9600
13996SOL     OW43600   1.685   8.123   1.342  0.3935 -0.2956 -0.0111
13996SOL    HW143601   1.672   8.033   1.372 -0.8509  0.6179  2.4440
13996SOL    HW243602   1.597   8.160   1.337  0.4506 -0.1356 -4.6612
13997SOL     OW43603   2.689   3.376   6.859 -0.0289  0.1035 -0.3331
13997SOL    HW143604   2.719   3.285   6.860  1.1033  0.4643 -0.1491
13997SOL    HW243605   2.669   3.394   6.767 -1.3672 -0.6614 -0.2227
13998SOL     OW43606   5.841   4.533   2.765  0.2160 -0.4028  0.8937
13998SOL    HW143607   5.870   4.476   2.694  0.3550  0.5029  0.2187
13998SOL    HW243608   5.920   4.549   2.817  1.0212  2.0591 -0.9391
13999SOL     OW43609   5.194   8.240   5.635  0.5004 -0.0698  0.0028
13999SOL    HW143610   5.225   8.150   5.626 -2.0429 -0.9828 -0.4874
13999SOL    HW243611   5.139   8.253   5.558 -0.3183  1.4033  0.8094
14000SOL     OW43612   2.970   9.107   7.670  0.2599 -0.1636 -0.5859
14000SOL    HW143613   2.916   9.034   7.640 -2.3736  2.0819 -1.7697
14000SOL    HW243614   3.001   9.148   7.589  3.2500 -0.9145  0.0677
14001SOL     OW43615   3.898   8.416   3.949 -0.0351  0.1909  0.6675
14001SOL    HW143616   3.805   8.402   3.930  0.2266  0.8993 -1.3254
14001SOL    HW243617   3.926   8.335   3.993 -0.7897 -1.6178 -1.9184
14002SOL     OW43618   3.556   5.362   0.163  0.0140  0.1374 -0.4750
14002SOL    HW143619   3.639   5.329   0.197 -0.1058  0.6859  0.3781
14002SOL    HW243620   3.551   5.328   0.073  0.8722 -0.3925 -0.3278
14003SOL     OW43621   4.031   5.762   5.224 -0.2460  0.3534  0.1666
14003SOL    HW143622   4.125   5.759   5.205 -0.1813  2.7721 -0.1684
14003SOL    HW243623   4.026   5.756   5.320  0.1042 -1.2162  0.1220
14004SOL     OW43624   0.425   0.530   4.433 -0.7853  0.6702 -0.0956
14004SOL    HW143625   0.512   0.499   4.408 -1.1096  0.3572 -0.8767
14004SOL    HW243626   0.395   0.468   4.499 -0.0398  1.3256  0.8902
14005SOL     OW43627   6.764   6.008   2.258 -0.5609  0.7725  0.0563
14005SOL    HW143628   6.713   5.969   2.329  0.0662  0.7101  0.4794
14005SOL    HW243629   6.845   6.037   2.300 -1.0258  2.6065 -0.2301
14006SOL     OW43630   2.379   2.028   7.761  0.3977 -0.1116 -0.0442
14006SOL    HW143631   2.454   2.086   7.751 -0.5571  1.2921  0.6565
14006SOL    HW243632   2.374   2.010   7.855 -0.0947 -0.2327 -0.0862
14007SOL     OW43633   0.149   7.212   2.428 -0.4318  0.1654 -0.6272
14007SOL    HW143634   0.092   7.189   2.355 -0.7098 -0.4310 -0.2372
14007SOL    HW243635   0.237   7.196   2.395 -0.5515 -0.0360 -0.8572
14008SOL     OW43636   5.416   2.943   9.060 -0.6400  0.0857 -0.1114
14008SOL    HW143637   5.337   2.919   9.012 -1.6755  0.2019  1.4781
14008SOL    HW243638   5.465   2.861   9.067 -1.1542 -0.2290 -0.1517
14009SOL     OW43639   5.929   3.518   4.613  0.8187  0.0374 -0.5983
14009SOL    HW143640   6.007   3.565   4.643  0.4345  1.4162 -1.6705
14009SOL    HW243641   5.856   3.574   4.638  0.2426 -0.7068 -0.6017
14010SOL     OW43642   9.539   5.231   2.054 -0.0665  0.0512  0.3491
14010SOL    HW143643   9.558   5.261   2.143  0.6191 -1.7355  0.8520
14010SOL    HW243644   9.623   5.200   2.020  0.4364  3.6934 -2.2421
14011SOL     OW43645   2.855   7.530   2.380  0.2195  0.2309 -0.5600
14011SOL    HW143646   2.852   7.523   2.475  1.2686  2.8312 -0.2589
14011SOL    HW243647   2.763   7.540   2.354  0.0473  1.2048  0.3638
14012SOL     OW43648   8.153   2.781   6.002  0.3640 -0.3266 -0.2425
14012SOL    HW143649   8.067   2.744   5.984 -0.1695  0.9242 -0.3269
14012SOL    HW243650   8.190   2.801   5.916  0.9078 -1.1851 -0.2256
14013SOL     OW43651   7.192   8.072   0.203 -0.0891  0.1832  0.7786
14013SOL    HW143652   7.228   8.096   0.288 -0.3889  0.0578  0.9418
14013SOL    HW243653   7.198   7.976   0.201 -0.1206  0.1835  0.6759
14014SOL     OW43654   5.405   6.382   7.027 -0.3842  0.0572  0.2776
14014SOL    HW143655   5.337   6.399   7.093 -0.3609 -0.6800  0.5043
14014SOL    HW243656   5.428   6.290   7.041  0.1702  0.1154 -0.2582
14015SOL     OW43657   3.301   2.988   1.077 -0.1055 -0.0140 -0.0522
14015SOL    HW143658   3.329   2.916   1.021 -0.7025  0.0573 -0.4471
14015SOL    HW243659   3.349   2.975   1.159  1.0390  0.0840 -0.6938
14016SOL     OW43660   7.942   3.848   1.092  0.4048 -0.0152  0.0332
14016SOL    HW143661   7.855   3.811   1.107  0.9682 -0.8929  1.3330
14016SOL    HW243662   7.992   3.776   1.051  1.2916 -0.5104  1.8822
14017SOL     OW43663   0.508   6.171   2.804 -0.0481 -0.3761  0.1661
14017SOL    HW143664   0.493   6.116   2.881  0.0997 -0.8769 -0.1570
14017SOL    HW243665   0.561   6.116   2.745 -0.7264 -0.2488 -0.5789
14018SOL     OW43666   1.171   8.295   4.899  0.5500 -0.0048 -0.0939
14018SOL    HW143667   1.232   8.269   4.968  0.1650  0.7030  0.5239
14018SOL    HW243668   1.226   8.321   4.826  0.9598 -1.1307 -0.2107
14019SOL     OW43669   4.534   3.929   9.636 -0.4804  0.2582 -0.0285
14019SOL    HW143670   4.439   3.943   9.634 -0.6759 -1.0219 -0.8556
14019SOL    HW243671   4.544   3.836   9.659  0.6635  1.0400  3.0424
14020SOL     OW43672   8.318   9.591   1.276  0.7118 -0.3565  0.2209
14020SOL    HW143673   8.303   9.507   1.318 -0.2151  0.2795  1.2208
14020SOL    HW243674   8.348   9.649   1.346  0.7098  0.3157 -0.3133
14021SOL     OW43675   5.472   0.571   5.831 -0.2488 -0.8703 -0.1112
14021SOL    HW143676   5.449   0.653   5.874  0.8520 -1.0924  0.9583
14021SOL    HW243677   5.426   0.574   5.747  0.8166  1.4407 -0.6876
14022SOL     OW43678   5.922   2.142   4.430 -0.1256 -0.1708  0.4150
14022SOL    HW143679   5.930   2.189   4.346  1.6301  0.1830  0.7571
14022SOL    HW243680   5.949   2.052   4.410 -2.3247 -0.8083  0.0357
14023SOL     OW43681   5.094   6.680   8.583  0.2400 -0.0499  0.4429
14023SOL    HW143682   5.104   6.585   8.580 -1.5306 -0.2409 -1.0347
14023SOL    HW243683   5.010   6.694   8.627 -0.2459  0.7451 -0.6948
14024SOL     OW43684   9.352   5.677   1.646 -0.3983 -0.2072 -0.2954
14024SOL    HW143685   9.286   5.742   1.672 -0.2791 -0.2174  0.0418
14024SOL    HW243686   9.431   5.728   1.630 -0.3942 -0.2332 -0.3570
14025SOL     OW43687   4.208   9.710   5.775  0.2656 -0.3141 -0.2301
14025SOL    HW143688   4.226   9.802   5.794  0.0714 -0.3449  0.1179
14025SOL    HW243689   4.192   9.707   5.681  1.5536 -0.2075 -0.4592
14026SOL     OW43690   3.620   9.601   1.474 -0.0382  0.2513 -0.3284
14026SOL    HW143691   3.559   9.555   1.416 -0.1828 -0.3961  0.3355
14026SOL    HW243692   3.564   9.652   1.533  0.1100  0.8784 -0.7136
14027SOL     OW43693   4.093   5.577   5.712  0.0326 -0.1850 -0.1742
14027SOL    HW143694   4.002   5.598   5.691 -0.7614 -1.0003  2.1035
14027SOL    HW243695   4.125   5.654   5.759  0.1168 -0.3874  0.1020
14028SOL     OW43696   3.022   1.285   3.017 -0.4650 -0.0272 -0.0568
14028SOL    HW143697   2.957   1.351   2.993 -0.2791  0.0647 -0.3015
14028SOL    HW243698   3.075   1.327   3.084 -0.7172 -0.1362  0.2147
14029SOL     OW43699   5.096   8.179   3.887 -0.3901 -0.4250  0.2411
14029SOL    HW143700   5.149   8.259   3.895 -0.6134 -0.0131 -1.8365
14029SOL    HW243701   5.072   8.157   3.977  3.6381 -0.8814  1.4258
14030SOL     OW43702   9.323   3.117   6.092  0.4794  0.0390 -0.0308
14030SOL    HW143703   9.287   3.136   6.179 -2.2812 -1.0623 -0.8432
14030SOL    HW243704   9.293   3.189   6.037 -0.6961 -0.9775 -0.7642
14031SOL     OW43705   1.754   2.153   2.929  0.1506 -0.3147  0.7109
14031SOL    HW143706   1.692   2.129   2.861  1.0306 -3.3902  0.8598
14031SOL    HW243707   1.799   2.230   2.894 -0.5078 -0.8605 -1.4964
14032SOL     OW43708   4.255   5.325   6.967  0.8195 -0.6081  0.4441
14032SOL    HW143709   4.272   5.363   7.053  1.5641 -2.3944  1.1418
14032SOL    HW243710   4.219   5.397   6.915  1.0602  0.6982  2.0163
14033SOL     OW43711   5.455   1.075   5.974 -0.7929  0.1135 -0.3863
14033SOL    HW143712   5.437   1.147   6.034  1.0495 -0.2430  0.6571
14033SOL    HW243713   5.508   1.113   5.904  2.3141 -0.5659  1.4117
14034SOL     OW43714   1.297   4.847   2.887 -0.1567  0.1209 -0.2533
14034SOL    HW143715   1.359   4.776   2.905  0.9068  1.2667  0.8373
14034SOL    HW243716   1.216   4.803   2.864  0.1615 -1.4925  1.4834
14035SOL     OW43717   9.733   3.149   9.082 -0.7490  0.0258 -0.2451
14035SOL    HW143718   9.653   3.125   9.035 -1.3892  0.4615  0.6045
14035SOL    HW243719   9.751   3.074   9.139 -0.0401 -0.4520 -1.0828
14036SOL     OW43720   3.098   4.504   0.034  0.2807  0.6319  0.1814
14036SOL    HW143721   3.109   4.477   0.126 -0.1753  0.8785  0.3097
14036SOL    HW243722   3.017   4.461   0.006  0.2560  0.8038 -0.0144
14037SOL     OW43723   4.942   6.720   6.772  0.0451  0.3515  0.0260
14037SOL    HW143724   4.965   6.633   6.805 -0.1367  0.3671  0.2016
14037SOL    HW243725   4.929   6.772   6.851  0.0771  0.5180 -0.0788
14038SOL     OW43726   2.715   7.512   4.858  0.4187  0.3081 -0.1414
14038SOL    HW143727   2.760   7.500   4.775  1.6689  0.5594  0.4739
14038SOL    HW243728   2.769   7.465   4.922 -0.8652 -0.4517  0.4489
14039SOL     OW43729   3.069   9.545   1.850  0.3323  0.4529  0.3083
14039SOL    HW143730   3.039   9.472   1.795 -0.6042 -0.2453  1.6909
14039SOL    HW243731   3.145   9.580   1.803  0.2147 -0.7827 -0.8828
14040SOL     OW43732   9.336   0.602   1.031 -0.0231  0.0759  0.3237
14040SOL    HW143733   9.344   0.608   1.127 -0.6225 -0.4571  0.4131
14040SOL    HW243734   9.269   0.668   1.009 -0.3533 -0.2483  0.3473
14041SOL     OW43735   2.882   3.439   3.078 -0.0120 -0.2397 -0.9965
14041SOL    HW143736   2.842   3.469   3.160 -1.2452 -1.7785 -0.9883
14041SOL    HW243737   2.961   3.392   3.104  0.2306  0.2849 -0.7844
14042SOL     OW43738   5.944   6.416   5.920  0.0388 -0.3140 -0.2887
14042SOL    HW143739   5.894   6.336   5.937  0.2378 -0.1944  0.8908
14042SOL    HW243740   5.885   6.470   5.867 -1.7114  0.4346  2.2627
14043SOL     OW43741   9.758   4.064   7.181 -0.2150  0.0870  0.3028
14043SOL    HW143742   9.807   4.107   7.111  1.4091  0.4543  1.6173
14043SOL    HW243743   9.808   4.081   7.260 -1.3431 -1.3704  1.3916
14044SOL     OW43744   1.864   5.346   8.896 -0.2447  0.0580  0.6860
14044SOL    HW143745   1.903   5.259   8.901 -0.9264 -0.2253  1.4487
14044SOL    HW243746   1.797   5.346   8.965 -0.4614  1.0815  0.4975
14045SOL     OW43747   0.715   8.456   7.575  0.2230 -0.2693  0.2891
14045SOL    HW143748   0.717   8.551   7.568  1.6623 -0.3471 -0.6375
14045SOL    HW243749   0.773   8.436   7.649 -1.6587 -0.3701  1.8344
14046SOL     OW43750   2.541   1.897   6.806 -0.3104  0.0409 -0.2732
14046SOL    HW143751   2.461   1.898   6.858 -0.5283  1.6793 -0.5943
14046SOL    HW243752   2.593   1.970   6.841 -0.9533  1.9666 -3.0019
14047SOL     OW43753   8.338   1.218   5.526 -0.4589 -0.6777  0.1695
14047SOL    HW143754   8.278   1.203   5.453 -0.3866 -1.0035  0.1757
14047SOL    HW243755   8.378   1.303   5.507 -3.1970  1.1384  1.7305
14048SOL     OW43756   3.969   8.495   4.418  0.4841 -0.1103  0.0494
14048SOL    HW143757   3.899   8.435   4.446  1.1551 -0.6943  0.5058
14048SOL    HW243758   3.930   8.582   4.428 -0.3649 -0.4408 -0.2327
14049SOL     OW43759   9.395   1.239   3.293 -0.2414  0.0049  0.2436
14049SOL    HW143760   9.475   1.195   3.263  0.9672  0.8731  2.0133
14049SOL    HW243761   9.333   1.168   3.307  1.0081 -0.9584  1.1028
14050SOL     OW43762   4.155   0.689   2.860  0.2764 -0.3632 -0.5153
14050SOL    HW143763   4.138   0.774   2.901  0.6063 -0.8435  0.6620
14050SOL    HW243764   4.086   0.632   2.894  2.1342 -1.4752  1.6524
14051SOL     OW43765   1.706   8.092   7.376  0.0921 -0.0426  0.4190
14051SOL    HW143766   1.791   8.065   7.411  0.9562  1.2122 -0.5900
14051SOL    HW243767   1.644   8.071   7.445  1.2190 -1.0015  1.1859
14052SOL     OW43768   2.167   8.890   6.277 -0.5889 -0.3059  0.0808
14052SOL    HW143769   2.155   8.894   6.182  0.4105 -1.6140 -0.1324
14052SOL    HW243770   2.112   8.816   6.305 -2.1486  1.0730  0.7750
14053SOL     OW43771   8.880   4.491   3.212  0.3231 -0.0050  0.3368
14053SOL    HW143772   8.963   4.455   3.182  1.0108  0.4821  1.5575
14053SOL    HW243773   8.905   4.571   3.260 -0.9165  0.5891  0.0299
14054SOL     OW43774   4.697   8.049   1.789 -0.3987  0.3306 -0.3787
14054SOL    HW143775   4.688   8.029   1.883  1.1339 -1.3923 -0.5268
14054SOL    HW243776   4.788   8.025   1.769 -0.1019  2.4926 -1.9203
14055SOL     OW43777   6.346   1.995   5.055 -0.3535 -0.3715 -0.0162
14055SOL    HW143778   6.416   2.040   5.008  0.5612 -0.0081  1.6072
14055SOL    HW243779   6.287   2.066   5.083 -0.5966 -0.5235 -0.1421
14056SOL     OW43780   5.395   4.435   6.347 -0.2690 -0.4014 -0.1649
14056SOL    HW143781   5.474   4.480   6.318 -0.7542  1.0455  0.6743
14056SOL    HW243782   5.404   4.346   6.312  0.4270  0.4829 -2.4164
14057SOL     OW43783   7.889   3.780   8.714  0.0927  0.3693 -0.0231
14057SOL    HW143784   7.919   3.871   8.713 -0.9033  0.7081 -0.7484
14057SOL    HW243785   7.815   3.779   8.653  0.4623 -1.0623 -0.4746
14058SOL     OW43786   4.284   7.598   6.308  0.1884  0.1001 -0.4200
14058SOL    HW143787   4.220   7.602   6.380  0.5031 -0.8331 -0.0838
14058SOL    HW243788   4.235   7.560   6.235 -0.1366  1.0647 -0.7276
14059SOL     OW43789   2.325   5.139   2.254 -0.1317 -0.9484 -0.1146
14059SOL    HW143790   2.406   5.190   2.264  0.8268 -2.8185  2.7978
14059SOL    HW243791   2.267   5.197   2.204  2.5998  0.8858 -1.4319
14060SOL     OW43792   4.606   9.047   4.994 -0.1086 -0.6549  0.0280
14060SOL    HW143793   4.574   8.983   5.058 -0.8754  0.3423  0.6666
14060SOL    HW243794   4.532   9.059   4.934 -0.4880  0.6691  0.7327
14061SOL     OW43795   3.917   5.480   6.848 -0.0812  0.2831  0.5070
14061SOL    HW143796   3.919   5.469   6.753 -1.4872 -0.4396  0.5421
14061SOL    HW243797   3.984   5.420   6.881 -1.1103 -1.1321  0.0909
14062SOL     OW43798   2.380   5.301   3.123 -0.2433  0.2531  0.1718
14062SOL    HW143799   2.445   5.365   3.094 -0.0369 -0.1073 -0.1709
14062SOL    HW243800   2.315   5.300   3.053 -2.2173  2.7822  1.8041
14063SOL     OW43801   4.522   6.070   6.311 -0.0778  0.3937  0.3509
14063SOL    HW143802   4.600   6.020   6.333 -0.9369 -2.1229 -1.8034
14063SOL    HW243803   4.480   6.087   6.395  0.1370 -2.8348  1.2327
14064SOL     OW43804   1.867   2.823   7.734 -0.0132  0.5552  0.4159
14064SOL    HW143805   1.820   2.828   7.818  0.9207 -3.0504  1.3386
14064SOL    HW243806   1.957   2.844   7.756  0.4867 -1.6611  0.6801
14065SOL     OW43807   8.780   7.948   0.678  0.0501  0.7599  0.4222
14065SOL    HW143808   8.779   7.853   0.667 -1.8973  0.7810  0.0433
14065SOL    HW243809   8.710   7.980   0.620 -1.3456  2.1273  2.6942
14066SOL     OW43810   5.677   0.900   8.730 -0.0268 -0.0203 -0.2127
14066SOL    HW143811   5.617   0.849   8.784 -0.5828  1.3171  0.4866
14066SOL    HW243812   5.736   0.941   8.793  1.6652 -1.3135 -0.8871
14067SOL     OW43813   5.273   1.550   5.291  0.1909 -0.0530 -0.3257
14067SOL    HW143814   5.193   1.604   5.294  0.8849  1.0275 -0.7544
14067SOL    HW243815   5.283   1.527   5.199 -0.0343 -0.8481 -0.1628
14068SOL     OW43816   9.095   8.410   8.688 -0.0547  0.0654 -0.0719
14068SOL    HW143817   9.108   8.504   8.704 -0.8324 -0.0367  1.2547
14068SOL    HW243818   9.172   8.368   8.726  0.0514  0.1214 -0.2229
14069SOL     OW43819   5.969   1.243   4.687 -0.1841  0.0071 -0.0634
14069SOL    HW143820   5.895   1.303   4.687  1.2090  1.8387 -0.8519
14069SOL    HW243821   5.961   1.195   4.604 -1.1006 -0.6336  0.3928
14070SOL     OW43822   3.951   6.441   2.477 -0.0485  0.4043 -0.4981
14070SOL    HW143823   4.009   6.450   2.402  2.7231 -0.8407  1.3089
14070SOL    HW243824   3.984   6.506   2.540 -0.5056 -0.4284  0.6334
14071SOL     OW43825   3.694   5.985   3.716 -0.3051  0.0389 -0.0894
14071SOL    HW143826   3.661   6.051   3.777 -0.0965  0.8941 -0.8919
14071SOL    HW243827   3.765   6.029   3.669 -0.3671 -0.6583 -0.8524
14072SOL     OW43828   3.027   6.066   1.089 -0.1176  0.1687 -0.5815
14072SOL    HW143829   3.016   6.011   1.011  1.2390  1.3716 -1.6784
14072SOL    HW243830   3.088   6.135   1.062  0.9714  0.2322  1.7565
14073SOL     OW43831   2.894   1.891   3.534  0.1055  0.2445  0.5833
14073SOL    HW143832   2.817   1.880   3.590 -0.0573 -0.1403  0.2902
14073SOL    HW243833   2.940   1.966   3.571  0.3380 -0.3944  1.6163
14074SOL     OW43834   3.827   7.530   7.220 -0.4695  0.1839 -0.1256
14074SOL    HW143835   3.847   7.486   7.302  1.6519  0.8435 -0.2268
14074SOL    HW243836   3.903   7.514   7.164 -0.8560  1.6262 -1.1504
14075SOL     OW43837   6.211   1.663   2.880  0.6202  0.3486  0.3507
14075SOL    HW143838   6.184   1.712   2.958 -2.0145 -0.6450  0.1674
14075SOL    HW243839   6.219   1.572   2.911 -1.9220 -0.3241 -0.7490
14076SOL     OW43840   8.095   4.262   4.061  0.5932  0.5244  0.0443
14076SOL    HW143841   8.183   4.226   4.066 -0.2245 -1.4619  1.8871
14076SOL    HW243842   8.081   4.302   4.147 -0.9675 -1.0106  0.5544
14077SOL     OW43843   9.711   3.345   2.078 -0.5082 -0.5360 -0.4107
14077SOL    HW143844   9.744   3.381   2.160 -0.7613 -1.5507  0.1533
14077SOL    HW243845   9.707   3.251   2.093 -1.9571 -0.6111 -1.0813
14078SOL     OW43846   7.732   3.181   7.268 -0.0539  0.0735  0.3145
14078SOL    HW143847   7.695   3.094   7.280  0.0789 -0.1327 -0.6879
14078SOL    HW243848   7.786   3.173   7.189  2.1233  0.3622  1.7118
14079SOL     OW43849   6.369   0.035   8.015 -0.7772  0.2697 -0.5017
14079SOL    HW143850   6.374   0.111   7.957 -0.3657  0.1132 -0.6712
14079SOL    HW243851   6.407  -0.037   7.965 -1.2679 -0.0792 -0.3847
14080SOL     OW43852   4.536   1.291   9.537 -0.1643  0.3392  0.0667
14080SOL    HW143853   4.520   1.225   9.605  1.4223 -0.3319 -0.1782
14080SOL    HW243854   4.457   1.288   9.482  1.4099 -4.4842 -2.4561
14081SOL     OW43855   2.118   9.461   8.577 -0.6617  0.2094  0.8446
14081SOL    HW143856   2.201   9.426   8.547 -1.9504 -0.7427 -1.8993
14081SOL    HW243857   2.068   9.384   8.607 -1.5738  0.3588 -0.2293
14082SOL     OW43858   3.378   6.515   3.375 -0.0562  0.0112 -0.3849
14082SOL    HW143859   3.327   6.486   3.451  2.2548 -0.0530  1.2695
14082SOL    HW243860   3.465   6.477   3.390  0.3736 -0.3456 -3.3291
14083SOL     OW43861   4.767   0.132   5.876  0.4461  0.1744 -0.0762
14083SOL    HW143862   4.853   0.119   5.835  0.3875  1.4490 -0.6491
14083SOL    HW243863   4.704   0.123   5.804  0.1234 -0.4573  0.2844
14084SOL     OW43864   4.496   5.727   9.005  0.4004 -0.5650  0.6405
14084SOL    HW143865   4.431   5.658   9.008  0.3179 -0.4733  1.1714
14084SOL    HW243866   4.500   5.759   9.095  0.8001 -0.2205  0.5024
14085SOL     OW43867   6.784   0.650   6.778  0.2820  0.0867 -0.0569
14085SOL    HW143868   6.872   0.685   6.765  0.0662 -0.1774 -3.1084
14085SOL    HW243869   6.787   0.563   6.738 -1.5814  0.5123 -1.2903
14086SOL     OW43870   5.791   4.218   6.909  0.3046  0.2527  0.0791
14086SOL    HW143871   5.758   4.132   6.882 -0.9900  1.0841 -1.1339
14086SOL    HW243872   5.722   4.255   6.963 -0.5153  1.7178 -1.8673
14087SOL     OW43873   7.047   3.864   6.980  0.3128  0.0412  0.4743
14087SOL    HW143874   7.043   3.902   7.068 -1.5696  1.0793  0.0065
14087SOL    HW243875   7.137   3.834   6.971  0.7603  0.6014  2.4688
14088SOL     OW43876   0.638   5.647   6.283 -0.1805 -0.3077 -0.0236
14088SOL    HW143877   0.598   5.734   6.280  0.0387 -0.2216 -1.7640
14088SOL    HW243878   0.730   5.663   6.261 -0.3684 -1.0541 -1.5108
14089SOL     OW43879   6.339   2.356   6.096  0.1370  0.6261 -0.3486
14089SOL    HW143880   6.431   2.343   6.073  0.3461 -1.7259  1.4865
14089SOL    HW243881   6.292   2.336   6.015  1.1538 -0.0319 -0.8014
14090SOL     OW43882   5.340   8.142   8.333 -0.0598 -0.0994 -0.0634
14090SOL    HW143883   5.322   8.155   8.240  1.8792  0.3726 -0.4124
14090SOL    HW243884   5.344   8.231   8.369  0.3090 -0.2315  0.2315
14091SOL     OW43885   8.522   3.167   2.778  0.1986 -0.4711  0.1447
14091SOL    HW143886   8.509   3.200   2.689  1.5223 -0.5310 -0.0924
14091SOL    HW243887   8.472   3.086   2.781 -0.5646 -0.0268 -0.2585
14092SOL     OW43888   5.434   2.700   5.230  0.3578 -0.4734 -0.2766
14092SOL    HW143889   5.380   2.743   5.164  0.6185 -0.1044 -0.2522
14092SOL    HW243890   5.483   2.771   5.271  0.4947 -0.7481  0.0395
14093SOL     OW43891   6.773   8.441   5.391 -0.1751 -0.1257 -0.1962
14093SOL    HW143892   6.821   8.521   5.369 -0.3611 -0.2558 -1.1286
14093SOL    HW243893   6.752   8.450   5.484  2.8470 -0.6954  0.6528
14094SOL     OW43894   2.233   0.294   6.215  0.4671  0.2344  0.1407
14094SOL    HW143895   2.224   0.302   6.121 -0.4187 -1.1065  0.0785
14094SOL    HW243896   2.257   0.202   6.229 -2.9715 -0.6421  1.3670
14095SOL     OW43897   6.894   5.881   6.773 -0.1765 -0.4669  0.1394
14095SOL    HW143898   6.913   5.956   6.830 -0.0537  0.2239 -0.7778
14095SOL    HW243899   6.950   5.811   6.806 -0.9116 -0.4206  1.5368
14096SOL     OW43900   7.448   0.319   0.900 -0.0911 -0.0872 -0.5464
14096SOL    HW143901   7.468   0.356   0.814  0.0964 -0.0761 -0.4986
14096SOL    HW243902   7.527   0.335   0.951 -0.4225  0.4477 -0.1873
14097SOL     OW43903   2.939   8.161   1.897  0.2467  0.7042  0.5425
14097SOL    HW143904   2.854   8.206   1.894  0.7608  1.6722 -0.5622
14097SOL    HW243905   2.974   8.172   1.808 -0.1683 -3.0718 -0.2347
14098SOL     OW43906   5.734   9.814   8.816 -0.0410  0.6228  0.4458
14098SOL    HW143907   5.736   9.765   8.734 -1.3241  3.0160 -1.1525
14098SOL    HW243908   5.817   9.863   8.816  0.8193 -0.7454  1.5824
14099SOL     OW43909   5.246   2.151   0.798  0.0777 -0.3514 -0.2953
14099SOL    HW143910   5.206   2.175   0.714 -0.8366 -1.2197 -0.1337
14099SOL    HW243911   5.198   2.072   0.825  1.7111 -1.2806  0.0519
14100SOL     OW43912   7.052   4.094   8.585 -0.0748 -0.7411 -0.4554
14100SOL    HW143913   7.142   4.072   8.609 -0.6049 -2.4297  0.0764
14100SOL    HW243914   7.056   4.187   8.560  1.7897 -0.7729 -0.3904
14101SOL     OW43915   4.314   6.797   1.523  0.0217  0.2142  0.2602
14101SOL    HW143916   4.374   6.872   1.532  0.4427 -0.1521  0.5493
14101SOL    HW243917   4.264   6.816   1.444 -0.5421  1.2653  0.8435
14102SOL     OW43918   7.697   5.936   3.407 -0.1375  0.1423  0.4406
14102SOL    HW143919   7.672   5.999   3.475 -0.6022  0.7416 -0.2659
14102SOL    HW243920   7.623   5.937   3.346  1.6969  2.3421 -2.0071
14103SOL     OW43921   3.956   0.476   7.535 -0.0943 -0.0555 -0.6713
14103SOL    HW143922   3.928   0.421   7.608 -2.1229 -0.7238 -1.8528
14103SOL    HW243923   4.021   0.424   7.488  0.6456  0.0641  0.2082
14104SOL     OW43924   5.023   3.946   2.933  0.0142  0.1231  0.4940
14104SOL    HW143925   5.102   3.979   2.977  1.0614 -0.2275 -1.0523
14104SOL    HW243926   4.978   3.896   3.001  0.3116  1.5848  1.8359
14105SOL     OW43927   3.196   9.654   2.096 -0.2259 -0.1638 -0.2462
14105SOL    HW143928   3.219   9.711   2.169  3.4369 -0.9354 -0.6001
14105SOL    HW243929   3.124   9.699   2.052  0.6659  2.7873  1.0759
14106SOL     OW43930   9.670   3.844   3.139  0.0154  0.2143  0.5841
14106SOL    HW143931   9.580   3.822   3.163  0.4972 -1.5392  0.8741
14106SOL    HW243932   9.668   3.939   3.125 -2.3294 -0.0151 -1.3076
14107SOL     OW43933   7.774   9.083   8.528  0.2855 -0.5518 -0.3739
14107SOL    HW143934   7.769   9.179   8.536  0.1318 -0.5898 -0.0050
14107SOL    HW243935   7.768   9.067   8.434 -1.5257 -0.3086 -0.3343
14108SOL     OW43936   9.763   9.642   3.439 -0.7634  0.0265 -0.6183
14108SOL    HW143937   9.760   9.546   3.441 -0.2169  0.0184  0.1965
14108SOL    HW243938   9.855   9.662   3.424 -1.0975  0.4267 -2.3361
14109SOL     OW43939   4.273   4.657   8.751  0.4659 -0.0171  0.5740
14109SOL    HW143940   4.260   4.704   8.834  0.2040 -0.8399  1.0098
14109SOL    HW243941   4.302   4.725   8.690  3.4044  0.1794  2.0123
14110SOL     OW43942   5.118   8.175   5.379  0.3282  0.0293  0.6024
14110SOL    HW143943   5.027   8.159   5.354  0.6302 -2.0662  0.6820
14110SOL    HW243944   5.170   8.122   5.319  1.7218  3.0255 -1.0547
14111SOL     OW43945   6.376   1.614   3.890 -0.6362  0.4755  0.2405
14111SOL    HW143946   6.380   1.701   3.930 -0.0919 -0.4104  2.2713
14111SOL    HW243947   6.283   1.598   3.874 -0.6427  1.8817 -1.2999
14112SOL     OW43948   8.199   5.780   2.641 -0.1310 -0.1698  0.1086
14112SOL    HW143949   8.128   5.716   2.638  0.1870 -0.5955  1.2095
14112SOL    HW243950   8.161   5.855   2.687 -0.2203  0.0577 -0.3388
14113SOL     OW43951   2.762   4.042   5.507 -0.2593  0.7071 -0.2301
14113SOL    HW143952   2.784   3.951   5.486  0.1611  0.9027 -0.6419
14113SOL    HW243953   2.711   4.072   5.432  0.4380  1.1144 -0.5485
14114SOL     OW43954   7.756   1.901   6.477  0.2444 -0.4137  0.3392
14114SOL    HW143955   7.682   1.846   6.453 -0.5335  0.6792  0.1387
14114SOL    HW243956   7.796   1.925   6.393 -1.1879  1.6577  0.1589
14115SOL     OW43957   3.198   1.765   0.624  0.1834 -0.0648 -0.6067
14115SOL    HW143958   3.189   1.859   0.604 -0.6098  0.0386  0.1936
14115SOL    HW243959   3.164   1.721   0.546 -0.3595  0.3151 -0.5836
14116SOL     OW43960   6.483   5.962   5.732  0.3246 -0.0451  0.5167
14116SOL    HW143961   6.438   5.886   5.696  0.4352  0.2361 -0.2216
14116SOL    HW243962   6.440   5.976   5.817 -0.2503 -0.4349  0.3020
14117SOL     OW43963   0.253   7.972   3.768 -0.6266  0.1170  0.3763
14117SOL    HW143964   0.203   7.985   3.848  1.1194 -1.1151  1.7362
14117SOL    HW243965   0.269   8.061   3.735 -1.6063  0.6235  1.2309
14118SOL     OW43966   2.955   3.560   1.010  0.2413  0.5184 -0.5603
14118SOL    HW143967   2.998   3.526   0.932 -0.9253 -1.9571 -0.2009
14118SOL    HW243968   2.965   3.491   1.076  0.8522  2.3547  1.4187
14119SOL     OW43969   3.990   7.112   8.588 -0.2783  0.5154 -0.0074
14119SOL    HW143970   3.998   7.017   8.598  2.1413  0.7220  0.6849
14119SOL    HW243971   3.944   7.124   8.505 -0.7566 -1.2481 -0.0252
14120SOL     OW43972   6.860   4.563   0.929 -0.3528 -0.6673 -0.4366
14120SOL    HW143973   6.925   4.626   0.896  0.1065 -1.1178 -0.4043
14120SOL    HW243974   6.913   4.490   0.962 -0.8674 -0.8768 -0.0780
14121SOL     OW43975   1.478   1.750   5.234 -0.6322  0.2966 -0.3870
14121SOL    HW143976   1.403   1.707   5.193 -0.5737  1.0162 -1.2755
14121SOL    HW243977   1.513   1.808   5.166  1.1304 -0.5057 -0.2081
14122SOL     OW43978   0.213   1.322   1.978 -0.1535 -0.8144 -0.1210
14122SOL    HW143979   0.266   1.267   1.919 -0.3153 -1.4898  0.3598
14122SOL    HW243980   0.233   1.290   2.065 -0.7258 -0.5150  0.1248
14123SOL     OW43981   1.537   7.308   6.555  0.1562 -0.4746 -0.2624
14123SOL    HW143982   1.545   7.395   6.592  1.7032 -1.1661  1.1147
14123SOL    HW243983   1.467   7.266   6.606 -0.1129 -0.2854 -0.4708
14124SOL     OW43984   9.140   2.746   6.572  0.1624  0.1518  0.0312
14124SOL    HW143985   9.185   2.811   6.518  1.2915 -0.2295  0.4821
14124SOL    HW243986   9.060   2.726   6.524  0.2459  1.1806 -0.5722
14125SOL     OW43987   9.560   4.082   8.050  0.5563  0.3211 -0.3451
14125SOL    HW143988   9.601   4.093   8.135  1.9184 -0.6429 -0.8557
14125SOL    HW243989   9.566   4.169   8.009 -0.3129  0.8497  0.5914
14126SOL     OW43990   1.756   1.678   0.068 -0.0601  0.4581 -0.1278
14126SOL    HW143991   1.784   1.676  -0.023 -1.0016  1.4675 -0.4726
14126SOL    HW243992   1.663   1.655   0.065 -0.4852  1.9565  0.3646
14127SOL     OW43993   7.646   3.536   9.195  0.1463  0.2961 -0.3716
14127SOL    HW143994   7.715   3.505   9.254 -1.5135  0.3790  1.7288
14127SOL    HW243995   7.599   3.457   9.168 -0.5367  0.4470  0.3404
14128SOL     OW43996   1.493   2.960   4.885  0.2717 -0.6783 -0.4978
14128SOL    HW143997   1.485   2.899   4.958  1.4268  0.0101  0.2391
14128SOL    HW243998   1.475   2.906   4.807  0.2656 -1.7116  0.1928
14129SOL     OW43999   9.359   8.331   2.167 -0.4267 -0.2516 -0.6029
14129SOL    HW144000   9.355   8.312   2.073 -0.6066 -2.1970 -0.2499
14129SOL    HW244001   9.267   8.335   2.194 -0.3679 -0.4825 -0.3702
14130SOL     OW44002   0.129   8.000   4.717 -0.0837  0.2814 -0.3085
14130SOL    HW144003   0.115   8.092   4.697  1.7449  0.7882  0.5528
14130SOL    HW244004   0.143   7.958   4.632  3.0979  1.5717 -0.5209
14131SOL     OW44005   4.193   8.740   3.239  0.3468  0.0696 -0.5092
14131SOL    HW144006   4.235   8.826   3.232 -2.1022  1.2660 -1.6286
14131SOL    HW244007   4.148   8.742   3.323 -3.5667  1.9174 -2.3885
14132SOL     OW44008   8.121   1.289   3.309 -0.2322  0.4148  0.3534
14132SOL    HW144009   8.212   1.318   3.307 -0.4120  1.2937  2.7111
14132SOL    HW244010   8.107   1.250   3.223  2.1564  0.8790 -0.3141
14133SOL     OW44011   8.222   9.390   1.928 -0.1095  0.5502  0.4622
14133SOL    HW144012   8.148   9.409   1.985 -0.8836  2.1736 -0.9944
14133SOL    HW244013   8.217   9.295   1.913 -2.2342  0.6917 -0.0357
14134SOL     OW44014   3.133   2.135   4.767 -0.2212 -0.0151 -0.1389
14134SOL    HW144015   3.136   2.073   4.694 -2.7211  2.1015 -2.2851
14134SOL    HW244016   3.180   2.212   4.734  0.8874  0.0855  1.5812
14135SOL     OW44017   0.656   3.892   2.375 -0.6847  0.5277  0.2258
14135SOL    HW144018   0.647   3.987   2.369 -1.6131  0.4547  0.3740
14135SOL    HW244019   0.689   3.876   2.463  0.2367  0.7545 -0.0672
14136SOL     OW44020   8.373   5.496   3.159  0.4965 -0.5599  0.0955
14136SOL    HW144021   8.357   5.506   3.065 -1.5332  0.1959  0.4589
14136SOL    HW244022   8.292   5.526   3.200  1.0448 -1.6084  2.0775
14137SOL     OW44023   1.930   4.788   9.427 -0.1950 -0.4089 -0.0041
14137SOL    HW144024   1.862   4.837   9.473 -0.1430  1.0538 -1.4052
14137SOL    HW244025   1.883   4.731   9.366 -0.2062  0.1578 -0.5390
14138SOL     OW44026   1.578   7.537   9.329  0.5782 -0.2227  0.0386
14138SOL    HW144027   1.516   7.468   9.306  0.2416  0.3475 -0.8200
14138SOL    HW244028   1.633   7.546   9.251 -1.8139  3.1042 -1.5199
14139SOL     OW44029   4.591   9.193   8.419  0.2857 -0.1395 -0.2511
14139SOL    HW144030   4.593   9.218   8.326 -1.0740 -3.7644 -1.4115
14139SOL    HW244031   4.683   9.198   8.447  0.4575  3.4022 -0.9250
14140SOL     OW44032   0.323   0.617   9.659  0.3274 -0.1370  0.4856
14140SOL    HW144033   0.311   0.526   9.686 -1.1539 -0.0053  0.3790
14140SOL    HW244034   0.288   0.668   9.732 -1.8714  0.2535 -0.7578
14141SOL     OW44035   6.615   9.654   7.463 -0.9680  0.4696 -0.1336
14141SOL    HW144036   6.606   9.565   7.498 -0.1411  0.1627 -0.6854
14141SOL    HW244037   6.706   9.660   7.434 -0.8821  1.6741  0.3553
14142SOL     OW44038   2.345   6.570   2.406 -0.6190  0.3352 -0.6872
14142SOL    HW144039   2.388   6.589   2.489  1.3911 -0.6775 -1.4273
14142SOL    HW244040   2.297   6.489   2.421  0.0296 -0.0368 -0.5821
14143SOL     OW44041   7.637   7.324   9.272 -1.0416 -0.1455 -0.6316
14143SOL    HW144042   7.682   7.240   9.277 -0.4785  0.1973  0.3438
14143SOL    HW244043   7.551   7.303   9.236 -0.3588 -0.9036 -1.8957
14144SOL     OW44044   4.484   4.788   3.251 -0.8663 -0.3357 -0.2225
14144SOL    HW144045   4.423   4.853   3.217  0.2657 -0.5634 -2.8793
14144SOL    HW244046   4.465   4.709   3.201  0.5337 -0.8709  0.0503
14145SOL     OW44047   9.492   8.050   2.170 -0.3635 -0.6491  0.3700
14145SOL    HW144048   9.477   8.134   2.214 -0.8891 -0.7778  0.4438
14145SOL    HW244049   9.408   8.029   2.129  0.2374 -0.2872 -1.1379
14146SOL     OW44050   6.668   3.872   9.577  0.0564  0.6524  0.0692
14146SOL    HW144051   6.663   3.965   9.554 -1.7436  0.7195  0.5901
14146SOL    HW244052   6.661   3.826   9.493  0.2728  0.9699 -0.1264
14147SOL     OW44053   1.024   1.848   4.086 -0.3291 -0.1925  0.1787
14147SOL    HW144054   1.028   1.756   4.057  0.0173  0.2448 -1.2716
14147SOL    HW244055   0.956   1.887   4.031  0.9832  0.8940 -0.7651
14148SOL     OW44056   1.959   6.702   9.146  0.5421  0.8907  0.2858
14148SOL    HW144057   1.946   6.712   9.241 -1.0653  1.5442  0.0258
14148SOL    HW244058   2.033   6.759   9.126 -0.1970  2.1114  0.9012
14149SOL     OW44059   3.943   9.246   3.399  0.4020  0.1533  0.1333
14149SOL    HW144060   3.887   9.320   3.377 -0.8605 -1.1783 -1.3417
14149SOL    HW244061   4.026   9.286   3.426 -0.8766  2.1327  1.3772
14150SOL     OW44062   6.286   3.919   9.330  0.1948 -0.6341 -0.4222
14150SOL    HW144063   6.353   3.851   9.320  1.0513  0.2059 -0.6215
14150SOL    HW244064   6.250   3.904   9.417  0.1113 -1.5648 -0.6075
14151SOL     OW44065   7.062   7.942   2.284  0.0423 -0.0328  0.0485
14151SOL    HW144066   7.005   8.011   2.249 -1.0480 -0.1297  1.5137
14151SOL    HW244067   7.044   7.943   2.378 -0.2538 -2.5476  0.0729
14152SOL     OW44068   7.925   1.960   8.714 -0.1818 -0.2599 -0.0965
14152SOL    HW144069   7.919   1.979   8.807 -0.3239 -0.9135  0.0329
14152SOL    HW244070   7.885   1.873   8.704 -1.0072  0.1869 -0.8967
14153SOL     OW44071   3.642   7.004   2.613 -0.2432 -0.5868  0.8219
14153SOL    HW144072   3.619   7.018   2.521 -3.6028  1.7124  1.8115
14153SOL    HW244073   3.734   7.031   2.619  0.5828 -2.3134 -2.0518
14154SOL     OW44074   5.307   7.085   8.362 -0.6012 -0.0241  0.0299
14154SOL    HW144075   5.327   7.170   8.401 -0.2524 -0.5573  1.0340
14154SOL    HW244076   5.387   7.060   8.317 -0.0677 -0.6618  1.3024
14155SOL     OW44077   9.405   9.751   4.923 -0.2846 -0.4050 -0.2549
14155SOL    HW144078   9.340   9.818   4.945  1.3611  0.8731  0.9787
14155SOL    HW244079   9.395   9.684   4.990 -0.1976 -0.0826  0.0877
14156SOL     OW44080   2.702   7.497   0.191  0.2478  0.7770  0.0497
14156SOL    HW144081   2.754   7.567   0.153  1.0230 -0.3244 -1.0013
14156SOL    HW244082   2.640   7.473   0.121 -0.4896  0.8915  0.6525
14157SOL     OW44083   2.118   8.389   5.770 -0.1079 -0.4156 -0.7070
14157SOL    HW144084   2.180   8.424   5.706  0.1306  0.6163  0.0652
14157SOL    HW244085   2.172   8.345   5.834 -0.1119  0.7974  0.1637
14158SOL     OW44086   2.929   2.365   8.213 -0.7270 -0.2892 -0.3014
14158SOL    HW144087   2.914   2.329   8.126  0.6899 -1.4667 -0.1039
14158SOL    HW244088   2.997   2.431   8.201  3.0495 -3.6500  0.3856
14159SOL     OW44089   6.806   7.637   6.940  0.1249  0.4084 -0.3114
14159SOL    HW144090   6.782   7.546   6.962 -1.9372  1.0573  0.4110
14159SOL    HW244091   6.755   7.656   6.861  0.6942  0.8825 -0.5677
14160SOL     OW44092   2.806   9.645   7.883 -0.0630 -0.4896 -0.5542
14160SOL    HW144093   2.841   9.720   7.835 -0.7290  0.3165  0.2070
14160SOL    HW244094   2.754   9.683   7.954 -2.4625 -1.6392 -1.5921
14161SOL     OW44095   2.333   2.156   6.755  0.1425 -0.1247  0.2645
14161SOL    HW144096   2.281   2.115   6.686 -0.8544  1.1792  0.2034
14161SOL    HW244097   2.358   2.083   6.812 -0.5075 -0.9824 -0.5070
14162SOL     OW44098   8.414   2.572   9.252 -0.1846 -0.0972  0.0052
14162SOL    HW144099   8.348   2.562   9.322 -0.2333  0.2863  0.0201
14162SOL    HW244100   8.366   2.616   9.181 -1.1210 -3.4742 -1.6853
14163SOL     OW44101   3.970   0.521   2.620 -0.3652 -0.0983  0.1486
14163SOL    HW144102   3.883   0.552   2.592  0.3449 -0.1926 -2.3689
14163SOL    HW244103   4.029   0.592   2.595  0.5959 -1.1208 -0.4945
14164SOL     OW44104   8.772   3.782   8.378 -0.0148  0.0253 -0.5203
14164SOL    HW144105   8.700   3.840   8.403  0.7943  0.9373 -0.2667
14164SOL    HW244106   8.851   3.829   8.403  0.6857 -0.8931 -0.9444
14165SOL     OW44107   7.869   5.832   6.790  0.1808 -0.0909 -0.3325
14165SOL    HW144108   7.946   5.866   6.836  0.8430 -0.3740 -1.2006
14165SOL    HW244109   7.810   5.906   6.782 -0.6488 -0.3645  2.3212
14166SOL     OW44110   1.604   7.681   8.184 -0.4538  0.2856  0.1042
14166SOL    HW144111   1.633   7.768   8.211  2.1145  0.3791 -2.4792
14166SOL    HW244112   1.553   7.696   8.104  0.0221 -0.5822 -0.3696
14167SOL     OW44113   0.828   9.068   3.260  0.5947 -0.5861 -0.1671
14167SOL    HW144114   0.921   9.053   3.248  1.0857  0.9945  1.3941
14167SOL    HW244115   0.822   9.154   3.300 -1.7007  0.7093 -2.9011
14168SOL     OW44116   5.859   0.413   5.533  0.2423 -0.2115  0.9890
14168SOL    HW144117   5.823   0.335   5.577 -0.3091 -0.8029 -0.4346
14168SOL    HW244118   5.830   0.486   5.587 -1.2691 -0.8410  1.0877
14169SOL     OW44119   5.772   0.320   7.440 -0.0000 -0.2056 -0.0557
14169SOL    HW144120   5.780   0.295   7.348  0.2317  1.4189 -0.5074
14169SOL    HW244121   5.760   0.237   7.486 -0.7403 -1.0078 -1.6046
14170SOL     OW44122   2.644   5.391   2.038 -0.6464  0.6450 -0.0594
14170SOL    HW144123   2.724   5.387   1.985 -0.1489 -0.3764  0.7347
14170SOL    HW244124   2.574   5.369   1.976 -0.2241  0.6994 -0.5683
14171SOL     OW44125   0.189   8.947   9.253 -0.1902 -0.2749 -0.2744
14171SOL    HW144126   0.259   8.889   9.281 -1.3625 -1.6905 -0.1510
14171SOL    HW244127   0.146   8.975   9.334  0.2466  0.6223 -0.3439
14172SOL     OW44128   6.153   5.820   6.349 -0.1344  0.3992  0.8540
14172SOL    HW144129   6.122   5.886   6.288  0.1905  0.3948  0.6812
14172SOL    HW244130   6.078   5.802   6.406 -0.3771  0.5472  0.5817
14173SOL     OW44131   9.077   4.257   3.716  0.3352 -0.2827  0.0793
14173SOL    HW144132   8.987   4.262   3.746 -0.2117  1.9569 -1.7044
14173SOL    HW244133   9.101   4.346   3.693  3.1683 -0.7377  0.8097
14174SOL     OW44134   5.274   4.980   5.482 -0.4062 -0.6356  0.2144
14174SOL    HW144135   5.229   5.029   5.413 -0.6213 -0.9715  0.1165
14174SOL    HW244136   5.341   5.041   5.515 -0.2655 -0.4927 -0.3283
14175SOL     OW44137   0.095   3.307   8.431 -0.2771  0.0556 -0.0101
14175SOL    HW144138   0.115   3.218   8.461  0.4747 -0.0393 -0.7706
14175SOL    HW244139   0.178   3.341   8.399 -0.6309  0.9221 -0.0335
14176SOL     OW44140   6.515   5.487   8.480  0.0381  0.4998 -0.4167
14176SOL    HW144141   6.503   5.566   8.428  0.0389  0.4821 -0.4440
14176SOL    HW244142   6.426   5.455   8.497  0.0524 -0.4089 -1.8045
14177SOL     OW44143   0.909   9.537   2.872 -0.1468  0.3646 -0.1202
14177SOL    HW144144   0.909   9.633   2.882 -1.4912  0.4640 -0.8896
14177SOL    HW244145   0.844   9.520   2.805  0.4914 -1.0745 -0.3992
14178SOL     OW44146   6.260   0.044   6.047  0.0285  0.1659  0.0528
14178SOL    HW144147   6.237  -0.046   6.023  0.3348  0.2343 -0.5042
14178SOL    HW244148   6.288   0.084   5.966  0.2965  0.6446  0.3782
14179SOL     OW44149   5.953   6.715   1.890  0.8272 -0.1272  0.0490
14179SOL    HW144150   6.033   6.725   1.838  0.5041 -2.1075 -0.9547
14179SOL    HW244151   5.930   6.623   1.880 -0.2499 -0.1778  2.3276
14180SOL     OW44152   1.678   2.202   0.096 -0.2811 -0.4913  0.4546
14180SOL    HW144153   1.624   2.151   0.157  0.4670 -0.3373  1.2719
14180SOL    HW244154   1.616   2.237   0.032 -1.3987  1.0395  2.2909
14181SOL     OW44155   8.347   7.356   3.291 -0.4671  0.7017  0.0726
14181SOL    HW144156   8.432   7.359   3.333 -0.1408 -0.7133 -0.4437
14181SOL    HW244157   8.304   7.279   3.328 -0.8882  0.4883 -0.8369
14182SOL     OW44158   6.055   3.830   1.605  1.0042  0.3366  0.3020
14182SOL    HW144159   5.975   3.779   1.595  0.7596  0.8371 -0.3951
14182SOL    HW244160   6.125   3.765   1.600  0.6320 -0.3003  2.4012
14183SOL     OW44161   3.224   3.439   5.311 -0.5615  0.4059 -0.0616
14183SOL    HW144162   3.146   3.389   5.289 -0.2673  0.4394 -1.2542
14183SOL    HW244163   3.297   3.379   5.294 -0.3311 -0.2870  2.8097
14184SOL     OW44164   6.781   0.805   8.342 -0.5047 -0.0311  0.1974
14184SOL    HW144165   6.798   0.898   8.360 -3.2477  0.2515  1.9762
14184SOL    HW244166   6.863   0.761   8.361  0.7789  1.9756 -0.3961
14185SOL     OW44167   6.043   7.990   0.115 -0.3239 -0.6249 -0.1388
14185SOL    HW144168   6.050   8.079   0.150  1.0303 -0.3251 -1.0504
14185SOL    HW244169   6.123   7.979   0.064 -1.4922 -1.5717 -1.8587
14186SOL     OW44170   6.840   2.685   1.225  0.3699 -0.1019 -0.4192
14186SOL    HW144171   6.865   2.773   1.254  4.5086 -1.6351  1.4831
14186SOL    HW244172   6.807   2.642   1.304 -0.0670 -0.7331 -0.9365
14187SOL     OW44173   8.975   6.553   8.870  0.1316 -0.4616 -0.8043
14187SOL    HW144174   8.888   6.555   8.830  0.3044  0.7111 -1.1632
14187SOL    HW244175   8.969   6.614   8.943  0.1122 -1.8377  0.3843
14188SOL     OW44176   7.458   0.695   2.778 -0.4142  0.2901  0.9047
14188SOL    HW144177   7.502   0.773   2.743  0.4023 -0.7815 -0.5838
14188SOL    HW244178   7.368   0.722   2.792 -0.2144  1.4261  0.1109
14189SOL     OW44179   0.636   9.151   3.829 -0.0057 -0.2413 -0.5091
14189SOL    HW144180   0.546   9.147   3.862 -0.0750 -2.0018 -0.7979
14189SOL    HW244181   0.665   9.059   3.826  1.2627  0.1539 -1.8663
14190SOL     OW44182   0.089   6.283   8.156 -0.4954 -0.3492  0.1082
14190SOL    HW144183   0.046   6.265   8.240 -0.0823 -0.3791  0.3171
14190SOL    HW244184   0.084   6.378   8.146 -1.2251 -0.4170 -0.2045
14191SOL     OW44185   4.907   6.748   9.746  0.0337  0.2428  0.9929
14191SOL    HW144186   4.967   6.673   9.751 -0.1285  0.0667  0.3785
14191SOL    HW244187   4.868   6.753   9.833 -0.6930 -1.0118  0.7698
14192SOL     OW44188   8.941   3.507   7.720  0.4352 -0.3152  0.2324
14192SOL    HW144189   8.935   3.602   7.712  1.9365 -0.1900  0.3756
14192SOL    HW244190   8.875   3.484   7.786 -0.7239  0.4795 -0.6132
14193SOL     OW44191   3.763   1.020   1.243  0.3775 -0.5769  0.2735
14193SOL    HW144192   3.825   1.061   1.303 -0.5853  0.2179  0.7542
14193SOL    HW244193   3.752   0.931   1.276  1.2748 -0.7313  0.1646
14194SOL     OW44194   5.197   0.406   0.579 -0.5113  0.0194  0.0105
14194SOL    HW144195   5.144   0.332   0.550 -0.2121  0.2239 -1.1199
14194SOL    HW244196   5.252   0.371   0.649  0.7395 -1.2560 -1.5326
14195SOL     OW44197   0.234   6.363   3.272  0.1204  0.0502  0.2129
14195SOL    HW144198   0.314   6.364   3.221  1.2392  0.1119  1.8718
14195SOL    HW244199   0.190   6.282   3.249  0.7749 -0.0899 -0.5471
14196SOL     OW44200   4.830   1.356   2.148  0.2759  0.1040  0.6390
14196SOL    HW144201   4.822   1.444   2.111 -0.3528 -0.2410 -0.0614
14196SOL    HW244202   4.871   1.304   2.078 -0.3906 -0.4202  0.6322
14197SOL     OW44203   3.368   4.735   1.347  0.1517  0.7019 -0.2760
14197SOL    HW144204   3.462   4.719   1.340 -0.1398 -1.7644  0.5858
14197SOL    HW244205   3.359   4.830   1.337  2.7464  1.0381 -0.0063
14198SOL     OW44206   4.441   3.517   1.673 -0.0629  0.2790 -0.0618
14198SOL    HW144207   4.445   3.431   1.631  0.7371  1.0092 -1.5941
14198SOL    HW244208   4.519   3.563   1.640 -0.3037  1.4734  0.9725
14199SOL     OW44209   3.839   2.706   2.640  0.2640  0.1035  0.5259
14199SOL    HW144210   3.793   2.727   2.721  2.5785  0.7509  1.7518
14199SOL    HW244211   3.808   2.619   2.617 -2.8174  1.1272  0.2816
14200SOL     OW44212   6.450   0.880   5.843 -0.0428  0.5694  1.2377
14200SOL    HW144213   6.484   0.958   5.799 -1.4103  0.1866 -0.6229
14200SOL    HW244214   6.377   0.912   5.896  0.2291  0.7149  1.5318
14201SOL     OW44215   0.394   1.905   4.614  0.0472 -0.0470 -0.7710
14201SOL    HW144216   0.408   1.999   4.602  2.1729 -0.2509 -0.2620
14201SOL    HW244217   0.333   1.899   4.688  2.6147  0.9688  1.6049
14202SOL     OW44218   5.899   4.123   0.175 -0.1683  0.2571  0.3606
14202SOL    HW144219   5.913   4.100   0.266  1.3959  1.9690  0.5999
14202SOL    HW244220   5.964   4.190   0.156 -0.7601  0.2939 -1.8904
14203SOL     OW44221   6.907   2.839   6.422 -0.4399  0.4759 -0.0670
14203SOL    HW144222   6.840   2.891   6.376 -0.7563  0.2245  0.1044
14203SOL    HW244223   6.946   2.784   6.354 -0.0743  0.9638 -0.2587
14204SOL     OW44224   1.138   9.408   1.747 -0.1425  0.0326 -0.8894
14204SOL    HW144225   1.064   9.469   1.748 -0.4102 -0.2528 -2.0301
14204SOL    HW244226   1.215   9.463   1.731 -0.0748  0.3446  0.4111
14205SOL     OW44227   9.449   4.086   4.110 -0.1768  0.4161 -0.0423
14205SOL    HW144228   9.434   4.015   4.048 -1.2452  0.4959  0.1137
14205SOL    HW244229   9.544   4.100   4.107  0.2610 -1.9356  0.9462
14206SOL     OW44230   5.900   9.507   6.679 -0.0378 -0.2458 -0.0227
14206SOL    HW144231   5.842   9.496   6.604  1.1659  1.6314 -1.3095
14206SOL    HW244232   5.841   9.507   6.755 -1.3581 -1.4153 -0.9966
14207SOL     OW44233   3.176   2.955   2.598 -0.4189 -0.2231 -0.3304
14207SOL    HW144234   3.247   2.996   2.548 -2.5563  0.2010 -3.2702
14207SOL    HW244235   3.151   3.022   2.662 -1.7670  2.0616 -3.0086
14208SOL     OW44236   9.004   1.381   1.641 -0.0340  0.2931 -0.1210
14208SOL    HW144237   9.051   1.394   1.723 -1.1008 -0.1772  0.5883
14208SOL    HW244238   9.041   1.447   1.582  1.4993 -0.0772  0.3942
14209SOL     OW44239   2.243   9.325   4.650 -0.0377  0.4617  0.1258
14209SOL    HW144240   2.187   9.373   4.710  0.6078  0.4789  0.7317
14209SOL    HW244241   2.326   9.373   4.649  0.0335  0.3518 -0.6318
14210SOL     OW44242   5.051   2.808   0.108  0.0281  0.3057 -0.4063
14210SOL    HW144243   4.996   2.881   0.138 -0.1907 -0.9842  2.6973
14210SOL    HW244244   4.989   2.737   0.091  0.4752 -0.1303 -0.2373
14211SOL     OW44245   0.210   1.226   8.340 -0.5159 -0.4343  0.1382
14211SOL    HW144246   0.118   1.238   8.315 -0.5620 -1.7444 -0.4455
14211SOL    HW244247   0.206   1.178   8.423 -0.3425  1.9594  1.6101
14212SOL     OW44248   4.209   9.443   5.085 -0.1610 -0.0212  0.0884
14212SOL    HW144249   4.229   9.534   5.063  0.1255  0.0007  0.4343
14212SOL    HW244250   4.288   9.394   5.060 -1.3851 -0.6635 -2.9948
14213SOL     OW44251   5.650   1.720   0.192  0.3661  0.2301 -0.3619
14213SOL    HW144252   5.616   1.746   0.106  1.0709  0.3668 -0.6038
14213SOL    HW244253   5.610   1.782   0.253  0.3338  0.5120 -0.6657
14214SOL     OW44254   3.895   0.146   7.135  0.0144 -0.2960  0.3849
14214SOL    HW144255   3.866   0.120   7.223 -0.0061 -1.5404  0.0209
14214SOL    HW244256   3.963   0.083   7.112  0.1171  0.1034 -0.4409
14215SOL     OW44257   1.048   4.652   7.721 -0.2650 -0.1806 -0.0717
14215SOL    HW144258   1.006   4.721   7.773  1.9325  2.0197 -1.0175
14215SOL    HW244259   1.094   4.699   7.651  0.0936 -2.7525 -1.6793
14216SOL     OW44260   8.699   7.177   3.463 -0.3995  0.1886  0.6372
14216SOL    HW144261   8.727   7.192   3.373 -1.8208 -1.0887 -0.0642
14216SOL    HW244262   8.710   7.262   3.506  0.8691  0.6626 -0.5710
14217SOL     OW44263   7.920   5.141   2.623  0.4323  0.0710  0.4205
14217SOL    HW144264   7.978   5.092   2.681  0.3094  1.7148  2.0392
14217SOL    HW244265   7.963   5.226   2.612  0.0620  0.0754 -1.3210
14218SOL     OW44266   3.488   0.925   5.738  0.0076  0.0305 -0.1444
14218SOL    HW144267   3.470   1.016   5.762 -0.0444  0.0577 -0.2847
14218SOL    HW244268   3.524   0.886   5.817  0.9978  0.4402 -0.3865
14219SOL     OW44269   2.154   4.468   0.379  0.0273  0.2713 -0.0005
14219SOL    HW144270   2.191   4.417   0.307 -0.0134 -0.8152  0.7198
14219SOL    HW244271   2.216   4.539   0.393  0.7323 -0.2918 -0.2255
14220SOL     OW44272   8.542   0.850   7.715 -0.2326  0.4552  0.6628
14220SOL    HW144273   8.611   0.802   7.761 -1.0998 -1.1328  0.3533
14220SOL    HW244274   8.581   0.871   7.630 -0.2855 -0.9249  0.2728
14221SOL     OW44275   3.442   5.312   5.069  0.0578 -0.0363 -0.3697
14221SOL    HW144276   3.446   5.278   4.980  1.2244 -1.3434  0.1399
14221SOL    HW244277   3.527   5.353   5.083 -0.6122  1.3539 -0.2889
14222SOL     OW44278   6.787   4.105   0.069 -0.5498 -0.0992  0.0978
14222SOL    HW144279   6.823   4.101   0.158  0.8636 -0.7408 -0.4783
14222SOL    HW244280   6.695   4.079   0.079 -0.1114 -1.3305  1.2104
14223SOL     OW44281   2.928   2.832   3.770 -0.1820 -0.5177 -0.1851
14223SOL    HW144282   2.882   2.864   3.848  0.6074 -0.3228  0.2086
14223SOL    HW244283   2.896   2.743   3.758 -0.7436 -0.3464  0.0156
14224SOL     OW44284   1.683   4.862   6.890 -0.5257  0.0316  0.1328
14224SOL    HW144285   1.761   4.887   6.940 -0.8335  1.6800 -0.1437
14224SOL    HW244286   1.661   4.775   6.922  1.8827 -0.8517 -0.3430
14225SOL     OW44287   2.344   6.346   8.388 -0.4555  0.2879  0.4135
14225SOL    HW144288   2.368   6.308   8.303 -1.2830  0.6202  0.0259
14225SOL    HW244289   2.317   6.271   8.441  1.5110 -0.1341  0.9262
14226SOL     OW44290   8.760   6.071   8.765  0.1437 -0.7594  0.2296
14226SOL    HW144291   8.731   6.126   8.838 -0.7919 -0.6964 -0.1701
14226SOL    HW244292   8.679   6.041   8.724  0.6508 -1.8343 -0.0171
14227SOL     OW44293   7.038   0.717   1.151 -0.3976 -0.8085 -0.0391
14227SOL    HW144294   6.979   0.643   1.138 -0.4672 -0.5117 -1.6786
14227SOL    HW244295   7.124   0.678   1.168 -0.7345 -1.2426  0.7102
14228SOL     OW44296   6.254   1.695   2.044 -0.6805  0.5208 -0.5488
14228SOL    HW144297   6.187   1.634   2.074 -0.8225  0.8674 -0.1617
14228SOL    HW244298   6.248   1.769   2.103 -1.3312  1.4721 -1.7511
14229SOL     OW44299   7.912   9.558   6.032  0.5514 -0.0744  0.1540
14229SOL    HW144300   7.974   9.514   5.975  1.3226 -0.5833  1.3561
14229SOL    HW244301   7.880   9.490   6.091 -1.3902  0.1091 -0.6220
14230SOL     OW44302   6.735   7.176   5.310 -0.0220  0.4271 -0.1702
14230SOL    HW144303   6.745   7.104   5.247 -1.0296 -1.4645  1.6725
14230SOL    HW244304   6.780   7.250   5.270  3.9021 -2.0282 -0.8445
14231SOL     OW44305   5.568   0.433   2.596  0.1774  0.6329  0.0197
14231SOL    HW144306   5.477   0.441   2.568  0.1094  1.3024  0.4081
14231SOL    HW244307   5.618   0.428   2.515 -0.2412 -0.2397 -0.1925
14232SOL     OW44308   4.479   5.634   3.496 -0.0267 -0.0597 -0.2471
14232SOL    HW144309   4.526   5.706   3.538 -1.0617  1.9382 -2.2680
14232SOL    HW244310   4.544   5.594   3.439 -0.0834  1.0631 -1.1359
14233SOL     OW44311   2.205   0.967   5.106  0.0795  0.0357 -0.0631
14233SOL    HW144312   2.219   0.874   5.122  0.0980 -0.2679 -1.7137
14233SOL    HW244313   2.258   0.987   5.029  1.0396  1.7161  0.9345
14234SOL     OW44314   4.518   9.129   2.897  0.2409  0.1387  0.4014
14234SOL    HW144315   4.588   9.066   2.881 -0.4276 -1.0723  2.0286
14234SOL    HW244316   4.536   9.164   2.984  0.8452  2.5865 -0.6322
14235SOL     OW44317   9.501   2.206   5.871  0.6546 -0.1241  0.0549
14235SOL    HW144318   9.506   2.286   5.924  0.1283 -1.1464  1.6706
14235SOL    HW244319   9.509   2.134   5.933 -1.2105 -1.3979 -1.0905
14236SOL     OW44320   8.361   4.950   7.733 -0.1553  0.1163 -0.3632
14236SOL    HW144321   8.355   4.954   7.829  0.6629  1.5102 -0.3408
14236SOL    HW244322   8.447   4.986   7.713 -0.7006  0.7791 -1.6679
14237SOL     OW44323   4.135   9.539   9.721 -0.0047  0.4793  0.2618
14237SOL    HW144324   4.138   9.444   9.736 -1.3167  0.4542  0.5119
14237SOL    HW244325   4.053   9.553   9.674  0.1439  1.5097  0.2902
14238SOL     OW44326   0.971   4.126   2.993  0.1081  0.2765 -0.5611
14238SOL    HW144327   0.963   4.148   3.086 -1.4997  0.0334 -0.6060
14238SOL    HW244328   0.888   4.084   2.972  0.7084 -0.2499 -1.9645
14239SOL     OW44329   5.282   7.599   5.139  0.5795 -0.3985 -0.5674
14239SOL    HW144330   5.302   7.507   5.122 -2.3979 -1.1130 -0.8064
14239SOL    HW244331   5.248   7.600   5.228 -0.2517  0.2946 -0.8804
14240SOL     OW44332   4.179   1.820   6.337 -0.1044 -0.0557  0.6287
14240SOL    HW144333   4.257   1.840   6.285  0.1950  0.0941  1.1368
14240SOL    HW244334   4.154   1.732   6.309 -1.6178  1.0291 -1.8689
14241SOL     OW44335   2.339   1.907   9.603 -0.3815 -0.6513  0.3150
14241SOL    HW144336   2.319   1.901   9.696 -1.1933  2.1047  0.4040
14241SOL    HW244337   2.255   1.926   9.561  0.3223  0.4509 -0.6602
14242SOL     OW44338   6.336   1.005   1.899 -0.3643 -0.5197 -0.1220
14242SOL    HW144339   6.306   1.093   1.925 -1.3209 -0.9944  0.4276
14242SOL    HW244340   6.400   0.982   1.966 -0.0374 -0.2102 -0.3213
14243SOL     OW44341   9.559   1.300   1.026  0.2907  0.1314 -1.0855
14243SOL    HW144342   9.481   1.342   0.990  0.4903  1.2355 -0.2935
14243SOL    HW244343   9.564   1.216   0.981 -1.5104 -0.0865 -0.9757
14244SOL     OW44344   0.908   1.792   0.056  0.1925  0.1085 -0.1205
14244SOL    HW144345   0.965   1.739   0.112  1.3778  1.0801 -0.3692
14244SOL    HW244346   0.906   1.878   0.098  0.9537  0.8023 -1.4088
14245SOL     OW44347   6.302   1.839   7.992  0.2364  0.1894 -0.1118
14245SOL    HW144348   6.255   1.915   8.026  2.9437  1.1994  1.6990
14245SOL    HW244349   6.353   1.872   7.919  1.9947  0.3638  1.1451
14246SOL     OW44350   4.536   2.009   8.893  0.0742 -0.1294  0.3214
14246SOL    HW144351   4.587   1.939   8.851  1.2586 -0.1142  1.6190
14246SOL    HW244352   4.470   1.963   8.944 -1.7435 -0.1311 -1.9045
14247SOL     OW44353   5.300   3.480   9.765  0.4921 -0.2658  0.9703
14247SOL    HW144354   5.220   3.500   9.814 -0.3796  0.3370 -0.6097
14247SOL    HW244355   5.366   3.464   9.832 -1.2260 -2.0632  2.3744
14248SOL     OW44356   1.255   8.065   3.888 -0.0855 -0.1078 -0.6593
14248SOL    HW144357   1.254   7.970   3.876  2.9833 -0.3681  0.2752
14248SOL    HW244358   1.177   8.084   3.941  0.6883 -2.5356  1.5383
14249SOL     OW44359   7.336   0.388   9.143 -0.1552  0.4323 -0.4174
14249SOL    HW144360   7.365   0.418   9.057  1.7436 -1.2801 -0.4556
14249SOL    HW244361   7.247   0.357   9.129  0.5233 -0.9527 -2.1153
14250SOL     OW44362   8.823   9.789   0.792 -0.6431 -0.2731  0.1095
14250SOL    HW144363   8.865   9.761   0.710 -1.6226 -1.4301 -0.0210
14250SOL    HW244364   8.870   9.742   0.860 -0.3410  0.0923  0.1621
14251SOL     OW44365   3.883   0.754   0.616  0.1581  0.0694  0.0781
14251SOL    HW144366   3.939   0.829   0.634 -0.6288  1.3869 -2.4412
14251SOL    HW244367   3.944   0.683   0.595  0.9174 -0.1412  2.6694
14252SOL     OW44368   4.739   0.373   7.382  0.0189  0.3433  0.3612
14252SOL    HW144369   4.799   0.404   7.314 -1.3147  0.8155 -0.6196
14252SOL    HW244370   4.712   0.286   7.353  0.0305  0.2255  0.6926
14253SOL     OW44371   1.419   7.274   5.603  0.2607 -0.1794 -0.3963
14253SOL    HW144372   1.326   7.272   5.624  0.5946 -1.0887  1.1345
14253SOL    HW244373   1.423   7.317   5.517 -1.9202 -3.6310 -2.4850
14254SOL     OW44374   9.393   1.780   3.964 -0.1673 -0.4740  0.1725
14254SOL    HW144375   9.382   1.776   3.869  0.4845 -0.3524  0.0888
14254SOL    HW244376   9.474   1.829   3.977 -1.2351  1.2209  0.8416
14255SOL     OW44377   8.168   3.288   2.904 -0.0637  0.1990  0.0356
14255SOL    HW144378   8.199   3.314   2.817 -2.0614  1.0219 -0.4807
14255SOL    HW244379   8.180   3.193   2.907 -1.5337 -0.1050 -1.8502
14256SOL     OW44380   2.789   1.750   7.363  0.0696  0.1509  0.2187
14256SOL    HW144381   2.883   1.757   7.374  0.3888 -0.2064 -1.9374
14256SOL    HW244382   2.776   1.741   7.269 -2.1190  0.1440  0.4678
14257SOL     OW44383   8.641   6.225   5.041  0.3140  0.2041 -0.3636
14257SOL    HW144384   8.699   6.290   5.081  0.7616 -1.0329  1.0794
14257SOL    HW244385   8.666   6.142   5.081 -2.3560 -0.4258  0.2222
14258SOL     OW44386   4.771   8.581   3.191 -0.1395 -0.2616 -0.1084
14258SOL    HW144387   4.697   8.556   3.247 -0.4395 -0.6367 -0.6633
14258SOL    HW244388   4.791   8.502   3.141 -0.2404  0.2119 -0.9291
14259SOL     OW44389   4.988   0.622   8.866  0.5158  0.5357 -0.5830
14259SOL    HW144390   4.995   0.534   8.902  1.7073  0.9761  0.3216
14259SOL    HW244391   4.974   0.679   8.942 -2.4068  0.9596 -1.3190
14260SOL     OW44392   3.618   9.345   5.733  0.0416 -0.7131 -0.2702
14260SOL    HW144393   3.672   9.312   5.806  2.1752  1.3261 -0.8014
14260SOL    HW244394   3.539   9.378   5.775  1.7866  1.6723  1.4110
14261SOL     OW44395   6.241   0.773   8.898  0.1075 -0.1856 -0.4886
14261SOL    HW144396   6.189   0.757   8.977  0.1533  0.3426 -0.3464
14261SOL    HW244397   6.316   0.714   8.906  0.8149  0.8072  0.5454
14262SOL     OW44398   0.482   0.457   0.389 -0.2069 -0.3825  0.2183
14262SOL    HW144399   0.438   0.518   0.331  0.6332 -1.6446 -1.8338
14262SOL    HW244400   0.527   0.513   0.453  0.4865  1.1660 -1.5444
14263SOL     OW44401   8.245   0.268   7.476  0.1397  0.7855  0.5045
14263SOL    HW144402   8.174   0.257   7.539 -1.8541  1.6768 -1.4434
14263SOL    HW244403   8.224   0.207   7.405  1.5518  0.8105  0.0268
14264SOL     OW44404   0.594   9.436   3.661 -0.0886  0.1796 -0.0351
14264SOL    HW144405   0.663   9.475   3.715 -1.1663  2.7883 -0.3775
14264SOL    HW244406   0.523   9.419   3.722  0.7650 -2.5391  0.3227
14265SOL     OW44407   3.506   6.137   9.043 -0.0681 -0.1095  0.6161
14265SOL    HW144408   3.478   6.068   8.984  1.4444  0.0942 -0.4010
14265SOL    HW244409   3.587   6.171   9.004  0.0047  1.2542  1.8536
14266SOL     OW44410   9.697   5.066   9.550  1.0275  0.3262  0.1383
14266SOL    HW144411   9.748   4.987   9.568  1.2916  0.6642  0.9485
14266SOL    HW244412   9.727   5.128   9.616  0.1993  0.8204  0.0541
14267SOL     OW44413   3.259   0.973   1.286 -0.6168  0.1567 -0.4245
14267SOL    HW144414   3.259   1.068   1.274 -2.2578  0.3344  0.6072
14267SOL    HW244415   3.307   0.960   1.369 -1.0189  0.1565 -0.1903
14268SOL     OW44416   5.986   6.528   1.256 -0.2271 -0.2520 -0.8454
14268SOL    HW144417   6.008   6.621   1.267 -0.0004 -0.6222  3.0139
14268SOL    HW244418   6.070   6.485   1.240 -0.0065 -0.0375 -0.2847
14269SOL     OW44419   6.798   6.051   2.777 -0.1589  0.3424  0.4943
14269SOL    HW144420   6.794   6.146   2.780  1.1900  0.4110  0.3949
14269SOL    HW244421   6.833   6.025   2.862  1.3160  0.0633 -0.1783
14270SOL     OW44422   9.359   0.414   4.932 -0.6476  0.1832  0.3412
14270SOL    HW144423   9.333   0.419   4.840  0.6800 -1.5812 -0.1890
14270SOL    HW244424   9.334   0.326   4.959 -0.3514  0.4296  1.4616
14271SOL     OW44425   8.983   1.993   9.802  0.4989 -0.5534  0.0939
14271SOL    HW144426   9.028   1.937   9.739  1.3636 -0.2906  0.4705
14271SOL    HW244427   9.045   2.063   9.822 -0.3773  0.2804  0.0098
14272SOL     OW44428   2.637   9.189   8.177  0.1064  0.0690 -0.1091
14272SOL    HW144429   2.639   9.158   8.268 -0.4398 -0.3989 -0.2502
14272SOL    HW244430   2.569   9.256   8.175 -0.9825 -1.0171 -0.4976
14273SOL     OW44431   8.336   6.467   5.844  0.4470 -0.5097  0.1894
14273SOL    HW144432   8.304   6.549   5.882  0.7683 -0.1362 -0.3295
14273SOL    HW244433   8.330   6.481   5.750  1.6347 -0.6264  0.0854
14274SOL     OW44434   6.887   9.630   0.454  0.8603 -0.0744 -0.4227
14274SOL    HW144435   6.960   9.692   0.465  0.3129  0.3673  0.9653
14274SOL    HW244436   6.910   9.557   0.511  0.4175 -0.1109 -0.2897
14275SOL     OW44437   5.834   0.035   6.825 -0.1374  1.1865  0.0662
14275SOL    HW144438   5.774  -0.034   6.797 -0.2181  1.6562 -0.9632
14275SOL    HW244439   5.778   0.097   6.873 -0.5806  1.8429 -1.2641
14276SOL     OW44440   5.982   6.730   1.551  0.2924  0.1615 -0.2488
14276SOL    HW144441   6.070   6.763   1.570  0.4611 -0.5130  0.1747
14276SOL    HW244442   5.964   6.760   1.462  0.6199  0.9915 -0.0428
14277SOL     OW44443   3.478   8.142   1.802 -0.0424 -0.2755 -0.0075
14277SOL    HW144444   3.536   8.128   1.727 -0.4471 -0.5445 -0.2770
14277SOL    HW244445   3.422   8.215   1.775 -0.0470 -0.2331  0.1175
14278SOL     OW44446   5.140   6.826   5.272  0.1118  0.0602  0.9715
14278SOL    HW144447   5.103   6.866   5.194  2.4171  1.3734  0.4432
14278SOL    HW244448   5.110   6.735   5.270  0.2524  0.0135 -1.5361
14279SOL     OW44449   8.267   2.737   9.088 -0.1768 -0.6654 -0.4805
14279SOL    HW144450   8.326   2.774   9.024  0.7653  1.2638  1.3851
14279SOL    HW244451   8.208   2.808   9.112 -1.6233 -1.8236 -0.4291
14280SOL     OW44452   7.648   7.411   3.651 -0.0299 -0.1025  0.3259
14280SOL    HW144453   7.737   7.422   3.617 -0.4297  0.1208 -0.6766
14280SOL    HW244454   7.643   7.319   3.676 -0.5159 -0.9992 -2.6691
14281SOL     OW44455   1.654   6.930   4.797 -0.0247  0.0270  0.1037
14281SOL    HW144456   1.642   6.837   4.777  1.4933 -0.7519  2.4360
14281SOL    HW244457   1.593   6.948   4.868 -0.0920  0.7573 -0.1312
14282SOL     OW44458   9.672   5.645   5.897 -0.0475  0.1658 -0.0119
14282SOL    HW144459   9.708   5.695   5.970 -1.2955 -0.1118  0.8153
14282SOL    HW244460   9.708   5.688   5.819  1.6926  0.1516  0.7468
14283SOL     OW44461   4.581   9.243   9.772  0.3289  0.2289 -0.2704
14283SOL    HW144462   4.668   9.246   9.812  0.4687  2.9759 -0.5448
14283SOL    HW244463   4.597   9.262   9.679 -0.5214  0.3195 -0.4050
14284SOL     OW44464   2.882   6.624   5.719  0.1121 -0.4609 -0.1253
14284SOL    HW144465   2.790   6.610   5.699 -0.0002  1.3983 -1.1108
14284SOL    HW244466   2.884   6.703   5.772  1.0782 -1.1282  0.8945
14285SOL     OW44467   0.720   9.827   2.378 -0.3036 -0.5633 -0.4891
14285SOL    HW144468   0.787   9.817   2.310 -0.6837 -0.1287 -0.9311
14285SOL    HW244469   0.770   9.830   2.460  0.1911 -0.6328 -0.7829
14286SOL     OW44470   7.043   6.224   7.172  0.3718 -0.0252 -0.0806
14286SOL    HW144471   7.080   6.258   7.254  0.3297 -2.0337  0.8125
14286SOL    HW244472   7.118   6.185   7.127  0.5161  1.5690 -1.3481
14287SOL     OW44473   1.912   0.432   4.809 -0.2801  0.4953 -0.3470
14287SOL    HW144474   1.837   0.391   4.851  0.9226 -1.3538  0.1448
14287SOL    HW244475   1.891   0.433   4.716 -0.6126 -0.7576 -0.3055
14288SOL     OW44476   4.049   6.938   2.748 -0.0103  0.2572  0.1373
14288SOL    HW144477   4.052   6.983   2.664  1.7973 -0.4563 -0.2389
14288SOL    HW244478   4.085   7.002   2.810 -1.2100  0.7323  0.3646
14289SOL     OW44479   8.574   7.486   8.985  0.0789  0.4310 -0.7408
14289SOL    HW144480   8.575   7.399   8.944 -0.0070  0.4859 -0.8578
14289SOL    HW244481   8.485   7.518   8.972  0.2376  0.7267 -1.0964
14290SOL     OW44482   4.790   8.423   0.946  0.4361  0.0066  0.6917
14290SOL    HW144483   4.720   8.378   0.992  0.0066 -1.4503 -1.2512
14290SOL    HW244484   4.749   8.504   0.913  0.0246 -0.2145  0.6536
14291SOL     OW44485   0.291   2.187   9.018  0.5906  0.6485 -0.3386
14291SOL    HW144486   0.355   2.190   8.948  1.2331 -1.4656  0.0589
14291SOL    HW244487   0.207   2.184   8.974  1.0199 -1.9053 -1.1842
14292SOL     OW44488   1.632   1.281   4.650 -0.9280 -0.2078  0.0649
14292SOL    HW144489   1.564   1.348   4.641 -1.3956 -0.6012  0.5895
14292SOL    HW244490   1.593   1.215   4.708  0.0587 -0.2288  0.7227
14293SOL     OW44491   9.209   1.878   7.269  0.5944 -0.7033  0.4128
14293SOL    HW144492   9.303   1.898   7.260  0.7621 -1.3714  0.6557
14293SOL    HW244493   9.168   1.929   7.199  1.1963 -0.7920 -0.0201
14294SOL     OW44494   0.846   3.364   3.824  0.3066 -0.3540 -0.1183
14294SOL    HW144495   0.870   3.308   3.750  0.4668  0.8694 -1.0312
14294SOL    HW244496   0.872   3.314   3.901  2.1570 -0.7721 -0.9431
14295SOL     OW44497   0.189   7.602   6.953 -0.1749 -0.1277 -0.4570
14295SOL    HW144498   0.114   7.660   6.957  0.0838  0.1602  1.5402
14295SOL    HW244499   0.169   7.532   7.015  1.0573 -0.1923 -0.0906
14296SOL     OW44500   0.579   4.816   7.764  0.4103 -0.4940 -0.5724
14296SOL    HW144501   0.496   4.845   7.801  0.6876 -0.1569 -0.2093
14296SOL    HW244502   0.639   4.812   7.839  1.4082  1.6765 -1.1794
14297SOL     OW44503   7.757   7.004   1.307  0.4904 -0.4860 -0.0756
14297SOL    HW144504   7.736   6.931   1.366 -0.2634 -1.1963 -1.1768
14297SOL    HW244505   7.849   6.990   1.284 -0.2958 -2.7877 -2.4305
14298SOL     OW44506   1.726   1.669   6.706 -0.2528  0.0108  1.1206
14298SOL    HW144507   1.633   1.691   6.718 -1.0717 -2.3407 -0.2070
14298SOL    HW244508   1.770   1.754   6.696 -2.6608  1.1734 -0.7760
14299SOL     OW44509   8.100   2.409   6.607 -0.0861  0.4067 -0.1319
14299SOL    HW144510   8.118   2.465   6.531 -2.5690  0.2829 -0.8945
14299SOL    HW244511   8.110   2.320   6.573  2.6674  0.2647  0.7785
14300SOL     OW44512   8.310   5.807   1.930 -0.1992 -0.3949  0.0915
14300SOL    HW144513   8.251   5.809   1.855 -1.5538  0.3508  1.1287
14300SOL    HW244514   8.389   5.853   1.901 -1.1875  0.9776 -0.5007
14301SOL     OW44515   9.006   4.441   4.595 -0.3465  0.0589 -0.4163
14301SOL    HW144516   9.084   4.435   4.539 -2.3924 -0.6444 -3.4101
14301SOL    HW244517   9.006   4.531   4.628 -0.3555  1.3729 -3.7086
14302SOL     OW44518   5.901   6.466   7.953  0.0778 -0.6457 -0.3605
14302SOL    HW144519   5.833   6.477   8.020 -0.2407  0.1495 -0.7984
14302SOL    HW244520   5.946   6.551   7.952 -0.6887 -0.2179 -1.9718
14303SOL     OW44521   2.619   0.903   9.298 -0.2510  0.2750 -0.0338
14303SOL    HW144522   2.549   0.959   9.331 -2.0629 -1.7015 -0.3136
14303SOL    HW244523   2.660   0.866   9.376 -1.1365 -0.4143  0.1212
14304SOL     OW44524   7.492   6.571   6.184 -0.7132  0.1324  0.1107
14304SOL    HW144525   7.402   6.570   6.151 -0.5553 -1.6982 -0.3904
14304SOL    HW244526   7.486   6.537   6.273 -0.5429  0.1889  0.1451
14305SOL     OW44527   6.673   5.912   1.669 -0.2133  0.3007  0.0935
14305SOL    HW144528   6.615   5.901   1.594 -0.4273 -0.7502  0.3988
14305SOL    HW244529   6.656   6.001   1.700 -1.7347 -0.0263  0.2440
14306SOL     OW44530   3.229   9.035   8.350 -0.0596  0.1799  0.0318
14306SOL    HW144531   3.236   9.075   8.437 -0.5244  0.4694 -0.0636
14306SOL    HW244532   3.162   8.967   8.360 -0.3323  0.4169 -0.1738
14307SOL     OW44533   4.617   5.914   7.806  0.2489 -0.2714 -0.3183
14307SOL    HW144534   4.677   5.889   7.876  0.1575  0.8123  0.1633
14307SOL    HW244535   4.657   5.990   7.765 -1.0408  0.8398  0.3834
14308SOL     OW44536   6.216   1.404   1.080  0.0105  0.1902 -0.0220
14308SOL    HW144537   6.243   1.491   1.050  0.4647  0.0575 -0.0010
14308SOL    HW244538   6.298   1.357   1.095 -0.2272 -0.6304 -1.1251
14309SOL     OW44539   2.546   7.151   1.187  0.4591  0.6248 -0.5053
14309SOL    HW144540   2.469   7.207   1.171 -0.0576  0.3383  0.8298
14309SOL    HW244541   2.579   7.181   1.272  0.5114 -0.6962 -0.0360
14310SOL     OW44542   2.701   2.550   6.051 -0.3515 -0.2283 -0.7609
14310SOL    HW144543   2.619   2.584   6.015  0.2924  0.5549 -1.5164
14310SOL    HW244544   2.701   2.581   6.142 -1.6812 -1.6808 -0.2254
14311SOL     OW44545   6.458   8.699   0.030 -0.0078 -0.2823  0.3814
14311SOL    HW144546   6.542   8.745   0.021  0.1624 -0.2987  1.6608
14311SOL    HW244547   6.432   8.715   0.121 -0.9502 -1.0293  0.2540
14312SOL     OW44548   7.238   0.020   9.427  0.5876 -0.7144 -0.4914
14312SOL    HW144549   7.241  -0.075   9.433 -0.6407 -1.0265 -3.2626
14312SOL    HW244550   7.319   0.044   9.380  0.6921 -0.4188 -0.1692
14313SOL     OW44551   6.516   1.240   8.659 -0.3892  0.0614 -0.2805
14313SOL    HW144552   6.587   1.222   8.597 -0.0250 -2.1310  0.6776
14313SOL    HW244553   6.446   1.179   8.633 -0.1571 -1.0369  1.5215
14314SOL     OW44554   5.842   5.445   2.651 -0.0785 -0.6626  0.5964
14314SOL    HW144555   5.823   5.401   2.734 -0.4473  1.5741  1.7586
14314SOL    HW244556   5.757   5.455   2.608  0.0490 -1.3634  0.1666
14315SOL     OW44557   9.433   3.782   4.006 -0.3082  0.2136  0.7755
14315SOL    HW144558   9.373   3.743   3.943  0.6703  1.7764 -1.2202
14315SOL    HW244559   9.453   3.711   4.067 -1.3771 -1.3343 -0.5926
14316SOL     OW44560   4.484   8.952   8.481  0.0626 -0.3971  0.0482
14316SOL    HW144561   4.390   8.940   8.474  0.0655 -0.8830  0.7458
14316SOL    HW244562   4.502   9.034   8.434 -0.4707 -1.1472 -1.5493
14317SOL     OW44563   5.212   4.777   3.370  0.0263 -0.0183 -0.3051
14317SOL    HW144564   5.258   4.709   3.421 -2.2012 -0.0649  1.8632
14317SOL    HW244565   5.197   4.737   3.284  2.1576 -0.7383 -0.3921
14318SOL     OW44566   8.768   2.565   0.030 -0.0277  0.3414 -0.3486
14318SOL    HW144567   8.711   2.541  -0.043  0.7369  0.4522 -0.9986
14318SOL    HW244568   8.850   2.518   0.012  1.0920  2.3941 -0.9882
14319SOL     OW44569   2.028   8.718   0.946  0.2552  0.1047  0.2391
14319SOL    HW144570   2.012   8.717   1.041  2.0186 -0.4956  0.5639
14319SOL    HW244571   2.034   8.811   0.924 -0.0597  0.2480  0.7294
14320SOL     OW44572   9.010   2.727   3.148 -0.2737  0.1454 -0.3015
14320SOL    HW144573   8.915   2.728   3.135 -0.0830  0.7289 -1.8954
14320SOL    HW244574   9.045   2.777   3.074  1.4188 -1.8304 -0.9309
14321SOL     OW44575   2.625   7.629   3.658 -0.6282  0.6372 -0.5621
14321SOL    HW144576   2.645   7.612   3.750 -0.5346  1.9099 -0.3333
14321SOL    HW244577   2.602   7.722   3.655 -0.8571  0.5569 -1.7908
14322SOL     OW44578   2.166   6.212   6.170 -0.3071  0.1772  0.1217
14322SOL    HW144579   2.242   6.162   6.199 -0.4207 -0.2255 -0.2744
14322SOL    HW244580   2.166   6.290   6.227 -0.5931 -0.6552  1.3088
14323SOL     OW44581   4.087   8.068   1.155  0.0782 -0.1389 -0.3625
14323SOL    HW144582   4.134   8.095   1.234 -1.8726  0.1096  0.7820
14323SOL    HW244583   4.064   8.151   1.112 -0.2292 -0.2031 -0.3280
14324SOL     OW44584   3.121   5.781   3.383  0.0039 -0.3728 -0.5123
14324SOL    HW144585   3.080   5.864   3.407  1.3206  0.3469 -0.6758
14324SOL    HW244586   3.157   5.748   3.466 -0.5646 -0.8392 -0.4359
14325SOL     OW44587   2.387   6.463   7.321  0.4650  0.1869 -0.3332
14325SOL    HW144588   2.309   6.410   7.337  0.3780  0.3512 -0.2115
14325SOL    HW244589   2.455   6.400   7.298  0.6001 -0.0511  0.6976
14326SOL     OW44590   3.712   0.807   6.979 -0.3514 -0.7298 -0.0627
14326SOL    HW144591   3.762   0.736   7.020  0.6050 -0.5541 -0.8899
14326SOL    HW244592   3.734   0.885   7.031 -0.1472 -0.7408 -0.1340
14327SOL     OW44593   9.657   4.873   1.689 -0.1158  0.6184  0.4301
14327SOL    HW144594   9.663   4.958   1.734 -2.0255  0.2616  1.4761
14327SOL    HW244595   9.563   4.856   1.683  0.1399 -0.3807 -1.8515
14328SOL     OW44596   7.146   8.794   5.341  0.1400  0.1806  0.3563
14328SOL    HW144597   7.095   8.873   5.320  0.4921  0.2056 -0.4431
14328SOL    HW244598   7.097   8.723   5.300 -1.4968 -0.4159  3.0476
14329SOL     OW44599   4.885   9.022   5.919 -0.6757  0.4260  0.5347
14329SOL    HW144600   4.955   8.956   5.924 -1.9106 -0.9441  0.5513
14329SOL    HW244601   4.814   8.977   5.873 -0.5126  2.7519 -2.2495
14330SOL     OW44602   3.552   0.647   5.348  0.1873  0.2440 -0.1745
14330SOL    HW144603   3.494   0.586   5.304 -0.1847  0.3936  0.0968
14330SOL    HW244604   3.564   0.610   5.436  0.3708  0.2945 -0.1786
14331SOL     OW44605   7.355   6.606   7.276 -0.1661 -0.0231  0.2410
14331SOL    HW144606   7.260   6.606   7.271 -0.2005  2.0402  0.1507
14331SOL    HW244607   7.376   6.668   7.346  1.1242  1.4544 -1.3619
14332SOL     OW44608   6.142   1.948   7.532  0.2114 -0.7702  0.1317
14332SOL    HW144609   6.128   2.042   7.535 -1.2052 -0.9598  0.4610
14332SOL    HW244610   6.193   1.933   7.453 -0.4441  0.1786 -0.4956
14333SOL     OW44611   8.904   6.810   1.066  0.1522 -0.0455  0.3362
14333SOL    HW144612   8.925   6.888   1.118 -0.3959 -1.1305  2.3152
14333SOL    HW244613   8.828   6.772   1.110 -0.7840 -0.6930 -1.7310
14334SOL     OW44614   5.723   8.600   0.915  0.0884  0.4858  0.2490
14334SOL    HW144615   5.788   8.669   0.926 -0.1487  0.6742  0.4742
14334SOL    HW244616   5.639   8.646   0.913  0.0055  0.3210 -0.8039
14335SOL     OW44617   2.706   9.415   7.569 -0.0433 -0.3140  0.1524
14335SOL    HW144618   2.688   9.504   7.539 -0.6663 -1.0995 -2.0087
14335SOL    HW244619   2.626   9.366   7.547  0.3206 -1.4373  1.2213
14336SOL     OW44620   9.603   6.205   5.191  0.0699  0.4703 -0.5877
14336SOL    HW144621   9.698   6.217   5.196 -0.0087  0.6960  2.0203
14336SOL    HW244622   9.569   6.291   5.166  0.4769  0.8908  0.2688
14337SOL     OW44623   3.566   6.016   7.695 -0.0407 -0.3501 -0.2574
14337SOL    HW144624   3.574   5.979   7.607 -2.8302  0.9728 -1.2270
14337SOL    HW244625   3.574   6.111   7.681 -1.7730 -0.0269  0.6532
14338SOL     OW44626   2.305   8.113   6.264  0.0103  0.1164 -0.5012
14338SOL    HW144627   2.262   8.046   6.211 -2.5996  0.8803  0.4952
14338SOL    HW244628   2.378   8.143   6.210 -0.2478 -1.7789 -2.0018
14339SOL     OW44629   2.061   7.570   3.821  0.4555 -0.5274  0.3282
14339SOL    HW144630   2.154   7.584   3.805  0.2365  0.1773 -0.3771
14339SOL    HW244631   2.058   7.504   3.890  1.5036  0.2549  1.1535
14340SOL     OW44632   6.765   8.325   9.339 -0.4688 -0.1964  0.1908
14340SOL    HW144633   6.713   8.303   9.416  0.4211  0.2969  0.9553
14340SOL    HW244634   6.740   8.415   9.318 -1.8896 -0.8511 -1.1015
14341SOL     OW44635   6.460   8.172   8.199 -0.3691 -0.6371 -0.6549
14341SOL    HW144636   6.471   8.137   8.287  0.7531  0.2193 -0.4185
14341SOL    HW244637   6.366   8.179   8.187 -0.5389 -0.8187  0.4609
14342SOL     OW44638   4.025   8.234   6.538  0.1119 -0.2132  0.1477
14342SOL    HW144639   4.056   8.174   6.606 -0.2458 -1.0430 -0.4097
14342SOL    HW244640   3.943   8.196   6.508 -0.2494  0.6946 -0.0470
14343SOL     OW44641   8.607   8.938   7.540 -0.2303  0.1915  0.2412
14343SOL    HW144642   8.601   8.844   7.521  0.1468  0.4090 -1.0399
14343SOL    HW244643   8.642   8.942   7.628  0.3178 -0.8746  0.0940
14344SOL     OW44644   4.048   3.982   6.488 -0.1326 -0.2133 -0.0227
14344SOL    HW144645   4.031   3.978   6.394  0.1060 -1.0107 -0.0404
14344SOL    HW244646   4.003   4.062   6.517 -1.6171 -0.8286 -0.5261
14345SOL     OW44647   3.008   3.959   2.114 -0.1340 -0.5974 -0.4866
14345SOL    HW144648   2.930   3.995   2.070  0.0523 -2.3549 -2.3832
14345SOL    HW244649   2.972   3.908   2.188 -0.9549 -2.4043 -2.0481
14346SOL     OW44650   9.126   3.791   8.948  0.0565 -0.1997  0.6561
14346SOL    HW144651   9.106   3.877   8.983  0.7594 -0.1466  0.9423
14346SOL    HW244652   9.071   3.783   8.870 -1.5250 -0.3103  1.7211
14347SOL     OW44653   7.584   2.873   3.406  0.1179 -0.0430  0.0116
14347SOL    HW144654   7.634   2.821   3.343  1.0650 -2.6507  2.7096
14347SOL    HW244655   7.515   2.815   3.437 -0.4345  1.2005  1.2601
14348SOL     OW44656   6.107   0.822   9.479 -0.5801 -0.0937 -0.6673
14348SOL    HW144657   6.127   0.866   9.561 -1.8264  2.1117 -1.4551
14348SOL    HW244658   6.186   0.834   9.426 -0.0356 -0.9082 -0.0491
14349SOL     OW44659   7.279   1.590   1.049  0.0478 -0.1397 -0.7154
14349SOL    HW144660   7.327   1.518   1.007 -0.4133 -0.9551  0.1179
14349SOL    HW244661   7.330   1.668   1.027  1.1262 -0.8416 -0.8129
14350SOL     OW44662   2.852   2.875   6.661  0.3590 -0.1927 -0.1138
14350SOL    HW144663   2.939   2.893   6.625  0.2476  0.6243  0.0189
14350SOL    HW244664   2.802   2.843   6.586  0.5660  0.0285 -0.3506
14351SOL     OW44665   9.055   8.065   2.275  0.6768 -0.7898  0.2292
14351SOL    HW144666   9.079   8.103   2.359 -1.3217 -0.0825  0.5517
14351SOL    HW244667   9.091   8.126   2.210  0.3069 -0.1009  0.6566
14352SOL     OW44668   1.604   6.968   5.945 -0.5730 -0.2598 -0.4994
14352SOL    HW144669   1.619   7.010   5.860 -0.9841  1.4820  0.2557
14352SOL    HW244670   1.514   6.992   5.968 -1.2974 -2.5959 -0.5608
14353SOL     OW44671   5.427   5.148   9.176 -0.4441  0.0571 -0.0953
14353SOL    HW144672   5.347   5.185   9.138 -0.4876 -0.3415 -0.4030
14353SOL    HW244673   5.417   5.162   9.270 -2.1304 -2.2944  0.1713
14354SOL     OW44674   7.628   1.249   4.587  0.3074 -1.0197 -0.4318
14354SOL    HW144675   7.624   1.167   4.636  0.6880 -1.2486 -0.7801
14354SOL    HW244676   7.634   1.222   4.496  1.0154 -0.6067 -0.5095
14355SOL     OW44677   0.419   4.791   0.938  0.0399  0.4629  0.0662
14355SOL    HW144678   0.329   4.772   0.965 -0.6026  0.0954 -2.1236
14355SOL    HW244679   0.410   4.863   0.875  1.2206  0.1009 -0.5524
14356SOL     OW44680   1.210   2.043   4.151  0.9646  0.3235  0.0149
14356SOL    HW144681   1.145   1.975   4.138  1.0981  0.3111 -0.6037
14356SOL    HW244682   1.161   2.125   4.144  0.7025  0.3068  1.2935
14357SOL     OW44683   4.727   6.663   9.372  0.6808 -0.3500 -0.2281
14357SOL    HW144684   4.653   6.603   9.360  0.7184 -0.1366 -1.7917
14357SOL    HW244685   4.772   6.662   9.287  0.8128  1.7025 -0.2226
14358SOL     OW44686   1.556   2.567   0.302  0.0316 -0.4009  0.1682
14358SOL    HW144687   1.538   2.603   0.388  1.5296 -1.1271  0.8283
14358SOL    HW244688   1.649   2.586   0.286  0.2636 -1.8565 -0.4633
14359SOL     OW44689   4.327   6.831   9.424 -0.5603  0.8194  0.3965
14359SOL    HW144690   4.392   6.888   9.383  0.6892 -0.0604  1.0946
14359SOL    HW244691   4.365   6.743   9.418 -0.9573  0.4891  2.1965
14360SOL     OW44692   0.116   5.573   6.133 -0.0831 -0.1475 -0.3764
14360SOL    HW144693   0.133   5.624   6.053 -0.1109  0.1022 -0.2240
14360SOL    HW244694   0.090   5.639   6.198  0.4841 -0.2850 -0.0045
14361SOL     OW44695   9.275   9.547   6.640 -0.2271  0.2909 -0.0095
14361SOL    HW144696   9.274   9.454   6.617 -0.0177  0.2161  0.2860
14361SOL    HW244697   9.277   9.548   6.735  2.0912  0.5804 -0.0073
14362SOL     OW44698   0.379   3.255   8.445  0.1796  0.3371  0.5306
14362SOL    HW144699   0.370   3.161   8.435 -1.0898  0.1694  2.6463
14362SOL    HW244700   0.456   3.277   8.393 -0.0472 -1.6961 -0.7728
14363SOL     OW44701   1.407   7.523   2.600 -0.2475 -0.4232 -0.3086
14363SOL    HW144702   1.326   7.480   2.574 -1.8738  1.5108  1.2435
14363SOL    HW244703   1.381   7.613   2.621  1.8760 -0.3238  2.4182
14364SOL     OW44704   6.706   0.657   9.150  0.1178  0.1570  0.0248
14364SOL    HW144705   6.781   0.692   9.101 -0.1246 -0.5850 -0.9067
14364SOL    HW244706   6.713   0.697   9.236  2.1265 -0.6074  0.2608
14365SOL     OW44707   5.455   9.678   4.186 -0.4797  0.3860  0.4751
14365SOL    HW144708   5.525   9.714   4.131  0.0551 -1.0069  0.2070
14365SOL    HW244709   5.487   9.690   4.275  0.2246 -0.4185  0.3515
14366SOL     OW44710   1.032   1.223   2.366  0.8994 -0.3694 -0.0923
14366SOL    HW144711   1.015   1.316   2.359  2.0742 -0.0698  0.7747
14366SOL    HW244712   1.000   1.199   2.453 -1.9939 -1.4099 -1.3150
14367SOL     OW44713   6.262   2.180   2.136 -0.2262  0.4653  0.6451
14367SOL    HW144714   6.329   2.139   2.191  0.2227  0.6047  0.2074
14367SOL    HW244715   6.225   2.108   2.085 -1.9970 -0.0083  2.4800
14368SOL     OW44716   4.739   3.752   8.497 -0.5898  0.2103  0.2901
14368SOL    HW144717   4.803   3.821   8.515 -1.3015  0.7595  0.7985
14368SOL    HW244718   4.727   3.755   8.402  3.1452 -2.6638 -0.4548
14369SOL     OW44719   2.452   5.868   7.784 -0.3137  0.5591 -0.3931
14369SOL    HW144720   2.438   5.932   7.714  0.9981  1.0039 -0.2837
14369SOL    HW244721   2.509   5.802   7.745  0.6424  0.9456  0.3085
14370SOL     OW44722   1.631   4.085   3.488 -0.0930 -0.3149  0.3533
14370SOL    HW144723   1.630   4.075   3.393 -0.9186 -0.1921  0.3427
14370SOL    HW244724   1.557   4.143   3.507  1.5977  1.8369  0.8303
14371SOL     OW44725   1.738   1.242   6.338  0.1528  0.3760 -0.6023
14371SOL    HW144726   1.684   1.165   6.359  1.8253 -1.3363 -2.1483
14371SOL    HW244727   1.706   1.310   6.397 -1.7725 -1.3344  0.4896
14372SOL     OW44728   3.817   1.513   3.895  0.1928 -0.0469  0.1031
14372SOL    HW144729   3.789   1.594   3.851  2.1615  2.4202  2.9705
14372SOL    HW244730   3.771   1.443   3.849 -2.9332  2.8218 -1.5405
14373SOL     OW44731   4.690   9.207   7.095 -0.1746  0.1844 -0.1949
14373SOL    HW144732   4.661   9.211   7.186 -1.1456 -2.2035 -0.3321
14373SOL    HW244733   4.642   9.277   7.051 -0.4926  0.6827  0.9011
14374SOL     OW44734   7.135   8.792   3.004  0.0553 -0.6646 -0.1142
14374SOL    HW144735   7.053   8.788   2.953 -0.7666  0.2025  1.0731
14374SOL    HW244736   7.123   8.868   3.061  1.9170 -0.2213 -0.2525
14375SOL     OW44737   6.211   2.394   1.575 -0.7879 -0.2525  0.0569
14375SOL    HW144738   6.244   2.357   1.657 -0.9554 -1.0725 -0.2334
14375SOL    HW244739   6.124   2.427   1.597 -0.1612  1.1177  0.6124
14376SOL     OW44740   7.151   4.975   7.915 -0.0885  0.2205 -0.1031
14376SOL    HW144741   7.092   4.914   7.872 -1.0062  0.9219  0.1039
14376SOL    HW244742   7.180   4.930   7.995 -0.2549 -0.1759 -0.2677
14377SOL     OW44743   8.015   0.797   8.699  0.1605 -0.1778  0.3844
14377SOL    HW144744   7.932   0.751   8.713  0.2100 -0.3941 -0.0007
14377SOL    HW244745   7.990   0.889   8.696 -0.1235 -0.2625 -0.0699
14378SOL     OW44746   1.078   0.269   1.425 -0.3172 -0.3862 -0.0440
14378SOL    HW144747   1.145   0.276   1.493 -0.6656  1.0246  0.1837
14378SOL    HW244748   1.036   0.184   1.441  1.3877 -1.2892 -0.1936
14379SOL     OW44749   9.528   8.060   4.210  0.5851 -0.1724 -0.6348
14379SOL    HW144750   9.570   8.146   4.216  0.0931  0.1710 -1.7829
14379SOL    HW244751   9.600   7.999   4.200  0.9380  0.1037  0.1213
14380SOL     OW44752   9.139   7.660   1.498 -0.4829 -0.1750  0.2024
14380SOL    HW144753   9.110   7.633   1.411 -1.5621 -1.3158  0.9041
14380SOL    HW244754   9.136   7.756   1.495  2.2251 -0.0295 -1.9173
14381SOL     OW44755   2.921   1.764   6.353  0.6431  0.1353  0.1386
14381SOL    HW144756   2.961   1.768   6.440  2.2677  1.1529 -0.5996
14381SOL    HW244757   2.993   1.742   6.294  0.7691  4.0571 -1.5329
14382SOL     OW44758   6.957   1.766   2.452  0.2866  0.3595 -0.1945
14382SOL    HW144759   7.046   1.765   2.417  0.2149  2.9855 -0.6418
14382SOL    HW244760   6.969   1.776   2.546  0.5286  2.3480 -0.3952
14383SOL     OW44761   6.404   0.155   7.193  0.2515 -0.4237  0.6940
14383SOL    HW144762   6.417   0.067   7.229  1.0751 -0.5345  0.1417
14383SOL    HW244763   6.399   0.143   7.099  0.4423  0.1308  0.6069
14384SOL     OW44764   7.753   5.615   3.270 -0.4969  0.2891  0.1112
14384SOL    HW144765   7.679   5.563   3.303  1.1482 -1.7231  0.8008
14384SOL    HW244766   7.747   5.606   3.175  0.5405 -2.4824  0.2107
14385SOL     OW44767   7.916   8.303   1.542  0.2110 -0.0964 -0.3087
14385SOL    HW144768   7.824   8.290   1.518  0.7405 -0.0392 -2.5026
14385SOL    HW244769   7.948   8.215   1.563  0.6506 -0.7748 -3.4445
14386SOL     OW44770   3.835   6.412   4.957 -0.0151  0.1290  0.0265
14386SOL    HW144771   3.870   6.406   4.868  0.8972  1.7776  0.2137
14386SOL    HW244772   3.743   6.438   4.945  0.1741  0.6114 -0.4479
14387SOL     OW44773   8.783   9.600   4.907  0.0660  0.4948 -0.4315
14387SOL    HW144774   8.809   9.550   4.829  0.7637  0.0065  0.0928
14387SOL    HW244775   8.741   9.678   4.872 -1.9631 -0.8944 -1.2830
14388SOL     OW44776   8.760   8.848   3.732  0.0616 -0.3551  0.1141
14388SOL    HW144777   8.812   8.831   3.811 -0.8331  0.2236  0.8521
14388SOL    HW244778   8.674   8.874   3.765 -0.4093 -0.3493 -1.0654
14389SOL     OW44779   8.143   1.789   7.020  0.1020 -0.1498 -0.1554
14389SOL    HW144780   8.148   1.882   6.997  0.7572 -0.0164  0.4845
14389SOL    HW244781   8.086   1.751   6.953  0.0042  0.6688 -0.5549
14390SOL     OW44782   3.235   9.337   6.023 -0.0830 -0.4260  0.4709
14390SOL    HW144783   3.329   9.349   6.037  0.5231 -2.2799 -1.3759
14390SOL    HW244784   3.207   9.281   6.096  0.7810 -1.7337 -0.1670
14391SOL     OW44785   1.331   7.634   5.626 -0.3515  0.7128  0.2430
14391SOL    HW144786   1.342   7.600   5.537 -0.1498 -1.5239  1.0683
14391SOL    HW244787   1.287   7.718   5.614 -1.0826  0.0907 -1.9287
14392SOL     OW44788   3.435   5.879   5.919 -0.7460 -0.4252 -0.9035
14392SOL    HW144789   3.528   5.861   5.928 -0.7156  0.0646 -0.1663
14392SOL    HW244790   3.424   5.905   5.827 -0.0817 -0.0472 -0.8802
14393SOL     OW44791   4.966   2.969   3.066 -0.2267 -0.1179 -0.4141
14393SOL    HW144792   4.921   3.012   2.993 -1.1633 -0.1874  0.1124
14393SOL    HW244793   4.902   2.908   3.102  0.2403 -0.1295  0.4341
14394SOL     OW44794   5.324   4.311   8.264  0.0382  0.5337  0.0708
14394SOL    HW144795   5.367   4.257   8.330  0.1150  0.3753 -0.1090
14394SOL    HW244796   5.310   4.252   8.190 -0.6788  0.5277  0.2038
14395SOL     OW44797   3.220   7.829   0.010 -0.2429  0.0177 -0.4135
14395SOL    HW144798   3.166   7.838  -0.069 -0.8468 -0.3305 -0.0417
14395SOL    HW244799   3.305   7.798  -0.023 -0.6854 -0.7475 -0.8615
14396SOL     OW44800   6.343   0.327   5.243 -0.0176 -0.0668  0.1629
14396SOL    HW144801   6.282   0.379   5.191 -0.3158 -0.1522  0.4224
14396SOL    HW244802   6.365   0.382   5.317  0.0368 -0.1286  0.1930
14397SOL     OW44803   7.387   9.307   0.190 -0.1333 -0.1084 -0.7412
14397SOL    HW144804   7.379   9.337   0.100  1.3365 -0.4667 -1.0021
14397SOL    HW244805   7.479   9.317   0.212 -0.6860  1.4486  1.2575
14398SOL     OW44806   3.487   7.985   4.164  0.3530  0.5097  0.1918
14398SOL    HW144807   3.565   7.994   4.110 -1.4689 -1.5376 -3.0673
14398SOL    HW244808   3.441   8.068   4.154 -0.6927 -0.3116 -2.8946
14399SOL     OW44809   0.703   4.581   9.756 -0.6277  0.1241 -0.4866
14399SOL    HW144810   0.649   4.598   9.833 -0.1336 -1.0348  0.1520
14399SOL    HW244811   0.656   4.513   9.708 -0.2498 -0.1597 -0.4624
14400SOL     OW44812   4.043   3.207   2.907  0.2132 -0.0603  0.4486
14400SOL    HW144813   4.056   3.293   2.945 -0.2984 -0.7687  2.3571
14400SOL    HW244814   3.948   3.197   2.901  0.1048 -1.5011  2.9370
14401SOL     OW44815   3.211   5.012   3.068 -0.0790 -0.3393  0.3310
14401SOL    HW144816   3.120   5.034   3.086 -0.1704 -1.7052  1.7255
14401SOL    HW244817   3.262   5.073   3.121 -0.1507  0.5615 -0.6071
14402SOL     OW44818   6.983   1.761   4.164 -0.4254  0.0173 -0.1747
14402SOL    HW144819   6.938   1.679   4.145 -1.9277  0.9661 -0.8835
14402SOL    HW244820   6.982   1.809   4.081  0.4468  0.7589  0.2208
14403SOL     OW44821   5.416   5.163   9.469  0.0523 -0.0089 -0.5694
14403SOL    HW144822   5.338   5.109   9.481 -1.6303  2.3789  0.0910
14403SOL    HW244823   5.489   5.102   9.477 -1.7219 -2.4446 -1.6893
14404SOL     OW44824   8.920   3.396   9.730 -0.2691 -0.2653 -0.4816
14404SOL    HW144825   8.901   3.413   9.823 -0.9502 -1.9211 -0.2907
14404SOL    HW244826   8.847   3.436   9.683  0.6407  1.5730 -0.4307
14405SOL     OW44827   2.441   8.503   3.620  0.2149 -0.1701 -0.0971
14405SOL    HW144828   2.463   8.450   3.543 -0.8135  1.4959 -1.6225
14405SOL    HW244829   2.363   8.461   3.656  0.6730 -0.9354  0.0246
14406SOL     OW44830   8.988   6.886   6.982  0.1481 -0.0447  0.0903
14406SOL    HW144831   9.078   6.869   6.954  0.1792 -1.4250  0.9234
14406SOL    HW244832   8.946   6.926   6.906  2.0351  2.8053  0.3852
14407SOL     OW44833   2.064   6.369   9.350  0.1390  0.5439 -0.1270
14407SOL    HW144834   2.129   6.422   9.304 -0.0338  0.9400  0.0826
14407SOL    HW244835   1.986   6.425   9.356 -0.2238  0.0746 -0.3756
14408SOL     OW44836   6.339   7.234   8.515  0.0537 -0.4209  0.2937
14408SOL    HW144837   6.302   7.163   8.568 -1.1104 -0.2373 -0.2487
14408SOL    HW244838   6.308   7.216   8.426 -0.5217  0.9370  0.2011
14409SOL     OW44839   5.945   9.636   7.649  0.0391  0.2459 -0.5974
14409SOL    HW144840   5.891   9.595   7.716 -0.6525 -1.5256 -2.1365
14409SOL    HW244841   6.033   9.601   7.663  0.0785  0.5357 -0.1167
14410SOL     OW44842   9.212   8.471   2.983 -0.0328 -0.0812  0.0816
14410SOL    HW144843   9.247   8.548   3.028 -1.7597  1.6057 -1.2239
14410SOL    HW244844   9.280   8.405   2.990  1.4960  1.5309  1.3683
14411SOL     OW44845   2.357   7.581   0.721 -0.7308 -0.3695  0.1435
14411SOL    HW144846   2.286   7.523   0.693  0.4118 -1.1722 -1.2074
14411SOL    HW244847   2.406   7.529   0.785 -0.7141 -0.2391  0.2361
14412SOL     OW44848   8.346   3.899   2.636 -0.0436 -0.1861 -0.0104
14412SOL    HW144849   8.273   3.901   2.698  0.6883  0.5631  0.8537
14412SOL    HW244850   8.357   3.990   2.609 -0.5243 -0.5435 -1.4669
14413SOL     OW44851   6.926   2.755   8.482  0.4171 -0.7097 -0.0191
14413SOL    HW144852   6.850   2.814   8.484  1.7239  1.1094 -0.8451
14413SOL    HW244853   6.888   2.667   8.482 -1.7021  0.1271 -0.6951
14414SOL     OW44854   1.448   1.647   6.508  0.0345  0.2147 -0.0194
14414SOL    HW144855   1.371   1.687   6.467  1.5448  2.3064 -1.0099
14414SOL    HW244856   1.485   1.591   6.440  0.0238  0.0913  0.0752
14415SOL     OW44857   6.163   2.782   5.320  0.1464  0.0146 -0.0994
14415SOL    HW144858   6.223   2.718   5.284  0.7381  0.3547  0.2656
14415SOL    HW244859   6.076   2.743   5.308  0.4991 -0.8909  0.2028
14416SOL     OW44860   0.199   2.579   5.934  0.0976 -0.5215 -0.4277
14416SOL    HW144861   0.274   2.607   5.882  0.2975  0.6957  0.4613
14416SOL    HW244862   0.176   2.656   5.986 -2.5707 -0.4270 -1.5740
14417SOL     OW44863   1.061   3.503   4.176  0.0062 -0.0273 -0.6435
14417SOL    HW144864   1.150   3.531   4.195 -0.3149  0.8975 -0.4621
14417SOL    HW244865   1.036   3.552   4.098 -0.1072 -0.7968 -1.1008
14418SOL     OW44866   5.101   6.077   6.935  0.0783  0.4015 -0.1992
14418SOL    HW144867   5.014   6.116   6.940  0.4199  1.2775 -0.7139
14418SOL    HW244868   5.105   6.017   7.010 -1.0543  0.1381 -0.3328
14419SOL     OW44869   5.425   4.358   0.913 -0.5424  0.1818 -0.1484
14419SOL    HW144870   5.391   4.347   1.002  1.0919 -0.1180  0.4827
14419SOL    HW244871   5.520   4.360   0.924 -0.3309  1.3461 -1.7733
14420SOL     OW44872   1.281   9.303   4.470 -0.5112  0.2091 -0.1318
14420SOL    HW144873   1.278   9.362   4.394  1.2925 -1.9239 -2.0000
14420SOL    HW244874   1.193   9.267   4.477 -1.1680  1.7472 -0.0385
14421SOL     OW44875   7.691   9.393   8.511 -0.4724 -0.2879 -0.1325
14421SOL    HW144876   7.705   9.365   8.420  0.8993  0.2933 -0.1238
14421SOL    HW244877   7.718   9.485   8.512 -1.8645  0.1464  0.5565
14422SOL     OW44878   4.402   4.658   7.497 -0.2796 -0.4866  0.4570
14422SOL    HW144879   4.446   4.705   7.426 -0.0804 -0.8999  0.3009
14422SOL    HW244880   4.410   4.716   7.573 -0.1933 -0.1936  0.2265
14423SOL     OW44881   4.516   3.474   8.017 -0.1258  0.2236 -0.3516
14423SOL    HW144882   4.448   3.407   8.008  1.7528 -1.6817 -1.1985
14423SOL    HW244883   4.469   3.551   8.049 -2.3898 -1.4752  0.7183
14424SOL     OW44884   9.632   1.924   3.983  0.7760 -0.2726 -0.0010
14424SOL    HW144885   9.664   1.990   3.921  1.0613  0.9422  1.3864
14424SOL    HW244886   9.711   1.880   4.013  0.5148 -2.1051 -1.7504
14425SOL     OW44887   1.349   7.125   7.634 -0.4864 -0.0930 -0.1242
14425SOL    HW144888   1.344   7.151   7.542 -1.4737 -1.0376 -0.3578
14425SOL    HW244889   1.419   7.060   7.637 -0.8242 -0.4701 -0.3209
14426SOL     OW44890   2.033   0.254   5.604  0.1928  0.3323 -0.1389
14426SOL    HW144891   2.005   0.326   5.661  0.4381  0.5555 -0.2954
14426SOL    HW244892   1.985   0.268   5.523 -1.0778 -0.6747  0.4027
14427SOL     OW44893   1.234   3.124   3.557 -0.4302 -0.4814 -0.3283
14427SOL    HW144894   1.297   3.063   3.517  0.2599  0.0488 -0.0592
14427SOL    HW244895   1.243   3.110   3.651 -0.0495  0.2400 -0.2490
14428SOL     OW44896   9.377   3.233   0.416 -0.3260 -0.7115 -0.4035
14428SOL    HW144897   9.335   3.178   0.482 -1.5010 -1.2173 -1.5439
14428SOL    HW244898   9.408   3.309   0.465 -2.4726 -0.3645  0.5163
14429SOL     OW44899   6.631   7.262   0.283 -0.3015 -0.3390 -0.0101
14429SOL    HW144900   6.652   7.186   0.228 -0.4864 -0.5779  0.2433
14429SOL    HW244901   6.626   7.335   0.222 -0.2021 -0.5464 -0.2704
14430SOL     OW44902   8.034   7.928   3.847  0.1919  0.2841 -0.2603
14430SOL    HW144903   7.968   7.962   3.908  0.8443 -1.2177  1.3797
14430SOL    HW244904   8.108   7.987   3.857 -0.2062  0.8628 -0.6697
14431SOL     OW44905   8.502   0.110   3.992 -0.0939 -0.0214 -0.3870
14431SOL    HW144906   8.486   0.025   3.952 -3.0273 -0.0763  0.6444
14431SOL    HW244907   8.500   0.093   4.086  0.6393  1.0094 -0.1645
14432SOL     OW44908   9.049   1.076   3.835 -0.4501  0.0396 -0.6694
14432SOL    HW144909   8.977   1.060   3.774 -0.1357  0.3385 -1.1239
14432SOL    HW244910   9.126   1.041   3.790 -0.6507 -2.6910  0.8788
14433SOL     OW44911   3.671   7.644   3.253 -0.1472  0.3073 -0.3416
14433SOL    HW144912   3.634   7.563   3.288  0.7290  0.0280 -0.0283
14433SOL    HW244913   3.710   7.688   3.328 -0.1709  0.7738 -0.5974
14434SOL     OW44914   8.790   0.941   6.459 -0.1113  0.2827  0.1220
14434SOL    HW144915   8.748   0.919   6.542 -1.4133  0.0685 -0.5704
14434SOL    HW244916   8.782   0.861   6.406  0.5760  0.4657 -0.2731
14435SOL     OW44917   1.228   0.538   3.650 -0.2849  0.8456 -0.6170
14435SOL    HW144918   1.251   0.475   3.582  2.7594  1.4994 -0.3441
14435SOL    HW244919   1.256   0.623   3.614  0.5148  1.3214  1.0051
14436SOL     OW44920   9.055   1.053   6.503 -0.0105 -0.5280  0.3956
14436SOL    HW144921   8.961   1.038   6.514  0.1069 -0.6949  1.2627
14436SOL    HW244922   9.096   0.978   6.547  0.5281 -0.6182 -0.2496
14437SOL     OW44923   2.341   0.469   8.131  0.4267 -0.1130 -0.6078
14437SOL    HW144924   2.433   0.460   8.104  0.9303  2.1817  0.1143
14437SOL    HW244925   2.338   0.431   8.219  0.2226 -1.8272 -1.3120
14438SOL     OW44926   0.263   1.009   5.231 -0.0634  0.0360  0.1967
14438SOL    HW144927   0.357   0.992   5.223 -0.1460  0.2922 -1.9221
14438SOL    HW244928   0.256   1.070   5.305  1.2323 -1.2353  1.4428
14439SOL     OW44929   6.903   9.308   1.253  0.0601 -0.0624 -0.0929
14439SOL    HW144930   6.987   9.348   1.278 -0.6875  1.8335 -0.3966
14439SOL    HW244931   6.907   9.304   1.157 -0.6551  1.2215 -0.2013
14440SOL     OW44932   5.551   5.699   9.804 -0.4891  0.1900 -0.1926
14440SOL    HW144933   5.515   5.768   9.748  0.9203  1.2168  0.1159
14440SOL    HW244934   5.513   5.716   9.890 -0.0723  0.6457 -0.0963
14441SOL     OW44935   0.312   8.118   8.388  0.1572 -0.6008 -0.1696
14441SOL    HW144936   0.252   8.174   8.438  0.5523 -0.3529  0.0351
14441SOL    HW244937   0.266   8.035   8.378 -0.0899 -0.5167  0.2623
14442SOL     OW44938   5.195   3.974   7.836  0.2796 -0.2173  0.0391
14442SOL    HW144939   5.201   3.879   7.831  1.1098 -0.2546  1.1792
14442SOL    HW244940   5.107   3.992   7.868  0.5918 -0.6947  1.2156
14443SOL     OW44941   8.965   1.420   8.092  0.8845  0.5166  0.0655
14443SOL    HW144942   8.957   1.349   8.028 -0.5760  1.2073 -0.5577
14443SOL    HW244943   9.054   1.452   8.080  1.4700 -0.9969  0.1483
14444SOL     OW44944   9.656   7.485   9.695  0.2064 -0.3920  0.1193
14444SOL    HW144945   9.563   7.465   9.706  0.4724 -0.6364  2.1366
14444SOL    HW244946   9.657   7.574   9.659 -0.8180 -1.3448 -2.5551
14445SOL     OW44947   6.696   7.812   8.013  0.1981  0.5076 -0.7526
14445SOL    HW144948   6.745   7.751   7.958  0.1277 -1.5079  1.3010
14445SOL    HW244949   6.763   7.870   8.049  0.7220 -0.3954 -0.2362
14446SOL     OW44950   5.155   0.474   3.286 -0.1095  0.7049  0.5525
14446SOL    HW144951   5.222   0.489   3.219 -1.6020 -0.7275 -1.3678
14446SOL    HW244952   5.098   0.551   3.282  0.1063  0.8652  0.5661
14447SOL     OW44953   3.446   3.844   1.818 -1.0507 -0.4068  0.1547
14447SOL    HW144954   3.521   3.899   1.841 -1.6821  0.5271  0.0189
14447SOL    HW244955   3.376   3.874   1.876 -1.3044 -1.3335  0.3441
14448SOL     OW44956   2.158   0.682   0.909  0.3807  0.6372 -0.1694
14448SOL    HW144957   2.117   0.628   0.841  1.3590 -0.3748  0.0156
14448SOL    HW244958   2.230   0.629   0.942  1.1104  1.8991  0.3392
14449SOL     OW44959   6.490   6.314   3.857 -0.2265  0.0543  0.2150
14449SOL    HW144960   6.526   6.291   3.771 -1.9423  0.2439 -0.5955
14449SOL    HW244961   6.562   6.360   3.901  1.2014 -1.3826 -0.4912
14450SOL     OW44962   0.224   5.226   2.842 -0.2712 -0.0924  0.2464
14450SOL    HW144963   0.264   5.210   2.928  3.2265  0.2034 -1.1710
14450SOL    HW244964   0.173   5.306   2.854 -0.1877 -0.2777  2.1367
14451SOL     OW44965   7.684   3.586   6.204 -0.3700 -0.0953  0.8621
14451SOL    HW144966   7.741   3.511   6.190  0.5044  0.2519  2.3917
14451SOL    HW244967   7.720   3.655   6.149  0.2174 -0.1091  1.2297
14452SOL     OW44968   4.016   1.575   1.417  0.0152  0.5662 -0.3411
14452SOL    HW144969   3.971   1.513   1.359 -1.3204  0.9925  0.2076
14452SOL    HW244970   3.995   1.544   1.505  0.3708  1.0819 -0.0761
14453SOL     OW44971   6.889   7.011   9.354 -0.1990  0.1255 -0.1632
14453SOL    HW144972   6.870   6.943   9.418 -1.7518 -0.8085 -1.5331
14453SOL    HW244973   6.889   7.093   9.404  1.2006 -0.7838  1.4226
14454SOL     OW44974   4.280   2.653   9.714  0.1900 -0.2583 -0.0567
14454SOL    HW144975   4.211   2.624   9.653  0.2467 -1.5433  0.4461
14454SOL    HW244976   4.233   2.678   9.793  0.2040  0.2532 -0.2074
14455SOL     OW44977   4.249   5.945   5.139  0.3314  0.2670 -0.0785
14455SOL    HW144978   4.258   5.968   5.046  2.8615 -3.2275 -0.9193
14455SOL    HW244979   4.265   6.027   5.186 -2.4099  2.4741 -2.6101
14456SOL     OW44980   7.207   0.403   5.887 -0.2195  0.7794 -0.2145
14456SOL    HW144981   7.126   0.397   5.938 -0.1628 -2.0104 -0.3068
14456SOL    HW244982   7.229   0.312   5.866  2.5778  1.5107 -0.8028
14457SOL     OW44983   4.301   2.887   9.066  0.0305 -0.2349  0.5521
14457SOL    HW144984   4.290   2.794   9.084  0.0287 -0.4425 -0.4487
14457SOL    HW244985   4.305   2.928   9.152 -1.4095 -0.9823  1.0002
14458SOL     OW44986   6.966   5.177   9.782  0.0539  0.2372 -0.5101
14458SOL    HW144987   7.015   5.139   9.855 -1.0976  0.4842  0.4199
14458SOL    HW244988   6.974   5.113   9.712 -2.0608 -1.9350  1.0774
14459SOL     OW44989   2.002   0.331   7.482 -0.8814  0.3124 -1.2292
14459SOL    HW144990   2.072   0.397   7.488  0.7683 -1.4241  0.4783
14459SOL    HW244991   2.030   0.273   7.411  0.2488 -1.1637  0.3329
14460SOL     OW44992   3.948   6.971   5.029 -0.8294 -0.0349  0.2539
14460SOL    HW144993   3.928   7.042   4.968  0.4398  0.8047  0.7606
14460SOL    HW244994   3.995   7.014   5.101  0.9428 -1.5365  0.0597
14461SOL     OW44995   7.173   7.237   5.605  0.1472  0.5560  0.1459
14461SOL    HW144996   7.232   7.181   5.655  1.0479  1.1029 -0.2678
14461SOL    HW244997   7.194   7.326   5.633  1.6201  0.9945 -2.0995
14462SOL     OW44998   7.950   0.598   9.649  0.4492  0.1815  0.1859
14462SOL    HW144999   7.950   0.608   9.554  0.8673 -0.6865  0.0821
14462SOL    HW245000   7.939   0.504   9.663  2.2351  0.0476  0.9462
14463SOL     OW45001   0.890   6.926   8.275  0.4706 -0.1765  0.2537
14463SOL    HW145002   0.916   6.926   8.183 -0.6878 -1.0971 -0.0981
14463SOL    HW245003   0.895   7.018   8.302 -1.1150  0.4332 -1.3117
14464SOL     OW45004   4.736   5.364   5.148  0.1433 -0.0014 -0.2884
14464SOL    HW145005   4.722   5.296   5.082 -0.3618 -1.2138  1.0347
14464SOL    HW245006   4.814   5.337   5.195 -0.8418 -0.4427  1.1573
14465SOL     OW45007   9.747   3.764   2.260 -0.6241  0.3956 -0.3727
14465SOL    HW145008   9.806   3.828   2.300 -2.2665  0.9582  1.2491
14465SOL    HW245009   9.703   3.722   2.334 -1.0058 -1.2581 -1.4788
14466SOL     OW45010   6.009   5.084   1.127  0.5765  0.1642  0.1469
14466SOL    HW145011   5.944   5.030   1.083  0.4923 -0.5749  1.1441
14466SOL    HW245012   5.984   5.083   1.219  1.4063  0.7160  0.3961
14467SOL     OW45013   0.675   5.106   0.300 -0.5559 -0.7622 -0.5007
14467SOL    HW145014   0.591   5.062   0.318 -0.4631 -0.6073  0.3456
14467SOL    HW245015   0.680   5.176   0.365 -0.5450  0.3113 -1.6218
14468SOL     OW45016   0.608   2.315   8.071 -0.0660 -0.2194  0.3377
14468SOL    HW145017   0.701   2.328   8.053 -0.3681 -0.4302 -1.5229
14468SOL    HW245018   0.573   2.404   8.084  0.2359 -0.0794  0.1978
14469SOL     OW45019   2.456   4.483   9.039  0.0732  0.3993 -0.2310
14469SOL    HW145020   2.379   4.505   9.092 -0.0805  0.8348 -0.6277
14469SOL    HW245021   2.435   4.398   9.001 -0.2160  0.5219 -0.3475
14470SOL     OW45022   9.459   2.645   4.405  0.2127 -0.5079 -0.3536
14470SOL    HW145023   9.404   2.621   4.331 -0.6649  0.2919  0.0134
14470SOL    HW245024   9.456   2.741   4.408  0.7309 -0.4984  0.3404
14471SOL     OW45025   1.768   3.212   7.105 -0.0363  0.0840 -0.3085
14471SOL    HW145026   1.805   3.128   7.078 -1.0840 -0.1489 -1.0908
14471SOL    HW245027   1.732   3.195   7.192  0.7880  0.0467  0.0341
14472SOL     OW45028   0.632   7.397   5.610 -0.4483  0.1302 -0.1619
14472SOL    HW145029   0.699   7.363   5.670 -3.3356  0.0169  3.2995
14472SOL    HW245030   0.665   7.483   5.584  1.8547 -0.6675 -0.1506
14473SOL     OW45031   8.884   2.484   4.489 -0.2423 -0.3697 -0.4013
14473SOL    HW145032   8.937   2.557   4.524  0.8223 -0.5614 -1.5399
14473SOL    HW245033   8.894   2.415   4.554 -1.4197  0.5347  0.7945
14474SOL     OW45034   1.467   8.380   6.590 -0.2003 -0.1097 -0.3557
14474SOL    HW145035   1.383   8.334   6.596 -1.2790  1.8979  2.9251
14474SOL    HW245036   1.456   8.439   6.515 -2.2019  0.8289  0.5865
14475SOL     OW45037   2.791   6.837   3.389  0.1814  0.2410 -0.1185
14475SOL    HW145038   2.697   6.818   3.391 -0.0654  1.2715 -1.0052
14475SOL    HW245039   2.824   6.788   3.314  0.0282  1.1458 -0.8010
14476SOL     OW45040   2.106   3.064   8.913  0.0350 -0.2325 -0.8171
14476SOL    HW145041   2.172   3.110   8.965 -2.0366  2.3982 -0.2748
14476SOL    HW245042   2.104   2.976   8.950  1.4364  0.3721  0.8529
14477SOL     OW45043   4.760   6.885   0.366 -0.4017  0.5382 -0.0952
14477SOL    HW145044   4.855   6.872   0.376 -0.7244 -1.1380  1.2759
14477SOL    HW245045   4.741   6.965   0.415  0.1376  0.1750  0.7316
14478SOL     OW45046   9.842   3.429   5.507 -0.6653  0.0989  0.0441
14478SOL    HW145047   9.921   3.426   5.561  0.1412 -3.2814 -1.0580
14478SOL    HW245048   9.870   3.470   5.426 -0.9624  1.9099  0.8148
14479SOL     OW45049   4.471   2.938   1.378 -0.1613 -0.1253 -0.0505
14479SOL    HW145050   4.383   2.977   1.376  0.4690  1.4508  0.9242
14479SOL    HW245051   4.494   2.926   1.286 -1.3115 -0.3773 -0.3204
14480SOL     OW45052   1.932   8.821   7.314 -1.0464 -0.3918  0.2763
14480SOL    HW145053   1.857   8.762   7.309 -0.3148 -1.2557 -1.8637
14480SOL    HW245054   1.894   8.909   7.315 -2.1156 -0.8347  0.2403
14481SOL     OW45055   8.192   5.253   7.695  0.0842 -0.6253 -0.1181
14481SOL    HW145056   8.166   5.165   7.668  1.1628 -0.7072 -0.9646
14481SOL    HW245057   8.258   5.279   7.631  1.5258 -0.1387  1.4842
14482SOL     OW45058   0.012   8.257   1.873  0.0381 -0.5404 -0.5318
14482SOL    HW145059   0.074   8.306   1.927  0.4917 -0.3485 -1.2149
14482SOL    HW245060   0.010   8.169   1.912  1.2175 -0.7341 -0.8594
14483SOL     OW45061   4.339   5.923   3.320  0.1659  0.4918  0.5678
14483SOL    HW145062   4.360   5.912   3.227  0.9709  1.5020  0.6157
14483SOL    HW245063   4.393   5.996   3.348 -0.7321  0.7707  1.6224
14484SOL     OW45064   2.986   5.546   5.807  0.1919 -0.0995 -0.3570
14484SOL    HW145065   3.059   5.559   5.746 -1.5927  1.5653 -2.2875
14484SOL    HW245066   2.954   5.458   5.786  1.1527 -0.5626  0.0180
14485SOL     OW45067   7.856   6.827   4.841  0.5341 -0.3150 -0.2198
14485SOL    HW145068   7.877   6.786   4.757  1.6159  0.6362 -0.4486
14485SOL    HW245069   7.800   6.901   4.818 -1.3978 -1.5989  0.1871
14486SOL     OW45070   5.679   0.070   3.117 -0.6269  0.1383 -0.0363
14486SOL    HW145071   5.689   0.151   3.165 -0.8741  0.9400 -1.2736
14486SOL    HW245072   5.657   0.005   3.183  2.7182  0.3347  1.4450
14487SOL     OW45073   9.174   8.710   5.792 -0.6291  0.2805  0.1199
14487SOL    HW145074   9.212   8.630   5.828 -1.1864  0.1070  0.3400
14487SOL    HW245075   9.247   8.754   5.748 -0.0986  0.1307  0.8255
14488SOL     OW45076   2.254   3.914   8.667 -0.2478 -0.1310 -0.1693
14488SOL    HW145077   2.236   3.930   8.575 -0.8270 -0.1443 -0.0610
14488SOL    HW245078   2.332   3.859   8.667 -0.0161  0.1847 -0.6347
14489SOL     OW45079   9.663   9.222   4.469 -0.1358 -0.1166  0.3107
14489SOL    HW145080   9.591   9.238   4.530 -0.0228 -0.7040  0.6071
14489SOL    HW245081   9.713   9.304   4.468 -0.1451 -0.1026  0.9991
14490SOL     OW45082   1.489   3.706   6.152 -0.7015  0.0032  0.3679
14490SOL    HW145083   1.552   3.634   6.142  0.1723  0.4861  1.9651
14490SOL    HW245084   1.407   3.663   6.177 -0.9145 -0.6011 -1.2657
14491SOL     OW45085   4.713   9.212   9.522  0.3149 -0.0133 -0.0645
14491SOL    HW145086   4.658   9.160   9.463 -0.9606  0.8993  0.2590
14491SOL    HW245087   4.715   9.299   9.482 -0.1033  0.4710  0.9109
14492SOL     OW45088   7.342   6.637   7.716  0.6288 -0.2690  0.0058
14492SOL    HW145089   7.381   6.638   7.803 -0.4501  1.9216  0.5390
14492SOL    HW245090   7.299   6.552   7.710 -1.6777  0.5216  2.8149
14493SOL     OW45091   3.653   4.154   4.839 -0.1443  0.5317 -0.1869
14493SOL    HW145092   3.638   4.174   4.932 -3.0457  1.4449 -0.7537
14493SOL    HW245093   3.595   4.080   4.821  1.7235 -0.8471 -0.9362
14494SOL     OW45094   7.809   7.945   2.836  0.9220  0.5038 -0.3277
14494SOL    HW145095   7.819   7.889   2.759  0.1902 -0.1721  0.0488
14494SOL    HW245096   7.851   7.896   2.907  0.1824  0.3760  0.0273
14495SOL     OW45097   1.086   8.514   1.722 -0.5432  0.4042  0.1411
14495SOL    HW145098   1.072   8.530   1.815  1.6513 -0.3861  0.6630
14495SOL    HW245099   1.106   8.421   1.716 -1.4706  0.2583 -1.2630
14496SOL     OW45100   1.058   3.070   5.243 -0.2429 -0.0269 -0.0612
14496SOL    HW145101   1.151   3.087   5.228  0.2802 -1.0510  1.6955
14496SOL    HW245102   1.044   2.981   5.209  0.3334 -1.3019  2.7534
14497SOL     OW45103   1.826   5.393   3.137  0.0827  0.4665 -0.2760
14497SOL    HW145104   1.759   5.343   3.090  0.9390 -0.1571 -0.8724
14497SOL    HW245105   1.871   5.443   3.069  0.7833  0.2085 -0.0142
14498SOL     OW45106   3.412   7.951   0.407  0.1630 -0.2558 -0.2527
14498SOL    HW145107   3.412   8.011   0.482  0.0529 -0.1878 -0.3054
14498SOL    HW245108   3.429   8.008   0.332  0.4740 -0.3536 -0.2575
14499SOL     OW45109   4.850   9.254   1.017 -0.1529  0.2336  0.2605
14499SOL    HW145110   4.931   9.289   1.052 -0.1836 -0.3300  0.9048
14499SOL    HW245111   4.871   9.163   0.993 -0.8266 -0.2302  1.3374
14500SOL     OW45112   7.976   2.122   1.690 -0.3526 -0.2257 -0.3894
14500SOL    HW145113   7.959   2.160   1.776 -0.3192  0.1846 -0.5644
14500SOL    HW245114   7.982   2.028   1.707  0.6356 -0.0691  0.2163
14501SOL     OW45115   1.019   8.735   0.014 -0.3528  0.0525  0.4927
14501SOL    HW145116   0.932   8.775   0.014 -0.4249  0.0639  3.0598
14501SOL    HW245117   1.003   8.641   0.026 -0.0381  0.2453  2.8226
14502SOL     OW45118   6.257   3.003   2.127  0.3671  0.3897  0.3254
14502SOL    HW145119   6.190   3.042   2.071 -1.7569 -1.6724  1.2326
14502SOL    HW245120   6.296   2.934   2.074 -2.4034 -2.3046  1.4826
14503SOL     OW45121   3.456   1.852   0.059 -0.3926  0.4414 -0.2305
14503SOL    HW145122   3.497   1.932   0.090  0.3470 -1.0951  3.2405
14503SOL    HW245123   3.529   1.790   0.050 -1.3443 -0.9125  1.0374
14504SOL     OW45124   2.083   0.423   2.742  0.5156 -0.0353  0.2714
14504SOL    HW145125   2.013   0.441   2.805 -0.1239  0.5581 -0.5897
14504SOL    HW245126   2.089   0.502   2.688  1.6647 -0.1824  0.1450
14505SOL     OW45127   6.941   4.960   2.857  0.4329  0.1890  0.2141
14505SOL    HW145128   6.919   4.956   2.764 -1.3129  0.2386  0.5933
14505SOL    HW245129   6.969   4.872   2.880 -0.0477 -0.0614 -0.1600
14506SOL     OW45130   2.699   0.925   7.133 -0.1428  0.0562 -0.1178
14506SOL    HW145131   2.647   0.859   7.087 -0.1052  0.3271 -0.5552
14506SOL    HW245132   2.749   0.968   7.064 -1.2544  1.5230 -0.0484
14507SOL     OW45133   0.846   7.055   9.439  0.3209  0.0017  0.1852
14507SOL    HW145134   0.938   7.047   9.465  0.3490 -2.6318 -0.3841
14507SOL    HW245135   0.834   6.987   9.373 -1.6578  1.3971 -0.9909
14508SOL     OW45136   8.425   2.710   6.515 -0.1814  0.4801 -0.2017
14508SOL    HW145137   8.430   2.730   6.609  0.0390 -0.5928  0.0387
14508SOL    HW245138   8.418   2.795   6.472 -2.0948  0.9433  0.8867
14509SOL     OW45139   0.086   7.559   3.599  0.0389 -0.4896  0.1918
14509SOL    HW145140   0.042   7.487   3.553 -2.1676  1.0840 -0.2608
14509SOL    HW245141   0.056   7.552   3.689  1.2644 -1.1844  0.5709
14510SOL     OW45142   8.821   9.300   4.573  0.1824 -0.1095  0.0204
14510SOL    HW145143   8.771   9.275   4.650  0.7371 -0.8384  0.1520
14510SOL    HW245144   8.818   9.223   4.516  0.9850 -0.0823 -0.0599
14511SOL     OW45145   5.574   7.715   6.450  0.3245 -0.4626 -0.4434
14511SOL    HW145146   5.484   7.733   6.422 -0.0853 -0.1597  0.9916
14511SOL    HW245147   5.590   7.625   6.422 -0.2941 -0.3940 -1.0452
14512SOL     OW45148   3.755   3.170   4.449  0.4263 -0.2464  0.1761
14512SOL    HW145149   3.744   3.254   4.495  1.4145 -0.4205  0.7502
14512SOL    HW245150   3.802   3.115   4.511 -0.9990 -1.5434  0.1515
14513SOL     OW45151   9.415   1.522   9.132 -0.0030 -0.0142  0.3358
14513SOL    HW145152   9.323   1.547   9.139  0.2349  0.9125  0.1949
14513SOL    HW245153   9.450   1.537   9.220  0.0085 -0.4006  0.3988
14514SOL     OW45154   1.573   5.195   9.400  0.1490  0.5943 -0.3389
14514SOL    HW145155   1.623   5.253   9.342  1.1689  0.4688  0.3934
14514SOL    HW245156   1.520   5.254   9.452  0.1188  0.7782 -0.5736
14515SOL     OW45157   6.090   6.473   5.073 -0.3035 -0.2919  0.1370
14515SOL    HW145158   6.016   6.529   5.050  0.2550  0.7259  0.7224
14515SOL    HW245159   6.053   6.407   5.132 -1.1135 -1.0038 -1.1473
14516SOL     OW45160   4.891   9.434   8.456 -0.2087  0.2234  0.2359
14516SOL    HW145161   4.908   9.340   8.464  1.4340  0.5225  0.5742
14516SOL    HW245162   4.962   9.476   8.504 -0.6448  1.6643 -0.3169
14517SOL     OW45163   0.568   7.035   5.802  0.7099 -0.9124  0.5211
14517SOL    HW145164   0.473   7.034   5.797  0.7507 -0.6604 -0.5713
14517SOL    HW245165   0.589   6.975   5.873 -0.2910 -0.2558  1.3935
14518SOL     OW45166   7.117   9.008   2.107  0.8005  0.9722 -0.3847
14518SOL    HW145167   7.155   9.067   2.172 -2.3753  0.7916  1.8582
14518SOL    HW245168   7.111   9.062   2.028  1.4504  2.4239  0.5002
14519SOL     OW45169   5.215   4.941   2.380 -0.1037  0.2898  0.0209
14519SOL    HW145170   5.148   4.976   2.321 -0.0195  1.4348  0.5899
14519SOL    HW245171   5.204   4.989   2.462  0.0929 -0.9519  0.8001
14520SOL     OW45172   5.585   1.650   5.871 -0.5045 -0.0456  0.7576
14520SOL    HW145173   5.586   1.735   5.828  0.5091  0.6096  2.0150
14520SOL    HW245174   5.501   1.611   5.846 -0.8901  1.2258  0.0048
14521SOL     OW45175   8.393   6.737   4.910  0.0355  0.4902  0.5193
14521SOL    HW145176   8.365   6.800   4.844  0.6797  0.3607  0.1245
14521SOL    HW245177   8.314   6.684   4.927 -0.4645  1.2899  0.7415
14522SOL     OW45178   7.408   3.839   9.616  0.3857 -1.1003  0.3565
14522SOL    HW145179   7.325   3.790   9.622  0.3253 -1.5853 -2.9056
14522SOL    HW245180   7.475   3.771   9.618  0.4410 -1.1256 -1.3665
14523SOL     OW45181   1.135   5.665   8.993  0.6601 -0.5971  0.5194
14523SOL    HW145182   1.055   5.619   8.969  0.2015  0.8489 -0.9295
14523SOL    HW245183   1.153   5.722   8.918  1.5912  1.0124  1.8980
14524SOL     OW45184   4.040   3.436   3.026  0.3085  0.0743 -0.0220
14524SOL    HW145185   4.111   3.413   3.086 -0.2100  0.3376  0.7059
14524SOL    HW245186   3.962   3.441   3.082 -0.3819 -0.6799 -0.8885
14525SOL     OW45187   8.553   0.154   2.353 -0.0916  0.2430 -0.9378
14525SOL    HW145188   8.590   0.066   2.346 -2.1347 -0.6959 -0.5864
14525SOL    HW245189   8.494   0.161   2.278 -1.6093  0.4417  0.2430
14526SOL     OW45190   4.783   6.294   4.466  0.0130 -0.1925  0.3997
14526SOL    HW145191   4.713   6.357   4.485 -1.5294 -1.9629  0.8234
14526SOL    HW245192   4.846   6.344   4.414 -2.3292  1.0734 -1.4156
14527SOL     OW45193   7.904   9.080   7.291 -0.7193  0.7280 -0.7035
14527SOL    HW145194   7.991   9.040   7.293 -1.7299 -1.5831  0.1044
14527SOL    HW245195   7.911   9.156   7.349  0.5235  0.0839  0.0264
14528SOL     OW45196   1.210   6.289   9.768  0.2940 -0.4022  0.2099
14528SOL    HW145197   1.153   6.217   9.740  2.1182 -2.0843  0.5185
14528SOL    HW245198   1.251   6.320   9.688 -0.5952  0.3893  0.0600
14529SOL     OW45199   5.553   4.626   3.811  0.6352 -0.3920  0.6759
14529SOL    HW145200   5.491   4.631   3.884  0.2993 -1.2768  0.4628
14529SOL    HW245201   5.640   4.626   3.853  0.5251  1.0657  0.9637
14530SOL     OW45202   3.882   0.532   0.371 -0.2741  0.0659 -0.2011
14530SOL    HW145203   3.816   0.595   0.342 -1.5471 -0.9023  0.5208
14530SOL    HW245204   3.900   0.479   0.294 -1.9299 -1.0151  0.1158
14531SOL     OW45205   6.200   5.499   4.488  0.2612 -0.0518 -0.2590
14531SOL    HW145206   6.144   5.497   4.410 -0.8204  1.6642  0.4196
14531SOL    HW245207   6.289   5.488   4.454 -0.2672 -0.3512 -1.6236
14532SOL     OW45208   5.403   5.274   3.789 -0.3942 -0.7379 -0.5016
14532SOL    HW145209   5.353   5.276   3.870 -0.2298  1.0238 -0.4071
14532SOL    HW245210   5.356   5.212   3.733 -1.4583 -0.7098  0.3332
14533SOL     OW45211   7.806   1.318   8.006 -0.2143  0.4610 -0.2091
14533SOL    HW145212   7.869   1.367   7.954 -0.0015  0.2555 -0.1414
14533SOL    HW245213   7.769   1.254   7.946  0.1215  0.1411 -0.0740
14534SOL     OW45214   4.235   4.296   6.078 -0.6281 -0.7347  0.2777
14534SOL    HW145215   4.318   4.258   6.105  0.6690 -0.3082 -2.7395
14534SOL    HW245216   4.205   4.240   6.006 -0.9470  1.2617 -1.2268
14535SOL     OW45217   4.861   6.228   8.376 -0.1218 -0.2165 -0.3639
14535SOL    HW145218   4.889   6.139   8.398 -0.1206  0.0217  0.6623
14535SOL    HW245219   4.827   6.263   8.458  1.0076  1.1516 -0.4512
14536SOL     OW45220   4.579   4.718   1.107  0.1338  0.1168  0.4643
14536SOL    HW145221   4.554   4.628   1.128 -0.3620  0.2471  0.4447
14536SOL    HW245222   4.540   4.770   1.177 -0.0495  0.3737  0.1734
14537SOL     OW45223   9.029   8.199   8.560 -0.0004  0.0495 -0.1948
14537SOL    HW145224   9.102   8.138   8.570 -0.0304 -0.1918 -1.2645
14537SOL    HW245225   9.056   8.278   8.606  0.6319 -0.2866  0.0125
14538SOL     OW45226   4.711   8.212   4.162  0.4602 -0.5191  0.5493
14538SOL    HW145227   4.639   8.231   4.102  1.8575 -1.6442 -1.6109
14538SOL    HW245228   4.732   8.297   4.202 -0.2292  0.3626 -0.9019
14539SOL     OW45229   5.161   3.285   1.230 -0.7536  0.2780 -0.0220
14539SOL    HW145230   5.247   3.247   1.249 -1.0364 -0.0020  0.7254
14539SOL    HW245231   5.179   3.377   1.211 -0.2170  0.0746 -0.5380
14540SOL     OW45232   8.912   6.541   2.271 -0.5079  0.0649 -0.0208
14540SOL    HW145233   8.962   6.621   2.255 -0.2475  0.2326  1.4931
14540SOL    HW245234   8.965   6.492   2.334 -1.7634 -0.2034  0.8784
14541SOL     OW45235   0.763   6.991   3.408 -0.1167 -0.1616  0.2459
14541SOL    HW145236   0.735   7.028   3.325  1.0606 -0.6711 -0.4049
14541SOL    HW245237   0.712   7.038   3.474 -0.8183  0.4894 -0.7363
14542SOL     OW45238   8.967   9.107   3.134  0.2195 -0.0579 -0.1484
14542SOL    HW145239   8.921   9.025   3.152  0.6180  0.0357  1.3693
14542SOL    HW245240   9.022   9.122   3.210 -0.5633  2.1090  0.0795
14543SOL     OW45241   4.661   6.704   1.450 -0.0985 -0.0249 -0.0062
14543SOL    HW145242   4.756   6.700   1.457 -0.0672  1.0197  0.2609
14543SOL    HW245243   4.630   6.688   1.540 -0.0500  2.5133  0.5436
14544SOL     OW45244   9.568   5.531   2.835 -0.2574 -0.0519 -0.1381
14544SOL    HW145245   9.579   5.453   2.781  2.3661  1.2348 -1.6787
14544SOL    HW245246   9.477   5.557   2.820 -0.5825 -1.6688 -1.2226
14545SOL     OW45247   3.606   1.297   8.977 -0.0071 -0.2149  0.0926
14545SOL    HW145248   3.666   1.366   9.003  0.3640 -0.0017 -1.2745
14545SOL    HW245249   3.526   1.315   9.027  1.1474 -0.7763  2.3132
14546SOL     OW45250   2.922   3.130   1.945 -0.7109 -0.8488 -0.0789
14546SOL    HW145251   2.934   3.220   1.917 -0.0698  0.2275  3.1526
14546SOL    HW245252   3.000   3.084   1.915 -0.4234 -0.0070 -0.6420
14547SOL     OW45253   7.368   1.822   3.409 -0.0984 -0.7849  0.1137
14547SOL    HW145254   7.365   1.731   3.379  0.0077 -0.5376 -0.6843
14547SOL    HW245255   7.325   1.871   3.339 -0.0898 -0.2115  0.5040
14548SOL     OW45256   9.512   4.431   1.586 -0.5661 -0.0260 -0.2212
14548SOL    HW145257   9.426   4.472   1.591 -0.3448  1.2619 -3.7964
14548SOL    HW245258   9.573   4.497   1.620 -0.7942 -0.1554  0.4500
14549SOL     OW45259   6.358   1.575   1.354 -0.2231  0.0931  0.0589
14549SOL    HW145260   6.316   1.658   1.371 -0.0426  0.1761  0.1053
14549SOL    HW245261   6.292   1.522   1.309 -0.4017  0.1912  0.2058
14550SOL     OW45262   0.514   8.054   0.593 -0.5459  0.5557  0.7543
14550SOL    HW145263   0.488   8.027   0.681 -0.9341 -1.0966  0.1761
14550SOL    HW245264   0.526   7.971   0.545 -1.8721  1.3993 -1.1772
14551SOL     OW45265   8.745   7.392   8.490 -0.4668  0.1944 -0.2344
14551SOL    HW145266   8.718   7.447   8.416  0.3814 -3.9032 -4.0138
14551SOL    HW245267   8.841   7.387   8.482  0.1016  2.1587  3.3558
14552SOL     OW45268   9.099   1.351   6.990 -0.5614  0.5311 -0.3165
14552SOL    HW145269   9.111   1.288   7.061  0.0791 -0.8734 -1.6092
14552SOL    HW245270   9.010   1.384   7.002 -0.5055  0.2392  1.0502
14553SOL     OW45271   2.235   7.249   9.554  0.0427  0.3066 -0.4267
14553SOL    HW145272   2.230   7.327   9.499  0.3414  0.6933  0.0775
14553SOL    HW245273   2.329   7.236   9.568 -0.0451  0.6672  0.6009
14554SOL     OW45274   3.094   6.146   4.195 -0.2119  0.3547 -0.8001
14554SOL    HW145275   3.105   6.051   4.187 -1.0536 -0.0212  1.5718
14554SOL    HW245276   3.001   6.157   4.216  0.1922  1.5272  0.5180
14555SOL     OW45277   5.775   6.359   1.348  0.4756 -0.0456 -0.0062
14555SOL    HW145278   5.746   6.311   1.271 -2.7223  2.5983 -0.6400
14555SOL    HW245279   5.858   6.399   1.321  0.2855 -0.5611 -1.4503
14556SOL     OW45280   7.261   8.912   8.623 -0.0839 -0.7043  0.3123
14556SOL    HW145281   7.212   8.994   8.624  1.6415  0.3820 -0.3640
14556SOL    HW245282   7.196   8.845   8.649 -2.6052  0.2478 -2.8850
14557SOL     OW45283   1.437   2.140   4.372  0.2411 -0.0751 -0.0630
14557SOL    HW145284   1.416   2.215   4.428  0.2544  0.5280 -0.8441
14557SOL    HW245285   1.353   2.114   4.334  0.5131  0.8997 -1.4237
14558SOL     OW45286   2.847   7.451   6.049 -0.1396 -0.2852  1.0556
14558SOL    HW145287   2.776   7.474   5.990  0.1108 -1.5647  0.2036
14558SOL    HW245288   2.914   7.517   6.033 -0.0602 -0.6347 -0.1533
14559SOL     OW45289   6.987   9.739   1.990  0.0446 -0.5509 -0.5170
14559SOL    HW145290   6.919   9.681   1.955  0.0333 -0.3461 -0.8371
14559SOL    HW245291   7.022   9.785   1.913  1.1433 -1.2761 -0.4722
14560SOL     OW45292   8.323   1.902   6.118  0.7657 -0.0003  0.4155
14560SOL    HW145293   8.368   1.850   6.185  0.3188  2.0342  2.4367
14560SOL    HW245294   8.254   1.948   6.166 -1.7777 -0.9243 -2.0877
14561SOL     OW45295   7.133   5.698   6.764  0.3439  0.0911  0.0333
14561SOL    HW145296   7.149   5.607   6.787 -0.2965  0.0641  0.4020
14561SOL    HW245297   7.114   5.697   6.670 -0.5881 -0.2843  0.2201
14562SOL     OW45298   1.688   8.770   3.837 -0.4715 -0.3591 -0.1857
14562SOL    HW145299   1.777   8.802   3.819  0.5511 -1.1547  2.7863
14562SOL    HW245300   1.685   8.684   3.795  0.1119 -0.2445 -0.4724
14563SOL     OW45301   3.009   6.715   5.325 -0.2863  0.7843 -0.6047
14563SOL    HW145302   3.049   6.631   5.348 -1.3316  0.6407  0.8480
14563SOL    HW245303   2.927   6.691   5.280  0.5570  1.0718 -2.3883
14564SOL     OW45304   7.735   2.644   5.352 -0.2763 -0.1336  0.2106
14564SOL    HW145305   7.830   2.643   5.357 -0.0774 -2.2744 -2.1216
14564SOL    HW245306   7.713   2.734   5.329  1.4500 -0.2167 -2.0910
14565SOL     OW45307   9.590   2.938   2.579 -0.1062 -0.4656 -0.3833
14565SOL    HW145308   9.537   2.894   2.512 -0.0869 -1.1079  0.0193
14565SOL    HW245309   9.667   2.882   2.588  0.1523 -0.0846 -0.2139
14566SOL     OW45310   7.471   0.455   3.781  0.5665 -0.4972 -0.4895
14566SOL    HW145311   7.530   0.511   3.730  0.5840 -1.4969 -1.6103
14566SOL    HW245312   7.461   0.376   3.728 -0.6623 -0.9353  0.3506
14567SOL     OW45313   8.887   2.631   9.394 -0.1802  0.0030 -0.0458
14567SOL    HW145314   8.908   2.591   9.310  0.0279  0.3070 -0.1412
14567SOL    HW245315   8.793   2.649   9.390  0.0830  1.3436 -0.7992
14568SOL     OW45316   5.739   8.976   5.431 -0.4111  0.1937 -0.0427
14568SOL    HW145317   5.703   9.055   5.391 -1.4466  0.4295  1.2856
14568SOL    HW245318   5.663   8.919   5.446 -0.1648  0.3206  1.9909
14569SOL     OW45319   1.399   2.444   3.718  0.0435  0.2055  0.3249
14569SOL    HW145320   1.467   2.458   3.652  0.1921 -0.7541  0.2665
14569SOL    HW245321   1.426   2.365   3.765 -1.1238 -0.3053  0.1764
14570SOL     OW45322   9.584   2.889   7.113  0.5184  0.4073  0.2954
14570SOL    HW145323   9.534   2.958   7.157  0.3703  1.3238 -1.2289
14570SOL    HW245324   9.629   2.843   7.184 -0.7178  0.9868  1.5029
14571SOL     OW45325   8.831   5.004   3.565 -0.2141 -0.5271 -0.0928
14571SOL    HW145326   8.821   4.975   3.656 -0.2622 -0.7338 -0.1632
14571SOL    HW245327   8.809   5.097   3.567 -0.1685 -0.5201  0.1167
14572SOL     OW45328   6.352   2.101   3.417  0.3640 -0.0269  0.5405
14572SOL    HW145329   6.281   2.037   3.403 -0.8128  1.4010 -0.2691
14572SOL    HW245330   6.385   2.081   3.505 -0.5482 -1.1832  0.6524
14573SOL     OW45331   7.789   9.548   5.778  0.4666  0.0627 -0.1456
14573SOL    HW145332   7.802   9.545   5.873 -1.2734 -0.6890  0.1114
14573SOL    HW245333   7.696   9.530   5.766  0.5507  0.6469 -1.9845
14574SOL     OW45334   7.537   0.143   4.521  0.4115 -0.0943  0.0764
14574SOL    HW145335   7.615   0.178   4.477 -0.4305 -1.6752 -2.9697
14574SOL    HW245336   7.502   0.217   4.570  2.2105  1.4884 -0.8722
14575SOL     OW45337   0.178   5.699   5.899 -0.0742 -0.3613  0.1190
14575SOL    HW145338   0.268   5.676   5.922 -0.2018 -1.0894 -0.1042
14575SOL    HW245339   0.182   5.792   5.877  0.2477  0.1533  2.1191
14576SOL     OW45340   3.759   8.155   2.072 -0.1891 -0.0860  0.2511
14576SOL    HW145341   3.789   8.104   2.147  0.7130 -0.6384 -0.4621
14576SOL    HW245342   3.717   8.090   2.015 -0.3038  0.2190 -0.0135
14577SOL     OW45343   1.930   5.530   7.949 -0.3296  0.1461 -0.0581
14577SOL    HW145344   1.953   5.439   7.932  0.8630  0.4130  0.0223
14577SOL    HW245345   1.876   5.556   7.875 -1.0701 -0.7481  0.1435
14578SOL     OW45346   9.151   6.786   4.654  0.0672  0.2251  1.1077
14578SOL    HW145347   9.230   6.787   4.707  2.2387  0.2397 -1.8399
14578SOL    HW245348   9.183   6.784   4.563 -3.3079 -1.3341 -0.2470
14579SOL     OW45349   0.647   7.663   5.482 -0.3552 -0.4747  0.3299
14579SOL    HW145350   0.671   7.635   5.394 -0.0240 -0.7188  0.4964
14579SOL    HW245351   0.555   7.687   5.475 -0.2133 -0.0650 -0.1871
14580SOL     OW45352   5.190   6.181   3.963  0.6979  0.5403  0.1811
14580SOL    HW145353   5.216   6.119   3.895 -0.7219  0.7048 -0.5702
14580SOL    HW245354   5.156   6.126   4.034  0.8349  0.4026  0.1396
14581SOL     OW45355   9.637   2.931   4.844  0.3395 -0.1993  0.5065
14581SOL    HW145356   9.675   2.981   4.772 -0.5088  0.4385  0.4800
14581SOL    HW245357   9.591   2.859   4.802 -0.5758  0.4549  0.3622
14582SOL     OW45358   2.207   2.373   5.646 -0.3209  0.1287  0.2623
14582SOL    HW145359   2.181   2.436   5.579 -2.3420 -1.2435 -0.3382
14582SOL    HW245360   2.286   2.410   5.684 -0.2661  1.9748 -1.4729
14583SOL     OW45361   9.592   2.714   5.020  0.2361  0.5345 -0.1450
14583SOL    HW145362   9.622   2.629   4.987  1.8718  0.4535  1.4266
14583SOL    HW245363   9.618   2.777   4.953  0.6077  0.0059 -0.4993
14584SOL     OW45364   3.576   3.707   8.917 -0.1661  0.1043 -0.2066
14584SOL    HW145365   3.595   3.778   8.977 -1.2420  1.5426 -1.5044
14584SOL    HW245366   3.551   3.634   8.973  0.9854  0.7055  1.1480
14585SOL     OW45367   4.967   4.059   6.611 -0.1680  0.6066 -0.2488
14585SOL    HW145368   4.958   4.138   6.557  2.2724  1.1927  0.0552
14585SOL    HW245369   4.986   3.989   6.548 -0.7997  0.5722 -0.4040
14586SOL     OW45370   1.941   0.660   0.118 -0.1737 -0.2114  0.1509
14586SOL    HW145371   1.846   0.652   0.112 -0.1032 -0.4552 -0.8353
14586SOL    HW245372   1.973   0.575   0.088  0.3248 -1.0811  2.8684
14587SOL     OW45373   2.657   1.233   2.746  0.2116  0.1084  0.2895
14587SOL    HW145374   2.736   1.244   2.692 -0.2769 -0.8313 -0.6576
14587SOL    HW245375   2.604   1.169   2.698 -2.1007  2.2545 -0.2522
14588SOL     OW45376   1.108   4.272   2.805  0.1181  0.3445  0.0578
14588SOL    HW145377   1.079   4.247   2.892  0.7208 -1.4571 -0.2153
14588SOL    HW245378   1.040   4.331   2.773  0.8987  2.7956  2.4905
14589SOL     OW45379   1.549   8.043   7.161 -0.2417  0.5658 -0.3987
14589SOL    HW145380   1.624   8.065   7.216 -0.1521  0.0553 -0.3030
14589SOL    HW245381   1.509   7.968   7.205 -0.6508  0.6650 -0.5941
14590SOL     OW45382   5.591   7.744   6.138  0.1022  0.4616  0.1875
14590SOL    HW145383   5.582   7.839   6.128  0.7145  0.6613  1.3721
14590SOL    HW245384   5.681   7.731   6.168  0.1970 -0.5462 -0.4786
14591SOL     OW45385   3.440   3.275   1.950  1.1251  0.3439  0.3911
14591SOL    HW145386   3.356   3.288   1.995 -0.2133 -2.0668 -1.1966
14591SOL    HW245387   3.455   3.358   1.904 -1.6127  0.1290 -1.0976
14592SOL     OW45388   5.735   5.410   4.548  0.6771  0.5086 -0.4683
14592SOL    HW145389   5.661   5.358   4.517  1.7188 -0.8127 -0.8406
14592SOL    HW245390   5.752   5.473   4.478 -0.4960  1.2848 -0.0851
14593SOL     OW45391   0.324   6.906   1.081 -0.1510  0.1813  0.0443
14593SOL    HW145392   0.347   6.922   0.990 -2.3457  0.0672 -0.5962
14593SOL    HW245393   0.268   6.828   1.078  2.2017 -1.7659  1.8997
14594SOL     OW45394   9.420   5.060   1.335 -0.1207 -0.0920  0.2354
14594SOL    HW145395   9.398   5.041   1.426 -1.1459  1.7387  0.4322
14594SOL    HW245396   9.422   5.156   1.330  2.7676 -0.1107 -1.0348
14595SOL     OW45397   2.145   7.134   0.773  0.1340  0.2182 -0.0385
14595SOL    HW145398   2.193   7.087   0.841  0.9163  0.2104 -0.5821
14595SOL    HW245399   2.053   7.121   0.795  0.3650 -0.5555  0.4966
14596SOL     OW45400   2.494   4.581   5.544  0.1579 -0.2540  0.2346
14596SOL    HW145401   2.586   4.573   5.519 -0.2846 -2.5077 -0.9378
14596SOL    HW245402   2.476   4.501   5.594 -1.2448 -0.0178  0.1515
14597SOL     OW45403   7.352   0.894   2.478  0.4106  0.7666 -0.1035
14597SOL    HW145404   7.276   0.942   2.510  1.1263  3.4926 -2.0598
14597SOL    HW245405   7.411   0.889   2.553 -0.8341  0.3916  0.8920
14598SOL     OW45406   9.212   2.378   5.280  0.4148  0.5408 -0.9229
14598SOL    HW145407   9.213   2.474   5.277 -1.3414  0.6040 -0.8889
14598SOL    HW245408   9.170   2.352   5.198 -2.3407  0.0214  0.5238
14599SOL     OW45409   4.847   6.211   9.397  0.1498  0.3486  0.0483
14599SOL    HW145410   4.772   6.211   9.456  0.4083 -2.0203  0.4499
14599SOL    HW245411   4.919   6.246   9.450 -0.0990  0.2217  0.4738
14600SOL     OW45412   5.112   2.220   3.751 -0.6367  0.2320  0.4163
14600SOL    HW145413   5.084   2.129   3.751 -0.0670  0.0078  2.3751
14600SOL    HW245414   5.113   2.245   3.844  2.1559  1.2700  0.2018
14601SOL     OW45415   2.534   3.025   6.251  0.7827 -0.3895  0.0851
14601SOL    HW145416   2.557   2.990   6.165 -1.6512 -0.3800 -0.6357
14601SOL    HW245417   2.477   2.958   6.290  0.3215  0.4475  0.8820
14602SOL     OW45418   5.683   4.363   6.238  0.0359 -0.0400  0.0208
14602SOL    HW145419   5.615   4.346   6.173 -0.1283 -0.7075  0.3577
14602SOL    HW245420   5.748   4.417   6.191  0.9257 -2.1677 -1.3407
14603SOL     OW45421   7.985   1.493   1.057  0.3695  0.2863 -0.5805
14603SOL    HW145422   8.042   1.476   1.133  0.8541  1.3253 -0.6990
14603SOL    HW245423   7.992   1.587   1.043 -0.7035  0.2911 -1.1506
14604SOL     OW45424   2.135   6.041   5.438 -0.0042  0.1474 -0.4027
14604SOL    HW145425   2.101   6.055   5.527  0.9135 -0.2531  0.0257
14604SOL    HW245426   2.134   5.946   5.427 -1.8484  0.2338 -1.5474
14605SOL     OW45427   4.199   4.301   0.155  0.1356  0.4129  0.0035
14605SOL    HW145428   4.226   4.274   0.243  0.6907  1.0311  0.0263
14605SOL    HW245429   4.140   4.231   0.126  0.5171 -0.1600  0.5793
14606SOL     OW45430   1.944   0.417   8.976  0.2616 -0.0628  0.3467
14606SOL    HW145431   1.909   0.398   9.063 -0.1828  2.1212  0.7029
14606SOL    HW245432   1.876   0.469   8.934  1.4406  0.9179 -0.4167
14607SOL     OW45433   2.842   4.503   9.449  0.3091 -0.4988  0.5768
14607SOL    HW145434   2.875   4.532   9.363 -2.1097  0.5648 -0.0954
14607SOL    HW245435   2.828   4.409   9.440  0.7154 -0.5057  0.0155
14608SOL     OW45436   5.565   1.372   4.475 -0.5698 -0.3243 -0.2820
14608SOL    HW145437   5.525   1.355   4.560  0.3456  3.6549  1.1802
14608SOL    HW245438   5.492   1.373   4.413 -1.7801  0.2128  1.1093
14609SOL     OW45439   8.345   6.752   5.344 -0.4020 -0.1517 -0.2618
14609SOL    HW145440   8.361   6.724   5.254 -0.8978  0.5570 -0.5720
14609SOL    HW245441   8.258   6.719   5.364 -2.0056  2.9640 -1.4098
14610SOL     OW45442   0.865   2.732   3.287 -0.4587 -0.5832  0.0156
14610SOL    HW145443   0.821   2.691   3.212 -0.2294 -0.6478 -0.0825
14610SOL    HW245444   0.949   2.762   3.252 -0.3130 -0.6965  0.2682
14611SOL     OW45445   8.441   8.921   5.512  0.0250 -0.1385  0.3534
14611SOL    HW145446   8.350   8.936   5.537  0.4934  1.2590  1.3345
14611SOL    HW245447   8.457   8.983   5.441 -0.8716 -3.0868 -2.6960
14612SOL     OW45448   1.268   1.809   8.647 -0.0498 -0.3430 -0.2799
14612SOL    HW145449   1.275   1.832   8.739  0.3433  0.3025 -0.4650
14612SOL    HW245450   1.217   1.880   8.608 -0.9641 -1.0438 -0.4087
14613SOL     OW45451   3.108   5.145   2.674  0.0843 -0.8142 -0.5774
14613SOL    HW145452   3.134   5.200   2.749 -1.7821 -1.3758  0.5312
14613SOL    HW245453   3.093   5.207   2.603  3.7123 -0.3762 -1.1988
14614SOL     OW45454   1.920   2.465   3.885 -0.0928  0.0859  0.2958
14614SOL    HW145455   1.995   2.439   3.938  1.3963 -0.7190 -2.0531
14614SOL    HW245456   1.940   2.555   3.858  0.4251 -0.3663 -0.9002
14615SOL     OW45457   1.157   9.059   0.075  0.4742  0.4618  0.0431
14615SOL    HW145458   1.251   9.054   0.090  0.2841 -1.5361  0.9986
14615SOL    HW245459   1.142   9.005  -0.003  0.0816  0.5401  0.0609
14616SOL     OW45460   2.653   8.875   2.723 -0.7178  0.1432 -0.2498
14616SOL    HW145461   2.559   8.854   2.722 -1.1729  1.9658  0.5972
14616SOL    HW245462   2.657   8.965   2.753  1.3451  0.0518 -0.1218
14617SOL     OW45463   3.819   7.578   9.038  1.0193 -0.1653 -0.4025
14617SOL    HW145464   3.894   7.579   9.097  0.0830  0.2209  0.8271
14617SOL    HW245465   3.763   7.508   9.072 -0.1337  0.9050 -0.0188
14618SOL     OW45466   9.772   7.336   0.450  0.3400 -0.0165 -0.0710
14618SOL    HW145467   9.728   7.268   0.398  1.3476 -0.7389 -0.0115
14618SOL    HW245468   9.728   7.417   0.425 -1.3255 -0.7461  0.3136
14619SOL     OW45469   7.870   9.052   6.489  0.0241  0.3007 -0.1992
14619SOL    HW145470   7.835   9.134   6.523  1.7652  0.1182  2.3640
14619SOL    HW245471   7.933   9.024   6.556 -0.1065 -2.8492 -1.2469
14620SOL     OW45472   0.272   5.221   4.166 -0.6656  0.4006  0.3980
14620SOL    HW145473   0.206   5.163   4.129 -1.8678  2.3949 -0.7381
14620SOL    HW245474   0.265   5.301   4.115  2.0332  1.0214  0.8530
14621SOL     OW45475   1.584   8.654   4.130  0.3531  0.0326 -0.5684
14621SOL    HW145476   1.609   8.700   4.050 -1.5086 -0.7297 -1.6428
14621SOL    HW245477   1.647   8.685   4.196  0.4046  2.5805 -1.6970
14622SOL     OW45478   0.514   5.042   1.778  0.0736 -0.1984  0.0679
14622SOL    HW145479   0.452   5.051   1.850 -1.0244 -0.5412 -0.8005
14622SOL    HW245480   0.462   5.006   1.706  1.1452  0.0955 -0.8856
14623SOL     OW45481   8.922   5.929   8.996 -0.0222 -0.2656 -0.4201
14623SOL    HW145482   8.922   5.918   8.901 -0.0843 -1.5129 -0.3017
14623SOL    HW245483   8.974   6.007   9.012  0.9716 -0.6967 -1.4344
14624SOL     OW45484   1.782   6.788   5.548 -0.1017 -0.1016  0.2590
14624SOL    HW145485   1.781   6.711   5.604 -0.8935 -2.0028 -2.2033
14624SOL    HW245486   1.706   6.839   5.576  1.3848  0.8136  3.0620
14625SOL     OW45487   4.316   1.787   0.633  0.0268  0.1035 -0.2634
14625SOL    HW145488   4.374   1.790   0.557  1.8693 -0.7580  1.0581
14625SOL    HW245489   4.371   1.758   0.705 -1.7145  0.7018  1.3979
14626SOL     OW45490   0.159   4.776   4.825 -0.0858 -0.1348  0.6991
14626SOL    HW145491   0.227   4.710   4.811 -0.5554 -0.8013  1.4267
14626SOL    HW245492   0.078   4.726   4.832 -0.5412  0.5788  0.6482
14627SOL     OW45493   3.625   6.260   3.157 -0.2843 -0.2111 -0.3277
14627SOL    HW145494   3.708   6.267   3.205  0.1372 -0.5772 -0.9904
14627SOL    HW245495   3.595   6.351   3.148 -0.2691 -0.1262  0.4468
14628SOL     OW45496   7.298   9.263   8.911 -0.6051 -0.6002 -0.1075
14628SOL    HW145497   7.203   9.254   8.908 -0.6346 -0.0471 -1.6217
14628SOL    HW245498   7.331   9.187   8.863 -0.4156  0.5023 -1.8243
14629SOL     OW45499   7.922   2.226   4.438 -0.0714  0.1289  0.3797
14629SOL    HW145500   7.981   2.301   4.436 -1.5256  1.3597  1.7195
14629SOL    HW245501   7.928   2.188   4.350  2.0734  0.6772  0.2375
14630SOL     OW45502   0.287   3.049   4.040 -0.0774 -0.1417 -0.2238
14630SOL    HW145503   0.194   3.026   4.039 -0.0504 -0.2313 -1.4438
14630SOL    HW245504   0.329   2.972   4.079 -0.4264 -0.4662 -0.4757
14631SOL     OW45505   1.169   0.633   3.154 -0.0944 -0.5313 -0.3945
14631SOL    HW145506   1.085   0.677   3.139  0.0386 -0.2747 -0.4037
14631SOL    HW245507   1.233   0.687   3.106 -0.0771 -1.3502 -1.3250
14632SOL     OW45508   1.039   4.116   3.281  0.6727 -0.0689  0.1926
14632SOL    HW145509   0.954   4.090   3.317 -0.6633  1.6826 -1.5072
14632SOL    HW245510   1.080   4.168   3.350 -0.9555  1.5350  0.0164
14633SOL     OW45511   4.068   1.956   7.237  0.4469 -0.7237 -0.4113
14633SOL    HW145512   4.009   1.992   7.303 -2.1563 -3.4432 -1.0308
14633SOL    HW245513   4.043   2.002   7.156 -0.4184 -1.3957 -0.5419
14634SOL     OW45514   5.161   4.058   2.547  0.2583  0.4370  0.1163
14634SOL    HW145515   5.210   4.068   2.629 -0.7904  1.1321  0.6801
14634SOL    HW245516   5.215   4.103   2.482  0.3748  1.1965  0.7277
14635SOL     OW45517   4.929   0.760   3.860 -0.5231  0.2237 -0.1877
14635SOL    HW145518   5.015   0.800   3.850 -0.6215  0.2575 -0.9406
14635SOL    HW245519   4.919   0.748   3.955 -0.1901  1.3073 -0.0014
14636SOL     OW45520   5.820   4.280   8.182 -0.2960 -0.2884 -0.1640
14636SOL    HW145521   5.914   4.289   8.192 -0.4189 -0.9170  1.9707
14636SOL    HW245522   5.783   4.301   8.268 -2.1134 -0.0381 -0.9444
14637SOL     OW45523   7.325   8.152   7.200 -0.3349 -0.2833 -0.3472
14637SOL    HW145524   7.235   8.155   7.233  0.4751  0.7799  1.9280
14637SOL    HW245525   7.371   8.220   7.250  1.5468 -0.1963 -2.0976
14638SOL     OW45526   5.534   9.776   5.942  0.6404  0.0723  0.9604
14638SOL    HW145527   5.548   9.713   6.012 -0.0088  0.5349  1.5216
14638SOL    HW245528   5.532   9.861   5.986 -0.5648  0.3032  0.4912
14639SOL     OW45529   2.363   5.715   5.436 -0.0753 -0.1109  0.3832
14639SOL    HW145530   2.271   5.738   5.447 -0.1521 -0.5710  0.7452
14639SOL    HW245531   2.370   5.627   5.473  0.3108 -0.4599 -0.4948
14640SOL     OW45532   3.592   1.421   4.143  0.5528  0.1199 -0.2256
14640SOL    HW145533   3.554   1.470   4.069 -1.8241  1.7499  1.9133
14640SOL    HW245534   3.679   1.459   4.154  0.0117  1.5709 -0.6831
14641SOL     OW45535   0.003   1.064   4.624  0.0339  0.4780 -0.0218
14641SOL    HW145536   0.013   1.152   4.661 -2.9887  0.4419  1.1275
14641SOL    HW245537  -0.091   1.053   4.614  0.3140 -2.7195  0.0372
14642SOL     OW45538   7.611   7.683   7.319  0.1512 -0.3660  0.3632
14642SOL    HW145539   7.562   7.640   7.249 -0.0062 -0.4132  0.5015
14642SOL    HW245540   7.544   7.705   7.384  0.3934 -1.0083  0.8448
14643SOL     OW45541   5.718   8.326   8.277 -0.4642 -0.2564  0.1722
14643SOL    HW145542   5.718   8.371   8.361 -0.1977 -0.1458  0.1135
14643SOL    HW245543   5.690   8.237   8.297 -0.6190 -0.1704  0.3436
14644SOL     OW45544   2.530   3.430   7.065 -0.3535 -0.3121 -0.2719
14644SOL    HW145545   2.605   3.407   7.009 -0.4900 -0.5065 -0.3745
14644SOL    HW245546   2.533   3.366   7.136  0.4266  0.5516  0.5104
14645SOL     OW45547   7.986   2.206   4.697 -0.1077  0.1180  0.4420
14645SOL    HW145548   7.945   2.200   4.611 -0.4972  0.8899  0.5673
14645SOL    HW245549   8.027   2.120   4.710  0.4941  0.1904 -0.7821
14646SOL     OW45550   9.178   4.906   0.653 -0.3898  0.5523  0.1444
14646SOL    HW145551   9.179   4.864   0.739 -2.4744  0.1703  0.0236
14646SOL    HW245552   9.270   4.908   0.626  0.6598  2.6467  3.2909
14647SOL     OW45553   7.715   9.821   9.494 -0.0076 -0.1547  0.8200
14647SOL    HW145554   7.752   9.863   9.571  1.2293 -0.4194  0.3983
14647SOL    HW245555   7.624   9.805   9.516 -0.3925  2.1817  1.2423
14648SOL     OW45556   5.574   8.982   8.991  0.0905 -0.1302  0.0544
14648SOL    HW145557   5.505   8.941   9.044 -0.9702  1.9547  0.4121
14648SOL    HW245558   5.569   8.938   8.906  1.1503 -2.8511  1.2952
14649SOL     OW45559   1.586   5.966   6.558 -0.0570  0.0280 -0.1282
14649SOL    HW145560   1.529   5.998   6.488  0.4807 -0.2030 -0.6902
14649SOL    HW245561   1.660   5.926   6.511 -1.2648 -3.1832  0.4491
14650SOL     OW45562   2.008   9.820   5.132  0.4257  0.1343 -0.6189
14650SOL    HW145563   2.069   9.751   5.155 -0.2074 -0.7774 -1.5621
14650SOL    HW245564   2.061   9.887   5.089  1.0120  0.1493  0.1195
14651SOL     OW45565   9.377   5.442   6.910 -0.2295  0.4060  0.2227
14651SOL    HW145566   9.289   5.472   6.888  0.0538  0.9542 -0.1826
14651SOL    HW245567   9.423   5.521   6.938  0.6365  0.4340 -1.2146
14652SOL     OW45568   7.020   6.506   9.425 -0.4339 -0.0587  0.3204
14652SOL    HW145569   7.097   6.552   9.394 -1.1716  1.2072  0.2784
14652SOL    HW245570   7.031   6.416   9.395  0.2168  0.4860 -1.1440
14653SOL     OW45571   1.533   0.789   7.853  0.3974  0.1476 -0.8436
14653SOL    HW145572   1.445   0.753   7.862  1.0818 -1.4390 -0.0538
14653SOL    HW245573   1.526   0.853   7.782 -1.4433  0.2872 -0.5858
14654SOL     OW45574   8.950   0.095   3.927 -0.4075 -0.0568 -0.4328
14654SOL    HW145575   8.931   0.113   4.019 -1.0005 -0.7045 -0.4200
14654SOL    HW245576   9.021   0.032   3.929  0.5854  1.0304 -0.4533
14655SOL     OW45577   8.434   2.383   6.524  0.0742 -0.3609 -0.2435
14655SOL    HW145578   8.406   2.474   6.521  0.4294 -0.2298  0.3064
14655SOL    HW245579   8.530   2.387   6.522  0.1121 -0.6778  0.6362
14656SOL     OW45580   6.053   0.874   7.072  0.4224  0.3117  0.1432
14656SOL    HW145581   6.105   0.846   6.996 -0.6891 -0.5402 -0.3379
14656SOL    HW245582   6.068   0.805   7.137  0.3279  0.3540  0.2086
14657SOL     OW45583   7.554   3.491   6.424 -0.0265  0.1399 -0.2496
14657SOL    HW145584   7.619   3.506   6.355 -0.6115  0.6630 -0.6986
14657SOL    HW245585   7.470   3.486   6.377 -0.4846  0.9537  0.4653
14658SOL     OW45586   0.992   6.257   5.543  0.7248 -0.2078  0.1104
14658SOL    HW145587   0.897   6.270   5.545  0.4567 -1.9839  0.5008
14658SOL    HW245588   1.018   6.252   5.635  1.2681  0.6035  0.0154
14659SOL     OW45589   0.161   0.572   4.316  0.0716  0.2878 -0.0722
14659SOL    HW145590   0.155   0.667   4.311  1.4665  0.5800  2.2382
14659SOL    HW245591   0.248   0.555   4.351 -0.7792 -1.7546  1.2645
14660SOL     OW45592   2.337   8.713   6.490  0.0562 -0.1090  0.1724
14660SOL    HW145593   2.327   8.716   6.585  1.2770 -0.9191  0.3572
14660SOL    HW245594   2.283   8.784   6.457 -0.9510 -0.2622  1.4239
14661SOL     OW45595   1.923   7.001   9.656 -0.1540 -0.3453  0.4709
14661SOL    HW145596   1.975   6.985   9.578 -0.2625 -1.3417  0.5850
14661SOL    HW245597   1.962   7.078   9.697  0.3503 -0.2529 -0.1824
14662SOL     OW45598   3.873   2.954   1.757  0.1600  0.2621 -0.3841
14662SOL    HW145599   3.880   3.026   1.821 -0.5922 -2.2441  2.8166
14662SOL    HW245600   3.790   2.912   1.779 -0.1708 -0.7152 -3.1914
14663SOL     OW45601   0.881   9.199   3.764  0.6932  0.9062  0.2658
14663SOL    HW145602   0.914   9.276   3.718 -0.2326  0.8646 -0.5128
14663SOL    HW245603   0.786   9.209   3.763  0.4001 -1.0746 -1.4843
14664SOL     OW45604   8.004   7.821   4.534 -0.2095  0.4271  0.1437
14664SOL    HW145605   7.996   7.831   4.629  1.4411  1.9404  0.1724
14664SOL    HW245606   8.004   7.726   4.520  2.5240  0.0624  1.9918
14665SOL     OW45607   2.050   0.254   2.262 -0.0252  0.0209  0.4395
14665SOL    HW145608   1.977   0.281   2.318  0.7067  0.1483  1.3674
14665SOL    HW245609   2.014   0.185   2.207 -0.7674 -0.1194  1.0840
14666SOL     OW45610   4.914   5.358   6.921  0.3096  0.0022  0.0787
14666SOL    HW145611   4.948   5.429   6.975 -0.7712 -1.3075  2.6852
14666SOL    HW245612   4.821   5.354   6.941  0.0932 -1.3460 -0.9778
14667SOL     OW45613   1.244   9.786   2.289  0.5288 -0.1700 -0.4380
14667SOL    HW145614   1.237   9.876   2.258  0.9060  0.6981  1.8304
14667SOL    HW245615   1.211   9.733   2.216  1.0514  1.7223 -2.1330
14668SOL     OW45616   3.945   7.712   8.063  0.5103  0.2507 -0.1172
14668SOL    HW145617   4.012   7.735   7.999 -1.1177 -0.9309 -2.4069
14668SOL    HW245618   3.923   7.621   8.043 -1.1071  0.3082  1.1710
14669SOL     OW45619   7.921   3.196   1.264 -0.6065 -0.2066  0.8049
14669SOL    HW145620   7.846   3.253   1.284 -0.6185 -0.5328  1.7375
14669SOL    HW245621   7.950   3.225   1.177  0.0419  1.9193  1.6736
14670SOL     OW45622   8.341   0.867   2.833  0.2748 -0.6622 -0.5068
14670SOL    HW145623   8.362   0.871   2.740 -0.5746 -0.4998 -0.7053
14670SOL    HW245624   8.268   0.806   2.838  0.5603 -0.9581  0.1052
14671SOL     OW45625   9.444   9.357   7.574 -0.0132 -0.5502 -0.3345
14671SOL    HW145626   9.533   9.389   7.559 -0.5607  1.6000  0.5935
14671SOL    HW245627   9.433   9.361   7.669 -0.9362 -1.2659 -0.4003
14672SOL     OW45628   3.165   3.267   9.034 -0.5448  0.4379  0.3594
14672SOL    HW145629   3.166   3.333   9.103  0.2636  0.1960  0.5820
14672SOL    HW245630   3.090   3.291   8.979 -0.5115  1.2870  0.6787
14673SOL     OW45631   9.306   7.614   7.193  0.1836 -0.0121  0.2424
14673SOL    HW145632   9.293   7.686   7.132 -0.1607 -0.6020 -0.4086
14673SOL    HW245633   9.218   7.575   7.202  0.7046 -1.6557 -1.1269
14674SOL     OW45634   2.539   7.055   6.518 -0.1505  0.3726 -0.2358
14674SOL    HW145635   2.599   7.000   6.468 -0.1734  0.1642 -0.0420
14674SOL    HW245636   2.465   7.070   6.460  0.2585  0.9508 -0.6132
14675SOL     OW45637   6.746   4.373   6.076 -0.3057  0.0027  0.0517
14675SOL    HW145638   6.793   4.456   6.079 -3.5040  1.9576  1.7278
14675SOL    HW245639   6.688   4.380   6.000  0.5495 -1.4680 -0.7845
14676SOL     OW45640   0.780   9.016   6.866 -0.0857 -0.5960 -0.2283
14676SOL    HW145641   0.771   8.927   6.832 -0.2822 -0.0991 -1.5008
14676SOL    HW245642   0.695   9.034   6.908  0.0515 -1.0911  0.2827
14677SOL     OW45643   7.879   3.780   1.564  0.0011  0.0842 -0.2927
14677SOL    HW145644   7.871   3.857   1.621  2.1205 -0.9985  1.6447
14677SOL    HW245645   7.920   3.814   1.484  0.9039  0.9933  0.5309
14678SOL     OW45646   9.767   6.871   6.233  0.1126 -0.2029  0.4672
14678SOL    HW145647   9.678   6.863   6.201  0.3786 -0.9999 -0.1132
14678SOL    HW245648   9.808   6.936   6.176 -0.0183 -0.0363  0.5625
14679SOL     OW45649   6.756   4.968   9.510 -0.2190 -0.3196 -0.4453
14679SOL    HW145650   6.826   4.929   9.563  0.6795 -1.5412 -2.4272
14679SOL    HW245651   6.682   4.974   9.570  1.0387 -0.6682  1.2336
14680SOL     OW45652   5.654   6.293   4.294 -0.1760 -0.2856 -0.0237
14680SOL    HW145653   5.747   6.306   4.273  0.3723 -1.2076  1.6896
14680SOL    HW245654   5.630   6.373   4.341 -0.8909  0.9125 -2.2406
14681SOL     OW45655   3.030   3.495   9.221 -0.0039  0.5309 -0.1453
14681SOL    HW145656   2.979   3.457   9.149  1.3712 -0.9216 -0.4166
14681SOL    HW245657   2.999   3.448   9.299  0.2667  0.2922 -0.1786
14682SOL     OW45658   8.847   7.286   1.570 -0.5902  0.4770  0.1029
14682SOL    HW145659   8.805   7.213   1.525  1.1936 -0.2241 -0.5296
14682SOL    HW245660   8.893   7.246   1.644 -0.9437  1.1967  0.7279
14683SOL     OW45661   4.660   7.074   0.623 -0.5176  0.2559  0.1876
14683SOL    HW145662   4.660   7.166   0.596  0.2007  0.8883  2.1844
14683SOL    HW245663   4.571   7.044   0.604 -0.8025  1.3849 -0.3839
14684SOL     OW45664   7.073   5.795   7.818  0.6733  0.2098 -0.4716
14684SOL    HW145665   6.986   5.836   7.813  0.1752 -0.8233 -0.5459
14684SOL    HW245666   7.081   5.745   7.736  0.4229 -1.4147  0.4430
14685SOL     OW45667   1.788   6.700   8.766 -0.8695 -0.5626 -0.3983
14685SOL    HW145668   1.703   6.694   8.810 -1.5013 -0.1052 -1.5095
14685SOL    HW245669   1.770   6.749   8.685  0.5152 -0.1737 -0.4973
14686SOL     OW45670   8.540   5.880   5.948 -0.2394  0.2526  0.0887
14686SOL    HW145671   8.501   5.798   5.918  0.1011  0.3462 -0.6502
14686SOL    HW245672   8.481   5.948   5.916 -0.1334  0.3298  0.0558
14687SOL     OW45673   0.733   7.275   9.576 -0.0758  0.1322  0.0847
14687SOL    HW145674   0.673   7.290   9.504 -1.7897 -0.8841  1.2366
14687SOL    HW245675   0.797   7.212   9.541 -0.1578  0.5890 -0.9054
14688SOL     OW45676   0.907   8.820   0.329 -0.4003 -0.7138  0.4076
14688SOL    HW145677   0.963   8.897   0.335  0.6199 -1.5231  2.2176
14688SOL    HW245678   0.828   8.850   0.284 -0.1036  1.4161  1.2038
14689SOL     OW45679   5.481   4.561   2.140  0.0294  0.3182 -0.1937
14689SOL    HW145680   5.390   4.592   2.135 -0.8545 -2.0614 -0.1436
14689SOL    HW245681   5.520   4.591   2.059 -2.1657 -2.3378 -2.4633
14690SOL     OW45682   1.329   1.152   1.286  0.5630 -0.1188  0.5328
14690SOL    HW145683   1.255   1.139   1.346 -0.0561  0.6830 -0.0507
14690SOL    HW245684   1.406   1.152   1.343  0.0992 -0.6799  1.1766
14691SOL     OW45685   2.027   5.417   6.855  0.0980  0.2152 -0.1278
14691SOL    HW145686   2.093   5.349   6.848 -0.4707 -0.3412 -0.1477
14691SOL    HW245687   1.944   5.370   6.857 -0.3219  0.9224 -0.5147
14692SOL     OW45688   3.037   2.569   4.957 -0.6290 -0.3130 -0.2183
14692SOL    HW145689   3.002   2.648   4.916  0.8921 -0.6063 -2.2779
14692SOL    HW245690   3.018   2.499   4.893  2.6282 -0.6455 -1.0190
14693SOL     OW45691   3.326   8.760   2.405  0.4578  0.9655  0.2160
14693SOL    HW145692   3.240   8.730   2.376  1.1764 -0.0515 -0.9968
14693SOL    HW245693   3.316   8.774   2.499 -0.8831  0.3311  0.1946
14694SOL     OW45694   5.206   3.090   8.716 -0.5656 -0.0784  0.3352
14694SOL    HW145695   5.113   3.108   8.727 -0.6596 -0.1327 -0.3380
14694SOL    HW245696   5.209   2.998   8.688 -0.4196  0.3541 -1.1342
14695SOL     OW45697   9.742   8.478   5.587  0.2080  0.6899  0.0021
14695SOL    HW145698   9.752   8.571   5.605  1.6761  0.5968 -0.2064
14695SOL    HW245699   9.706   8.441   5.668 -1.2881  1.5523 -0.2344
14696SOL     OW45700   4.549   0.538   6.780 -0.0466  0.1756  0.2757
14696SOL    HW145701   4.462   0.551   6.816 -0.7875 -0.5006 -1.1803
14696SOL    HW245702   4.608   0.551   6.854 -1.4146 -0.1119  1.4604
14697SOL     OW45703   6.230   1.762   8.611 -0.3297  0.3774 -0.2886
14697SOL    HW145704   6.205   1.679   8.651  2.3360 -1.0433 -1.3530
14697SOL    HW245705   6.162   1.779   8.546 -0.6390 -1.2862 -0.4440
14698SOL     OW45706   7.093   3.550   5.848 -0.2714 -0.1111 -0.4180
14698SOL    HW145707   7.027   3.603   5.803 -0.3738 -0.3029 -0.4928
14698SOL    HW245708   7.102   3.472   5.794  0.5119  0.2182 -0.7657
14699SOL     OW45709   8.730   3.483   8.733  0.2473 -0.4236 -0.1063
14699SOL    HW145710   8.765   3.394   8.740  0.6548 -0.2761 -0.2306
14699SOL    HW245711   8.797   3.531   8.684  1.4214  0.6679  2.3676
14700SOL     OW45712   7.300   8.802   1.171 -0.1909 -0.2058 -0.0527
14700SOL    HW145713   7.315   8.780   1.263 -0.6337  0.1872  0.1216
14700SOL    HW245714   7.385   8.791   1.129 -0.4323 -2.5451 -0.0595
14701SOL     OW45715   5.409   5.172   5.104 -0.6063  0.3097 -0.1875
14701SOL    HW145716   5.445   5.239   5.046 -1.3452  0.8436 -0.0452
14701SOL    HW245717   5.444   5.194   5.190  0.4738 -0.4706 -0.4051
14702SOL     OW45718   2.062   8.103   5.479  0.4850  0.5226 -0.1052
14702SOL    HW145719   2.012   8.045   5.537 -1.6038 -0.0991 -2.3748
14702SOL    HW245720   1.997   8.160   5.440  2.1756  2.7252  0.0696
14703SOL     OW45721   5.717   5.769   6.707 -0.1288 -0.2485  1.0538
14703SOL    HW145722   5.625   5.794   6.694 -0.0111  0.0731  0.8233
14703SOL    HW245723   5.739   5.717   6.629 -0.4267 -1.2560  1.6159
14704SOL     OW45724   9.712   4.109   7.598 -0.0322 -0.2147  0.3884
14704SOL    HW145725   9.791   4.112   7.545  0.7131  0.5938  1.5148
14704SOL    HW245726   9.724   4.176   7.664 -1.3966 -0.4968  0.9645
14705SOL     OW45727   0.838   8.347   0.332  0.5427  0.8564  0.5320
14705SOL    HW145728   0.835   8.265   0.282  0.0649  0.8214  0.6157
14705SOL    HW245729   0.909   8.334   0.395  0.3205  0.4197  0.6943
14706SOL     OW45730   8.395   0.789   5.777  0.4322  0.1682  0.0498
14706SOL    HW145731   8.454   0.758   5.846 -1.2510  3.0219  3.0855
14706SOL    HW245732   8.410   0.884   5.774 -1.1368  0.4375 -2.0333
14707SOL     OW45733   0.976   2.236   4.226  0.5380 -0.0226  0.1448
14707SOL    HW145734   1.042   2.306   4.226 -0.0396  0.5710  1.5716
14707SOL    HW245735   0.981   2.199   4.314  0.4488 -1.4230 -0.4268
14708SOL     OW45736   6.453   9.510   6.921 -0.2050 -0.0643  0.0571
14708SOL    HW145737   6.506   9.589   6.920 -1.4118  0.8112  1.3532
14708SOL    HW245738   6.513   9.440   6.892  0.9598  1.2447 -0.8028
14709SOL     OW45739   6.293   6.364   3.639 -0.0737 -0.0619 -0.0366
14709SOL    HW145740   6.358   6.335   3.702 -0.3594 -0.1252  0.2306
14709SOL    HW245741   6.343   6.382   3.559  0.1192 -1.2665 -0.2080
14710SOL     OW45742   8.269   2.213   8.322 -0.3580 -0.1847  0.0799
14710SOL    HW145743   8.202   2.276   8.296  1.3047  2.0263  0.7465
14710SOL    HW245744   8.272   2.220   8.418  0.6473 -0.3860  0.0783
14711SOL     OW45745   6.623   3.663   4.616  0.1913  0.5315 -0.5946
14711SOL    HW145746   6.615   3.578   4.572 -0.9008 -1.0193  2.3658
14711SOL    HW245747   6.717   3.674   4.629  0.2897 -1.0484  0.3508
14712SOL     OW45748   6.406   6.066   0.609  0.0756 -0.6521 -0.5552
14712SOL    HW145749   6.344   6.091   0.540  0.4680  1.4182 -0.2234
14712SOL    HW245750   6.449   6.148   0.633  0.8885 -1.5537  1.2342
14713SOL     OW45751   2.101   9.780   7.919  0.1529 -0.5776  0.2927
14713SOL    HW145752   2.011   9.786   7.888 -0.2228  0.4648  1.5234
14713SOL    HW245753   2.154   9.794   7.840 -0.7674 -0.0061 -0.2458
14714SOL     OW45754   9.596   8.446   0.713  0.1370  0.0346  0.6200
14714SOL    HW145755   9.568   8.511   0.649  1.2475  0.3995  0.4863
14714SOL    HW245756   9.564   8.480   0.797 -1.0854 -0.3087  0.3144
14715SOL     OW45757   5.458   7.040   1.772  0.1949 -0.3123  0.1370
14715SOL    HW145758   5.416   7.059   1.855  1.4548 -0.1681  0.7676
14715SOL    HW245759   5.550   7.066   1.785  1.7444 -5.0196  0.4723
14716SOL     OW45760   3.519   8.388   2.449  0.0453 -0.9693 -0.3101
14716SOL    HW145761   3.574   8.461   2.422 -0.1754 -0.4918  0.4851
14716SOL    HW245762   3.504   8.338   2.369 -0.3514  0.2176 -1.0057
14717SOL     OW45763   9.343   6.631   9.360  0.2844 -0.1761 -0.5160
14717SOL    HW145764   9.380   6.661   9.442  1.2520 -0.2082 -0.9285
14717SOL    HW245765   9.248   6.637   9.372  0.4251  0.0967  0.4858
14718SOL     OW45766   0.636   4.001   6.858 -0.1172  0.2339 -0.3509
14718SOL    HW145767   0.677   3.927   6.903  0.8750  1.9905  1.8543
14718SOL    HW245768   0.550   4.009   6.899  0.5712  1.4853  0.9731
14719SOL     OW45769   0.244   3.280   3.508  1.0146  0.2372 -0.2587
14719SOL    HW145770   0.287   3.342   3.567  0.4844  0.0799  0.3111
14719SOL    HW245771   0.154   3.313   3.500  0.6778 -0.5331  0.1952
14720SOL     OW45772   4.598   0.580   4.762 -0.0647 -0.0732  0.2595
14720SOL    HW145773   4.647   0.575   4.680  0.1966 -2.5857  0.4766
14720SOL    HW245774   4.585   0.673   4.777  1.5302  0.5260 -1.6476
14721SOL     OW45775   7.450   8.294   2.815  0.2067  0.2394 -0.2181
14721SOL    HW145776   7.508   8.342   2.756  2.7733 -0.4380  1.6008
14721SOL    HW245777   7.456   8.203   2.787  1.4750 -0.0951  1.0199
14722SOL     OW45778   1.699   7.565   9.060 -0.4599 -0.0147  0.0224
14722SOL    HW145779   1.735   7.500   8.999  0.7346  1.0512 -0.4427
14722SOL    HW245780   1.615   7.591   9.020 -0.3155 -0.3013 -0.4806
14723SOL     OW45781   8.749   5.759   1.532 -0.1576  0.6596  0.2036
14723SOL    HW145782   8.842   5.777   1.542 -0.1749  0.3660  0.9584
14723SOL    HW245783   8.742   5.663   1.538 -0.6866  0.7735  1.9389
14724SOL     OW45784   5.810   6.868   2.453 -0.0703  0.8302  0.4790
14724SOL    HW145785   5.893   6.837   2.489 -1.2566 -1.6563  1.3174
14724SOL    HW245786   5.812   6.840   2.361  1.1001  3.2435 -0.3069
14725SOL     OW45787   8.081   1.382   4.374 -0.2040  0.3380 -0.2602
14725SOL    HW145788   8.161   1.395   4.325  0.3102 -0.3260  0.3727
14725SOL    HW245789   8.035   1.465   4.369  0.7628  0.8841 -0.2199
14726SOL     OW45790   2.390   9.417   3.987  0.2604 -0.5119 -0.6030
14726SOL    HW145791   2.436   9.486   4.036 -1.5846  0.4280 -0.1049
14726SOL    HW245792   2.401   9.441   3.895  2.4167 -1.4275 -0.6541
14727SOL     OW45793   9.798   8.644   8.158  0.4715 -0.3815  0.3305
14727SOL    HW145794   9.772   8.592   8.082  0.3936 -1.0162  0.7866
14727SOL    HW245795   9.873   8.597   8.196  0.3737 -0.1925  0.7724
14728SOL     OW45796   5.147   4.790   5.679 -0.3360 -0.4813 -0.1943
14728SOL    HW145797   5.186   4.849   5.614 -0.3252  1.5902  1.5758
14728SOL    HW245798   5.067   4.835   5.706 -0.7473 -1.6912  0.6842
14729SOL     OW45799   6.056   8.496   7.997  0.2800  0.3083 -0.1819
14729SOL    HW145800   6.123   8.565   8.001 -0.3250  0.9325 -0.5021
14729SOL    HW245801   5.990   8.531   7.936 -0.6310 -0.0226  0.5911
14730SOL     OW45802   2.670   8.236   6.655  0.4003  0.1300  0.4622
14730SOL    HW145803   2.650   8.250   6.562  3.6155  0.8133 -0.2168
14730SOL    HW245804   2.697   8.145   6.660 -0.7308 -0.2029  0.9873
14731SOL     OW45805   3.473   8.096   8.653  0.4783 -0.2084  0.2708
14731SOL    HW145806   3.547   8.040   8.676  0.3296 -0.9666 -1.0483
14731SOL    HW245807   3.436   8.057   8.574 -2.3638 -0.8243  1.7755
14732SOL     OW45808   1.113   8.704   3.069 -0.1885  0.3295 -0.5293
14732SOL    HW145809   1.170   8.628   3.085 -1.3017 -0.1359  1.5193
14732SOL    HW245810   1.157   8.776   3.113  0.4938  0.7384 -1.8462
14733SOL     OW45811   8.075   3.923   0.678  0.1520  0.5352 -0.1846
14733SOL    HW145812   8.102   3.927   0.587  1.7891  1.2946  0.3073
14733SOL    HW245813   8.081   4.013   0.710 -0.5765  0.3114  0.6262
14734SOL     OW45814   4.903   2.212   6.145 -0.2925  0.1889  0.6727
14734SOL    HW145815   4.967   2.158   6.192  0.8208  0.7482 -0.1603
14734SOL    HW245816   4.902   2.294   6.193  0.5563  0.6195 -0.0017
14735SOL     OW45817   4.766   7.645   6.772 -0.1258 -0.5643  0.1235
14735SOL    HW145818   4.749   7.551   6.765  3.0177 -1.1698 -0.7250
14735SOL    HW245819   4.861   7.652   6.780 -0.2966  2.5560  0.6607
14736SOL     OW45820   7.273   7.330   6.985 -0.0203  0.1984  0.3119
14736SOL    HW145821   7.314   7.409   7.019  0.1224 -0.7590  2.5614
14736SOL    HW245822   7.207   7.307   7.051 -2.4063  0.2288 -1.9098
14737SOL     OW45823   4.860   3.537   9.156  0.4531  0.9654  0.1631
14737SOL    HW145824   4.837   3.626   9.129  4.0899  2.9815  2.8599
14737SOL    HW245825   4.903   3.548   9.241  0.8168 -3.4548  0.7776
14738SOL     OW45826   6.895   0.817   5.251 -0.1335  0.1342 -0.0042
14738SOL    HW145827   6.913   0.743   5.310  0.0393 -0.1197 -0.3685
14738SOL    HW245828   6.821   0.788   5.198  0.4348 -0.0922 -0.6815
14739SOL     OW45829   8.951   5.969   4.860 -0.1516  0.0475  0.3565
14739SOL    HW145830   8.912   6.053   4.835 -2.4769 -0.4471  1.9312
14739SOL    HW245831   8.875   5.913   4.878  1.3401 -1.6387  1.7087
14740SOL     OW45832   8.974   5.240   6.260 -0.3357  0.1495 -0.1587
14740SOL    HW145833   9.034   5.298   6.213  1.3349 -2.1068 -0.9842
14740SOL    HW245834   8.895   5.239   6.205  0.7170 -0.6215 -1.7255
14741SOL     OW45835   0.055   4.699   3.413  0.1696 -0.2579  0.1310
14741SOL    HW145836   0.052   4.788   3.377 -1.6070 -0.1787  0.3537
14741SOL    HW245837   0.026   4.709   3.504  0.2620 -1.0289  0.2537
14742SOL     OW45838   2.099   9.664   6.060  0.7278 -0.4492  0.1415
14742SOL    HW145839   2.173   9.675   6.119  1.6849 -0.5387 -1.0075
14742SOL    HW245840   2.102   9.571   6.035  0.1361 -0.4893  0.2016
14743SOL     OW45841   7.730   7.615   8.793  0.5011 -0.1148 -0.0769
14743SOL    HW145842   7.645   7.644   8.824  0.9046  0.5195  0.4688
14743SOL    HW245843   7.777   7.589   8.873  1.0140  0.0725 -0.3151
14744SOL     OW45844   2.761   4.137   1.970 -0.0244  0.2546 -0.1668
14744SOL    HW145845   2.692   4.197   1.942  1.2719  0.7603 -2.5091
14744SOL    HW245846   2.763   4.068   1.904  0.7417 -0.5492  0.6628
14745SOL     OW45847   3.467   3.389   2.529  0.1731  0.1690 -0.4747
14745SOL    HW145848   3.386   3.401   2.481 -0.3392 -1.8684 -0.2122
14745SOL    HW245849   3.507   3.310   2.491  1.5085  0.5399  0.0874
14746SOL     OW45850   3.732   3.612   9.589 -0.0831  0.3973  0.1091
14746SOL    HW145851   3.812   3.637   9.635  0.2525 -0.1274 -0.1698
14746SOL    HW245852   3.661   3.653   9.638  0.4793  2.6536 -0.8687
14747SOL     OW45853   3.374   8.114   8.347  0.1621  0.0562  0.3013
14747SOL    HW145854   3.317   8.037   8.360 -0.9008  0.8735  0.6489
14747SOL    HW245855   3.346   8.151   8.263 -0.1593  0.7273  0.6927
14748SOL     OW45856   5.404   9.433   8.950 -0.0440  0.0018 -0.8950
14748SOL    HW145857   5.411   9.425   8.854  1.4908  0.0510 -0.8019
14748SOL    HW245858   5.453   9.512   8.971 -1.7244  0.9150 -0.1857
14749SOL     OW45859   2.010   0.601   7.819 -0.3748 -0.4538  0.3051
14749SOL    HW145860   1.982   0.692   7.818 -0.0807 -0.3644 -0.5293
14749SOL    HW245861   1.936   0.552   7.781 -0.6677 -0.6097  1.0618
14750SOL     OW45862   4.395   3.204   5.297  1.2557  0.2409 -0.0524
14750SOL    HW145863   4.349   3.131   5.256  0.8427 -0.9369  2.3152
14750SOL    HW245864   4.422   3.259   5.224 -0.8484 -0.8255 -1.7608
14751SOL     OW45865   1.834   9.316   5.132  0.0193 -0.3036 -0.0509
14751SOL    HW145866   1.902   9.273   5.184  0.5554 -0.2140 -0.6616
14751SOL    HW245867   1.791   9.244   5.085 -0.7393 -0.4321  0.8057
14752SOL     OW45868   9.577   9.448   6.505  0.4471 -0.0492  0.4130
14752SOL    HW145869   9.627   9.382   6.456 -3.4801 -2.1243 -1.2683
14752SOL    HW245870   9.565   9.409   6.592  0.7305 -0.0896  0.4366
14753SOL     OW45871   6.598   8.199   1.040 -0.6403  0.0393  0.2269
14753SOL    HW145872   6.648   8.227   0.963 -2.1270  0.3074 -0.6855
14753SOL    HW245873   6.661   8.151   1.094  0.5099  0.0998 -1.0218
14754SOL     OW45874   8.608   8.009   1.649  0.3224  0.2474  0.1934
14754SOL    HW145875   8.576   8.087   1.694 -0.9645  0.7063 -1.4365
14754SOL    HW245876   8.633   8.039   1.562 -0.3354 -1.1651 -0.5240
14755SOL     OW45877   9.617   3.574   2.444  0.1731 -0.4640  0.2484
14755SOL    HW145878   9.565   3.638   2.494 -0.6522 -0.5678 -0.4332
14755SOL    HW245879   9.585   3.489   2.473 -0.3275 -0.5241 -0.4499
14756SOL     OW45880   3.756   0.302   6.119 -0.4237  0.0543  0.1306
14756SOL    HW145881   3.782   0.292   6.211 -1.8692 -0.1965  0.5337
14756SOL    HW245882   3.756   0.213   6.085  1.0490  0.2353 -0.4053
14757SOL     OW45883   8.148   7.378   2.659 -0.0122 -0.0063 -0.3341
14757SOL    HW145884   8.132   7.470   2.680 -0.4914  0.3868 -2.1706
14757SOL    HW245885   8.106   7.329   2.729 -0.3210  1.1631  0.3252
14758SOL     OW45886   2.416   3.039   7.515  0.6196 -0.5386 -0.2041
14758SOL    HW145887   2.463   3.121   7.531 -1.4455  0.6100  0.3170
14758SOL    HW245888   2.326   3.066   7.498  0.3326 -2.5605 -2.4151
14759SOL     OW45889   5.013   0.108   1.968 -0.3622 -0.5886 -0.4670
14759SOL    HW145890   5.021   0.013   1.966  0.1485 -0.5722  0.2417
14759SOL    HW245891   4.921   0.124   1.988 -0.1938 -0.9723  0.7333
14760SOL     OW45892   3.283   2.701   2.686  0.0503  0.2657 -0.0901
14760SOL    HW145893   3.245   2.789   2.678  2.5097  1.5816  1.6339
14760SOL    HW245894   3.373   2.711   2.657 -0.1557 -2.2386 -1.8662
14761SOL     OW45895   7.135   1.536   6.730  0.1340  0.3483  0.0182
14761SOL    HW145896   7.071   1.604   6.750  2.7410  3.4581 -1.2469
14761SOL    HW245897   7.163   1.503   6.815  1.3368  3.5609  0.9910
14762SOL     OW45898   3.590   7.910   5.486  0.3862  0.5465  0.4024
14762SOL    HW145899   3.605   8.004   5.490  1.5446  0.4547 -1.2173
14762SOL    HW245900   3.503   7.901   5.447  0.1286  0.9323  0.8782
14763SOL     OW45901   0.011   4.259   0.979 -0.4947 -0.7599  0.0106
14763SOL    HW145902  -0.054   4.268   0.910  0.7036 -1.5222 -1.2679
14763SOL    HW245903  -0.038   4.273   1.060 -1.8834  0.4708 -0.9780
14764SOL     OW45904   7.625   6.064   9.438 -0.3479  0.2779 -0.1466
14764SOL    HW145905   7.699   6.033   9.490  0.9897  2.5216 -0.5860
14764SOL    HW245906   7.553   6.073   9.500  0.3768  0.1607  0.7234
14765SOL     OW45907   8.152   9.586   2.667  0.2318  0.3170 -0.0723
14765SOL    HW145908   8.128   9.678   2.657  1.2135  0.6185  0.1890
14765SOL    HW245909   8.205   9.567   2.590  2.1242  0.7052  1.0808
14766SOL     OW45910   3.485   0.421   0.637  0.6336 -0.6746 -0.4832
14766SOL    HW145911   3.550   0.490   0.647  0.5402 -0.3017 -2.1664
14766SOL    HW245912   3.430   0.427   0.715  1.5455  0.1490  0.1092
14767SOL     OW45913   5.438   5.057   8.156 -0.4612  0.8003 -0.0157
14767SOL    HW145914   5.361   5.097   8.117 -0.8035  0.7336  0.5844
14767SOL    HW245915   5.504   5.059   8.087 -1.6750 -1.2266 -1.3157
14768SOL     OW45916   0.087   2.062   7.279  0.3414 -0.4947 -0.1009
14768SOL    HW145917   0.155   2.123   7.309 -0.9634  1.0695 -0.1982
14768SOL    HW245918   0.118   1.976   7.307  0.4680  0.5493  3.4732
14769SOL     OW45919   8.503   1.647   1.134  0.1713  0.1440  0.3342
14769SOL    HW145920   8.470   1.722   1.085 -1.7297 -0.3802  0.7436
14769SOL    HW245921   8.512   1.678   1.224 -1.1631 -0.2353  0.6196
14770SOL     OW45922   4.887   1.224   1.211  0.3121 -0.2761 -0.1326
14770SOL    HW145923   4.803   1.262   1.184 -0.3649 -1.6098  0.0076
14770SOL    HW245924   4.910   1.272   1.291 -1.0441 -0.8334  0.6287
14771SOL     OW45925   5.577   7.868   3.771  0.2340 -0.0267 -0.4414
14771SOL    HW145926   5.485   7.849   3.754 -0.3519  1.8933  0.3016
14771SOL    HW245927   5.584   7.869   3.867  0.9975  0.0502 -0.4889
14772SOL     OW45928   6.127   3.632   0.171  0.7108  0.4379 -0.1080
14772SOL    HW145929   6.180   3.712   0.174 -0.8930  1.5086  1.7564
14772SOL    HW245930   6.038   3.662   0.153 -0.3430 -0.6058  2.7651
14773SOL     OW45931   8.388   0.022   0.112 -0.1318 -0.6585  0.1296
14773SOL    HW145932   8.317  -0.027   0.154 -1.3460 -1.3494 -2.4566
14773SOL    HW245933   8.457  -0.044   0.098  0.3718 -0.3721  1.2006
14774SOL     OW45934   0.657   3.606   2.072  0.5142  0.1530 -0.5079
14774SOL    HW145935   0.698   3.692   2.070  1.0189 -0.0835 -0.5930
14774SOL    HW245936   0.567   3.622   2.101  1.1532  0.4768  1.4012
14775SOL     OW45937   7.296   0.479   0.680 -0.0143 -0.3186 -0.0099
14775SOL    HW145938   7.263   0.541   0.615  0.7826  0.1940  0.0613
14775SOL    HW245939   7.378   0.518   0.711  0.3914 -1.3007  0.1970
14776SOL     OW45940   8.824   9.556   4.209  0.2427  0.0218 -0.0049
14776SOL    HW145941   8.890   9.619   4.237 -0.0749 -0.2706  1.5234
14776SOL    HW245942   8.750   9.609   4.180  0.7176  0.3439 -0.6344
14777SOL     OW45943   4.936   7.927   1.727 -0.0785  0.2610  0.4403
14777SOL    HW145944   4.900   7.919   1.638  2.4944 -2.9678 -0.4971
14777SOL    HW245945   4.902   7.851   1.774  1.7870 -0.3440  0.8876
14778SOL     OW45946   9.676   7.241   6.570 -0.2801  0.0343 -0.1025
14778SOL    HW145947   9.695   7.151   6.597 -0.5445 -1.2018 -3.6099
14778SOL    HW245948   9.749   7.264   6.513 -2.5416  0.1385 -3.1535
14779SOL     OW45949   6.496   8.332   5.473  0.9068 -0.2631  0.1952
14779SOL    HW145950   6.559   8.319   5.402  0.5273 -0.3181 -0.1340
14779SOL    HW245951   6.459   8.245   5.488  0.8989 -0.2287  0.3783
14780SOL     OW45952   7.971   3.772   3.279 -0.0473  0.3087  0.0003
14780SOL    HW145953   8.025   3.780   3.358 -1.4374  0.6671  0.9372
14780SOL    HW245954   7.926   3.689   3.289  1.1122 -0.5441 -1.3267
14781SOL     OW45955   9.736   5.796   6.113 -0.4211  0.1817 -1.0211
14781SOL    HW145956   9.771   5.883   6.129 -0.7948  0.3601 -1.1516
14781SOL    HW245957   9.646   5.799   6.148  0.2936 -0.8581  1.0889
14782SOL     OW45958   2.655   7.228   2.889 -0.5177 -0.1788  0.1838
14782SOL    HW145959   2.678   7.301   2.832 -0.5444 -0.2012  0.1441
14782SOL    HW245960   2.740   7.193   2.918 -0.4988 -0.3034 -0.0158
14783SOL     OW45961   3.074   2.013   2.047  0.0815  0.3376 -0.2821
14783SOL    HW145962   3.110   1.926   2.064  0.6982  0.7355  0.5156
14783SOL    HW245963   3.105   2.035   1.959  0.6132  0.1015 -0.1546
14784SOL     OW45964   0.468   7.696   6.380 -0.2299  0.2882  0.0718
14784SOL    HW145965   0.402   7.669   6.445 -0.5509  0.7398 -0.0657
14784SOL    HW245966   0.550   7.660   6.413 -0.3014  0.9445  1.0000
14785SOL     OW45967   6.008   4.099   6.139 -0.1454 -0.4419 -0.5119
14785SOL    HW145968   6.000   4.194   6.131 -1.3278 -0.3572  1.1692
14785SOL    HW245969   6.101   4.084   6.153 -0.0818  0.5838  0.2727
14786SOL     OW45970   3.318   4.103   4.326 -0.4480 -0.1912 -0.1735
14786SOL    HW145971   3.312   4.182   4.271  1.1918  0.6409  0.7627
14786SOL    HW245972   3.235   4.100   4.372 -1.9833 -1.0374 -2.7593
14787SOL     OW45973   9.554   2.658   8.446  0.3887  0.1046  0.4546
14787SOL    HW145974   9.526   2.567   8.433 -0.8487  0.3794  1.0241
14787SOL    HW245975   9.480   2.700   8.489  0.9496  1.3939  0.2149
14788SOL     OW45976   2.934   3.143   3.316 -0.4397  0.8077  0.0629
14788SOL    HW145977   2.927   3.222   3.371  2.6811  0.3626  1.3173
14788SOL    HW245978   3.003   3.164   3.254  0.5862 -0.9476  0.5447
14789SOL     OW45979   5.218   1.559   7.340 -0.1972 -0.2518  0.2788
14789SOL    HW145980   5.187   1.543   7.429  1.7639 -1.2851  0.8395
14789SOL    HW245981   5.276   1.635   7.348 -0.3137 -0.1054 -0.1979
14790SOL     OW45982   7.024   4.034   2.708  0.8147 -0.1659 -0.1673
14790SOL    HW145983   7.054   3.982   2.783  0.1535 -0.9487 -0.4345
14790SOL    HW245984   7.103   4.050   2.657  1.5659  1.6442  1.4109
14791SOL     OW45985   2.237   4.513   8.017  0.7149 -0.6180 -0.2576
14791SOL    HW145986   2.281   4.569   7.952  1.4548 -2.0203 -1.0163
14791SOL    HW245987   2.197   4.443   7.965 -2.3730  0.4848  0.4031
14792SOL     OW45988   5.509   0.368   0.997 -0.8359  0.1083 -0.3592
14792SOL    HW145989   5.575   0.305   1.026  1.0137  2.5819  1.1943
14792SOL    HW245990   5.558   0.447   0.979 -3.2278  1.6069 -0.7166
14793SOL     OW45991   7.885   8.555   2.821  0.1915  0.5023 -0.1876
14793SOL    HW145992   7.891   8.569   2.915  1.5220  1.6204 -0.4144
14793SOL    HW245993   7.957   8.605   2.784 -0.6392  0.5485 -1.8593
14794SOL     OW45994   7.072   9.651   1.005 -0.3092  0.5947 -0.0321
14794SOL    HW145995   7.030   9.730   0.972 -0.6223  0.5469  0.2434
14794SOL    HW245996   7.166   9.664   0.987 -0.5062  0.3896 -1.2929
14795SOL     OW45997   8.134   6.820   7.391  0.5244 -0.0271 -0.3339
14795SOL    HW145998   8.078   6.744   7.401 -2.1775  1.6446 -1.4924
14795SOL    HW245999   8.199   6.794   7.325 -0.2553 -1.3713 -0.6118
14796SOL     OW46000   4.124   2.765   0.072  0.1782  0.0739  0.2324
14796SOL    HW146001   4.110   2.848   0.027 -1.7767  0.0150  0.6460
14796SOL    HW246002   4.181   2.786   0.146 -0.0233  0.9769  0.1373
14797SOL     OW46003   2.252   9.058   4.838 -0.4281 -0.0247 -0.4098
14797SOL    HW146004   2.161   9.081   4.856 -0.1782  0.6299  0.0405
14797SOL    HW246005   2.278   9.002   4.911  0.6880  2.8997  1.5910
14798SOL     OW46006   1.894   2.151   7.011 -0.0678  0.0604 -0.0946
14798SOL    HW146007   1.947   2.151   6.932  0.5085  1.0653  0.2759
14798SOL    HW246008   1.857   2.063   7.016 -0.7877  0.2301 -1.9222
14799SOL     OW46009   6.417   9.127   9.482 -0.6276 -0.1790 -0.1993
14799SOL    HW146010   6.396   9.129   9.576 -0.2857 -0.8828 -0.1038
14799SOL    HW246011   6.496   9.180   9.474  2.0748 -3.7367  0.6526
14800SOL     OW46012   4.366   8.020   6.224  0.0908  0.1448 -0.2568
14800SOL    HW146013   4.447   7.984   6.187  0.6375  0.9252  0.1419
14800SOL    HW246014   4.296   7.978   6.174  0.6401 -2.0702  0.6951
14801SOL     OW46015   2.064   2.563   7.108  0.0618 -0.4418  0.4567
14801SOL    HW146016   1.994   2.622   7.135  1.4841  0.4283  2.5466
14801SOL    HW246017   2.133   2.621   7.075  0.4088 -1.1593 -0.1104
14802SOL     OW46018   7.389   0.444   6.226 -0.5336 -0.2076  0.0278
14802SOL    HW146019   7.316   0.507   6.229 -0.0928  0.2648  2.4164
14802SOL    HW246020   7.427   0.457   6.139 -1.9905  1.0336 -0.4834
14803SOL     OW46021   1.079   0.456   8.197  0.6366  0.2428 -0.0192
14803SOL    HW146022   1.119   0.380   8.241  1.1252  0.4985 -0.0105
14803SOL    HW246023   0.986   0.447   8.214  0.8948  0.8790  1.9307
14804SOL     OW46024   0.755   8.210   9.633  0.4144  0.1477  0.4945
14804SOL    HW146025   0.702   8.208   9.553  0.1394 -1.4761  0.6914
14804SOL    HW246026   0.835   8.164   9.610  0.0312 -0.9856  1.3428
14805SOL     OW46027   1.680   1.644   2.716  0.0353 -0.6504  0.3101
14805SOL    HW146028   1.725   1.571   2.673  0.1070 -0.1114 -0.5539
14805SOL    HW246029   1.748   1.687   2.768  0.0045 -1.1641  0.7826
14806SOL     OW46030   2.015   6.321   5.127  0.6369 -0.5827  0.2102
14806SOL    HW146031   2.018   6.280   5.041  0.3382 -0.9501  0.3698
14806SOL    HW246032   2.054   6.408   5.115  1.4533 -0.9844 -0.0919
14807SOL     OW46033   8.660   6.420   7.865  0.3279 -0.2713  0.5331
14807SOL    HW146034   8.646   6.440   7.958 -0.4047 -0.4729  0.4777
14807SOL    HW246035   8.596   6.475   7.819 -0.6810 -1.5738  0.2857
14808SOL     OW46036   3.634   0.242   1.012 -0.3854  0.1651 -0.1574
14808SOL    HW146037   3.695   0.206   1.077  0.6863  1.7486 -0.2178
14808SOL    HW246038   3.610   0.167   0.957  1.8237 -0.4708 -0.3488
14809SOL     OW46039   9.289   9.161   5.958  0.5999  0.5073  0.4825
14809SOL    HW146040   9.340   9.161   6.039  0.7242 -0.1486  0.4110
14809SOL    HW246041   9.228   9.089   5.968  0.7554  0.2860 -0.0896
14810SOL     OW46042   8.936   1.805   9.593  0.0150  0.0154  0.2515
14810SOL    HW146043   8.903   1.876   9.538  1.1859  0.8503  0.5751
14810SOL    HW246044   8.858   1.758   9.623 -0.6710 -1.2567 -3.0693
14811SOL     OW46045   8.768   9.045   1.642  0.3414 -0.1264 -0.0985
14811SOL    HW146046   8.830   9.010   1.577 -0.6013 -0.0959 -1.0490
14811SOL    HW246047   8.705   8.974   1.654 -1.1070  0.8695 -1.4007
14812SOL     OW46048   8.514   1.632   4.186 -0.2774 -0.1651  0.3341
14812SOL    HW146049   8.518   1.726   4.205  0.5261 -0.5173  2.1387
14812SOL    HW246050   8.593   1.615   4.136 -1.6822  0.5195 -2.2826
14813SOL     OW46051   1.570   4.300   4.686  0.3205 -0.1676 -0.7106
14813SOL    HW146052   1.481   4.335   4.678 -0.4685 -1.8218  0.4393
14813SOL    HW246053   1.607   4.345   4.762  0.2967  0.1576 -0.8899
14814SOL     OW46054   6.908   7.794   3.867  0.1792  0.2674  0.0483
14814SOL    HW146055   6.816   7.820   3.864  0.1016 -0.0528 -0.3052
14814SOL    HW246056   6.927   7.761   3.779  1.3087  2.6457 -0.7036
14815SOL     OW46057   8.867   1.436   9.388 -0.2704  0.2634  0.2747
14815SOL    HW146058   8.874   1.412   9.295 -1.6991  1.4433 -0.1862
14815SOL    HW246059   8.818   1.364   9.427 -0.6802  0.3025 -0.1510
14816SOL     OW46060   1.027   6.641   1.221  0.5354  0.0538  0.1067
14816SOL    HW146061   0.996   6.615   1.134  0.0922  2.5426 -0.5710
14816SOL    HW246062   1.110   6.595   1.232  0.2997 -0.7861 -1.3766
14817SOL     OW46063   0.760   5.009   3.556 -0.2165 -0.0819 -0.2099
14817SOL    HW146064   0.701   4.941   3.523  0.1191  0.2010 -1.4284
14817SOL    HW246065   0.848   4.973   3.543 -0.0815 -0.2621  1.0666
14818SOL     OW46066   6.546   0.485   4.411 -0.2328  0.1856 -0.1135
14818SOL    HW146067   6.540   0.391   4.395  0.2620 -0.0846  1.1899
14818SOL    HW246068   6.614   0.494   4.478 -1.8060  1.2767  1.4051
14819SOL     OW46069   2.381   0.085   2.543  0.3350 -0.4231  0.2925
14819SOL    HW146070   2.305   0.057   2.492  0.9100  0.9257 -1.3769
14819SOL    HW246071   2.354   0.168   2.582  0.5211 -0.5755  0.7491
14820SOL     OW46072   1.192   8.925   6.724  0.4914  0.2827  0.0740
14820SOL    HW146073   1.270   8.979   6.738  0.9204  0.1638 -1.6131
14820SOL    HW246074   1.188   8.867   6.801  2.0783  0.2824  0.1860
14821SOL     OW46075   2.716   5.144   2.770  0.1137  0.6129  0.2591
14821SOL    HW146076   2.754   5.231   2.782 -1.1447  1.2355  0.0040
14821SOL    HW246077   2.689   5.117   2.858 -0.9355  1.2039  0.1381
14822SOL     OW46078   9.528   6.603   2.683  0.4174 -0.1334 -0.6468
14822SOL    HW146079   9.449   6.581   2.732  0.5241  1.4252  0.3138
14822SOL    HW246080   9.512   6.572   2.595 -1.3988  0.4160 -0.5468
14823SOL     OW46081   0.809   3.296   2.101 -0.6202  0.1874  0.1837
14823SOL    HW146082   0.797   3.391   2.093 -1.6471  0.0716  0.2039
14823SOL    HW246083   0.724   3.263   2.130 -0.7117 -0.8921 -1.1686
14824SOL     OW46084   2.339   4.162   8.133 -0.2137  0.5809 -0.1079
14824SOL    HW146085   2.351   4.155   8.228 -2.0183 -1.3447  0.0495
14824SOL    HW246086   2.405   4.226   8.105 -0.3649  2.0312  2.5635
14825SOL     OW46087   7.186   1.477   6.992  0.0896  0.4210  0.0455
14825SOL    HW146088   7.276   1.508   7.002  0.2381  0.4551 -1.1746
14825SOL    HW246089   7.187   1.387   7.025  0.7677  0.1579 -0.6510
14826SOL     OW46090   6.411   1.487   5.028  0.8629 -0.1323 -0.1556
14826SOL    HW146091   6.352   1.536   4.971  0.6950 -0.1523 -0.0021
14826SOL    HW246092   6.473   1.445   4.969 -0.7304 -2.1021 -0.5548
14827SOL     OW46093   0.267   8.620   8.952 -0.5501 -0.3935 -0.1396
14827SOL    HW146094   0.321   8.659   8.884 -0.7299  1.2165  0.5964
14827SOL    HW246095   0.330   8.585   9.016 -0.3950 -0.9457 -0.5824
14828SOL     OW46096   7.489   1.381   9.011 -0.2873 -0.4588  0.3505
14828SOL    HW146097   7.500   1.470   8.977 -1.0550  0.2376  1.8219
14828SOL    HW246098   7.569   1.335   8.985 -0.5613  0.1781 -1.8087
14829SOL     OW46099   6.612   7.347   2.563 -0.2930 -0.0141  0.2339
14829SOL    HW146100   6.614   7.342   2.467 -0.4138  0.4491  0.2066
14829SOL    HW246101   6.674   7.280   2.591  0.7331  0.7172 -0.2064
14830SOL     OW46102   7.017   8.014   1.397 -0.1754 -0.6144 -0.1293
14830SOL    HW146103   7.039   7.960   1.472  1.2611  0.5948  0.3407
14830SOL    HW246104   6.987   7.951   1.331  0.2880 -1.8573  0.8100
14831SOL     OW46105   7.452   4.771   4.500 -0.2358  0.5330  0.0673
14831SOL    HW146106   7.522   4.748   4.439  0.0535 -0.2788  0.6954
14831SOL    HW246107   7.420   4.856   4.469  0.5286  0.5630 -0.6605
14832SOL     OW46108   6.843   5.709   1.469  0.0390 -0.0637  0.3272
14832SOL    HW146109   6.799   5.625   1.478  0.5430 -0.6190 -1.7406
14832SOL    HW246110   6.773   5.770   1.443 -0.3898  0.2933  2.1640
14833SOL     OW46111   7.014   1.963   5.028 -0.6913  0.0389  0.4195
14833SOL    HW146112   7.058   2.007   5.101 -0.2602  1.2556 -0.5360
14833SOL    HW246113   6.951   2.027   4.995  0.4307  0.2717 -1.4536
14834SOL     OW46114   6.265   2.712   9.580  0.1854  0.5696 -0.4414
14834SOL    HW146115   6.317   2.743   9.655 -0.6041 -0.6965  0.6821
14834SOL    HW246116   6.314   2.638   9.546  0.3515  0.9099 -0.9491
14835SOL     OW46117   8.239   1.666   0.409  0.5694  0.2523 -0.1909
14835SOL    HW146118   8.230   1.728   0.481  1.3099  1.3772 -1.0137
14835SOL    HW246119   8.151   1.656   0.374 -0.0891 -1.4885  1.7425
14836SOL     OW46120   2.078   0.941   9.421  0.1711 -0.0290 -0.1830
14836SOL    HW146121   2.114   0.974   9.339 -0.3133  3.1587  0.7715
14836SOL    HW246122   2.154   0.910   9.470  0.8722  1.0938 -0.5372
14837SOL     OW46123   8.263   3.630   4.280  0.2590  0.3840 -0.2744
14837SOL    HW146124   8.337   3.596   4.331  0.8535  1.4366 -0.4118
14837SOL    HW246125   8.302   3.653   4.195 -1.0925 -3.4428 -2.1569
14838SOL     OW46126   5.562   1.886   2.560  0.4042 -0.7727 -0.0840
14838SOL    HW146127   5.580   1.872   2.467 -0.4449  1.7386 -0.6952
14838SOL    HW246128   5.646   1.914   2.596  0.3973 -0.2407 -0.4580
14839SOL     OW46129   9.587   9.718   6.962 -0.0129  0.2890  0.3828
14839SOL    HW146130   9.576   9.691   6.871 -0.6601 -2.6729  1.2389
14839SOL    HW246131   9.633   9.802   6.957 -0.1253  0.2631 -2.6450
14840SOL     OW46132   6.374   4.824   0.955 -0.0666 -0.0313 -0.0613
14840SOL    HW146133   6.358   4.762   1.027 -1.1379 -0.4352 -0.6233
14840SOL    HW246134   6.331   4.905   0.983 -1.2674 -0.4580 -0.6175
14841SOL     OW46135   2.389   3.630   4.765 -0.1175 -0.0631  0.1487
14841SOL    HW146136   2.394   3.726   4.771  0.4514 -0.0502 -0.3630
14841SOL    HW246137   2.481   3.601   4.767 -0.3385 -0.7839  2.7454
14842SOL     OW46138   0.334   5.184   2.597 -0.4812  0.3121 -0.0310
14842SOL    HW146139   0.294   5.268   2.574  0.2375  0.6701 -0.0106
14842SOL    HW246140   0.298   5.163   2.683  0.4665  1.3709  0.6701
14843SOL     OW46141   4.405   5.311   3.970 -0.1685  0.5932 -0.2462
14843SOL    HW146142   4.387   5.223   4.004 -0.3876  0.4612 -0.6891
14843SOL    HW246143   4.352   5.369   4.024 -0.7247  0.3588 -0.5347
14844SOL     OW46144   3.344   5.055   1.296 -0.2701  0.3197 -0.1302
14844SOL    HW146145   3.279   5.098   1.352  1.0024  0.6483  1.1442
14844SOL    HW246146   3.428   5.089   1.326  0.4862  0.4736 -2.2315
14845SOL     OW46147   6.192   0.763   9.784  0.0082  0.4060  0.1391
14845SOL    HW146148   6.099   0.784   9.791 -0.1449 -0.2182  0.1103
14845SOL    HW246149   6.238   0.843   9.809 -0.5225  1.3721 -1.7929
14846SOL     OW46150   7.638   8.181   7.980  0.2353  0.1321  0.3645
14846SOL    HW146151   7.608   8.103   7.933  1.8206 -0.7764  0.7742
14846SOL    HW246152   7.567   8.243   7.972 -1.2222 -1.4761  0.2862
14847SOL     OW46153   1.871   9.786   5.363  0.1023  0.6120 -0.3767
14847SOL    HW146154   1.784   9.819   5.339  0.3323  1.2605 -0.3537
14847SOL    HW246155   1.930   9.828   5.300  0.2955 -0.6201 -1.0414
14848SOL     OW46156   5.600   4.818   5.205  0.4659  0.4536  0.4646
14848SOL    HW146157   5.657   4.747   5.233 -0.1726  0.1035  0.9150
14848SOL    HW246158   5.540   4.831   5.279 -0.2263  0.5962 -0.1047
14849SOL     OW46159   5.167   5.222   9.132 -0.0097 -0.2525  0.1124
14849SOL    HW146160   5.171   5.314   9.107  0.4017 -0.4679 -0.6209
14849SOL    HW246161   5.111   5.222   9.210  0.8220  0.7486  0.7570
14850SOL     OW46162   4.795   6.327   6.609 -0.2212 -1.1122  0.6714
14850SOL    HW146163   4.826   6.268   6.677  0.9049  0.7751  1.8771
14850SOL    HW246164   4.872   6.344   6.555 -0.9276 -1.9974 -0.6645
14851SOL     OW46165   4.943   7.159   5.220 -0.0215 -0.4198 -0.5286
14851SOL    HW146166   4.850   7.139   5.228  0.2730 -1.2457  1.3486
14851SOL    HW246167   4.976   7.157   5.310  1.9206 -0.6760 -1.2018
14852SOL     OW46168   9.225   4.673   4.881  0.1489 -0.4019 -0.1110
14852SOL    HW146169   9.248   4.652   4.791 -0.6916 -1.3898 -0.1148
14852SOL    HW246170   9.253   4.764   4.892  0.8023 -0.4561 -1.1722
14853SOL     OW46171   3.782   3.539   9.120 -0.2169  0.4877 -0.0383
14853SOL    HW146172   3.801   3.531   9.214  0.7631  0.2508 -0.2443
14853SOL    HW246173   3.863   3.511   9.077 -0.5930  0.7806 -0.9543
14854SOL     OW46174   4.108   2.563   7.791  0.3664 -0.0277  0.0778
14854SOL    HW146175   4.163   2.520   7.857  0.1039  0.3545  0.5567
14854SOL    HW246176   4.140   2.653   7.788  2.2648 -0.6785 -2.3799
14855SOL     OW46177   1.426   2.391   4.543 -0.0873  0.3099 -0.2491
14855SOL    HW146178   1.382   2.473   4.521  0.4206  0.2730 -1.4320
14855SOL    HW246179   1.519   2.411   4.535  0.0880 -0.0419  0.7319
14856SOL     OW46180   0.543   6.846   8.618 -0.2203  0.0085  0.2105
14856SOL    HW146181   0.493   6.765   8.622  0.5246 -0.4581  0.2193
14856SOL    HW246182   0.589   6.842   8.535 -1.0577  0.9697 -0.3275
14857SOL     OW46183   1.764   8.721   4.346 -0.3644 -0.0536 -0.3094
14857SOL    HW146184   1.723   8.761   4.422  0.4355  0.8389 -0.3247
14857SOL    HW246185   1.829   8.785   4.317  2.0131 -1.9189  0.5577
14858SOL     OW46186   3.368   5.270   5.846  0.7736  0.1735  0.1021
14858SOL    HW146187   3.289   5.269   5.791  1.4923  0.2344 -0.9607
14858SOL    HW246188   3.418   5.344   5.814  1.6230 -0.3210  0.2622
14859SOL     OW46189   2.338   0.626   2.283 -0.0009  0.1085  0.5520
14859SOL    HW146190   2.322   0.677   2.362  0.2914  0.4052  0.4248
14859SOL    HW246191   2.286   0.547   2.294 -1.4113  0.9655  0.2223
14860SOL     OW46192   8.562   0.627   0.287  0.1524  0.3462  0.7586
14860SOL    HW146193   8.606   0.707   0.316  1.2409  0.2652 -0.5579
14860SOL    HW246194   8.531   0.648   0.199 -1.1343 -0.1180  1.0858
14861SOL     OW46195   0.028   3.862   2.936  0.3576 -0.1774 -0.0868
14861SOL    HW146196   0.003   3.805   2.863  0.9980  0.1968 -0.6111
14861SOL    HW246197  -0.026   3.832   3.009 -0.7603 -0.1284 -0.8726
14862SOL     OW46198   3.060   6.754   0.138  0.5054 -0.9032 -0.3791
14862SOL    HW146199   3.030   6.670   0.172 -1.5913 -0.0165  0.1175
14862SOL    HW246200   3.034   6.754   0.046  0.2578 -0.7016 -0.3107
14863SOL     OW46201   4.021   7.251   8.228  0.2888 -0.4747 -0.6516
14863SOL    HW146202   4.011   7.238   8.134  0.7350  1.2278 -0.9691
14863SOL    HW246203   4.039   7.344   8.237  1.2934 -0.7979  1.0424
14864SOL     OW46204   9.242   0.215   8.130 -0.3071  0.0918 -0.6195
14864SOL    HW146205   9.250   0.152   8.201 -0.2764  2.4152  1.6086
14864SOL    HW246206   9.154   0.201   8.095 -0.5984 -0.6630  0.3673
14865SOL     OW46207   6.068   8.401   3.824 -0.1965 -0.3165  0.2626
14865SOL    HW146208   6.116   8.319   3.839 -0.1070 -0.7216 -1.9573
14865SOL    HW246209   6.096   8.458   3.895  1.9435 -1.2627  0.2582
14866SOL     OW46210   7.285   5.109   2.651 -0.9824  0.0421  0.1139
14866SOL    HW146211   7.273   5.060   2.732  1.5251 -0.1895  0.4196
14866SOL    HW246212   7.286   5.201   2.679 -0.7761 -0.0023  0.2550
14867SOL     OW46213   3.712   1.796   8.914  0.2771  0.0597  0.4602
14867SOL    HW146214   3.737   1.735   8.844 -3.8831 -2.3532  0.7406
14867SOL    HW246215   3.764   1.767   8.989  1.4933 -0.2673 -0.4570
14868SOL     OW46216   5.248   7.599   7.776 -0.3575  0.1760 -0.4549
14868SOL    HW146217   5.202   7.517   7.760  0.1933 -0.6357  1.6635
14868SOL    HW246218   5.341   7.575   7.773 -0.2002  0.4985  0.9789
14869SOL     OW46219   4.784   7.324   7.909  0.2821  0.0995 -0.3148
14869SOL    HW146220   4.861   7.328   7.965  0.5518 -0.1979 -0.6577
14869SOL    HW246221   4.817   7.290   7.826 -0.6897 -2.7003  0.3570
14870SOL     OW46222   5.727   4.873   3.119  0.4842 -0.2449  0.3777
14870SOL    HW146223   5.706   4.899   3.029 -1.3713  0.3121  0.9414
14870SOL    HW246224   5.715   4.778   3.120 -2.4532  0.0650  0.7342
14871SOL     OW46225   5.119   2.102   7.216 -0.2432  0.3117  0.2699
14871SOL    HW146226   5.048   2.164   7.231  0.0831  0.5716  0.7637
14871SOL    HW246227   5.177   2.146   7.155 -2.0247 -1.0914 -2.7039
14872SOL     OW46228   7.327   2.388   6.401  0.0527  0.3566 -0.4461
14872SOL    HW146229   7.422   2.396   6.394  0.2914  0.2580  1.9792
14872SOL    HW246230   7.309   2.394   6.495 -2.2924 -0.2488 -0.7983
14873SOL     OW46231   4.218   0.447   5.451 -0.1314  0.0529 -0.6542
14873SOL    HW146232   4.220   0.358   5.416  0.2285  0.3998 -1.5385
14873SOL    HW246233   4.207   0.503   5.374  1.8821  0.9037 -0.3936
14874SOL     OW46234   3.804   3.421   2.807  0.4196  0.4058 -0.3231
14874SOL    HW146235   3.860   3.483   2.854 -0.1981  0.4601  0.3418
14874SOL    HW246236   3.759   3.474   2.741  0.3794  0.5420 -0.1847
14875SOL     OW46237   5.437   5.002   3.582  0.1341 -0.1521  0.2624
14875SOL    HW146238   5.502   4.931   3.582  0.0148 -0.2632 -0.4001
14875SOL    HW246239   5.353   4.957   3.571  0.1281  0.1499 -1.0584
14876SOL     OW46240   7.276   5.931   3.438  0.3419 -0.5486  0.2546
14876SOL    HW146241   7.343   5.867   3.414  0.1009 -0.4586 -0.6779
14876SOL    HW246242   7.256   5.911   3.529  0.0413 -2.0096 -0.1140
14877SOL     OW46243   7.846   1.815   9.266  0.0117  0.1415 -0.4849
14877SOL    HW146244   7.907   1.886   9.285  1.5674 -0.8564 -1.5404
14877SOL    HW246245   7.762   1.847   9.299  1.0055  1.6953  0.7295
14878SOL     OW46246   3.847   7.881   3.384  0.2991 -0.1948  0.2197
14878SOL    HW146247   3.911   7.923   3.327  0.4584 -1.7423 -0.7993
14878SOL    HW246248   3.763   7.898   3.343  0.3794 -0.9876 -0.2895
14879SOL     OW46249   7.547   4.124   3.011  0.1755 -0.1854 -0.3201
14879SOL    HW146250   7.640   4.104   3.004  0.0481 -0.8342 -0.1620
14879SOL    HW246251   7.518   4.078   3.089 -0.5362 -0.9690 -1.0366
14880SOL     OW46252   6.204   7.419   8.838 -0.2977 -0.3136  0.0103
14880SOL    HW146253   6.272   7.352   8.844  0.2943  0.3498  1.1300
14880SOL    HW246254   6.252   7.502   8.840 -1.0774  0.1514 -0.3110
14881SOL     OW46255   6.141   1.784   0.164  0.0864 -0.1215  1.0282
14881SOL    HW146256   6.201   1.850   0.130 -1.1136  1.3999  1.7552
14881SOL    HW246257   6.069   1.782   0.101  1.5648 -3.2153 -0.8203
14882SOL     OW46258   4.167   0.224   2.376  0.1916 -0.4000 -0.7484
14882SOL    HW146259   4.115   0.144   2.390  0.3987 -0.2450  1.1073
14882SOL    HW246260   4.103   0.288   2.342 -0.5277 -0.6383  0.1201
14883SOL     OW46261   8.563   3.673   6.612 -0.2895 -0.1517  0.2180
14883SOL    HW146262   8.505   3.603   6.582 -1.1586  0.4769  0.3959
14883SOL    HW246263   8.582   3.724   6.533  0.2062 -0.4808  0.1204
14884SOL     OW46264   5.783   4.735   4.628 -0.5380  0.2419  0.3911
14884SOL    HW146265   5.795   4.642   4.614  1.6469  0.7155 -1.3794
14884SOL    HW246266   5.782   4.745   4.723  1.2060 -1.3977  0.6303
14885SOL     OW46267   6.323   4.499   5.971 -0.2602 -0.1790  0.4209
14885SOL    HW146268   6.257   4.448   6.017 -0.7633  0.2402  0.1684
14885SOL    HW246269   6.381   4.434   5.931  0.8650 -0.5912  2.5585
14886SOL     OW46270   3.398   3.436   8.371  0.2065 -0.0738 -0.2890
14886SOL    HW146271   3.417   3.493   8.445 -0.3102 -1.2062  0.7587
14886SOL    HW246272   3.422   3.348   8.401 -1.0203 -0.7108 -1.0678
14887SOL     OW46273   3.500   4.461   7.127 -0.0804  0.0217  0.0034
14887SOL    HW146274   3.405   4.455   7.116  0.0531 -1.0759 -0.7227
14887SOL    HW246275   3.531   4.509   7.050 -0.1711  1.7938  1.0154
14888SOL     OW46276   6.059   5.615   3.542  0.1560 -0.5999  0.7063
14888SOL    HW146277   6.126   5.573   3.489 -0.3340 -1.0630  0.4460
14888SOL    HW246278   6.073   5.709   3.528  0.4962 -0.6998  0.3488
14889SOL     OW46279   7.369   9.047   2.908  0.1861 -0.2735 -0.4898
14889SOL    HW146280   7.415   9.042   2.992 -3.0298 -0.1421  1.4240
14889SOL    HW246281   7.333   8.959   2.894 -0.8153  0.1688 -0.7869
14890SOL     OW46282   5.860   1.289   8.309  0.2941  0.2567  0.3403
14890SOL    HW146283   5.843   1.383   8.319  0.0336  0.1784  0.6312
14890SOL    HW246284   5.930   1.271   8.372  1.1342  0.4723 -0.4887
14891SOL     OW46285   7.113   2.888   1.065  0.1353 -0.0662 -0.3484
14891SOL    HW146286   7.093   2.954   1.133  0.0079 -1.9526  1.5483
14891SOL    HW246287   7.194   2.847   1.096 -0.3329 -1.4757 -0.9368
14892SOL     OW46288   5.130   8.355   9.299  0.2550 -0.4570 -0.2601
14892SOL    HW146289   5.122   8.412   9.223  1.7738 -0.2813 -0.3211
14892SOL    HW246290   5.119   8.414   9.374 -0.7587 -0.5500 -0.3175
14893SOL     OW46291   6.339   1.034   8.585  0.0319 -0.3671 -0.8769
14893SOL    HW146292   6.286   1.048   8.507 -0.2016 -0.8386 -0.8021
14893SOL    HW246293   6.415   0.984   8.555  0.6120  0.5810 -1.0448
14894SOL     OW46294   6.595   7.547   4.411 -0.3108 -0.0305 -0.3682
14894SOL    HW146295   6.672   7.492   4.396  0.0527  0.0204  1.1466
14894SOL    HW246296   6.523   7.485   4.421 -0.2056 -0.1532 -0.3640
14895SOL     OW46297   3.656   6.782   3.568 -0.4493 -0.3068  0.0501
14895SOL    HW146298   3.666   6.728   3.646 -0.8397 -1.4934 -0.6961
14895SOL    HW246299   3.565   6.769   3.540 -0.1159 -0.4791 -1.0132
14896SOL     OW46300   8.223   2.665   4.467  0.1419  0.5886  0.1482
14896SOL    HW146301   8.258   2.750   4.493 -0.2250  1.0829 -0.9364
14896SOL    HW246302   8.202   2.675   4.374  2.9331 -1.5889 -0.8631
14897SOL     OW46303   9.125   3.430   8.134 -0.0646 -0.1602 -0.0495
14897SOL    HW146304   9.039   3.471   8.121  0.5451  0.7229 -1.5215
14897SOL    HW246305   9.110   3.337   8.115 -0.7415 -0.0587 -0.0334
14898SOL     OW46306   9.487   9.429   0.985  0.5470  0.1999  0.1697
14898SOL    HW146307   9.484   9.388   1.072  0.4364  0.8638  0.4814
14898SOL    HW246308   9.413   9.489   0.984  1.8145  1.8516  0.4615
14899SOL     OW46309   3.245   7.961   6.009  0.1989 -0.4268  0.0985
14899SOL    HW146310   3.236   7.906   6.087  0.1654  0.1220  0.4932
14899SOL    HW246311   3.168   7.941   5.957  0.0233 -0.5224  0.3896
14900SOL     OW46312   5.595   3.447   9.343  0.6298  0.0210 -0.4831
14900SOL    HW146313   5.665   3.384   9.357  1.4867  1.2135  1.0315
14900SOL    HW246314   5.606   3.477   9.253  1.6769 -0.2752 -0.4630
14901SOL     OW46315   2.159   2.386   8.892  0.1289 -0.1481 -0.2943
14901SOL    HW146316   2.067   2.399   8.867 -0.1131  1.4732  1.2109
14901SOL    HW246317   2.196   2.474   8.896  1.6785 -0.7533 -0.5463
14902SOL     OW46318   2.093   7.705   6.691 -0.0035 -0.2974  0.5140
14902SOL    HW146319   2.136   7.754   6.621  0.1894 -2.9630 -1.3577
14902SOL    HW246320   2.001   7.701   6.666  0.3422 -2.8048 -0.7121
14903SOL     OW46321   3.272   9.473   4.311  0.2472  0.0412  0.3745
14903SOL    HW146322   3.272   9.520   4.228  1.4644 -1.6636 -0.6621
14903SOL    HW246323   3.237   9.536   4.375  1.3124  2.1396 -1.0020
14904SOL     OW46324   6.817   6.785   9.048 -0.2425  0.1291  0.2359
14904SOL    HW146325   6.810   6.745   9.134 -1.6476 -2.6539 -1.0533
14904SOL    HW246326   6.883   6.733   9.003 -1.2767 -0.0367 -1.1420
14905SOL     OW46327   8.237   1.086   2.139  0.1676  0.8926  0.4513
14905SOL    HW146328   8.218   1.016   2.202 -0.8673  1.8149  1.1835
14905SOL    HW246329   8.261   1.161   2.193  1.2891  1.1333 -0.3336
14906SOL     OW46330   2.620   5.016   8.517  0.2945  0.3113 -0.4082
14906SOL    HW146331   2.712   5.006   8.491  1.6906 -1.0780  4.2076
14906SOL    HW246332   2.611   5.108   8.540  1.3070 -0.0002  1.3572
14907SOL     OW46333   6.086   0.291   7.085 -0.1952 -0.2495  0.1528
14907SOL    HW146334   6.111   0.375   7.124 -0.2571 -0.4589  0.6590
14907SOL    HW246335   6.169   0.246   7.071  0.1452  1.0295 -2.8970
14908SOL     OW46336   8.215   3.438   9.629 -0.1969 -0.7354  0.5168
14908SOL    HW146337   8.297   3.479   9.602  1.1164 -2.3819  1.8358
14908SOL    HW246338   8.174   3.503   9.687  1.4233 -0.8636  1.8765
14909SOL     OW46339   4.555   8.444   5.844  0.3675  0.1332  0.1598
14909SOL    HW146340   4.600   8.460   5.761 -0.7160 -0.7709 -0.6376
14909SOL    HW246341   4.525   8.531   5.872  0.1854  0.3756 -0.7436
14910SOL     OW46342   6.810   3.254   4.686  0.3313 -0.0120  0.2764
14910SOL    HW146343   6.836   3.335   4.730  1.1453 -0.2248  0.1921
14910SOL    HW246344   6.763   3.284   4.608  2.9397  0.4772 -1.2220
14911SOL     OW46345   5.614   3.460   2.716  0.4813  0.4656  0.3346
14911SOL    HW146346   5.627   3.545   2.758  0.9712 -0.4463  2.1051
14911SOL    HW246347   5.571   3.406   2.783 -0.2095 -0.5819 -0.8950
14912SOL     OW46348   5.599   5.148   4.116 -0.1966 -0.4650  0.1895
14912SOL    HW146349   5.592   5.146   4.020  2.3939 -1.9697 -0.0612
14912SOL    HW246350   5.528   5.091   4.146 -1.4207  0.5027 -0.7486
14913SOL     OW46351   4.671   5.034   5.767 -0.1482 -0.1712  0.6185
14913SOL    HW146352   4.653   4.955   5.716 -2.7441 -0.3665  1.7044
14913SOL    HW246353   4.674   5.104   5.702  1.5202 -1.0127 -0.2826
14914SOL     OW46354   4.833   8.129   6.372 -0.2520 -0.5208 -0.1285
14914SOL    HW146355   4.855   8.201   6.313  0.4543 -2.7985 -2.8293
14914SOL    HW246356   4.738   8.136   6.384 -0.0143  1.7295  1.0329
14915SOL     OW46357   7.180   6.822   8.479 -0.6744  0.1981  0.2097
14915SOL    HW146358   7.124   6.841   8.554 -0.7142 -0.9743  0.4932
14915SOL    HW246359   7.165   6.730   8.460  2.2613 -0.6121  1.2667
14916SOL     OW46360   8.495   2.158   9.237 -0.2106  0.5162  0.5179
14916SOL    HW146361   8.506   2.124   9.326  0.6050  1.6243  0.8679
14916SOL    HW246362   8.579   2.140   9.195 -0.4670  0.3304  0.0816
14917SOL     OW46363   9.728   4.783   7.776  0.1348 -0.2691  0.0868
14917SOL    HW146364   9.640   4.743   7.774  0.7303 -1.6165 -0.6876
14917SOL    HW246365   9.766   4.752   7.858 -0.4714  1.2068  0.9678
14918SOL     OW46366   9.422   9.069   2.773  0.3466  0.1586 -0.5696
14918SOL    HW146367   9.416   9.068   2.869 -1.3653 -0.9826 -0.6520
14918SOL    HW246368   9.434   9.162   2.751 -1.3004  0.7217  0.6783
14919SOL     OW46369   4.841   8.166   8.465  0.0853  0.6825  0.4276
14919SOL    HW146370   4.870   8.257   8.457 -0.6530  0.9916  1.1477
14919SOL    HW246371   4.918   8.114   8.441  0.2905  1.4935 -0.7770
14920SOL     OW46372   3.695   9.273   7.702 -0.2810 -0.6449 -0.1577
14920SOL    HW146373   3.747   9.269   7.782 -0.4107  0.2172 -0.0245
14920SOL    HW246374   3.655   9.186   7.695  1.0577 -1.2785 -0.1905
14921SOL     OW46375   1.470   6.428   0.223  0.1222  0.5000 -0.1683
14921SOL    HW146376   1.385   6.385   0.220  1.2868 -1.8831 -1.2325
14921SOL    HW246377   1.523   6.375   0.283  0.9611  1.8068  0.3093
14922SOL     OW46378   4.320   6.442   8.790  0.0946 -0.1080 -0.1916
14922SOL    HW146379   4.251   6.437   8.724  1.1428  0.4213 -1.3476
14922SOL    HW246380   4.311   6.360   8.839 -2.9688  1.0095  1.3921
14923SOL     OW46381   4.517   7.452   7.496  0.0935  0.0108  0.3382
14923SOL    HW146382   4.517   7.545   7.470  0.4072 -0.3079 -0.8620
14923SOL    HW246383   4.430   7.437   7.533 -0.7456  0.2633 -1.4558
14924SOL     OW46384   5.412   4.108   2.017 -0.0688 -0.2442 -0.5620
14924SOL    HW146385   5.465   4.187   2.007 -0.1422 -0.1672 -0.3575
14924SOL    HW246386   5.421   4.062   1.934  0.4852 -0.3370 -0.4537
14925SOL     OW46387   4.674   8.396   0.232  0.0202 -0.0361 -0.4652
14925SOL    HW146388   4.593   8.441   0.256  0.4998  0.3444  0.5061
14925SOL    HW246389   4.727   8.399   0.312  0.8173 -0.6641 -0.9592
14926SOL     OW46390   4.899   2.360   6.892  0.2888  0.8741 -0.1590
14926SOL    HW146391   4.956   2.332   6.964  0.1381  0.7806 -0.0743
14926SOL    HW246392   4.873   2.279   6.848  1.0555  0.9901 -0.8402
14927SOL     OW46393   1.477   8.188   5.792 -0.0014 -0.3771  0.2151
14927SOL    HW146394   1.385   8.191   5.817  0.0999  0.3847  0.5217
14927SOL    HW246395   1.518   8.131   5.857 -0.2679 -0.7950  0.0202
14928SOL     OW46396   8.727   6.820   5.179 -0.1920 -0.3293  0.5586
14928SOL    HW146397   8.729   6.757   5.251  2.6275  0.4892  1.3345
14928SOL    HW246398   8.753   6.903   5.219  0.4290  0.3642 -1.1787
14929SOL     OW46399   8.245   4.353   2.525  0.6965 -0.0005 -0.2215
14929SOL    HW146400   8.315   4.288   2.531  1.2979  0.7093  1.0324
14929SOL    HW246401   8.168   4.308   2.561  0.8673 -0.3238 -0.2514
14930SOL     OW46402   1.470   2.971   3.518 -0.0421  0.5010 -0.3412
14930SOL    HW146403   1.507   2.903   3.573  0.5468  1.9647  1.1559
14930SOL    HW246404   1.531   3.045   3.527  1.2549  0.2207 -4.5744
14931SOL     OW46405   7.086   9.597   8.555  0.1535  0.0174 -0.3740
14931SOL    HW146406   7.038   9.518   8.529 -1.4784  0.2122  1.7469
14931SOL    HW246407   7.178   9.572   8.548 -0.1854 -0.7703 -3.4376
14932SOL     OW46408   8.848   6.591   7.590 -0.0361  0.1602 -0.2892
14932SOL    HW146409   8.801   6.512   7.562  1.2120 -1.4342  1.7827
14932SOL    HW246410   8.941   6.569   7.577  0.3155  2.2005 -1.7708
14933SOL     OW46411   2.948   2.664   3.469 -0.4465  0.2871 -0.0896
14933SOL    HW146412   2.935   2.605   3.544 -0.8314  2.3308  1.5516
14933SOL    HW246413   2.867   2.656   3.419 -0.2980 -0.9084 -0.1763
14934SOL     OW46414   3.012   7.104   3.898  0.1928  0.3262  0.5257
14934SOL    HW146415   2.973   7.119   3.985  0.7378  0.2783  0.7807
14934SOL    HW246416   3.069   7.179   3.884  0.5549  0.0409  0.4645
14935SOL     OW46417   6.599   8.297   9.541 -0.0303 -0.1819  0.2091
14935SOL    HW146418   6.597   8.208   9.575 -1.9820  0.8099  3.0914
14935SOL    HW246419   6.516   8.335   9.569  0.3000  2.2656 -1.8118
14936SOL     OW46420   2.389   9.805   5.471 -0.0788  0.5543 -0.0729
14936SOL    HW146421   2.301   9.792   5.507  0.0473 -1.4208 -0.3613
14936SOL    HW246422   2.385   9.892   5.431 -1.4230  1.1396  1.2298
14937SOL     OW46423   7.540   9.167   9.558 -0.4028  0.3986  0.3704
14937SOL    HW146424   7.485   9.149   9.634 -1.4475 -2.5445 -0.9593
14937SOL    HW246425   7.479   9.197   9.491 -0.1139 -0.9348 -0.5095
14938SOL     OW46426   4.587   9.733   8.903 -0.6813  0.0520  0.0514
14938SOL    HW146427   4.670   9.708   8.944 -0.4785  0.0657 -0.3455
14938SOL    HW246428   4.528   9.660   8.923  0.5680 -2.0433 -3.1862
14939SOL     OW46429   1.717   2.604   4.873 -0.5506 -0.2756 -0.1275
14939SOL    HW146430   1.750   2.531   4.820  0.9774  0.7888 -0.7129
14939SOL    HW246431   1.635   2.629   4.831  0.2789  0.0819 -1.6163
14940SOL     OW46432   2.036   7.588   0.869  0.2223 -0.7477  0.0368
14940SOL    HW146433   2.117   7.589   0.919  0.2130 -0.0236  0.0436
14940SOL    HW246434   1.967   7.587   0.935  0.2173 -0.8516  0.0309
14941SOL     OW46435   0.089   1.840   5.606 -0.4433 -0.1063  0.5232
14941SOL    HW146436   0.080   1.774   5.674  1.3275 -1.1064 -0.1393
14941SOL    HW246437   0.183   1.852   5.595 -0.6916  1.9919  0.0690
14942SOL     OW46438   7.608   9.451   4.664 -0.3167 -0.0327  0.4046
14942SOL    HW146439   7.664   9.380   4.631  1.8854  1.2604  1.1608
14942SOL    HW246440   7.522   9.410   4.676  0.6021 -2.2904 -0.1793
14943SOL     OW46441   9.170   9.513   7.580 -0.1644 -0.1881 -0.5688
14943SOL    HW146442   9.145   9.434   7.533  0.3740  0.4858 -2.0431
14943SOL    HW246443   9.252   9.489   7.625 -1.1527 -1.1063  0.8055
14944SOL     OW46444   1.113   7.195   8.925  0.4475  0.8761  0.8098
14944SOL    HW146445   1.020   7.174   8.910  0.7230  1.4111 -2.2589
14944SOL    HW246446   1.119   7.208   9.019 -2.2522 -0.7744  1.3269
14945SOL     OW46447   9.082   4.738   5.812  0.0408  0.3693 -0.3227
14945SOL    HW146448   9.043   4.825   5.820  0.4718  0.7124 -1.6983
14945SOL    HW246449   9.015   4.686   5.769  0.5038  0.5453 -1.2682
14946SOL     OW46450   0.857   8.592   6.025 -0.0205  0.8451  0.3048
14946SOL    HW146451   0.929   8.549   5.978  0.5241  0.8591  1.1052
14946SOL    HW246452   0.821   8.654   5.962 -0.9403 -0.8665 -0.9415
14947SOL     OW46453   8.714   5.617   6.347 -0.0517 -0.0340 -0.3408
14947SOL    HW146454   8.764   5.581   6.273 -1.6250  0.0104 -1.4809
14947SOL    HW246455   8.772   5.609   6.422  0.8566 -1.9312 -1.1983
14948SOL     OW46456   9.708   5.565   6.283 -0.2645 -0.0807  0.7770
14948SOL    HW146457   9.623   5.608   6.297  0.2490  1.0143  0.6193
14948SOL    HW246458   9.764   5.633   6.246  0.7396 -0.7410  1.0323
14949SOL     OW46459   9.518   0.903   5.029 -0.5380 -0.2008 -0.2416
14949SOL    HW146460   9.586   0.938   4.971 -1.4783  0.1806 -1.1474
14949SOL    HW246461   9.437   0.946   5.000 -1.3789 -1.5423  0.0093
14950SOL     OW46462   2.400   1.310   7.471 -0.2131 -0.2803  0.0898
14950SOL    HW146463   2.380   1.400   7.446 -0.7054 -0.2474  0.5782
14950SOL    HW246464   2.315   1.273   7.496  0.1052 -0.6453  0.6399
14951SOL     OW46465   0.197   8.603   1.025 -0.3092  0.3827  0.0835
14951SOL    HW146466   0.150   8.558   1.095  0.4654 -0.8620 -0.1531
14951SOL    HW246467   0.132   8.661   0.985 -2.1952 -2.4450 -1.3079
14952SOL     OW46468   5.117   8.579   3.271 -0.2368  0.2803  0.1268
14952SOL    HW146469   5.048   8.570   3.337 -0.1492 -0.4319  0.1385
14952SOL    HW246470   5.191   8.530   3.307 -0.4475 -0.7894 -0.8349
14953SOL     OW46471   7.802   3.372   4.913  0.2922 -0.2637  0.4173
14953SOL    HW146472   7.897   3.360   4.919  0.6780  2.1137  0.0449
14953SOL    HW246473   7.783   3.365   4.819  0.5518  1.7969  0.1708
14954SOL     OW46474   3.907   3.116   2.279  0.4366  0.3156  0.2168
14954SOL    HW146475   3.975   3.078   2.222 -0.0494 -1.6549  0.8735
14954SOL    HW246476   3.903   3.057   2.354 -0.3386  1.7630  1.3566
14955SOL     OW46477   6.083   0.666   1.107  0.5839  0.6589 -0.0627
14955SOL    HW146478   6.020   0.724   1.150  0.8190  0.2961  0.8080
14955SOL    HW246479   6.032   0.590   1.081  0.8275 -0.1859  1.7308
14956SOL     OW46480   3.898   9.662   0.574 -0.5253  0.6191  0.0124
14956SOL    HW146481   3.957   9.715   0.628  0.5184  0.3136 -0.7871
14956SOL    HW246482   3.955   9.625   0.506 -1.8051  1.0693 -1.3582
14957SOL     OW46483   7.016   5.218   3.556 -0.4702  0.4333  0.2077
14957SOL    HW146484   7.034   5.312   3.557  0.0751  0.3357  1.3731
14957SOL    HW246485   6.935   5.210   3.507  0.9539  1.2081 -2.4824
14958SOL     OW46486   7.009   9.575   8.841  0.3396 -0.0702  0.3082
14958SOL    HW146487   6.971   9.661   8.862 -0.6341 -0.5381  0.5532
14958SOL    HW246488   7.037   9.583   8.750 -1.7607 -0.1453 -0.4014
14959SOL     OW46489   9.671   1.435   1.217  0.2135 -0.0135 -0.5003
14959SOL    HW146490   9.683   1.384   1.297 -0.9586  0.3279 -0.0809
14959SOL    HW246491   9.631   1.374   1.155 -0.4014  0.1557 -0.2769
14960SOL     OW46492   7.253   9.084   9.843  0.5057  0.9037  0.0806
14960SOL    HW146493   7.204   9.035   9.778  3.3761 -0.3501 -1.2854
14960SOL    HW246494   7.273   9.168   9.801 -0.1229  1.2683  0.4958
14961SOL     OW46495   5.664   5.680   7.192 -0.2109  0.3029  0.2710
14961SOL    HW146496   5.581   5.721   7.167 -0.6438 -0.1285  0.9591
14961SOL    HW246497   5.688   5.723   7.274 -0.0596 -0.0063  0.3890
14962SOL     OW46498   4.461   0.306   0.696 -0.6305 -0.1149  0.7891
14962SOL    HW146499   4.490   0.285   0.607 -1.2066  0.1778  0.5324
14962SOL    HW246500   4.513   0.248   0.752 -0.7030 -0.7352  0.2220
14963SOL     OW46501   0.999   4.435   1.863  0.5239  0.5281  0.0658
14963SOL    HW146502   0.905   4.440   1.844 -0.0051  0.1813  2.3295
14963SOL    HW246503   1.036   4.386   1.790 -1.0778  0.5529 -0.7992
14964SOL     OW46504   3.550   9.470   4.955  0.7218 -0.0146  0.6835
14964SOL    HW146505   3.611   9.432   4.891 -2.2003 -1.9218 -1.1833
14964SOL    HW246506   3.503   9.395   4.992 -4.8198  1.2544 -2.6373
14965SOL     OW46507   4.525   3.816   7.545 -0.6713  0.0425  0.1164
14965SOL    HW146508   4.524   3.726   7.577 -1.3863  0.7710  2.3380
14965SOL    HW246509   4.480   3.866   7.613  1.9229  2.4681  0.2397
14966SOL     OW46510   5.238   9.205   1.604 -0.0144  0.1988 -0.5423
14966SOL    HW146511   5.259   9.115   1.629 -0.1984  0.2678 -0.1156
14966SOL    HW246512   5.288   9.259   1.666  0.5340  0.4011 -1.1539
14967SOL     OW46513   5.844   7.266   7.159 -0.1265 -0.5809 -0.2666
14967SOL    HW146514   5.829   7.259   7.065 -1.8932  2.0818 -0.2932
14967SOL    HW246515   5.760   7.293   7.195  1.1494  1.0622  1.7113
14968SOL     OW46516   8.439   8.088   6.458  0.6362  0.1475 -0.3797
14968SOL    HW146517   8.395   8.020   6.408 -0.2782 -0.0963  0.7454
14968SOL    HW246518   8.489   8.137   6.392  0.9943 -1.3427 -1.2555
14969SOL     OW46519   5.751   9.520   7.240 -0.0044  0.3143 -0.3552
14969SOL    HW146520   5.686   9.455   7.268 -0.1793  0.7261  0.2197
14969SOL    HW246521   5.819   9.469   7.195 -0.0788 -0.2787  0.1934
14970SOL     OW46522   2.780   8.862   1.063 -0.1991 -0.3603 -0.6982
14970SOL    HW146523   2.818   8.881   0.977  1.7768 -1.3358 -0.1262
14970SOL    HW246524   2.784   8.766   1.070  1.4926 -0.2322  1.1669
14971SOL     OW46525   9.712   2.696   8.140 -0.0618 -0.9035  0.2754
14971SOL    HW146526   9.779   2.635   8.170 -0.9802 -1.7604  0.6161
14971SOL    HW246527   9.676   2.734   8.220  2.2389  2.0751  0.0497
14972SOL     OW46528   3.355   2.106   1.986  0.0578  0.6043  0.4803
14972SOL    HW146529   3.309   2.131   2.065 -2.0513  0.4335 -0.6267
14972SOL    HW246530   3.371   2.188   1.939 -1.1353  0.4970 -0.1538
14973SOL     OW46531   3.267   1.273   4.458 -0.0376  0.1404  0.2798
14973SOL    HW146532   3.343   1.296   4.512  1.0496 -1.6746 -0.3957
14973SOL    HW246533   3.301   1.210   4.394 -1.9854 -0.2458 -0.4406
14974SOL     OW46534   3.364   7.080   8.969 -0.2718  0.0321 -0.2904
14974SOL    HW146535   3.301   7.081   9.041 -1.6810 -1.5396 -1.4247
14974SOL    HW246536   3.365   7.170   8.937 -0.4293  0.5068  0.9971
14975SOL     OW46537   3.685   0.178   6.967 -0.2988  0.3912  0.1080
14975SOL    HW146538   3.703   0.160   6.875 -1.3677 -0.2632  0.0037
14975SOL    HW246539   3.765   0.153   7.014 -0.1112 -0.2359 -0.5397
14976SOL     OW46540   6.288   9.337   9.652 -0.4298  0.2383 -0.6393
14976SOL    HW146541   6.210   9.369   9.697 -0.0778  1.0255 -0.5784
14976SOL    HW246542   6.331   9.280   9.716  0.0544  1.3314  0.0313
14977SOL     OW46543   4.190   2.000   5.172 -0.1717 -0.5231  0.0177
14977SOL    HW146544   4.264   2.056   5.195  1.3166 -2.4054  0.0242
14977SOL    HW246545   4.113   2.056   5.184  1.1009  0.9847  1.7549
14978SOL     OW46546   4.720   0.242   8.136  0.3550  0.1358 -0.0476
14978SOL    HW146547   4.707   0.151   8.160  1.0005  0.0374 -0.0557
14978SOL    HW246548   4.756   0.283   8.214 -0.7825  0.5975  0.2525
14979SOL     OW46549   1.572   6.997   7.574  0.7170  0.0300  0.4095
14979SOL    HW146550   1.640   6.941   7.610  1.3504  1.1859  1.0957
14979SOL    HW246551   1.592   7.003   7.481 -0.3793 -2.2320 -0.0200
14980SOL     OW46552   4.844   6.041   2.291  0.4662 -0.1404  0.0662
14980SOL    HW146553   4.926   6.066   2.334 -0.4560  1.9916  0.7230
14980SOL    HW246554   4.782   6.029   2.363  0.0593 -1.2524 -0.4518
14981SOL     OW46555   1.441   4.977   6.959 -0.0414 -0.2132 -0.4336
14981SOL    HW146556   1.507   4.914   6.931 -1.3265 -1.1866 -1.4026
14981SOL    HW246557   1.385   4.990   6.883 -0.5709  1.1251  0.1447
14982SOL     OW46558   9.237   6.932   1.197  0.1280 -0.0012  0.4878
14982SOL    HW146559   9.231   7.015   1.243 -0.7271 -0.8851  2.0803
14982SOL    HW246560   9.153   6.889   1.215  0.5227 -1.1781 -0.3556
14983SOL     OW46561   6.766   6.883   8.584 -0.3289 -0.4137  0.0208
14983SOL    HW146562   6.703   6.936   8.534  1.5242 -0.2655 -2.3395
14983SOL    HW246563   6.770   6.800   8.536 -1.1630 -1.7397  2.1037
14984SOL     OW46564   2.491   6.564   7.602  0.2142 -0.7656  0.2195
14984SOL    HW146565   2.435   6.538   7.675  1.3537 -1.8709  0.7347
14984SOL    HW246566   2.432   6.567   7.526 -0.9605  0.2701  1.1339
14985SOL     OW46567   8.789   1.523   8.848  0.2099 -0.1635 -0.5836
14985SOL    HW146568   8.731   1.448   8.840 -1.0237  0.6900  0.0145
14985SOL    HW246569   8.828   1.514   8.935 -0.8708  0.4995 -0.0093
14986SOL     OW46570   9.305   3.633   7.751  0.2810 -0.1701  0.1780
14986SOL    HW146571   9.302   3.688   7.829 -1.1726 -1.5061  1.1126
14986SOL    HW246572   9.278   3.691   7.680 -2.7940  0.0533  1.3731
14987SOL     OW46573   3.444   6.940   6.135 -0.2969  0.0591  0.2417
14987SOL    HW146574   3.375   6.991   6.094  0.0488  1.2789  1.1151
14987SOL    HW246575   3.402   6.858   6.161 -0.9393  0.0096 -0.8873
14988SOL     OW46576   7.741   1.772   5.546 -0.1866 -0.3523 -0.0551
14988SOL    HW146577   7.723   1.765   5.452 -2.5898 -1.4883  0.4109
14988SOL    HW246578   7.785   1.690   5.568 -2.0672 -1.3302  0.2377
14989SOL     OW46579   4.525   1.485   7.845 -0.3212  0.2558 -0.6430
14989SOL    HW146580   4.481   1.550   7.789 -1.4753 -0.5624 -0.7208
14989SOL    HW246581   4.549   1.414   7.786 -1.6698 -0.6782 -0.1224
14990SOL     OW46582   7.752   5.536   4.346 -0.5606 -0.5932 -0.8768
14990SOL    HW146583   7.789   5.448   4.341  0.1546 -0.3526 -0.0389
14990SOL    HW246584   7.703   5.537   4.428  0.1765  0.0525 -0.4283
14991SOL     OW46585   4.057   1.577   5.776  0.4571 -0.1372  0.0505
14991SOL    HW146586   4.108   1.543   5.849  0.2205 -1.0227 -0.1817
14991SOL    HW246587   3.978   1.612   5.816 -0.0066 -1.2801  0.1717
14992SOL     OW46588   5.310   4.358   5.845  0.1708 -0.2146  0.1560
14992SOL    HW146589   5.272   4.383   5.761  1.1538 -1.0654 -0.5782
14992SOL    HW246590   5.280   4.268   5.859 -0.1578 -0.0056  0.8268
14993SOL     OW46591   4.084   4.577   1.034 -0.5277 -0.2598 -0.1204
14993SOL    HW146592   4.036   4.542   1.110  0.3998 -0.9817  0.1596
14993SOL    HW246593   4.163   4.523   1.030 -0.6646 -0.3643 -1.7439
14994SOL     OW46594   4.148   1.532   8.809 -0.1566 -0.2535 -0.1037
14994SOL    HW146595   4.059   1.533   8.845 -0.5685  1.6463 -1.0755
14994SOL    HW246596   4.203   1.507   8.883 -1.3136  0.2251  0.9665
14995SOL     OW46597   4.166   7.153   5.017 -0.2698  0.1335  0.1732
14995SOL    HW146598   4.257   7.174   4.993 -0.4186  1.2711  0.5653
14995SOL    HW246599   4.113   7.218   4.971 -0.7404  0.7248  1.5152
14996SOL     OW46600   4.671   9.720   4.377 -0.5499  0.7725  0.0897
14996SOL    HW146601   4.719   9.787   4.425  0.7485 -1.1517  1.6630
14996SOL    HW246602   4.714   9.717   4.291  0.6860  0.6571  0.6860
14997SOL     OW46603   8.471   6.005   1.821 -0.4853 -0.6817 -0.4916
14997SOL    HW146604   8.516   6.075   1.774 -0.8520  0.3080  0.5683
14997SOL    HW246605   8.382   6.006   1.786 -0.6311 -0.2574 -0.1205
14998SOL     OW46606   7.480   8.461   1.043 -0.2421 -0.9130  0.2806
14998SOL    HW146607   7.428   8.412   1.107  0.9902 -0.2318  1.8873
14998SOL    HW246608   7.423   8.533   1.017 -0.2954 -0.3859  1.7279
14999SOL     OW46609   5.991   1.228   0.636 -0.1212 -0.4806 -0.2935
14999SOL    HW146610   5.931   1.291   0.597  0.8509  0.4511 -0.3369
14999SOL    HW246611   5.942   1.190   0.710 -0.5484  0.6893  0.0366
15000SOL     OW46612   0.387   7.354   9.840 -0.0140 -0.3816  0.1520
15000SOL    HW146613   0.335   7.288   9.886 -0.7739 -0.5391 -0.9059
15000SOL    HW246614   0.412   7.417   9.909 -1.2074 -0.5522  0.7646
15001SOL     OW46615   0.794   9.525   4.642 -0.0103 -0.6459  0.2179
15001SOL    HW146616   0.726   9.458   4.656 -0.2661  0.0110  2.5608
15001SOL    HW246617   0.752   9.590   4.587 -0.8299 -0.9299  0.4852
15002SOL     OW46618   6.065   8.256   8.570  0.0903  0.0353 -0.0792
15002SOL    HW146619   6.117   8.326   8.610  1.1813  0.2117 -1.7290
15002SOL    HW246620   6.119   8.223   8.499 -2.2835  0.6403 -2.3210
15003SOL     OW46621   8.410   5.965   9.625  0.1447  0.2937  0.3000
15003SOL    HW146622   8.456   5.884   9.646  1.0767  0.9070  0.7404
15003SOL    HW246623   8.330   5.937   9.581 -0.4381 -0.9558  2.0083
15004SOL     OW46624   9.255   3.445   2.246  0.0720  0.0913  0.9806
15004SOL    HW146625   9.323   3.473   2.184 -2.1666 -1.3325 -2.4664
15004SOL    HW246626   9.276   3.490   2.327  4.4689  0.5287 -0.1358
15005SOL     OW46627   1.493   7.607   0.306  0.5785  0.4393  0.1319
15005SOL    HW146628   1.450   7.595   0.222 -0.3626 -2.8106  0.9414
15005SOL    HW246629   1.445   7.680   0.347 -1.2707 -0.1859 -0.7894
15006SOL     OW46630   3.558   4.559   5.188  0.4767 -0.1206  0.1447
15006SOL    HW146631   3.535   4.472   5.220  0.7127 -1.0055 -1.9295
15006SOL    HW246632   3.654   4.561   5.189  0.4700  0.5141  1.1116
15007SOL     OW46633   0.883   9.083   1.153 -0.1369 -0.0323  0.0271
15007SOL    HW146634   0.895   9.008   1.094 -1.1748 -0.5639  0.4433
15007SOL    HW246635   0.857   9.155   1.095  0.1990 -0.1808 -0.3114
15008SOL     OW46636   9.565   8.316   3.596  0.4275 -0.3028 -0.4670
15008SOL    HW146637   9.471   8.304   3.584  0.2184  0.4368  0.3412
15008SOL    HW246638   9.574   8.405   3.628  1.3530 -0.5481 -0.0137
15009SOL     OW46639   8.731   6.775   7.949 -0.1958  0.8461 -0.1894
15009SOL    HW146640   8.722   6.869   7.964 -2.3506  1.1925 -2.8697
15009SOL    HW246641   8.824   6.762   7.929  0.0789  2.4397 -0.0402
15010SOL     OW46642   4.295   3.903   4.705 -0.7768 -0.4689  0.1099
15010SOL    HW146643   4.274   3.959   4.779  1.7148 -0.2395  0.7245
15010SOL    HW246644   4.270   3.954   4.628 -0.0475  0.8316  0.7074
15011SOL     OW46645   7.045   2.067   7.312 -0.8533 -0.1889 -0.2166
15011SOL    HW146646   7.124   2.015   7.293  0.1584  1.2374 -0.0354
15011SOL    HW246647   7.051   2.143   7.254 -1.6241  0.3965  0.4487
15012SOL     OW46648   8.006   7.911   9.299  0.0155 -0.2108 -0.0728
15012SOL    HW146649   8.067   7.875   9.363  2.7779 -0.0263 -2.4121
15012SOL    HW246650   8.017   8.006   9.306 -0.0624 -0.1724 -0.4717
15013SOL     OW46651   0.473   3.139   9.000  0.5607 -0.3204 -0.2376
15013SOL    HW146652   0.548   3.114   9.055  2.1842  1.8862 -1.2674
15013SOL    HW246653   0.512   3.156   8.914 -1.2472  0.2815 -0.9804
15014SOL     OW46654   1.263   7.204   4.860 -0.3590 -0.4588 -0.3099
15014SOL    HW146655   1.284   7.180   4.770 -0.3447 -0.8182 -0.2106
15014SOL    HW246656   1.293   7.130   4.912  1.0224  0.3730  0.1484
15015SOL     OW46657   0.777   0.048   1.023  0.2304  0.3379 -0.0332
15015SOL    HW146658   0.761   0.060   0.929  0.0041  0.9456  0.0799
15015SOL    HW246659   0.727   0.118   1.064  1.2724  0.7849  0.4829
15016SOL     OW46660   0.339   6.564   1.268  0.3431 -0.5953  0.3827
15016SOL    HW146661   0.315   6.510   1.193  0.5362 -0.6920  0.3897
15016SOL    HW246662   0.420   6.609   1.241  1.3872 -1.9313  1.1422
15017SOL     OW46663   3.594   4.248   8.815  0.3887 -0.1225 -0.3202
15017SOL    HW146664   3.556   4.320   8.867 -0.3127 -0.1308 -0.8041
15017SOL    HW246665   3.586   4.171   8.872  0.9947  0.1417  0.1364
15018SOL     OW46666   6.042   5.963   0.641  0.1562 -0.4088 -0.1182
15018SOL    HW146667   6.123   6.001   0.606  0.6571 -0.4921  0.9051
15018SOL    HW246668   5.996   6.037   0.681 -1.1471 -0.0144 -2.1916
15019SOL     OW46669   3.147   0.353   9.419 -0.4392  0.0695  0.1315
15019SOL    HW146670   3.159   0.288   9.350  0.3285  0.4966 -0.1480
15019SOL    HW246671   3.221   0.413   9.409 -1.3893  1.2683  0.0730
15020SOL     OW46672   8.019   9.465   4.725 -0.2302  0.1978  0.1044
15020SOL    HW146673   8.075   9.530   4.683 -1.0025 -0.5038 -2.1297
15020SOL    HW246674   8.076   9.421   4.788  1.1774  0.8072 -0.7057
15021SOL     OW46675   4.022   4.401   0.810 -0.3114  0.2723 -0.2296
15021SOL    HW146676   4.054   4.439   0.728 -2.8332 -0.1028 -1.4900
15021SOL    HW246677   3.999   4.478   0.864  2.7224  0.5646  0.8608
15022SOL     OW46678   5.610   1.220   7.499  0.6465  0.6685  0.2050
15022SOL    HW146679   5.704   1.235   7.483  0.6316  0.8735  0.3084
15022SOL    HW246680   5.584   1.291   7.557  0.7070 -0.1096  1.2020
15023SOL     OW46681   4.057   4.516   9.456 -0.3730  0.7028  0.2952
15023SOL    HW146682   3.989   4.510   9.523  0.1459  0.1423  0.7740
15023SOL    HW246683   4.089   4.606   9.462  1.3592  0.0080  2.4880
15024SOL     OW46684   9.636   8.929   1.815 -0.3046  0.1306  0.0584
15024SOL    HW146685   9.561   8.871   1.829  0.7229 -1.0195  1.1179
15024SOL    HW246686   9.712   8.872   1.825  0.7252  0.9821 -2.3502
15025SOL     OW46687   6.231   2.728   8.674 -0.1089 -0.4781 -0.2670
15025SOL    HW146688   6.160   2.680   8.718  0.9123 -1.9196 -0.1274
15025SOL    HW246689   6.245   2.679   8.593  0.3791  0.1050 -0.5325
15026SOL     OW46690   5.890   9.361   1.435  0.2157  0.4327 -0.0409
15026SOL    HW146691   5.927   9.333   1.351 -1.1222 -0.2836 -0.4248
15026SOL    HW246692   5.965   9.390   1.486  1.6470 -2.8636 -0.0139
15027SOL     OW46693   9.176   6.236   1.261 -0.3473  0.0706  0.0347
15027SOL    HW146694   9.141   6.308   1.314  0.4806 -0.8371  1.8907
15027SOL    HW246695   9.102   6.208   1.207 -0.7910  2.0253 -0.4606
15028SOL     OW46696   5.259   4.406   7.496 -0.0350  0.2107 -0.4811
15028SOL    HW146697   5.195   4.458   7.449  0.6156  0.6206 -0.9379
15028SOL    HW246698   5.294   4.466   7.563  0.1270  0.1061 -0.4721
15029SOL     OW46699   2.420   9.115   0.151 -0.6268  0.2223  0.1795
15029SOL    HW146700   2.432   9.209   0.135 -0.0506  0.0439 -0.4769
15029SOL    HW246701   2.492   9.091   0.209  0.1469 -0.1195 -0.8910
15030SOL     OW46702   9.406   2.144   8.282 -0.6896 -0.0821  0.8833
15030SOL    HW146703   9.412   2.050   8.298  1.2904 -0.0207  0.7521
15030SOL    HW246704   9.481   2.182   8.329  0.3442  1.0520 -1.4892
15031SOL     OW46705   2.130   7.475   4.496  0.1433  0.3871  0.7380
15031SOL    HW146706   2.059   7.514   4.547 -0.2500  1.6868 -0.7064
15031SOL    HW246707   2.209   7.523   4.523  0.3336 -0.4416  1.6921
15032SOL     OW46708   8.372   3.846   5.379  0.0202  0.6087 -0.4904
15032SOL    HW146709   8.277   3.852   5.369  0.0181  0.7154 -0.4027
15032SOL    HW246710   8.394   3.916   5.440 -0.3083 -1.7729  2.6271
15033SOL     OW46711   4.920   7.739   0.920  0.2703 -0.3750 -0.0661
15033SOL    HW146712   5.000   7.792   0.924  0.4734 -0.4920 -1.6806
15033SOL    HW246713   4.941   7.670   0.857  0.3349 -2.9946  2.6056
15034SOL     OW46714   8.350   0.717   1.759  0.5185  0.9485  0.4914
15034SOL    HW146715   8.329   0.780   1.828 -0.5350  0.7166  0.3926
15034SOL    HW246716   8.411   0.764   1.702 -1.0465  2.2834 -0.1554
15035SOL     OW46717   2.728   5.873   2.916 -0.0073  0.3003 -0.1634
15035SOL    HW146718   2.701   5.798   2.970 -0.7530  0.6400 -0.0417
15035SOL    HW246719   2.740   5.944   2.980 -1.1802  0.7845 -0.4500
15036SOL     OW46720   1.766   3.306   4.161  0.7674  0.8466  0.7944
15036SOL    HW146721   1.673   3.306   4.183  0.0374 -1.8571 -1.6710
15036SOL    HW246722   1.769   3.327   4.068  2.5675  0.2535  0.6781
15037SOL     OW46723   9.330   6.611   6.965 -0.1078  0.2795 -0.5438
15037SOL    HW146724   9.265   6.600   6.895  0.8697  1.2277 -1.6416
15037SOL    HW246725   9.412   6.627   6.919  1.0165 -1.2523  0.8001
15038SOL     OW46726   1.895   6.513   0.574  0.4110 -0.1487  0.2843
15038SOL    HW146727   1.876   6.450   0.505  1.8273 -1.2602  0.8369
15038SOL    HW246728   1.941   6.584   0.530  0.4436 -0.3900 -0.0764
15039SOL     OW46729   0.965   8.902   4.225 -0.4031  0.0648  0.0723
15039SOL    HW146730   1.036   8.964   4.238  0.8988 -1.3467 -0.1094
15039SOL    HW246731   0.916   8.938   4.151  0.5336  0.6945 -0.2610
15040SOL     OW46732   5.033   0.319   3.459 -0.6788 -0.3970 -0.2895
15040SOL    HW146733   5.100   0.271   3.507 -1.0879  2.6599  3.8095
15040SOL    HW246734   5.082   0.367   3.392  1.3747  1.2920  2.1985
15041SOL     OW46735   0.743   2.580   3.063 -0.6576  0.2531  0.2137
15041SOL    HW146736   0.662   2.581   3.115 -0.8225 -0.0454 -0.0317
15041SOL    HW246737   0.783   2.495   3.082 -0.1397  0.6048  0.7230
15042SOL     OW46738   7.021   3.644   0.876 -0.2565 -0.0548 -0.7439
15042SOL    HW146739   6.994   3.571   0.821  0.4091  0.0367 -1.2012
15042SOL    HW246740   7.054   3.709   0.814  0.6078  0.0044 -0.2282
15043SOL     OW46741   5.197   3.295   5.828  0.5239 -0.1850  0.4361
15043SOL    HW146742   5.189   3.216   5.882  1.4472 -0.5948 -0.0083
15043SOL    HW246743   5.121   3.291   5.769  1.8185 -2.0516 -1.2294
15044SOL     OW46744   2.324   8.433   5.373  0.2557 -0.2093 -0.9527
15044SOL    HW146745   2.229   8.444   5.365  0.3525  1.3200 -0.3531
15044SOL    HW246746   2.334   8.356   5.430 -0.6588  0.2231 -0.1733
15045SOL     OW46747   0.600   1.776   1.107  0.2931 -0.6028 -0.1688
15045SOL    HW146748   0.666   1.809   1.167  0.4217 -0.2513 -0.4965
15045SOL    HW246749   0.623   1.815   1.022 -1.2066  0.7497  0.0009
15046SOL     OW46750   5.859   7.426   1.788 -0.2238  0.1357 -0.1368
15046SOL    HW146751   5.856   7.509   1.741  1.0012 -0.7707 -1.9371
15046SOL    HW246752   5.895   7.448   1.874 -0.2420  1.5013 -0.4547
15047SOL     OW46753   3.554   1.907   7.652 -0.1587  0.3175  0.0202
15047SOL    HW146754   3.597   1.850   7.588  1.8853  1.2512  0.4791
15047SOL    HW246755   3.626   1.956   7.692 -1.7484  2.7412  0.1251
15048SOL     OW46756   5.165   8.058   0.822  0.6843  0.4193  0.0279
15048SOL    HW146757   5.108   8.135   0.822  0.5533  0.3219  0.1606
15048SOL    HW246758   5.207   8.059   0.736 -1.1151 -0.7136 -0.9232
15049SOL     OW46759   7.588   4.992   9.600 -0.0076  0.0724 -0.4343
15049SOL    HW146760   7.659   4.970   9.539 -0.7354 -1.0237 -0.9162
15049SOL    HW246761   7.630   4.996   9.686  0.6420 -0.5572 -0.7119
15050SOL     OW46762   4.803   3.654   4.927  0.4291  0.3507 -0.2516
15050SOL    HW146763   4.819   3.655   5.022 -0.4409 -1.3518 -0.0496
15050SOL    HW246764   4.750   3.732   4.911  0.5704  0.6482  0.6752
15051SOL     OW46765   3.642   7.698   2.914 -0.0363  0.0788 -0.4857
15051SOL    HW146766   3.602   7.734   2.835 -0.4305 -1.0717 -0.8307
15051SOL    HW246767   3.704   7.632   2.883 -0.1552 -0.3537  0.1495
15052SOL     OW46768   5.368   0.314   8.503  0.3186  0.5094  0.2246
15052SOL    HW146769   5.296   0.331   8.442 -1.7301  0.9276  2.5710
15052SOL    HW246770   5.407   0.400   8.518  0.9225  0.3840 -0.5445
15053SOL     OW46771   0.403   9.098   7.193  1.3725  0.3100 -0.5499
15053SOL    HW146772   0.385   9.005   7.181  0.7410 -0.0019  2.0483
15053SOL    HW246773   0.332   9.143   7.148 -0.1086 -0.6199  0.7361
15054SOL     OW46774   4.099   7.570   3.726 -0.0522  0.2826 -0.2701
15054SOL    HW146775   4.137   7.489   3.762  0.9601  0.2864 -1.2885
15054SOL    HW246776   4.090   7.552   3.632 -1.6966  0.6474 -0.2061
15055SOL     OW46777   1.775   8.990   5.945  0.1944 -0.2599 -0.0201
15055SOL    HW146778   1.730   9.043   5.879 -2.5323  0.5869  2.2740
15055SOL    HW246779   1.844   9.047   5.979  0.0020  0.2310 -0.4467
15056SOL     OW46780   8.285   3.721   1.088 -0.2633  0.1336  0.0148
15056SOL    HW146781   8.315   3.810   1.069  0.9280 -0.6737 -2.3022
15056SOL    HW246782   8.362   3.677   1.124 -0.3851 -0.3632 -0.3211
15057SOL     OW46783   4.145   3.074   8.701 -0.6361 -0.5065 -0.0504
15057SOL    HW146784   4.112   3.138   8.764  0.3904 -0.1051  0.1001
15057SOL    HW246785   4.174   3.000   8.755 -0.9431 -0.7022 -0.1520
15058SOL     OW46786   3.190   6.003   2.395  0.0621  0.4216  0.1566
15058SOL    HW146787   3.272   6.004   2.444 -0.2714  0.7776  0.7170
15058SOL    HW246788   3.168   6.096   2.384  0.2522  0.3547 -0.8751
15059SOL     OW46789   6.893   0.990   9.314 -0.2510  0.1185 -0.4302
15059SOL    HW146790   6.964   0.994   9.250 -1.0207 -2.0048 -1.5372
15059SOL    HW246791   6.815   1.017   9.266 -0.6615 -0.4322 -0.0898
15060SOL     OW46792   1.166   8.106   0.683 -0.1914  0.6340  0.5212
15060SOL    HW146793   1.232   8.057   0.733 -0.5549 -0.3818  0.0293
15060SOL    HW246794   1.089   8.107   0.740 -0.6683 -0.6898 -0.0526
15061SOL     OW46795   2.401   6.385   8.861 -0.0968 -0.6557  0.2536
15061SOL    HW146796   2.322   6.333   8.867 -0.5527  0.1536  1.6910
15061SOL    HW246797   2.381   6.452   8.795  0.0958 -1.5694 -0.7663
15062SOL     OW46798   2.504   4.496   2.249 -0.3108  0.4989 -0.5639
15062SOL    HW146799   2.568   4.428   2.269  0.2346  0.5962 -1.8704
15062SOL    HW246800   2.422   4.464   2.285  0.5710  0.7338  1.8899
15063SOL     OW46801   1.055   4.911   2.245  0.4352  0.2456  0.1168
15063SOL    HW146802   1.032   4.840   2.305  1.3258 -0.0525  0.1207
15063SOL    HW246803   1.113   4.870   2.180  1.2968  1.0495  0.3546
15064SOL     OW46804   1.834   6.192   9.006 -0.0879 -0.2501  0.3347
15064SOL    HW146805   1.845   6.122   9.071  0.1894  0.5265  1.1542
15064SOL    HW246806   1.796   6.148   8.930  0.6471 -1.4051  0.5972
15065SOL     OW46807   7.599   2.326   8.775  0.3047 -0.1142 -0.1775
15065SOL    HW146808   7.678   2.289   8.816 -0.5374  0.6502  2.3499
15065SOL    HW246809   7.528   2.271   8.808 -0.4355  0.6239 -0.5241
15066SOL     OW46810   0.068   0.400   6.190  0.2670 -0.2867  0.0447
15066SOL    HW146811   0.120   0.325   6.216  0.3745 -0.3595 -0.3704
15066SOL    HW246812  -0.002   0.363   6.135  0.4469 -0.0629 -0.3417
15067SOL     OW46813   0.781   6.713   4.569  0.0087  0.6659 -0.4571
15067SOL    HW146814   0.744   6.647   4.627 -0.6585  1.3050 -0.1361
15067SOL    HW246815   0.870   6.682   4.551  0.3275  0.5706  1.1084
15068SOL     OW46816   7.668   1.690   7.641 -0.0525 -0.0268  0.2228
15068SOL    HW146817   7.630   1.778   7.635 -0.6859 -0.3954 -1.9197
15068SOL    HW246818   7.593   1.633   7.658  0.3154 -0.2333  1.2627
15069SOL     OW46819   9.766   0.474   6.413  0.1783  0.0926  0.2814
15069SOL    HW146820   9.774   0.450   6.321 -0.6210 -1.1935  0.5164
15069SOL    HW246821   9.856   0.482   6.444  0.4648 -0.7078 -0.3081
15070SOL     OW46822   1.498   6.028   2.035 -0.2269 -0.0739 -0.5784
15070SOL    HW146823   1.472   5.958   2.095 -0.7206 -3.0081 -3.8706
15070SOL    HW246824   1.592   6.018   2.025 -0.0270  0.8855  0.1752
15071SOL     OW46825   7.748   0.377   8.140 -0.2266  0.5176 -0.7288
15071SOL    HW146826   7.714   0.387   8.229 -0.0989 -1.3959 -0.4355
15071SOL    HW246827   7.692   0.312   8.099  0.7897  0.0683 -1.4619
15072SOL     OW46828   3.077   4.785   2.454  0.1501 -0.2142 -0.0477
15072SOL    HW146829   2.984   4.808   2.457  0.5433  1.5453  0.0034
15072SOL    HW246830   3.122   4.870   2.452  1.7821 -1.0208  0.7444
15073SOL     OW46831   2.694   4.687   0.932 -0.0399 -0.8495 -0.3845
15073SOL    HW146832   2.634   4.702   0.859 -0.6074  1.2869  0.4518
15073SOL    HW246833   2.637   4.667   1.006  0.3742 -0.4369  0.0540
15074SOL     OW46834   8.163   2.458   7.761 -0.2767  0.1497 -0.1598
15074SOL    HW146835   8.116   2.463   7.677 -0.9705  0.0910  0.2127
15074SOL    HW246836   8.246   2.416   7.739 -1.2149 -1.6365 -0.5327
15075SOL     OW46837   7.105   2.922   6.566 -0.0715 -0.5792 -0.2711
15075SOL    HW146838   7.147   2.951   6.485 -1.5902  1.6995 -0.3261
15075SOL    HW246839   7.018   2.894   6.539 -0.5678  0.1414  0.5472
15076SOL     OW46840   4.444   3.679   1.350  0.2236 -0.1243  0.4903
15076SOL    HW146841   4.453   3.760   1.399  0.8388 -1.1155  2.0944
15076SOL    HW246842   4.512   3.622   1.385 -1.6209 -2.1170  1.0387
15077SOL     OW46843   8.375   4.917   6.783 -0.1008 -0.2809  0.2499
15077SOL    HW146844   8.321   4.934   6.860  0.1449  2.3895 -0.0559
15077SOL    HW246845   8.451   4.869   6.816 -0.6939 -0.4568  1.4053
15078SOL     OW46846   4.526   6.984   2.599  0.3374 -0.3781 -0.2892
15078SOL    HW146847   4.523   7.003   2.693 -2.4869  1.9025 -0.6962
15078SOL    HW246848   4.558   6.894   2.594  0.2923 -0.6933  2.8828
15079SOL     OW46849   1.648   3.561   5.468 -0.5421  0.4098  0.4672
15079SOL    HW146850   1.704   3.493   5.431  0.3475  1.0339  0.6315
15079SOL    HW246851   1.559   3.526   5.461 -0.2444 -0.1323 -0.8228
15080SOL     OW46852   0.837   3.540   6.501 -0.2417  0.1595 -0.4092
15080SOL    HW146853   0.853   3.632   6.519 -2.4702  0.5827 -0.3693
15080SOL    HW246854   0.925   3.502   6.493  0.7344  2.3987 -1.1596
15081SOL     OW46855   5.676   6.999   8.439 -0.0958 -0.0868  0.3031
15081SOL    HW146856   5.638   6.985   8.526  0.2171  0.5994  0.5548
15081SOL    HW246857   5.718   7.085   8.444 -0.0640 -0.0425 -0.5263
15082SOL     OW46858   5.697   8.596   9.071  0.2916  0.3237  0.0708
15082SOL    HW146859   5.772   8.639   9.112 -0.0760  1.7345 -0.6705
15082SOL    HW246860   5.718   8.595   8.978 -0.0830 -0.3579 -0.0081
15083SOL     OW46861   7.851   7.385   9.577 -0.5722 -0.0027  0.1373
15083SOL    HW146862   7.794   7.322   9.533  0.0082 -0.6517  0.2958
15083SOL    HW246863   7.862   7.350   9.665 -1.9509  1.4340  0.9177
15084SOL     OW46864   8.697   0.580   6.982 -0.0614 -0.4142  0.1607
15084SOL    HW146865   8.707   0.559   6.889  0.1510 -0.3807  0.1767
15084SOL    HW246866   8.782   0.559   7.021 -0.9833 -3.2506  0.8756
15085SOL     OW46867   9.835   0.938   4.110 -0.6745 -0.3668  0.1554
15085SOL    HW146868   9.754   0.974   4.147 -0.9426 -0.0722 -0.6904
15085SOL    HW246869   9.814   0.920   4.018  0.2274 -0.2491 -0.0859
15086SOL     OW46870   3.118   5.400   6.118  0.1636  0.1726 -0.1650
15086SOL    HW146871   3.156   5.468   6.062 -1.3597  0.9833 -0.2638
15086SOL    HW246872   3.072   5.448   6.186 -0.3112 -0.7844  0.1983
15087SOL     OW46873   9.537   1.448   6.460  0.0545 -0.2604 -0.2845
15087SOL    HW146874   9.453   1.412   6.431 -0.0638 -1.0819  0.9735
15087SOL    HW246875   9.593   1.443   6.383 -1.1532  0.6831 -1.2593
15088SOL     OW46876   8.727   8.149   8.199 -0.2838  0.2519  0.1503
15088SOL    HW146877   8.760   8.237   8.181 -2.2685  1.0287  0.0874
15088SOL    HW246878   8.772   8.122   8.279  2.1596  0.2840 -1.1036
15089SOL     OW46879   7.330   0.069   6.623 -0.5115  0.2811  0.1673
15089SOL    HW146880   7.282   0.039   6.701 -2.9978  0.0944 -1.3178
15089SOL    HW246881   7.314  -0.000   6.558 -0.1207  1.3332 -1.0813
15090SOL     OW46882   5.628   4.531   8.514  0.7679 -0.1774  0.2743
15090SOL    HW146883   5.590   4.467   8.575 -1.5909  1.6328  0.8803
15090SOL    HW246884   5.685   4.584   8.568 -0.2804  0.5866  0.6686
15091SOL     OW46885   5.611   8.861   3.235 -0.3211  0.4100 -0.2446
15091SOL    HW146886   5.625   8.932   3.297  2.7599 -0.3957  0.1636
15091SOL    HW246887   5.542   8.808   3.273 -1.2717  2.0555  0.4359
15092SOL     OW46888   7.835   1.440   2.540 -0.7712 -0.0686 -0.1293
15092SOL    HW146889   7.741   1.443   2.522 -0.7821 -2.5289 -0.8026
15092SOL    HW246890   7.873   1.398   2.463  1.1022  2.0642 -0.4661
15093SOL     OW46891   0.605   2.110   4.331  0.0569  0.2412  0.2398
15093SOL    HW146892   0.564   2.109   4.418  0.9041 -0.3665  0.6502
15093SOL    HW246893   0.690   2.152   4.345 -0.2910  1.2388 -0.5466
15094SOL     OW46894   3.006   9.133   2.696  0.4043 -0.0265 -0.1690
15094SOL    HW146895   2.968   9.216   2.725  1.3763  0.2746  0.2854
15094SOL    HW246896   2.980   9.070   2.763 -1.1034 -0.3179 -0.9763
15095SOL     OW46897   7.869   9.465   1.155 -0.0580  0.6861 -1.0669
15095SOL    HW146898   7.826   9.550   1.144 -0.9805  0.9482  3.1055
15095SOL    HW246899   7.797   9.402   1.163  0.5045  0.0965 -0.4786
15096SOL     OW46900   0.115   1.040   0.495  0.2299  0.4905  0.2261
15096SOL    HW146901   0.142   1.018   0.406  1.2294 -1.5775  0.9628
15096SOL    HW246902   0.197   1.057   0.542  0.0139 -1.5249  1.4476
15097SOL     OW46903   7.152   8.278   1.010 -0.0240  0.1813  0.3754
15097SOL    HW146904   7.205   8.256   0.933 -2.5588  0.1123 -1.4783
15097SOL    HW246905   7.184   8.220   1.079  1.0479 -1.1739 -1.1878
15098SOL     OW46906   7.897   1.365   3.960 -0.4161  0.6572  0.1081
15098SOL    HW146907   7.802   1.380   3.955 -0.8312 -1.8284 -0.7313
15098SOL    HW246908   7.908   1.313   4.039  0.0938  0.0035 -0.3864
15099SOL     OW46909   7.283   8.171   5.995 -0.1351  0.6072  0.3352
15099SOL    HW146910   7.197   8.212   5.982  0.4485  1.9677  0.4983
15099SOL    HW246911   7.296   8.172   6.089  0.5506  1.5240  0.2466
15100SOL     OW46912   8.953   8.887   6.600 -0.1383 -0.4486 -0.1849
15100SOL    HW146913   8.980   8.963   6.548 -0.6010 -1.0848 -1.4211
15100SOL    HW246914   9.001   8.894   6.682 -0.6625  1.5135 -0.0046
15101SOL     OW46915   3.739   0.155   4.188 -0.1876  0.1426  0.0802
15101SOL    HW146916   3.794   0.227   4.220 -0.0775 -0.1491  0.5468
15101SOL    HW246917   3.686   0.195   4.118 -0.1819  0.6929  0.3848
15102SOL     OW46918   3.480   1.600   3.016  1.1755  0.2485  0.6765
15102SOL    HW146919   3.498   1.668   3.081 -1.2815 -0.6896  2.5005
15102SOL    HW246920   3.547   1.534   3.031 -0.0543 -0.5216  3.2119
15103SOL     OW46921   0.134   0.832   4.301  0.2206 -0.3571  0.5318
15103SOL    HW146922   0.080   0.864   4.228  2.2339  0.6336 -0.6147
15103SOL    HW246923   0.140   0.907   4.361 -0.7287 -0.9000  1.3397
15104SOL     OW46924   7.122   1.927   8.715  0.1493  0.5285 -0.2750
15104SOL    HW146925   7.217   1.921   8.703 -0.2161 -3.3344 -3.2563
15104SOL    HW246926   7.091   1.972   8.636 -0.5660  0.4254 -0.0555
15105SOL     OW46927   5.015   3.843   2.447  0.0112 -0.6221 -0.2321
15105SOL    HW146928   5.023   3.803   2.361 -2.4199 -0.6407 -0.5311
15105SOL    HW246929   5.073   3.919   2.444  1.1323 -1.4788 -1.3096
15106SOL     OW46930   1.167   7.791   0.628  0.1886  0.8480 -0.1064
15106SOL    HW146931   1.124   7.707   0.644  1.6657  0.0677 -0.0577
15106SOL    HW246932   1.257   7.767   0.603  0.6334  2.4184 -0.0778
15107SOL     OW46933   1.232   5.343   4.915  0.3134  0.4524 -0.1829
15107SOL    HW146934   1.281   5.408   4.965  1.3947  0.7602 -1.5944
15107SOL    HW246935   1.182   5.394   4.851 -1.1437  0.0767  0.6048
15108SOL     OW46936   3.079   6.138   0.348 -0.0599 -0.0921 -0.1674
15108SOL    HW146937   3.162   6.175   0.318  0.4737 -0.5985  0.6422
15108SOL    HW246938   3.048   6.085   0.275  1.2867 -1.4341  0.1884
15109SOL     OW46939   4.323   1.676   4.220  0.1650  0.9700  0.1791
15109SOL    HW146940   4.354   1.650   4.134  0.5069  1.2984  0.2010
15109SOL    HW246941   4.275   1.600   4.252  2.0571 -0.0695  0.6947
15110SOL     OW46942   8.461   8.229   8.171 -0.0250  0.0474  0.4166
15110SOL    HW146943   8.546   8.196   8.201 -0.2786 -0.5845  0.4538
15110SOL    HW246944   8.416   8.152   8.138 -0.4526  0.4403  0.0714
15111SOL     OW46945   3.516   1.147   4.010 -0.1765  0.4479 -0.5924
15111SOL    HW146946   3.485   1.077   3.952  0.5227 -1.2208  0.9701
15111SOL    HW246947   3.611   1.146   4.001  0.4531 -2.7508  3.4955
15112SOL     OW46948   9.173   8.051   8.154 -0.0450 -0.1633 -0.1539
15112SOL    HW146949   9.125   8.039   8.073 -0.1797 -2.6415  0.2288
15112SOL    HW246950   9.117   8.109   8.207 -1.3153 -0.8263 -0.7416
15113SOL     OW46951   5.328   6.916   5.636 -0.8398 -0.3173  0.5749
15113SOL    HW146952   5.291   6.834   5.605  1.0932 -0.9523 -0.1803
15113SOL    HW246953   5.397   6.891   5.697 -0.2137  0.7167  0.3371
15114SOL     OW46954   2.219   3.544   4.986  0.3250 -0.0754 -0.0227
15114SOL    HW146955   2.140   3.512   4.942 -0.4286  2.2816 -0.4808
15114SOL    HW246956   2.272   3.582   4.916  1.5666 -0.9672  0.3933
15115SOL     OW46957   5.064   7.445   7.443 -0.1446 -0.3065  0.2490
15115SOL    HW146958   5.010   7.386   7.390  0.4058 -0.9740  0.4262
15115SOL    HW246959   5.019   7.530   7.438  1.0358  0.2647 -3.1289
15116SOL     OW46960   0.218   1.009   6.245 -0.8494  0.2668 -0.1578
15116SOL    HW146961   0.241   1.073   6.313  0.5846 -0.5978  0.2313
15116SOL    HW246962   0.235   0.924   6.286 -0.8395 -0.3025 -1.2976
15117SOL     OW46963   4.424   9.361   7.862  0.1682 -0.1952  0.2457
15117SOL    HW146964   4.408   9.298   7.933  0.3078 -0.1799  0.2906
15117SOL    HW246965   4.369   9.436   7.884 -0.1982 -0.4067  0.0537
15118SOL     OW46966   6.744   3.949   6.384 -0.1972 -0.1922 -0.3138
15118SOL    HW146967   6.778   3.996   6.308  1.0628 -1.4020 -0.5245
15118SOL    HW246968   6.657   3.988   6.398 -0.2076  0.4949 -1.9737
15119SOL     OW46969   7.530   3.838   1.393 -0.3406  0.4338 -0.9738
15119SOL    HW146970   7.435   3.839   1.407 -0.0409  1.3879  1.7282
15119SOL    HW246971   7.564   3.900   1.458  2.1417  0.2768 -2.0077
15120SOL     OW46972   5.768   0.119   2.214 -0.2313  0.0886 -0.0811
15120SOL    HW146973   5.730   0.086   2.133 -0.1589 -0.3163  0.0507
15120SOL    HW246974   5.699   0.175   2.251 -0.4958 -0.2053 -0.1206
15121SOL     OW46975   7.316   4.463   2.524 -0.4330 -0.6365  0.5735
15121SOL    HW146976   7.349   4.542   2.567  1.6879 -0.9163 -0.4117
15121SOL    HW246977   7.238   4.492   2.477  1.1395  1.3051 -1.0277
15122SOL     OW46978   1.451   2.752   6.098 -0.2202 -0.4888  0.6666
15122SOL    HW146979   1.422   2.801   6.175 -1.4969 -0.2382  0.0557
15122SOL    HW246980   1.445   2.660   6.125 -0.4992 -0.3972  0.9182
15123SOL     OW46981   2.154   6.898   9.152  0.3676 -0.6765  0.1691
15123SOL    HW146982   2.152   6.957   9.227 -0.6319  0.9355 -1.0476
15123SOL    HW246983   2.246   6.874   9.142  1.4177  3.1459 -1.0703
15124SOL     OW46984   1.815   9.162   8.137 -0.3483 -0.4887 -0.0012
15124SOL    HW146985   1.779   9.165   8.225  0.3682 -2.1764  0.3899
15124SOL    HW246986   1.834   9.253   8.115 -0.5670 -0.0458  1.5698
15125SOL     OW46987   1.156   7.587   1.444 -0.2506 -0.0434 -0.1433
15125SOL    HW146988   1.104   7.662   1.473 -1.6542 -0.6262 -1.0240
15125SOL    HW246989   1.178   7.540   1.524  2.3737  2.3028  0.6554
15126SOL     OW46990   6.325   1.881   9.512 -0.6529 -0.1654 -0.1544
15126SOL    HW146991   6.293   1.793   9.532  0.0210 -0.9855 -2.4472
15126SOL    HW246992   6.249   1.938   9.526 -1.8113 -1.4521 -1.0063
15127SOL     OW46993   9.709   4.669   4.954 -0.3500  0.4022 -0.2724
15127SOL    HW146994   9.719   4.661   5.049 -0.4723  0.4515 -0.2544
15127SOL    HW246995   9.623   4.631   4.936  0.1014 -0.5384 -0.4934
15128SOL     OW46996   7.332   2.461   8.037 -0.0321  0.6288 -0.5332
15128SOL    HW146997   7.333   2.422   8.124 -1.2808 -0.2682 -0.8897
15128SOL    HW246998   7.241   2.485   8.022  0.3830  1.9744 -1.1037
15129SOL     OW46999   5.834   3.421   2.539  0.2623  0.2120  0.2576
15129SOL    HW147000   5.896   3.454   2.605 -1.1293 -1.5092  2.5651
15129SOL    HW247001   5.749   3.425   2.583 -1.0131  0.5712 -2.0990
15130SOL     OW47002   0.825   1.833   5.463  0.0962 -0.0360  0.0141
15130SOL    HW147003   0.874   1.776   5.522  0.8228  0.1255 -0.4183
15130SOL    HW247004   0.847   1.802   5.375 -0.5151  0.0977 -0.1925
15131SOL     OW47005   6.711   4.482   7.555 -0.1512  0.3215  0.1825
15131SOL    HW147006   6.633   4.433   7.528  0.4028 -0.4809 -0.0106
15131SOL    HW247007   6.717   4.555   7.493 -0.9751  0.6325  0.4564
15132SOL     OW47008   3.678   7.529   3.503 -0.1961 -0.2154  0.4567
15132SOL    HW147009   3.722   7.600   3.550 -0.2309 -0.8230  1.4515
15132SOL    HW247010   3.686   7.453   3.562 -0.8239 -0.8383 -0.2364
15133SOL     OW47011   7.466   9.751   6.046 -0.3034 -0.3912  1.0785
15133SOL    HW147012   7.385   9.743   5.996  0.4954 -0.6730 -0.2181
15133SOL    HW247013   7.468   9.673   6.101  0.9358 -2.5599 -1.7613
15134SOL     OW47014   2.625   2.374   2.363  0.1478 -0.1255 -0.0657
15134SOL    HW147015   2.557   2.371   2.430 -0.4920 -0.2547 -0.7066
15134SOL    HW247016   2.613   2.293   2.313 -0.4577  0.7248 -1.3480
15135SOL     OW47017   3.518   4.878   3.371 -0.1657  0.7585 -0.1924
15135SOL    HW147018   3.471   4.794   3.364  2.7882 -1.0207 -0.7648
15135SOL    HW247019   3.545   4.897   3.281  1.5164  0.8314  0.2967
15136SOL     OW47020   5.152   2.846   6.576 -0.0947  0.0049  0.1950
15136SOL    HW147021   5.242   2.833   6.608  0.9092  1.1013 -2.0026
15136SOL    HW247022   5.116   2.758   6.569  1.7059 -0.6718 -1.2288
15137SOL     OW47023   2.812   0.050   9.278  0.1538 -0.0946 -0.7736
15137SOL    HW147024   2.820  -0.031   9.228  0.2716  0.1349 -1.1297
15137SOL    HW247025   2.901   0.087   9.278  0.2048 -0.2032 -0.2059
15138SOL     OW47026   6.921   5.833   6.308  0.4052 -0.1165  0.7374
15138SOL    HW147027   6.850   5.769   6.320  0.2222  0.1867  1.3560
15138SOL    HW247028   6.981   5.791   6.247 -0.3986 -0.3016  0.0483
15139SOL     OW47029   8.662   0.152   5.837  0.1502 -0.5644 -0.7143
15139SOL    HW147030   8.654   0.195   5.752 -0.8692  0.5855 -0.0536
15139SOL    HW247031   8.621   0.066   5.823 -0.4218 -0.2132 -1.2583
15140SOL     OW47032   1.521   5.073   4.715  0.2848  0.0891  0.4566
15140SOL    HW147033   1.578   5.129   4.663 -0.2306  0.4138  0.2348
15140SOL    HW247034   1.546   5.089   4.805  0.4999  0.2759  0.3626
15141SOL     OW47035   7.710   8.726   8.717 -0.0601  0.0560 -0.1867
15141SOL    HW147036   7.681   8.726   8.626  0.3803  0.9688 -0.3408
15141SOL    HW247037   7.801   8.699   8.714  0.2981  1.2272 -0.1497
15142SOL     OW47038   4.157   6.863   5.569 -0.6305 -0.1763  0.5692
15142SOL    HW147039   4.222   6.910   5.621  1.0977 -0.4207 -1.2637
15142SOL    HW247040   4.197   6.855   5.483 -2.0161 -2.6508  0.0873
15143SOL     OW47041   5.860   7.717   8.559  0.1048 -0.0575 -0.4975
15143SOL    HW147042   5.779   7.768   8.553 -0.8049 -0.9029  2.8327
15143SOL    HW247043   5.831   7.627   8.574  1.6530 -0.3537  0.9135
15144SOL     OW47044   7.781   4.531   5.888 -0.1743 -0.2774 -0.1400
15144SOL    HW147045   7.712   4.473   5.920  1.1160 -0.8290  1.8360
15144SOL    HW247046   7.815   4.572   5.967  2.5361 -0.9456 -0.8694
15145SOL     OW47047   3.182   6.302   1.086 -0.0746 -0.1935 -0.7203
15145SOL    HW147048   3.206   6.295   0.994  1.3847  0.1916 -0.3863
15145SOL    HW247049   3.238   6.371   1.121 -1.1901  0.2412  0.2787
15146SOL     OW47050   5.459   7.423   2.947 -0.1141 -0.7475  0.1903
15146SOL    HW147051   5.453   7.364   2.872  1.1942 -0.5253 -0.1007
15146SOL    HW247052   5.369   7.457   2.958  0.3287  2.7494 -4.1918
15147SOL     OW47053   8.882   7.482   4.830 -0.1329  0.4430 -0.0680
15147SOL    HW147054   8.917   7.466   4.918  1.8569  3.4153 -0.1748
15147SOL    HW247055   8.920   7.413   4.776  0.6013  0.0035  0.9712
15148SOL     OW47056   1.357   5.569   9.106  0.6435 -0.1838 -0.5690
15148SOL    HW147057   1.275   5.597   9.064 -0.7516 -0.5440  1.7107
15148SOL    HW247058   1.382   5.644   9.160 -0.8759 -1.6558  2.4110
15149SOL     OW47059   8.303   8.694   2.772  0.4862 -0.0198  0.7143
15149SOL    HW147060   8.214   8.725   2.757  0.7164  0.2105 -0.2591
15149SOL    HW247061   8.359   8.767   2.744  1.0100 -0.8399 -0.4319
15150SOL     OW47062   6.311   4.076   7.479 -0.0290  0.3814  0.5432
15150SOL    HW147063   6.244   4.008   7.481 -0.2554  0.5636 -0.4098
15150SOL    HW247064   6.381   4.042   7.534 -0.0312 -0.7570 -0.1270
15151SOL     OW47065   3.670   2.900   3.555 -0.4658 -0.0033  0.4409
15151SOL    HW147066   3.680   2.806   3.536 -0.6017 -0.1228  0.9428
15151SOL    HW247067   3.579   2.920   3.530 -0.1815  0.1936 -0.4669
15152SOL     OW47068   7.116   2.506   0.643 -0.6591  0.0444  0.0886
15152SOL    HW147069   7.101   2.562   0.719 -1.1118 -0.8249  0.6551
15152SOL    HW247070   7.202   2.466   0.659 -0.3520  0.5461 -0.2974
15153SOL     OW47071   2.200   6.564   7.549  0.2135 -0.2725  0.1829
15153SOL    HW147072   2.207   6.615   7.468  1.4888  0.7364  0.8869
15153SOL    HW247073   2.119   6.513   7.538  0.5904 -0.5166 -1.8946
15154SOL     OW47074   6.880   0.861   4.507 -0.3422  0.1161  0.0113
15154SOL    HW147075   6.883   0.924   4.435 -1.5482 -0.8459 -0.9241
15154SOL    HW247076   6.972   0.837   4.522  0.0813  1.6969  0.0528
15155SOL     OW47077   8.765   1.091   4.373  0.5612 -0.5555 -0.7188
15155SOL    HW147078   8.670   1.086   4.360  0.0338 -0.1869  2.2312
15155SOL    HW247079   8.790   1.175   4.335 -0.0773 -1.1002 -2.4284
15156SOL     OW47080   9.095   2.120   6.695  0.2163 -0.4055  0.2754
15156SOL    HW147081   9.008   2.098   6.729  0.2910 -2.2484 -0.6030
15156SOL    HW247082   9.077   2.173   6.617 -0.2058 -1.8334 -0.6360
15157SOL     OW47083   0.213   2.857   7.448 -0.3942 -0.2464  0.2925
15157SOL    HW147084   0.237   2.883   7.537 -0.1553  2.0642 -0.3911
15157SOL    HW247085   0.118   2.859   7.447 -0.3898  1.9099 -0.0415
15158SOL     OW47086   3.817   5.219   5.271  0.1721  0.2581  0.1497
15158SOL    HW147087   3.842   5.270   5.348  1.7740 -0.2870  0.0284
15158SOL    HW247088   3.742   5.167   5.300  1.7389 -1.1625  1.9007
15159SOL     OW47089   5.681   0.654   2.060  0.3752 -0.4334 -0.2847
15159SOL    HW147090   5.708   0.699   1.980 -1.0069 -0.1392 -0.6164
15159SOL    HW247091   5.689   0.720   2.129  0.6759 -0.4104 -0.3400
15160SOL     OW47092   0.479   0.984   6.436 -0.4566  0.3104 -0.3485
15160SOL    HW147093   0.446   1.073   6.440 -1.6733 -0.1082 -0.6149
15160SOL    HW247094   0.505   0.971   6.345  0.9153  0.7789 -0.0516
15161SOL     OW47095   8.931   6.500   4.524 -0.1695 -0.2614  0.2670
15161SOL    HW147096   8.927   6.590   4.557  2.6350  0.0664  0.0269
15161SOL    HW247097   9.017   6.469   4.554  0.7791 -1.3698 -3.1611
15162SOL     OW47098   0.606   2.504   3.308  0.2268  0.3522  0.0441
15162SOL    HW147099   0.538   2.568   3.329  0.4105  1.0246 -1.2512
15162SOL    HW247100   0.570   2.420   3.336 -0.4881  0.8808  0.7670
15163SOL     OW47101   3.548   4.922   6.869  0.2323  0.3327 -0.0400
15163SOL    HW147102   3.545   4.867   6.947  1.7970 -0.0221 -0.1932
15163SOL    HW247103   3.542   4.860   6.796  2.4115  0.2645 -0.2189
15164SOL     OW47104   8.316   9.024   2.837  0.1202  0.0616  0.3785
15164SOL    HW147105   8.226   9.045   2.814 -0.0953 -1.0458  0.1390
15164SOL    HW247106   8.369   9.068   2.770 -0.3222 -0.4197 -0.3046
15165SOL     OW47107   4.148   8.465   3.205  0.0393  0.4197  0.1383
15165SOL    HW147108   4.128   8.558   3.193 -2.5300  0.0966  1.1390
15165SOL    HW247109   4.128   8.448   3.298  1.6565 -0.8839  0.2908
15166SOL     OW47110   7.240   8.910   9.049  0.0869  0.5037  0.4022
15166SOL    HW147111   7.290   8.920   9.130  0.2632  0.8855  0.2493
15166SOL    HW247112   7.304   8.921   8.979  0.2398 -1.4175  0.1952
15167SOL     OW47113   1.066   0.939   2.271  0.3138  0.4660 -0.4307
15167SOL    HW147114   1.069   0.878   2.345 -1.0962  0.1698 -0.5812
15167SOL    HW247115   1.045   1.024   2.310 -0.7530  0.2479 -0.4965
15168SOL     OW47116   1.500   4.210   5.917 -0.3826  0.3223 -0.0522
15168SOL    HW147117   1.429   4.249   5.968 -1.7353 -0.7690 -1.0324
15168SOL    HW247118   1.518   4.126   5.959 -1.2462 -0.4116 -1.1096
15169SOL     OW47119   2.415   4.726   8.396 -0.4199  0.4707  0.0228
15169SOL    HW147120   2.329   4.768   8.398 -0.6708  0.4736 -3.6822
15169SOL    HW247121   2.396   4.634   8.412 -1.1971  0.4281 -1.0164
15170SOL     OW47122   1.488   8.623   4.934 -0.2719  0.2687  0.0978
15170SOL    HW147123   1.561   8.589   4.882  0.6838  2.0031  0.2089
15170SOL    HW247124   1.527   8.696   4.984 -1.5124 -0.3483  2.0786
15171SOL     OW47125   5.667   8.083   8.616  0.6349 -0.2749 -0.2967
15171SOL    HW147126   5.602   8.015   8.626  0.2773 -0.0434 -0.9911
15171SOL    HW247127   5.704   8.069   8.529  1.7248 -0.5772  0.1863
15172SOL     OW47128   4.538   3.239   0.896 -0.5807  0.2490 -0.2556
15172SOL    HW147129   4.528   3.332   0.879 -1.1254  0.1039 -0.7657
15172SOL    HW247130   4.555   3.233   0.990 -1.6886  0.7845 -0.0144
15173SOL     OW47131   1.992   0.657   3.975 -0.1582 -0.1117 -0.2920
15173SOL    HW147132   1.998   0.748   4.004 -1.0447 -0.0503 -0.2787
15173SOL    HW247133   1.901   0.646   3.946  0.3390 -0.5491 -1.8029
15174SOL     OW47134   8.168   3.404   8.160  0.1689  0.7989  0.8358
15174SOL    HW147135   8.160   3.475   8.224  0.4098  0.6810  1.0004
15174SOL    HW247136   8.261   3.402   8.138  0.2679  0.1606  1.2724
15175SOL     OW47137   7.204   3.033   2.341 -0.0363 -0.1200 -0.6498
15175SOL    HW147138   7.243   2.995   2.419 -0.2527  0.0853 -0.4421
15175SOL    HW247139   7.110   3.022   2.352 -0.1295  0.8507 -0.3876
15176SOL     OW47140   8.705   4.270   0.180 -0.0108  0.1679  0.5939
15176SOL    HW147141   8.721   4.259   0.087 -0.5450  1.6243  0.2981
15176SOL    HW247142   8.613   4.247   0.192  0.3757 -1.2364  1.0032
15177SOL     OW47143   1.583   0.633   1.870  0.0131 -0.0004 -0.2845
15177SOL    HW147144   1.566   0.722   1.840 -1.7837  0.1026  0.8793
15177SOL    HW247145   1.497   0.592   1.876  0.6830 -1.4199  0.3966
15178SOL     OW47146   0.062   5.989   1.741 -0.3185 -0.1926  0.2942
15178SOL    HW147147   0.089   5.964   1.829 -0.4913 -1.3510  0.0437
15178SOL    HW247148  -0.021   5.943   1.728  0.4574 -1.3074 -1.0184
15179SOL     OW47149   8.503   6.159   7.731  0.6425  0.3638  0.6954
15179SOL    HW147150   8.444   6.228   7.759 -0.1532 -0.7259  1.8113
15179SOL    HW247151   8.543   6.127   7.812  1.0622 -0.4151  0.1934
15180SOL     OW47152   6.388   0.832   6.242 -0.0795 -0.4260 -0.1326
15180SOL    HW147153   6.442   0.773   6.293 -0.2876  0.8149  1.6305
15180SOL    HW247154   6.450   0.881   6.188  0.2121 -1.2879 -0.5972
15181SOL     OW47155   1.284   0.354   3.871 -0.8822  0.6868  0.2702
15181SOL    HW147156   1.346   0.294   3.830 -1.8197  0.8584 -1.5088
15181SOL    HW247157   1.289   0.433   3.817 -1.3798  1.3416  1.1607
15182SOL     OW47158   9.546   9.596   4.264  0.6013 -0.4790  0.0877
15182SOL    HW147159   9.491   9.556   4.196  1.0151 -1.0447  0.0745
15182SOL    HW247160   9.539   9.690   4.249  1.3186 -0.6136 -1.2404
15183SOL     OW47161   1.850   0.441   2.887  0.7174  0.1726  0.1071
15183SOL    HW147162   1.821   0.384   2.958  1.4377 -0.0269  0.2493
15183SOL    HW247163   1.800   0.522   2.900  0.3445 -0.1020  0.4296
15184SOL     OW47164   5.010   9.654   9.195  0.0889  0.7976  0.2764
15184SOL    HW147165   5.024   9.668   9.102  2.6164 -0.3856  0.3778
15184SOL    HW247166   4.916   9.659   9.207 -0.4136 -0.2170 -2.5629
15185SOL     OW47167   7.964   1.087   2.467  0.4932 -0.0634 -0.6305
15185SOL    HW147168   7.915   1.149   2.414  2.5176  0.6344 -1.7709
15185SOL    HW247169   7.914   1.080   2.549 -0.7797  1.5803 -1.2309
15186SOL     OW47170   3.523   8.864   4.574  0.1398 -0.0462  0.7697
15186SOL    HW147171   3.563   8.802   4.512 -1.1285 -2.0353  1.8420
15186SOL    HW247172   3.576   8.856   4.653  1.0433  1.6266  0.3816
15187SOL     OW47173   4.628   2.278   0.728 -0.2795  0.0718  0.8069
15187SOL    HW147174   4.571   2.203   0.717 -0.4377  0.3242 -0.1676
15187SOL    HW247175   4.625   2.324   0.644 -1.1469  1.8431  1.7492
15188SOL     OW47176   1.759   1.141   3.196  0.2584 -0.1212 -0.3035
15188SOL    HW147177   1.852   1.152   3.214 -0.0315  2.2054  0.0102
15188SOL    HW247178   1.718   1.221   3.228 -1.8799 -1.0969 -0.4071
15189SOL     OW47179   7.138   1.242   4.464  0.6948 -0.0939  0.1575
15189SOL    HW147180   7.142   1.172   4.400  0.7275  0.1365 -0.0950
15189SOL    HW247181   7.079   1.307   4.426 -0.5473 -0.6592  1.0676
15190SOL     OW47182   2.164   2.714   4.165 -0.1939  0.4047  0.1259
15190SOL    HW147183   2.132   2.684   4.250 -2.0340  1.7868 -0.0214
15190SOL    HW247184   2.226   2.783   4.187  0.0898  0.0814  0.3556
15191SOL     OW47185   0.906   4.774   1.465  0.1301  0.1620 -0.2161
15191SOL    HW147186   0.822   4.800   1.504  0.3364 -0.6484  0.8113
15191SOL    HW247187   0.887   4.765   1.371 -1.3601 -1.5646  0.1944
15192SOL     OW47188   0.613   4.854   0.628 -0.4948  0.0780 -0.0006
15192SOL    HW147189   0.553   4.889   0.693 -0.4982 -1.2240  0.7278
15192SOL    HW247190   0.700   4.886   0.654 -0.1874 -2.1194  1.9171
15193SOL     OW47191   6.172   0.644   8.332  0.0787 -0.3112 -0.5442
15193SOL    HW147192   6.132   0.723   8.369 -0.7874 -0.5532 -0.9550
15193SOL    HW247193   6.222   0.606   8.404  0.5374  0.6323 -0.3502
15194SOL     OW47194   6.645   5.577   2.510  0.3956 -0.1303  0.0137
15194SOL    HW147195   6.579   5.599   2.576  2.2891  1.7346  1.4443
15194SOL    HW247196   6.615   5.494   2.473 -1.9065 -0.1484  1.6817
15195SOL     OW47197   6.932   4.880   1.799  1.2080  0.1983 -0.5014
15195SOL    HW147198   6.854   4.924   1.833  0.6419 -2.0907  1.3617
15195SOL    HW247199   6.936   4.907   1.707 -1.5131  0.7440 -0.5441
15196SOL     OW47200   2.930   5.379   9.643  0.1897  0.2267 -0.3282
15196SOL    HW147201   2.865   5.388   9.573 -1.2926  0.4900  1.0159
15196SOL    HW247202   2.879   5.352   9.719  1.5993  0.9997  0.9399
15197SOL     OW47203   6.666   9.039   5.833  0.1612 -0.1111 -0.0965
15197SOL    HW147204   6.580   9.040   5.790  0.9600 -1.0915 -1.8530
15197SOL    HW247205   6.718   9.102   5.784  0.4988  0.3878  0.8797
15198SOL     OW47206   2.687   1.123   0.232 -0.1846 -0.2968  0.1522
15198SOL    HW147207   2.623   1.065   0.190 -0.5165  0.1483  0.0330
15198SOL    HW247208   2.634   1.195   0.268 -0.0090 -1.0706  2.0494
15199SOL     OW47209   5.010   5.242   0.758 -0.2679 -0.2880 -0.2959
15199SOL    HW147210   4.944   5.177   0.735  1.3805 -1.7718 -1.0646
15199SOL    HW247211   5.088   5.216   0.709  1.1545  0.8800  1.2141
15200SOL     OW47212   4.247   9.627   0.460 -0.3805 -0.0354  0.1986
15200SOL    HW147213   4.176   9.564   0.466 -0.3327 -0.0530  0.6604
15200SOL    HW247214   4.306   9.592   0.394 -0.9603  0.1430 -0.4207
15201SOL     OW47215   3.980   2.222   5.826  0.1537 -0.0429  0.0582
15201SOL    HW147216   3.918   2.213   5.899 -0.1041  0.6624 -0.0622
15201SOL    HW247217   4.051   2.162   5.848 -0.8586 -1.3307 -0.1151
15202SOL     OW47218   0.144   6.818   8.049 -0.2566 -0.0654  0.1349
15202SOL    HW147219   0.068   6.774   8.011  0.8947 -1.0170 -1.1530
15202SOL    HW247220   0.171   6.882   7.983  0.2050  0.1048  0.4851
15203SOL     OW47221   3.251   2.144   2.264 -0.3294 -0.1415 -0.2360
15203SOL    HW147222   3.263   2.234   2.294  0.7180 -0.2652 -0.2629
15203SOL    HW247223   3.179   2.111   2.319  0.4864  0.1438  1.0477
15204SOL     OW47224   6.312   8.363   1.878  0.8798  0.3737 -0.1395
15204SOL    HW147225   6.277   8.348   1.966 -1.1444  1.0254 -0.7703
15204SOL    HW247226   6.328   8.275   1.844 -0.0897  0.0328  0.2397
15205SOL     OW47227   1.924   0.475   1.391  0.0220 -0.0091  0.2053
15205SOL    HW147228   1.895   0.422   1.465 -1.0541  1.2907  0.7658
15205SOL    HW247229   1.899   0.565   1.414  1.5732  0.7338 -0.8005
15206SOL     OW47230   6.797   2.985   7.651  0.0880 -0.0959 -0.7298
15206SOL    HW147231   6.882   2.997   7.607  1.4818 -0.0396  1.8237
15206SOL    HW247232   6.803   3.039   7.729 -1.7936 -1.1618  0.2095
15207SOL     OW47233   0.249   3.703   3.386 -0.7067 -0.1777 -0.1059
15207SOL    HW147234   0.270   3.638   3.319  1.0618  0.8148 -0.5840
15207SOL    HW247235   0.202   3.772   3.338 -0.3735  0.0388 -0.1268
15208SOL     OW47236   8.170   6.625   4.641 -0.3388  0.8213 -0.7281
15208SOL    HW147237   8.216   6.706   4.665  0.6668 -0.0389  0.3959
15208SOL    HW247238   8.228   6.582   4.578 -1.3464  1.4223 -2.1090
15209SOL     OW47239   9.194   3.380   1.831  0.0781 -0.2668 -0.2491
15209SOL    HW147240   9.139   3.361   1.907 -1.5016  0.4081 -1.1798
15209SOL    HW247241   9.142   3.352   1.756  1.2711 -0.1681 -1.1439
15210SOL     OW47242   3.571   0.466   5.960 -0.0312 -0.1634  0.6364
15210SOL    HW147243   3.599   0.386   6.006 -1.0424  0.4963  2.4900
15210SOL    HW247244   3.534   0.434   5.877 -0.1302 -1.5962  1.2067
15211SOL     OW47245   9.023   4.138   7.863  0.2099  0.1497 -0.1599
15211SOL    HW147246   9.048   4.057   7.908 -0.9936 -0.7148 -0.9655
15211SOL    HW247247   9.068   4.133   7.779  1.5976  1.2395  0.4807
15212SOL     OW47248   7.067   5.178   5.421  0.3903  0.4022  0.6126
15212SOL    HW147249   6.981   5.141   5.443  0.1468 -0.2417 -1.2410
15212SOL    HW247250   7.049   5.269   5.399  0.2643  0.4067  0.7300
15213SOL     OW47251   8.187   4.374   5.732 -0.4719  0.0394  0.1044
15213SOL    HW147252   8.236   4.455   5.726 -2.8152  1.7431  2.0544
15213SOL    HW247253   8.097   4.401   5.752 -1.5291 -3.0057  0.0582
15214SOL     OW47254   2.320   7.195   6.415 -0.0390 -0.4263 -0.9205
15214SOL    HW147255   2.288   7.271   6.367  0.5722 -0.5699 -1.5702
15214SOL    HW247256   2.278   7.120   6.373 -1.1122 -0.4369  0.0973
15215SOL     OW47257   2.279   6.049   4.860  0.0592  0.1652  0.6602
15215SOL    HW147258   2.326   6.050   4.776 -0.7103 -1.0872  0.1959
15215SOL    HW247259   2.307   5.968   4.902 -1.1016 -0.2373  0.6927
15216SOL     OW47260   5.584   7.806   1.613 -0.0047  0.1564  0.1264
15216SOL    HW147261   5.627   7.768   1.689  0.2064  4.7761  2.6523
15216SOL    HW247262   5.654   7.814   1.547  0.9145  0.0542  1.0681
15217SOL     OW47263   7.321   2.585   8.504 -0.0467 -0.1134  0.0989
15217SOL    HW147264   7.370   2.666   8.513  1.6155 -0.9394 -1.0903
15217SOL    HW247265   7.387   2.518   8.487 -1.5194 -1.3614 -1.0502
15218SOL     OW47266   4.151   0.650   9.791 -0.3906 -0.3414 -0.4976
15218SOL    HW147267   4.059   0.624   9.797 -0.1175 -1.0391  1.0155
15218SOL    HW247268   4.196   0.595   9.854  0.8279  1.0556 -0.0833
15219SOL     OW47269   4.181   1.412   4.170 -0.0914  0.0039  0.0526
15219SOL    HW147270   4.243   1.391   4.241  4.2209  3.7271 -2.1195
15219SOL    HW247271   4.206   1.354   4.099  0.8174  1.2956 -0.7252
15220SOL     OW47272   2.129   3.628   7.808  0.1964  0.3164 -0.0779
15220SOL    HW147273   2.050   3.595   7.764  0.4664  0.5921 -0.7812
15220SOL    HW247274   2.185   3.660   7.737  1.3201 -0.6613  0.3427
15221SOL     OW47275   4.442   8.142   8.200 -0.1978 -0.1600  0.6531
15221SOL    HW147276   4.534   8.127   8.179 -0.1696 -2.7520  2.1375
15221SOL    HW247277   4.436   8.122   8.294 -2.1778  0.4544  0.6967
15222SOL     OW47278   0.358   1.627   6.930  0.3179 -0.2519  0.4054
15222SOL    HW147279   0.421   1.690   6.896 -0.5470  0.6235  0.3971
15222SOL    HW247280   0.315   1.592   6.852  0.8910 -0.9659  0.4014
15223SOL     OW47281   7.426   0.529   7.392 -0.4776 -0.4271  0.0993
15223SOL    HW147282   7.471   0.566   7.315  0.5243 -1.0800  0.3496
15223SOL    HW247283   7.353   0.479   7.355 -0.8937  0.4732 -0.3321
15224SOL     OW47284   8.170   6.760   6.696  0.0368  0.3119  0.3702
15224SOL    HW147285   8.138   6.676   6.728 -0.8964  0.2429 -0.6840
15224SOL    HW247286   8.161   6.819   6.771  0.2493 -0.4126  0.9716
15225SOL     OW47287   3.371   7.320   9.393  0.2921  0.2197 -0.1213
15225SOL    HW147288   3.368   7.230   9.361  1.4846  0.0050  0.3217
15225SOL    HW247289   3.289   7.359   9.362  0.7067 -0.3931 -2.1578
15226SOL     OW47290   2.761   8.085   9.085 -0.1265 -0.0465 -0.0876
15226SOL    HW147291   2.675   8.117   9.113  0.3681  0.5128  0.8326
15226SOL    HW247292   2.813   8.164   9.073  0.4128 -0.4060 -0.1170
15227SOL     OW47293   5.699   9.271   0.654  0.9401 -0.2316  0.4956
15227SOL    HW147294   5.675   9.294   0.565  3.3348  0.4056 -0.0454
15227SOL    HW247295   5.712   9.355   0.698 -2.5800 -0.4128  2.2851
15228SOL     OW47296   4.771   2.401   7.798  0.4487 -0.0888 -0.2469
15228SOL    HW147297   4.741   2.456   7.870  0.6337 -0.2052 -0.0784
15228SOL    HW247298   4.710   2.419   7.726  0.1796 -0.0737 -0.0173
15229SOL     OW47299   9.333   7.658   4.355 -0.3307 -0.1091  0.0487
15229SOL    HW147300   9.329   7.565   4.335  0.0364 -0.1011 -0.0775
15229SOL    HW247301   9.247   7.679   4.392 -0.6621 -0.3342 -0.5886
15230SOL     OW47302   6.088   4.599   6.939  0.2689  0.4201  0.1488
15230SOL    HW147303   6.131   4.679   6.970  0.8549  0.4119 -0.6239
15230SOL    HW247304   6.084   4.543   7.016  0.3697  0.9679  0.5655
15231SOL     OW47305   4.982   3.230   6.458 -0.6883  0.3660  0.1381
15231SOL    HW147306   5.005   3.310   6.506 -2.1488  2.6522 -2.6746
15231SOL    HW247307   4.892   3.210   6.486 -0.1406 -0.7065  1.2435
15232SOL     OW47308   7.483   3.331   6.987  0.5958  0.5403 -0.1015
15232SOL    HW147309   7.526   3.247   7.006  1.0991  0.8286  0.0571
15232SOL    HW247310   7.401   3.327   7.035 -0.8565 -1.1308 -2.4911
15233SOL     OW47311   8.506   2.129   7.991  0.4019 -0.6102 -0.1737
15233SOL    HW147312   8.568   2.056   7.982 -1.1304 -2.0139  0.2089
15233SOL    HW247313   8.444   2.117   7.920  0.9840  1.2689 -1.0662
15234SOL     OW47314   6.216   5.159   3.501  0.1464 -0.1484 -0.2204
15234SOL    HW147315   6.139   5.103   3.491 -1.2018  1.7202 -0.7507
15234SOL    HW247316   6.268   5.142   3.422 -2.5187  2.5869 -2.8288
15235SOL     OW47317   3.480   4.204   0.314 -0.2863  0.1430  0.1782
15235SOL    HW147318   3.552   4.188   0.375 -1.2516 -3.8991  0.5490
15235SOL    HW247319   3.514   4.175   0.230 -1.1458 -0.9707  0.1972
15236SOL     OW47320   7.692   7.086   0.585 -0.3663 -0.5125 -0.4509
15236SOL    HW147321   7.678   7.051   0.497  0.9292  1.2588 -1.4089
15236SOL    HW247322   7.780   7.058   0.608  0.5665  1.6867 -1.0950
15237SOL     OW47323   7.161   9.774   6.361 -0.2670 -0.0431 -0.0974
15237SOL    HW147324   7.150   9.864   6.389  0.7166  0.0880 -0.1282
15237SOL    HW247325   7.095   9.725   6.411  0.0188  0.5077  0.8252
15238SOL     OW47326   3.440   4.641   6.665 -0.2403 -0.0785 -0.1746
15238SOL    HW147327   3.499   4.714   6.648 -0.5225  0.4799  1.0948
15238SOL    HW247328   3.379   4.641   6.592 -0.2288  0.9533 -0.1982
15239SOL     OW47329   0.693   5.537   4.519 -0.2339  0.4453  0.5247
15239SOL    HW147330   0.604   5.571   4.516 -0.0019  0.9505 -1.4727
15239SOL    HW247331   0.689   5.454   4.472  0.3124  0.3795  0.5867
15240SOL     OW47332   1.632   0.220   8.837 -0.3946  0.3465  0.4550
15240SOL    HW147333   1.690   0.295   8.824 -0.4731  0.2578 -0.4420
15240SOL    HW247334   1.581   0.214   8.756  0.4257 -1.3685  0.0206
15241SOL     OW47335   6.853   8.705   5.426  0.3092 -0.4440  0.2853
15241SOL    HW147336   6.876   8.742   5.511 -1.1387 -1.6066  1.2290
15241SOL    HW247337   6.811   8.777   5.379 -0.0168 -0.1257  1.0494
15242SOL     OW47338   0.294   4.376   4.539  0.6295  0.4108  0.2897
15242SOL    HW147339   0.313   4.315   4.467  2.7312  0.5286  0.6712
15242SOL    HW247340   0.241   4.324   4.600  1.0204 -0.5426 -0.1506
15243SOL     OW47341   8.862   2.348   8.671  0.3344 -0.3025  0.0453
15243SOL    HW147342   8.913   2.400   8.609 -0.4065  0.7461  0.2886
15243SOL    HW247343   8.782   2.326   8.622  0.7332 -1.4028 -0.1264
15244SOL     OW47344   2.724   2.275   8.470 -0.0960 -0.1944  0.2691
15244SOL    HW147345   2.704   2.219   8.395  0.2623 -0.8164  0.6299
15244SOL    HW247346   2.805   2.239   8.506 -0.5240 -0.2022  1.2461
15245SOL     OW47347   4.392   5.109   0.229  0.1848  0.0371 -0.3554
15245SOL    HW147348   4.297   5.104   0.237  0.1174  0.1735 -1.0310
15245SOL    HW247349   4.422   5.141   0.314 -0.3782  0.0777 -0.1709
15246SOL     OW47350   2.940   9.239   8.008  0.0029  0.2484  0.3649
15246SOL    HW147351   2.950   9.262   7.915  0.6535  1.2804  0.6767
15246SOL    HW247352   2.845   9.233   8.021 -0.1018 -2.0915 -0.8553
15247SOL     OW47353   1.005   6.618   4.495  0.1475 -0.1662  0.4281
15247SOL    HW147354   1.057   6.693   4.522 -0.7186  0.2816  0.8954
15247SOL    HW247355   1.063   6.542   4.507  0.4789  0.2500  1.5180
15248SOL     OW47356   1.718   9.466   2.452  0.5980 -0.2047 -0.0027
15248SOL    HW147357   1.796   9.499   2.409 -0.6541  0.4514 -1.8712
15248SOL    HW247358   1.726   9.370   2.446  0.4376 -0.1311 -1.7926
15249SOL     OW47359   3.944   5.787   4.125 -0.3327  0.7961 -0.1384
15249SOL    HW147360   3.956   5.693   4.135 -1.5629  0.6917  0.4619
15249SOL    HW247361   3.963   5.804   4.032  1.0174  0.1596 -0.0103
15250SOL     OW47362   9.640   6.852   7.600  0.1177 -0.0917 -0.1458
15250SOL    HW147363   9.611   6.922   7.658 -0.7803  2.8805 -3.8465
15250SOL    HW247364   9.732   6.873   7.582  0.6892 -1.5659  0.8104
15251SOL     OW47365   5.242   6.878   2.374 -0.2587  0.4173  0.7761
15251SOL    HW147366   5.188   6.825   2.315 -0.2237  0.3697  0.7862
15251SOL    HW247367   5.263   6.956   2.324 -2.5250  1.6811  1.6591
15252SOL     OW47368   0.956   0.269   9.596  0.4735  0.2555  0.1875
15252SOL    HW147369   0.938   0.251   9.688 -1.0274  1.4554  0.1562
15252SOL    HW247370   1.042   0.311   9.596 -0.0007  1.2716  1.1804
15253SOL     OW47371   9.410   9.202   0.548  0.2726 -0.0133 -0.0002
15253SOL    HW147372   9.497   9.167   0.529  0.3666 -1.7683  3.1094
15253SOL    HW247373   9.424   9.266   0.618 -0.9906 -1.2921  1.5087
15254SOL     OW47374   9.328   4.636   5.621  0.0638 -0.3314  0.3265
15254SOL    HW147375   9.308   4.681   5.539 -0.7455  0.2342  0.8269
15254SOL    HW247376   9.258   4.661   5.680  0.8731 -0.3934  1.3337
15255SOL     OW47377   7.306   0.235   0.181 -0.0959  0.0985 -0.0604
15255SOL    HW147378   7.261   0.190   0.109 -1.0024 -0.6084  0.9096
15255SOL    HW247379   7.386   0.185   0.194 -1.8093 -2.3934  2.0482
15256SOL     OW47380   4.509   2.606   0.042 -0.5754 -0.4233 -0.4574
15256SOL    HW147381   4.459   2.628  -0.036 -0.5775 -0.1099 -0.3663
15256SOL    HW247382   4.490   2.676   0.105  1.7184  0.9793 -1.1914
15257SOL     OW47383   5.864   9.288   9.436 -0.1718 -0.2228 -0.2327
15257SOL    HW147384   5.939   9.278   9.495 -1.1356 -0.6723  0.9814
15257SOL    HW247385   5.843   9.199   9.409  1.6747  0.1305 -3.2128
15258SOL     OW47386   5.514   3.077   0.686  0.4354 -0.2776  0.0052
15258SOL    HW147387   5.601   3.055   0.655 -0.3656 -2.0729 -1.1283
15258SOL    HW247388   5.525   3.159   0.734  2.4366  0.4177 -1.5466
15259SOL     OW47389   3.246   5.982   8.679 -0.1259 -0.1175 -0.2019
15259SOL    HW147390   3.309   5.957   8.748 -1.5865 -3.1371  0.2167
15259SOL    HW247391   3.288   5.954   8.598 -0.7134 -1.8541  0.0504
15260SOL     OW47392   1.799   1.197   1.593 -0.9413 -0.0720 -0.0852
15260SOL    HW147393   1.850   1.161   1.665  0.3202 -1.2725 -1.4984
15260SOL    HW247394   1.745   1.266   1.633  1.0119  0.5373  1.6675
15261SOL     OW47395   2.595   9.115   8.858 -0.0193 -0.4491  0.4275
15261SOL    HW147396   2.534   9.043   8.839  1.4900 -1.6945  0.1110
15261SOL    HW247397   2.570   9.185   8.798  0.1280 -1.6780 -1.1136
15262SOL     OW47398   5.243   5.383   7.009 -0.0010 -0.5573  0.2827
15262SOL    HW147399   5.213   5.303   6.965  1.2703  0.8935 -3.7210
15262SOL    HW247400   5.163   5.432   7.026 -0.6891 -2.0354  1.5261
15263SOL     OW47401   9.665   4.307   0.763 -0.2167  0.2085 -0.7658
15263SOL    HW147402   9.692   4.353   0.684  1.2986 -1.5210 -1.3166
15263SOL    HW247403   9.589   4.255   0.736  1.5235 -1.9818 -1.7292
15264SOL     OW47404   5.742   2.031   6.648 -0.0099  0.1626 -0.5503
15264SOL    HW147405   5.818   2.011   6.594 -1.7305  0.8744 -3.4678
15264SOL    HW247406   5.766   2.109   6.697  1.8821 -0.9461  0.3785
15265SOL     OW47407   5.772   6.966   4.463 -0.0951  0.1321  0.0305
15265SOL    HW147408   5.858   6.952   4.422 -0.3374 -2.1966  0.2046
15265SOL    HW247409   5.714   6.904   4.418 -1.2461  0.3023  1.2300
15266SOL     OW47410   8.341   1.755   9.800  0.3708  0.1814 -0.4594
15266SOL    HW147411   8.272   1.695   9.828  0.9315 -0.3543 -0.1856
15266SOL    HW247412   8.400   1.759   9.875  0.7893  0.4025 -0.7985
15267SOL     OW47413   8.056   0.906   7.295  0.3279  0.3375 -0.7050
15267SOL    HW147414   7.988   0.974   7.294  0.5709  0.5899 -0.4066
15267SOL    HW247415   8.008   0.824   7.307  0.1615  0.6516  1.0160
15268SOL     OW47416   4.051   4.529   8.849  0.3773  0.3189 -0.4883
15268SOL    HW147417   4.114   4.554   8.781  2.6911  2.0169  2.0666
15268SOL    HW247418   3.998   4.608   8.862  0.1644  0.1193 -0.1198
15269SOL     OW47419   0.275   0.492   2.481 -0.5262 -0.1639 -0.3857
15269SOL    HW147420   0.314   0.553   2.544 -0.8995  0.9002 -1.1497
15269SOL    HW247421   0.309   0.406   2.506 -2.8604 -0.2925  3.1073
15270SOL     OW47422   8.707   9.726   1.743 -0.5248 -0.2041 -0.6172
15270SOL    HW147423   8.615   9.741   1.765 -0.8166 -0.4244 -1.6367
15270SOL    HW247424   8.741   9.814   1.724  0.1973  0.2268  2.2922
15271SOL     OW47425   8.947   6.975   7.650 -0.0467 -0.1079  0.0646
15271SOL    HW147426   9.020   7.036   7.646  0.5050 -0.7670 -0.0091
15271SOL    HW247427   8.949   6.940   7.739  0.1787 -0.6700 -0.1555
15272SOL     OW47428   9.329   4.138   4.358 -0.8921 -0.0953 -0.2308
15272SOL    HW147429   9.383   4.109   4.284 -0.3621 -1.8276  0.7672
15272SOL    HW247430   9.266   4.067   4.371  0.6714 -1.1442  2.5397
15273SOL     OW47431   7.382   0.009   5.274 -0.1638  0.0751 -0.3980
15273SOL    HW147432   7.445   0.064   5.227  2.0585 -1.7230  0.3066
15273SOL    HW247433   7.345  -0.049   5.207  0.9607 -0.6495 -0.4163
15274SOL     OW47434   1.293   2.060   6.933 -0.4849 -0.2595 -0.1994
15274SOL    HW147435   1.198   2.066   6.925 -0.3348  1.6623 -1.1654
15274SOL    HW247436   1.324   2.036   6.846 -0.0391  0.1979 -0.1765
15275SOL     OW47437   3.650   5.832   4.506 -0.0895  0.2028  0.2305
15275SOL    HW147438   3.670   5.741   4.528  0.4863  0.4616  0.8245
15275SOL    HW247439   3.670   5.839   4.413 -1.0381 -0.5118 -0.0355
15276SOL     OW47440   8.168   1.702   0.754 -0.3248  0.2667 -0.3553
15276SOL    HW147441   8.129   1.783   0.722  0.1032  0.9370  0.7705
15276SOL    HW247442   8.099   1.636   0.744 -0.7856  0.8331 -0.9812
15277SOL     OW47443   7.034   2.838   1.659 -0.2866 -0.0631 -0.6732
15277SOL    HW147444   6.946   2.820   1.691 -0.3352  0.1246 -0.6972
15277SOL    HW247445   7.060   2.759   1.612  0.1878 -0.7506  0.6932
15278SOL     OW47446   4.681   2.612   6.142 -0.0945 -0.0018  0.0365
15278SOL    HW147447   4.674   2.701   6.109 -0.7641 -0.7891 -2.0891
15278SOL    HW247448   4.600   2.569   6.115  0.3704 -1.3822  0.6867
15279SOL     OW47449   7.271   0.668   7.632  0.1388 -0.0517  0.3041
15279SOL    HW147450   7.340   0.646   7.569  0.9156 -0.3399  1.2430
15279SOL    HW247451   7.200   0.607   7.610 -0.3961  1.1408 -1.5465
15280SOL     OW47452   9.283   5.952   3.598  0.0766 -1.0224  0.3418
15280SOL    HW147453   9.271   6.007   3.521 -1.9894 -2.3920 -0.4073
15280SOL    HW247454   9.195   5.921   3.619  1.1019 -3.8411  0.8572
15281SOL     OW47455   1.948   7.736   6.968 -0.1205  0.2719 -0.1300
15281SOL    HW147456   1.945   7.825   6.933 -0.5483  0.7342  1.0450
15281SOL    HW247457   2.033   7.730   7.012  0.3318 -0.2441 -1.0376
15282SOL     OW47458   2.634   5.938   4.829 -0.5557  0.0529  0.0404
15282SOL    HW147459   2.638   6.000   4.902 -0.5124 -0.3388  0.3686
15282SOL    HW247460   2.724   5.933   4.796 -0.4425 -0.2934  0.3967
15283SOL     OW47461   7.293   4.648   1.133  0.1470 -0.0150 -0.3241
15283SOL    HW147462   7.225   4.641   1.066 -0.5244  2.3426  0.0269
15283SOL    HW247463   7.350   4.572   1.117 -1.6097 -1.1301 -1.6839
15284SOL     OW47464   1.062   0.902   5.527  0.1137  0.0738 -0.6233
15284SOL    HW147465   1.150   0.927   5.553  0.4993 -0.1348 -1.7003
15284SOL    HW247466   1.006   0.974   5.559  0.7043  0.3707 -0.2440
15285SOL     OW47467   0.661   7.984   7.872  0.4378 -0.3652  0.3186
15285SOL    HW147468   0.597   8.000   7.803  0.8278 -2.3122 -0.5536
15285SOL    HW247469   0.609   7.948   7.944  0.4085 -0.8943  0.0309
15286SOL     OW47470   8.771   3.296   0.751  0.0058  0.8688 -0.7887
15286SOL    HW147471   8.840   3.326   0.809  0.1700 -1.7685  0.5344
15286SOL    HW247472   8.691   3.302   0.804 -0.0349 -0.3436 -0.6672
15287SOL     OW47473   1.267   8.756   1.315  0.2846  0.1869  0.0905
15287SOL    HW147474   1.223   8.831   1.356 -3.1007 -0.8170 -1.3549
15287SOL    HW247475   1.283   8.695   1.387 -0.6105  0.6467  0.6983
15288SOL     OW47476   7.679   8.208   8.939 -0.0483 -0.2593 -0.1780
15288SOL    HW147477   7.659   8.201   9.032 -1.1159 -0.1040 -0.3839
15288SOL    HW247478   7.775   8.216   8.935 -0.0776  0.8723  0.9579
15289SOL     OW47479   5.614   5.175   0.883  0.2559  0.4944  0.3493
15289SOL    HW147480   5.590   5.267   0.874  1.3797  0.7534 -0.1260
15289SOL    HW247481   5.642   5.148   0.796  1.8944  0.2839  0.9118
15290SOL     OW47482   1.232   2.164   4.984 -0.4064 -0.2011 -0.2082
15290SOL    HW147483   1.149   2.133   5.020 -0.8311  0.4417 -0.6107
15290SOL    HW247484   1.214   2.255   4.958  0.0975 -0.4037 -1.3239
15291SOL     OW47485   8.177   2.313   2.161 -0.2733  0.1941  0.1232
15291SOL    HW147486   8.188   2.265   2.243  1.6414  1.1054  0.4656
15291SOL    HW247487   8.185   2.405   2.186  0.5243  0.4855 -1.0947
15292SOL     OW47488   6.621   6.898   2.847  0.0873 -0.0825 -1.1240
15292SOL    HW147489   6.536   6.855   2.847  0.5951 -1.1056 -1.3065
15292SOL    HW247490   6.613   6.967   2.913 -1.8666  1.8635 -3.2270
15293SOL     OW47491   6.571   6.560   1.689 -0.2372 -0.1472 -0.3620
15293SOL    HW147492   6.630   6.600   1.753 -2.0864  1.7547  0.2536
15293SOL    HW247493   6.610   6.475   1.671  1.8245  0.3851  1.1949
15294SOL     OW47494   2.918   7.842   5.483 -0.1917 -0.1366 -0.8105
15294SOL    HW147495   2.971   7.919   5.464  1.3781 -0.0240  3.0395
15294SOL    HW247496   2.856   7.872   5.550 -1.8031 -1.4842 -1.6233
15295SOL     OW47497   6.628   9.345   8.857  0.0771 -0.0037 -0.1473
15295SOL    HW147498   6.580   9.353   8.775 -1.5655 -0.2662  0.7508
15295SOL    HW247499   6.720   9.346   8.831 -0.3548  1.6881 -1.8387
15296SOL     OW47500   6.008   8.825   6.818 -0.0353 -0.2305  0.0356
15296SOL    HW147501   5.954   8.828   6.897 -0.6521 -2.5489 -0.2309
15296SOL    HW247502   6.079   8.764   6.839  1.7676  1.6559 -0.1250
15297SOL     OW47503   6.722   5.073   8.113 -0.4817 -0.3046  0.4560
15297SOL    HW147504   6.756   5.147   8.164  0.4311 -0.1695 -0.3173
15297SOL    HW247505   6.649   5.110   8.063 -0.3308 -0.0384  0.4284
15298SOL     OW47506   7.902   7.648   9.610 -0.2683  0.1138 -0.2075
15298SOL    HW147507   7.946   7.684   9.533  1.3164  0.4141  0.7940
15298SOL    HW247508   7.879   7.558   9.584 -0.8204  0.5787 -1.4097
15299SOL     OW47509   8.796   3.327   3.366 -0.5395 -0.0366  0.0547
15299SOL    HW147510   8.808   3.268   3.441 -1.3647 -0.9329 -0.4908
15299SOL    HW247511   8.811   3.271   3.290  0.1153  0.8218 -0.4730
15300SOL     OW47512   7.247   7.437   4.873  0.2486  0.4439 -0.1444
15300SOL    HW147513   7.292   7.359   4.839  0.2465  0.4417 -0.1423
15300SOL    HW247514   7.156   7.409   4.884  0.2746  0.4079 -0.0183
15301SOL     OW47515   7.963   2.166   3.212 -0.7967 -0.3154  0.5126
15301SOL    HW147516   8.007   2.088   3.177 -0.7085 -0.8656  1.8083
15301SOL    HW247517   7.966   2.155   3.307 -1.7874  0.7193  0.6878
15302SOL     OW47518   7.680   7.826   5.372 -0.0060 -0.2419 -0.2286
15302SOL    HW147519   7.610   7.840   5.436 -0.3635  1.1796 -0.8909
15302SOL    HW247520   7.636   7.788   5.296  0.2551 -1.0409  0.0165
15303SOL     OW47521   7.151   6.055   3.981 -0.4627 -0.1146 -0.8047
15303SOL    HW147522   7.171   5.965   4.007 -0.1423  0.2142  0.0983
15303SOL    HW247523   7.055   6.059   3.984 -0.5057 -0.5449 -1.2930
15304SOL     OW47524   0.426   0.600   6.847 -0.0859  0.3251 -0.2098
15304SOL    HW147525   0.371   0.638   6.778  0.4700  0.4004 -0.6203
15304SOL    HW247526   0.506   0.574   6.802 -0.0579 -0.4168  0.2558
15305SOL     OW47527   4.342   0.375   3.481 -0.1697  0.1311  0.9928
15305SOL    HW147528   4.359   0.373   3.575  1.1334 -0.9860  0.7805
15305SOL    HW247529   4.426   0.351   3.442 -0.7054  0.5207 -0.4582
15306SOL     OW47530   9.808   7.754   4.761 -0.1209  0.1525  0.3760
15306SOL    HW147531   9.858   7.673   4.773 -0.2397  0.0412  0.1169
15306SOL    HW247532   9.871   7.817   4.727  0.4209  0.7023  2.2713
15307SOL     OW47533   8.569   6.540   0.366 -0.5285  0.3995  0.3153
15307SOL    HW147534   8.512   6.618   0.364 -0.1241  0.6871 -0.2917
15307SOL    HW247535   8.646   6.565   0.315 -0.8304 -0.7463 -0.7451
15308SOL     OW47536   1.235   6.332   0.191 -0.4309  0.5818 -0.2938
15308SOL    HW147537   1.154   6.300   0.231 -1.5595  2.6475 -0.8269
15308SOL    HW247538   1.228   6.308   0.099 -0.4928  0.8761 -0.3655
15309SOL     OW47539   8.369   9.136   1.543 -0.3913  0.1783  0.0333
15309SOL    HW147540   8.282   9.155   1.510 -0.4052  0.9656  0.4927
15309SOL    HW247541   8.355   9.077   1.617 -0.4166 -0.9290 -0.8409
15310SOL     OW47542   5.333   3.824   7.362 -0.0318  0.4501  0.3299
15310SOL    HW147543   5.249   3.853   7.397 -0.2199  0.5640 -0.2069
15310SOL    HW247544   5.375   3.778   7.435 -0.8852 -0.2707  0.3867
15311SOL     OW47545   1.661   5.503   1.183 -0.7731 -0.5979  0.0723
15311SOL    HW147546   1.667   5.597   1.168  1.1551 -0.8352 -1.0422
15311SOL    HW247547   1.619   5.495   1.268 -1.4387  1.2443 -0.0330
15312SOL     OW47548   7.085   5.570   4.523  0.2372  0.4160  0.2929
15312SOL    HW147549   7.085   5.606   4.435  1.1624 -1.3464 -0.4856
15312SOL    HW247550   7.121   5.639   4.578  1.2874  0.9423 -1.0068
15313SOL     OW47551   9.731   7.927   9.316  0.0253  0.2350 -0.4667
15313SOL    HW147552   9.690   7.921   9.402 -0.2655  1.7168 -0.4683
15313SOL    HW247553   9.750   8.020   9.305  4.9360 -0.4145  0.1904
15314SOL     OW47554   7.280   1.227   7.958 -0.7312  0.4989  0.5570
15314SOL    HW147555   7.359   1.244   7.907 -0.2025 -1.9326  0.4691
15314SOL    HW247556   7.219   1.295   7.930  1.1124  2.1374  0.2521
15315SOL     OW47557   6.781   5.012   4.826 -0.1926  0.2057 -0.1002
15315SOL    HW147558   6.833   4.997   4.905 -1.7903 -1.3815  0.7281
15315SOL    HW247559   6.777   5.107   4.817 -1.3805  0.5054  2.7373
15316SOL     OW47560   2.812   5.031   6.005  0.7788  0.2559 -0.2396
15316SOL    HW147561   2.813   5.000   6.096  0.3882 -2.4556 -1.0720
15316SOL    HW247562   2.898   5.071   5.992  1.4047 -0.6760  0.8976
15317SOL     OW47563   2.423   0.100   2.142  0.2732  0.4280 -0.0398
15317SOL    HW147564   2.401   0.140   2.226 -0.1467  1.3830 -0.5933
15317SOL    HW247565   2.345   0.050   2.117  0.1584  0.6759 -0.1746
15318SOL     OW47566   5.797   7.417   3.288  0.1777 -0.2901 -0.4989
15318SOL    HW147567   5.833   7.503   3.266 -0.5003  0.0545 -0.2952
15318SOL    HW247568   5.722   7.407   3.229 -1.4079  0.4643  1.3069
15319SOL     OW47569   0.621   7.060   1.762 -0.2428  0.2880 -0.0955
15319SOL    HW147570   0.683   7.081   1.832  0.1474 -1.6842  0.1888
15319SOL    HW247571   0.538   7.045   1.807 -0.0524 -0.7205 -0.0581
15320SOL     OW47572   0.520   8.296   6.795  0.1074  0.4691  0.4111
15320SOL    HW147573   0.502   8.216   6.745 -0.2855 -0.8332  2.5103
15320SOL    HW247574   0.434   8.336   6.806  0.3052  1.2292 -0.6429
15321SOL     OW47575   7.917   3.568   2.610  0.4930  0.4980 -0.9620
15321SOL    HW147576   7.939   3.586   2.519 -0.6087  0.3577 -1.2773
15321SOL    HW247577   7.831   3.609   2.622  0.1550 -0.3794 -0.2945
15322SOL     OW47578   4.756   8.624   7.658  0.3775  0.6541 -0.0797
15322SOL    HW147579   4.825   8.687   7.678  0.0965  0.9069  0.1115
15322SOL    HW247580   4.755   8.564   7.732  0.5237  0.5330 -0.1760
15323SOL     OW47581   9.608   5.255   8.755 -0.2221  0.7244  0.5524
15323SOL    HW147582   9.540   5.216   8.700  1.5020 -1.1426 -0.3728
15323SOL    HW247583   9.583   5.231   8.845 -0.8270  0.1594  0.2407
15324SOL     OW47584   6.076   4.838   1.858 -0.1941  0.3423  0.1196
15324SOL    HW147585   6.130   4.769   1.897 -0.6318 -0.3991 -0.5760
15324SOL    HW247586   5.998   4.841   1.914 -0.2267  0.1996  0.0820
15325SOL     OW47587   8.463   1.261   0.772  0.6470  0.0021  0.3464
15325SOL    HW147588   8.441   1.354   0.781  0.9914  0.1052  0.1708
15325SOL    HW247589   8.406   1.216   0.834  2.0632  0.5608  2.1753
15326SOL     OW47590   2.767   6.046   0.856 -0.6490 -0.1947 -0.3135
15326SOL    HW147591   2.825   5.975   0.884 -1.9647 -1.8362 -1.5157
15326SOL    HW247592   2.811   6.126   0.885 -0.0867 -1.5307  2.9529
15327SOL     OW47593   0.196   6.238   4.912 -0.6151  0.2028  0.6081
15327SOL    HW147594   0.232   6.151   4.931  0.7479  0.1240 -1.8860
15327SOL    HW247595   0.272   6.289   4.881 -1.7779  1.5886 -0.0924
15328SOL     OW47596   9.428   0.853   0.215 -0.5441 -0.0460 -0.4565
15328SOL    HW147597   9.445   0.773   0.165 -0.1757  0.2628 -0.8343
15328SOL    HW247598   9.333   0.857   0.223 -0.5875 -0.2756 -0.8508
15329SOL     OW47599   5.332   4.395   2.836  0.2822  0.0491  0.2071
15329SOL    HW147600   5.271   4.441   2.893  0.0408  0.1831 -0.1611
15329SOL    HW247601   5.370   4.463   2.780  0.6571 -0.0544  0.3306
15330SOL     OW47602   9.018   2.737   7.765  0.0046 -0.3050 -0.2541
15330SOL    HW147603   9.027   2.642   7.764  2.2437 -0.1629 -1.5718
15330SOL    HW247604   9.006   2.761   7.673 -0.6558  0.6853  0.0694
15331SOL     OW47605   3.049   5.153   5.966  0.2034  0.4780  0.3973
15331SOL    HW147606   3.098   5.220   6.013 -0.9042  1.6680 -0.0713
15331SOL    HW247607   3.110   5.121   5.899  1.2246 -0.0449  1.5505
15332SOL     OW47608   8.776   7.086   4.155 -0.0538  0.7179  0.2597
15332SOL    HW147609   8.750   7.041   4.074  1.3778  0.3756 -0.0422
15332SOL    HW247610   8.775   7.018   4.222 -1.2092  0.9955  0.5483
15333SOL     OW47611   6.962   3.661   7.714 -0.8102 -0.3708  0.1461
15333SOL    HW147612   7.021   3.648   7.640 -1.9057  1.5137 -1.1420
15333SOL    HW247613   7.020   3.679   7.789  0.2868 -1.4365 -0.4130
15334SOL     OW47614   3.609   9.573   9.597 -0.2995 -0.5390  0.0411
15334SOL    HW147615   3.702   9.593   9.603 -0.9301  2.4720  1.7601
15334SOL    HW247616   3.585   9.594   9.507  0.6240 -1.3736 -0.4264
15335SOL     OW47617   4.100   4.485   5.605  0.3870 -0.1365 -0.0624
15335SOL    HW147618   4.050   4.455   5.529 -0.2185  1.6883 -0.4469
15335SOL    HW247619   4.065   4.573   5.622  2.5473  0.6692  0.4896
15336SOL     OW47620   3.968   8.646   7.747  0.2074 -0.0754 -0.2272
15336SOL    HW147621   3.925   8.561   7.744  0.6287 -0.2742 -0.8040
15336SOL    HW247622   4.058   8.627   7.774 -0.1302  0.3718  1.3005
15337SOL     OW47623   4.805   2.144   1.350 -0.1648  0.0339  0.3340
15337SOL    HW147624   4.711   2.151   1.364 -0.1930  0.1681  0.0866
15337SOL    HW247625   4.819   2.183   1.264 -0.1260 -1.5786 -0.4320
15338SOL     OW47626   1.460   3.382   1.638  0.2124  1.0648  0.1557
15338SOL    HW147627   1.496   3.319   1.576 -0.4998  0.9213 -0.1149
15338SOL    HW247628   1.476   3.467   1.597  1.2414  1.0789  0.5566
15339SOL     OW47629   7.897   1.398   1.882  0.0989  0.0013 -0.7362
15339SOL    HW147630   7.965   1.331   1.871 -0.1802 -0.5277  0.6634
15339SOL    HW247631   7.885   1.434   1.794  1.6584 -0.4082 -1.1497
15340SOL     OW47632   9.396   6.393   9.199  0.3715  0.4178  0.0347
15340SOL    HW147633   9.388   6.316   9.254 -0.4685  1.0108  0.7729
15340SOL    HW247634   9.370   6.466   9.255  2.0585  1.3820 -0.3489
15341SOL     OW47635   4.079   8.118   3.807 -0.0886 -0.3824  0.4709
15341SOL    HW147636   4.004   8.073   3.766 -0.0386 -0.6860  0.7139
15341SOL    HW247637   4.059   8.118   3.900  0.0140 -0.0855  0.4943
15342SOL     OW47638   5.930   0.676   2.708 -0.3208  0.2026 -0.1135
15342SOL    HW147639   5.936   0.582   2.694 -1.3905  0.1859 -0.5206
15342SOL    HW247640   6.021   0.704   2.720  0.2532 -0.5514 -2.1616
15343SOL     OW47641   0.674   2.808   4.534 -0.5311 -0.1647  0.2336
15343SOL    HW147642   0.702   2.873   4.598 -0.0826 -1.5962  1.5465
15343SOL    HW247643   0.578   2.806   4.541 -0.5622  0.4968  0.0245
15344SOL     OW47644   4.408   2.292   2.532 -0.0230  0.0070  0.5741
15344SOL    HW147645   4.422   2.296   2.627 -0.8145 -0.2775  0.7086
15344SOL    HW247646   4.493   2.263   2.497  0.7532  1.6242  1.0392
15345SOL     OW47647   9.644   9.364   5.780 -0.3245 -0.1674  0.4803
15345SOL    HW147648   9.674   9.443   5.824 -1.5085  0.7588 -0.3037
15345SOL    HW247649   9.549   9.367   5.788 -0.3643 -2.1307  1.4303
15346SOL     OW47650   8.246   0.108   1.411  0.2527 -0.8340  0.4810
15346SOL    HW147651   8.295   0.189   1.401 -0.9498 -0.0637  0.6695
15346SOL    HW247652   8.311   0.039   1.396  1.6256  0.1226  1.7463
15347SOL     OW47653   6.514   6.330   5.937 -0.1226  0.1965  0.0253
15347SOL    HW147654   6.475   6.336   5.850 -0.7348 -2.4401  0.0177
15347SOL    HW247655   6.459   6.385   5.992 -0.1398  1.3517 -1.1144
15348SOL     OW47656   7.477   7.247   1.876  0.5027  0.4447 -0.1144
15348SOL    HW147657   7.519   7.164   1.853  0.7022 -0.2462  2.4059
15348SOL    HW247658   7.549   7.303   1.906  0.1534  0.9097 -0.1336
15349SOL     OW47659   5.651   2.300   3.456 -0.0848  0.0939 -0.3417
15349SOL    HW147660   5.684   2.321   3.543  1.2141  1.6240 -1.1508
15349SOL    HW247661   5.566   2.345   3.451 -0.2858 -0.2112  0.2048
15350SOL     OW47662   0.194   8.459   7.845  0.3976 -0.3289 -0.3675
15350SOL    HW147663   0.258   8.391   7.823  0.2042 -1.1572  1.4543
15350SOL    HW247664   0.246   8.539   7.851  0.7546 -0.4186 -1.7589
15351SOL     OW47665   6.434   3.542   2.923  0.7465 -0.2605 -0.1284
15351SOL    HW147666   6.400   3.578   3.005 -1.0650 -1.1543 -0.4265
15351SOL    HW247667   6.522   3.512   2.945 -0.4392 -2.5119  2.1770
15352SOL     OW47668   0.473   6.955   4.994 -0.0436 -0.3898  0.3932
15352SOL    HW147669   0.486   7.047   5.019 -1.5477  0.0375 -0.2621
15352SOL    HW247670   0.484   6.906   5.075 -0.0068  0.4621  0.9153
15353SOL     OW47671   7.936   1.174   7.404 -0.5679  0.4655  0.2534
15353SOL    HW147672   7.972   1.182   7.316 -1.3233  0.1796 -0.0845
15353SOL    HW247673   7.886   1.254   7.417 -0.4704  0.5000  0.4204
15354SOL     OW47674   2.254   9.693   4.703  0.4543 -0.2906  0.6417
15354SOL    HW147675   2.322   9.629   4.684 -0.4887 -1.5759  1.4495
15354SOL    HW247676   2.173   9.643   4.705 -0.7585  1.4090 -1.5678
15355SOL     OW47677   5.105   2.729   4.534  0.1375 -0.0617  0.1809
15355SOL    HW147678   5.112   2.813   4.489 -0.1788 -0.2471 -0.2269
15355SOL    HW247679   5.151   2.742   4.617  1.5631  0.0010 -0.5930
15356SOL     OW47680   0.066   5.718   1.330  0.0653  0.1399  0.0887
15356SOL    HW147681   0.127   5.647   1.351  0.8243  1.0632  1.1558
15356SOL    HW247682  -0.017   5.690   1.369  0.6426  0.3207  1.5303
15357SOL     OW47683   6.205   8.798   3.174 -0.5796 -0.1453  0.1863
15357SOL    HW147684   6.147   8.797   3.097 -0.2464  0.3141 -0.0757
15357SOL    HW247685   6.246   8.712   3.175 -2.3259 -1.0436  1.2014
15358SOL     OW47686   5.568   2.984   2.826  0.1813 -0.2685  0.4409
15358SOL    HW147687   5.542   2.935   2.904  0.5830  0.1981  0.8743
15358SOL    HW247688   5.606   2.918   2.768 -0.0263 -0.6004  0.6774
15359SOL     OW47689   3.921   3.394   8.751  0.0715  0.2531 -0.0335
15359SOL    HW147690   3.889   3.347   8.673  0.5429  0.4695 -0.3651
15359SOL    HW247691   3.863   3.470   8.758 -1.4515 -0.9419  1.1901
15360SOL     OW47692   7.060   5.718   9.102  0.2023  0.1033 -0.7149
15360SOL    HW147693   7.009   5.772   9.162  0.8148  1.5009 -1.3942
15360SOL    HW247694   7.116   5.781   9.055 -0.7028 -0.8231 -3.1990
15361SOL     OW47695   1.856   8.458   9.496 -0.3927 -0.2336  0.7464
15361SOL    HW147696   1.798   8.468   9.421 -0.1723  2.0939  0.7863
15361SOL    HW247697   1.800   8.423   9.565 -1.8653  1.9405  0.7844
15362SOL     OW47698   0.947   8.801   4.480  0.0067  0.9598 -0.0229
15362SOL    HW147699   0.873   8.746   4.455  1.2229 -0.8433  0.0787
15362SOL    HW247700   0.961   8.859   4.405  1.0882 -1.6102 -1.9892
15363SOL     OW47701   5.612   6.415   1.546 -0.4468 -0.3368 -0.4968
15363SOL    HW147702   5.632   6.506   1.567 -0.5359 -0.3700 -0.2662
15363SOL    HW247703   5.682   6.388   1.487  0.7621 -0.7671  1.0830
15364SOL     OW47704   4.134   4.713   4.677 -0.0791 -0.3742 -0.6219
15364SOL    HW147705   4.122   4.716   4.582 -1.0944 -2.1917 -0.5989
15364SOL    HW247706   4.048   4.732   4.713  0.1472 -0.3763 -0.0639
15365SOL     OW47707   5.393   1.357   7.024 -0.3147  0.5475  1.0475
15365SOL    HW147708   5.382   1.264   7.008 -0.6790  0.4206  1.9783
15365SOL    HW247709   5.480   1.378   6.990 -0.2844 -0.0918  0.7202
15366SOL     OW47710   3.341   0.525   8.076 -0.0728  0.1138  0.1119
15366SOL    HW147711   3.373   0.519   8.166 -0.6272  1.5943  0.4455
15366SOL    HW247712   3.380   0.606   8.043  0.3866 -0.5833 -1.1058
15367SOL     OW47713   6.341   9.162   0.834  0.2414  0.2457  0.5937
15367SOL    HW147714   6.272   9.131   0.775 -0.9316  1.9365  0.9850
15367SOL    HW247715   6.415   9.102   0.819 -0.6463 -0.4685 -1.2464
15368SOL     OW47716   9.620   5.872   8.897 -0.3089  0.5654 -0.6548
15368SOL    HW147717   9.592   5.854   8.808 -0.7559 -1.7105 -0.1348
15368SOL    HW247718   9.698   5.817   8.909  1.2336  2.6944 -0.3706
15369SOL     OW47719   4.051   5.881   5.472  0.1265  0.4504 -0.4353
15369SOL    HW147720   4.044   5.976   5.458 -0.1620  0.6011  0.6251
15369SOL    HW247721   4.129   5.871   5.526  0.0081  0.1131 -0.3286
15370SOL     OW47722   8.317   2.344   0.359 -0.7055 -0.2090  0.5854
15370SOL    HW147723   8.386   2.299   0.310 -1.5660 -0.6539 -0.2200
15370SOL    HW247724   8.366   2.402   0.419  0.4222  1.9138 -2.1302
15371SOL     OW47725   6.460   0.863   6.894 -0.5275 -0.2387  0.5828
15371SOL    HW147726   6.378   0.818   6.875 -3.0489  3.1229  2.3797
15371SOL    HW247727   6.472   0.922   6.819 -0.1300 -0.2293  0.6532
15372SOL     OW47728   3.313   5.305   7.533  0.2853 -0.0228  0.2911
15372SOL    HW147729   3.256   5.381   7.521  1.2824  0.5227 -1.2413
15372SOL    HW247730   3.399   5.342   7.554  0.8613 -0.6851 -0.7929
15373SOL     OW47731   1.486   1.741   7.888 -0.3985  0.3152  0.2453
15373SOL    HW147732   1.466   1.686   7.813 -1.0769  1.4171 -0.4168
15373SOL    HW247733   1.478   1.682   7.963 -1.3564 -0.4376 -0.4099
15374SOL     OW47734   1.021   8.312   1.977 -0.0429  0.1771 -0.8021
15374SOL    HW147735   0.930   8.337   1.994  0.0095 -0.8719  1.3369
15374SOL    HW247736   1.014   8.231   1.927 -0.3951 -0.9644  0.9717
15375SOL     OW47737   1.066   2.059   7.935 -0.0358 -0.3248 -0.4018
15375SOL    HW147738   1.082   2.048   8.029 -1.2202  1.1715  0.0093
15375SOL    HW247739   1.041   1.972   7.904  0.3705 -0.8334  0.6628
15376SOL     OW47740   4.758   1.025   1.486 -0.3901  0.1571  0.1324
15376SOL    HW147741   4.739   1.064   1.401  2.3462  0.4014 -0.4651
15376SOL    HW247742   4.777   0.933   1.466 -0.7805 -0.0427  0.6558
15377SOL     OW47743   0.182   9.240   7.985 -0.6302  0.1968 -0.6942
15377SOL    HW147744   0.188   9.270   7.895 -0.9908 -1.1617 -1.2005
15377SOL    HW247745   0.165   9.146   7.978  1.2512 -0.3159  0.7974
15378SOL     OW47746   0.733   1.164   5.655 -0.2436  0.3345  0.2210
15378SOL    HW147747   0.664   1.097   5.656  0.2635 -0.2484 -1.0373
15378SOL    HW247748   0.814   1.114   5.646  0.3613  1.0145  1.6488
15379SOL     OW47749   5.478   7.161   7.960 -0.4870  0.0004  0.4350
15379SOL    HW147750   5.529   7.113   7.895 -0.2095  2.3267 -1.2012
15379SOL    HW247751   5.498   7.119   8.043  1.8939 -0.9076 -0.5304
15380SOL     OW47752   0.657   5.056   7.210  0.8563  0.2000 -0.0964
15380SOL    HW147753   0.711   5.048   7.131 -0.1554  0.7558 -0.8666
15380SOL    HW247754   0.611   5.139   7.200  1.1775  0.5979  1.4049
15381SOL     OW47755   2.431   1.177   6.935  0.0277 -0.0572  0.2606
15381SOL    HW147756   2.442   1.083   6.917 -2.7430 -0.0261 -2.5388
15381SOL    HW247757   2.342   1.184   6.971  0.4949  1.4373  1.1983
15382SOL     OW47758   2.118   8.319   6.280  0.8294  0.4503 -0.7384
15382SOL    HW147759   2.167   8.401   6.284 -0.9289  1.5229  2.5922
15382SOL    HW247760   2.185   8.250   6.284  2.1981  1.8044  0.9493
15383SOL     OW47761   6.127   3.159   1.509 -1.0018 -0.3579 -0.0873
15383SOL    HW147762   6.146   3.078   1.462 -0.5860 -0.7079  0.6588
15383SOL    HW247763   6.166   3.228   1.455 -1.8964 -0.5703 -1.0468
15384SOL     OW47764   6.264   8.399   9.092  0.3190 -0.4460 -0.5348
15384SOL    HW147765   6.314   8.446   9.158 -1.2650 -0.2138  0.5724
15384SOL    HW247766   6.238   8.317   9.135 -0.3091 -0.5156 -1.0250
15385SOL     OW47767   5.572   3.620   5.581  0.2659 -0.4219  0.1279
15385SOL    HW147768   5.535   3.601   5.667 -1.6227  3.5006  0.4312
15385SOL    HW247769   5.513   3.575   5.520  0.4991 -1.6995  0.8147
15386SOL     OW47770   4.751   7.357   1.058 -0.6312 -0.1746  0.4411
15386SOL    HW147771   4.703   7.390   0.982 -1.5249 -0.8016  0.7146
15386SOL    HW247772   4.835   7.329   1.023 -0.0405  1.8567  0.1047
15387SOL     OW47773   0.630   8.816   8.140  0.2275 -0.6137 -0.2606
15387SOL    HW147774   0.652   8.731   8.101 -0.2877  0.0441 -2.0692
15387SOL    HW247775   0.676   8.880   8.086  0.2005  0.3040  0.7711
15388SOL     OW47776   6.120   2.397   0.761  0.1907  0.4346 -0.5012
15388SOL    HW147777   6.132   2.362   0.849  0.0829 -1.1196 -1.0727
15388SOL    HW247778   6.136   2.322   0.703 -1.1640  1.0542 -1.7401
15389SOL     OW47779   5.089   6.281   2.699 -0.3383 -0.1489  0.3077
15389SOL    HW147780   5.035   6.303   2.623 -0.1344 -0.1895  0.1498
15389SOL    HW247781   5.128   6.364   2.726  0.4567 -0.3125 -0.3089
15390SOL     OW47782   5.119   6.183   8.620 -0.0877 -0.6986  0.3017
15390SOL    HW147783   5.074   6.102   8.601 -0.5161  0.3400 -4.0329
15390SOL    HW247784   5.196   6.183   8.562  0.5970  1.4250  1.0892
15391SOL     OW47785   2.428   2.880   8.809 -0.2325 -0.3621 -0.2407
15391SOL    HW147786   2.483   2.820   8.759  0.3032 -0.4036  0.3762
15391SOL    HW247787   2.424   2.841   8.897 -0.4646  0.1303 -0.0305
15392SOL     OW47788   8.031   6.084   3.242  0.2439  0.0329 -0.3257
15392SOL    HW147789   7.966   6.015   3.226  0.5666  0.0610 -1.9524
15392SOL    HW247790   8.107   6.057   3.192  0.9363  0.8021  0.2908
15393SOL     OW47791   5.021   8.388   5.171  0.0282 -0.1333  0.2078
15393SOL    HW147792   5.023   8.455   5.103 -0.8298 -2.5428 -2.3534
15393SOL    HW247793   5.106   8.344   5.164 -0.5153 -1.1486 -0.1144
15394SOL     OW47794   0.103   0.263   0.282  0.0652  0.6023  0.9829
15394SOL    HW147795   0.078   0.301   0.366  0.3655  1.0539  0.8736
15394SOL    HW247796   0.122   0.339   0.226 -0.2214  0.3073  0.4799
15395SOL     OW47797   3.767   6.320   9.224  0.0933 -0.3422 -0.4881
15395SOL    HW147798   3.683   6.282   9.251  0.9238 -1.4367  0.6796
15395SOL    HW247799   3.783   6.390   9.288 -0.5507  0.8340 -1.5458
15396SOL     OW47800   3.545   6.917   8.866  0.3027  0.8710 -0.3495
15396SOL    HW147801   3.533   6.840   8.922 -0.0251  0.4408 -1.0035
15396SOL    HW247802   3.480   6.980   8.898  0.7419  0.9787  0.3525
15397SOL     OW47803   6.436   6.846   1.270  0.2624  0.4038  0.1130
15397SOL    HW147804   6.471   6.793   1.199 -0.7745 -0.1301 -0.0212
15397SOL    HW247805   6.427   6.786   1.343 -1.5719  0.1689 -0.2436
15398SOL     OW47806   6.248   0.617   5.249  0.6188  0.1963 -0.4824
15398SOL    HW147807   6.239   0.683   5.180  1.3841  0.3734 -0.4157
15398SOL    HW247808   6.158   0.586   5.263  0.6662 -1.6252 -3.2877
15399SOL     OW47809   5.667   3.874   0.572  0.1291 -0.3298 -0.2273
15399SOL    HW147810   5.745   3.822   0.554  0.1267 -0.8870  1.2333
15399SOL    HW247811   5.615   3.867   0.492  0.6800 -1.5901 -0.5111
15400SOL     OW47812   5.202   3.352   5.336  0.0303  0.2091  0.6483
15400SOL    HW147813   5.112   3.367   5.365 -0.4892  1.9969 -1.6387
15400SOL    HW247814   5.202   3.261   5.305 -0.9099  0.1286  0.8545
15401SOL     OW47815   4.871   0.020   8.715  0.2511 -0.1419 -0.5915
15401SOL    HW147816   4.897   0.080   8.644  0.6742 -0.7314 -0.9492
15401SOL    HW247817   4.780  -0.001   8.696  0.1215  0.3387 -0.5028
15402SOL     OW47818   5.670   1.828   7.718 -0.1311 -0.6401 -0.4625
15402SOL    HW147819   5.752   1.808   7.672  1.2307  0.2438  1.4470
15402SOL    HW247820   5.663   1.759   7.784 -1.9048 -1.7231 -1.6957
15403SOL     OW47821   8.452   2.701   7.340 -0.5381 -0.5871 -0.0053
15403SOL    HW147822   8.384   2.766   7.357 -1.7245 -1.4590 -1.2182
15403SOL    HW247823   8.505   2.740   7.270  0.6322  0.3488  1.3386
15404SOL     OW47824   3.799   6.347   5.414 -0.8517 -0.2380  0.5647
15404SOL    HW147825   3.728   6.320   5.356  0.2367 -0.3427 -0.7711
15404SOL    HW247826   3.831   6.429   5.376  2.1719 -2.0331 -1.2026
15405SOL     OW47827   3.429   2.369   5.082  0.5049  0.2074  0.4861
15405SOL    HW147828   3.483   2.365   5.161 -1.5539 -2.4734  1.9321
15405SOL    HW247829   3.476   2.317   5.018  1.8326  1.7937  0.1089
15406SOL     OW47830   6.207   3.150   9.204 -0.1723 -0.4060 -0.1989
15406SOL    HW147831   6.202   3.191   9.118 -0.0031 -0.6343 -0.3181
15406SOL    HW247832   6.193   3.222   9.265  1.9450  0.1935 -0.3431
15407SOL     OW47833   8.614   0.862   9.240 -0.0711 -0.6309 -0.2273
15407SOL    HW147834   8.580   0.823   9.321  0.1272 -0.1665  0.0857
15407SOL    HW247835   8.702   0.892   9.264  0.5570 -1.7761 -1.0144
15408SOL     OW47836   4.159   5.533   9.667  0.7442 -0.0251  0.1307
15408SOL    HW147837   4.155   5.538   9.571 -0.3139 -1.1244  0.0976
15408SOL    HW247838   4.173   5.624   9.695  1.1393  0.3032 -1.0577
15409SOL     OW47839   5.407   1.271   8.466  0.2971 -0.0483  0.1659
15409SOL    HW147840   5.443   1.332   8.530  1.5102 -1.7613  1.1937
15409SOL    HW247841   5.480   1.250   8.409 -0.6628  1.1170 -1.5858
15410SOL     OW47842   8.961   7.257   2.943  0.4005  0.4081 -0.6022
15410SOL    HW147843   9.044   7.244   2.990 -0.1777  1.4208  0.7678
15410SOL    HW247844   8.987   7.276   2.853  1.5842 -0.8299 -0.5570
15411SOL     OW47845   7.558   5.410   3.356 -0.1891 -0.3080  0.3702
15411SOL    HW147846   7.572   5.370   3.270 -0.4154 -0.0220  0.1988
15411SOL    HW247847   7.481   5.466   3.344  0.4449  0.6131  0.4525
15412SOL     OW47848   6.376   7.722   2.839  0.0149 -0.0230  0.1464
15412SOL    HW147849   6.437   7.683   2.902  0.4238  0.9462  0.3658
15412SOL    HW247850   6.328   7.647   2.803 -1.6031 -0.4818  2.9990
15413SOL     OW47851   8.716   3.853   9.817  0.0174  0.1582  0.0539
15413SOL    HW147852   8.681   3.928   9.769  0.3511  1.0221  1.1189
15413SOL    HW247853   8.707   3.779   9.757 -1.0999  0.8842 -0.6993
15414SOL     OW47854   0.504   4.898   3.725  0.3013  0.1517  0.1115
15414SOL    HW147855   0.557   4.824   3.755 -0.1266 -0.3879 -0.4465
15414SOL    HW247856   0.427   4.898   3.783  0.3140  0.1803  0.1287
15415SOL     OW47857   7.740   6.832   5.391 -0.3080  0.6565  0.0452
15415SOL    HW147858   7.736   6.829   5.296  0.0601 -0.5985  0.0579
15415SOL    HW247859   7.666   6.778   5.420 -0.4972  1.1363  0.4776
15416SOL     OW47860   0.786   2.811   8.061 -0.3172 -0.7897  0.0483
15416SOL    HW147861   0.839   2.785   8.137 -1.0596 -0.4936  0.6907
15416SOL    HW247862   0.741   2.890   8.090  0.5744  0.2400 -1.2585
15417SOL     OW47863   5.481   0.225   8.241  0.4103  0.3787  0.5771
15417SOL    HW147864   5.569   0.191   8.222 -0.2698 -1.2687  0.1629
15417SOL    HW247865   5.469   0.207   8.334  0.0871 -0.4998  0.3787
15418SOL     OW47866   2.644   2.172   8.205  0.3047 -0.0187 -0.3237
15418SOL    HW147867   2.632   2.249   8.150  1.9651 -1.5616 -3.0645
15418SOL    HW247868   2.573   2.113   8.178 -0.1811 -0.0050  0.8366
15419SOL     OW47869   6.272   5.356   2.100 -0.3947 -0.1700  0.0840
15419SOL    HW147870   6.269   5.451   2.096  3.5780  0.2059  2.0454
15419SOL    HW247871   6.227   5.333   2.181 -0.9003  0.0492 -0.1309
15420SOL     OW47872   4.031   1.607   0.199 -0.5235  0.4293 -0.0503
15420SOL    HW147873   4.090   1.677   0.228 -0.7902  0.8592 -0.5315
15420SOL    HW247874   4.087   1.548   0.148 -0.0942 -0.2259  1.1450
15421SOL     OW47875   0.636   6.058   1.379 -0.3393  0.1980 -0.3312
15421SOL    HW147876   0.571   6.104   1.325 -2.8428 -0.5063  1.8731
15421SOL    HW247877   0.601   5.970   1.389  1.0402 -0.2538  0.8619
15422SOL     OW47878   7.642   9.142   1.479  0.2912 -0.0269 -0.2530
15422SOL    HW147879   7.676   9.066   1.432  0.8286  0.2516 -0.3136
15422SOL    HW247880   7.686   9.139   1.564 -0.6855 -0.5387  0.2618
15423SOL     OW47881   4.193   2.511   4.529 -1.1616  0.6073 -0.8123
15423SOL    HW147882   4.259   2.469   4.585 -2.3862 -0.1497  0.1061
15423SOL    HW247883   4.229   2.504   4.441  0.4446  1.1059 -0.2292
15424SOL     OW47884   7.312   5.751   3.079  0.0622  0.0691 -0.1326
15424SOL    HW147885   7.256   5.800   3.019  0.7249 -1.0898 -1.7608
15424SOL    HW247886   7.378   5.815   3.107 -1.0603  0.9876  0.4804
15425SOL     OW47887   6.591   3.883   4.810  0.0368 -0.6285  0.4555
15425SOL    HW147888   6.632   3.969   4.802  2.4062 -1.7435 -0.4454
15425SOL    HW247889   6.516   3.897   4.868 -0.3176  2.2141 -0.5678
15426SOL     OW47890   5.888   5.282   6.312 -0.0760  0.2763 -0.1938
15426SOL    HW147891   5.804   5.240   6.293 -0.2051 -0.5140  1.8225
15426SOL    HW247892   5.865   5.369   6.344 -0.1394  0.0677  0.3376
15427SOL     OW47893   4.228   8.935   1.598  0.2991  0.2906  0.5435
15427SOL    HW147894   4.240   9.024   1.632 -0.4935  0.7991 -0.4447
15427SOL    HW247895   4.284   8.932   1.521 -1.3756  0.7353 -0.7476
15428SOL     OW47896   6.023   1.784   5.477 -0.2033  0.0376 -0.6676
15428SOL    HW147897   6.030   1.692   5.501  1.3367  0.4889  0.7881
15428SOL    HW247898   6.067   1.831   5.548 -0.5065  1.8622 -1.6258
15429SOL     OW47899   0.080   0.397   3.413 -0.9727  0.0491 -0.0671
15429SOL    HW147900   0.073   0.421   3.506  0.4070  0.7664 -0.1163
15429SOL    HW247901   0.115   0.476   3.371 -2.2555 -0.0269 -1.3287
15430SOL     OW47902   4.079   3.819   2.764  0.4965  0.4399  0.1340
15430SOL    HW147903   4.112   3.840   2.676  0.3537 -0.7461 -0.2268
15430SOL    HW247904   4.083   3.723   2.769  0.3509  0.4786  1.3704
15431SOL     OW47905   0.285   9.306   4.614  0.0620 -0.1758  0.3123
15431SOL    HW147906   0.242   9.230   4.575 -0.4581 -0.1879  0.8962
15431SOL    HW247907   0.311   9.277   4.702  0.5633  0.0794  0.2555
15432SOL     OW47908   6.997   3.757   2.658 -0.0955  0.6328  0.3284
15432SOL    HW147909   6.990   3.851   2.675 -0.4159  0.7499 -0.4291
15432SOL    HW247910   7.013   3.751   2.564  0.4488 -0.0504  0.4619
15433SOL     OW47911   6.120   4.484   7.197  0.0855  0.2794 -0.1992
15433SOL    HW147912   6.120   4.393   7.229 -0.0559 -0.1053 -1.2611
15433SOL    HW247913   6.081   4.534   7.269 -2.1015 -0.8560 -0.5163
15434SOL     OW47914   8.561   0.433   4.137  0.2918 -0.3086 -0.0288
15434SOL    HW147915   8.634   0.476   4.182 -0.6995  2.0094 -0.4737
15434SOL    HW247916   8.507   0.398   4.208  0.9855 -0.5814  0.3761
15435SOL     OW47917   6.145   3.036   5.143  0.5978 -0.3231 -0.6470
15435SOL    HW147918   6.053   3.059   5.126  0.9344  2.4592  0.6734
15435SOL    HW247919   6.140   2.976   5.218 -0.1837 -1.2371 -1.4120
15436SOL     OW47920   5.649   1.221   5.372  0.4089  0.3979  0.0302
15436SOL    HW147921   5.609   1.307   5.385 -2.7162 -1.0258  0.8169
15436SOL    HW247922   5.620   1.170   5.447  0.4954 -1.8934 -1.4203
15437SOL     OW47923   2.616   7.393   8.875  0.0531 -0.1168  0.0436
15437SOL    HW147924   2.606   7.487   8.893  0.4833 -0.1720  0.6160
15437SOL    HW247925   2.532   7.355   8.902  0.3296 -0.0575  1.0293
15438SOL     OW47926   5.953   3.977   4.374 -0.1999  0.0800 -0.5150
15438SOL    HW147927   5.888   3.907   4.380  0.5898 -0.6345  0.0819
15438SOL    HW247928   6.028   3.936   4.329  0.1150  0.6652 -0.5313
15439SOL     OW47929   2.149   6.327   0.026 -0.5082  0.1872 -0.8522
15439SOL    HW147930   2.134   6.370  -0.059 -0.2370  1.8413 -0.0976
15439SOL    HW247931   2.068   6.278   0.042 -1.3187  1.3341 -1.2459
15440SOL     OW47932   4.936   5.509   0.632 -0.1269 -1.1229 -0.2046
15440SOL    HW147933   4.964   5.436   0.687 -0.7141  1.3231  3.7571
15440SOL    HW247934   5.011   5.568   0.630 -0.3438 -0.8488 -1.6063
15441SOL     OW47935   3.522   8.917   5.717 -0.3337 -0.0795  0.8422
15441SOL    HW147936   3.614   8.942   5.722 -0.2014 -0.7011  1.8396
15441SOL    HW247937   3.507   8.899   5.624  1.0039 -1.5750  0.8727
15442SOL     OW47938   8.808   3.958   6.880 -0.2104 -0.2062  0.2889
15442SOL    HW147939   8.841   3.998   6.799  0.2095 -0.3706  0.3746
15442SOL    HW247940   8.718   3.988   6.887  0.2428  1.1253  0.6156
15443SOL     OW47941   2.709   2.130   4.270  0.2617 -0.3921 -0.8170
15443SOL    HW147942   2.799   2.156   4.290 -0.5469  1.1317  1.2594
15443SOL    HW247943   2.698   2.045   4.312  0.2824  0.1952  0.4284
15444SOL     OW47944   4.907   3.774   5.783  0.0743 -0.6029  0.4361
15444SOL    HW147945   4.847   3.714   5.827  0.1885  0.4165  2.0648
15444SOL    HW247946   4.860   3.857   5.779  0.9241 -0.0985  0.6953
15445SOL     OW47947   3.974   8.981   6.470  0.1920  0.4700 -0.1603
15445SOL    HW147948   3.903   8.918   6.485 -1.2139  2.0637  0.1212
15445SOL    HW247949   4.036   8.962   6.540 -0.6039 -0.0587  0.4324
15446SOL     OW47950   1.339   4.571   5.660 -0.2993  0.1654 -0.4091
15446SOL    HW147951   1.370   4.654   5.695 -1.8886  0.2301  0.9737
15446SOL    HW247952   1.407   4.543   5.599  1.1423  1.5470  0.5097
15447SOL     OW47953   0.805   7.191   8.830  0.4719 -0.2914 -0.0548
15447SOL    HW147954   0.782   7.268   8.778  0.3683  0.0191  0.4357
15447SOL    HW247955   0.721   7.153   8.854  0.4816  0.1784  0.7684
15448SOL     OW47956   6.871   8.418   4.807  0.4856  0.3972 -0.1691
15448SOL    HW147957   6.937   8.349   4.817  0.5110  0.3101 -0.8578
15448SOL    HW247958   6.788   8.375   4.826  0.6612  0.6555  1.3184
15449SOL     OW47959   9.734   3.056   5.133  0.5891  0.0232 -0.3487
15449SOL    HW147960   9.718   3.010   5.050  1.1669  0.9047 -0.9705
15449SOL    HW247961   9.790   2.997   5.183 -1.1502 -1.2736  0.1441
15450SOL     OW47962   8.676   0.518   5.288 -0.3206  0.0348 -0.0870
15450SOL    HW147963   8.674   0.537   5.194  1.4101 -1.8576 -0.5853
15450SOL    HW247964   8.688   0.603   5.330  0.3212  0.7672 -1.6860
15451SOL     OW47965   0.276   6.385   9.340  0.1551 -0.7472 -0.4924
15451SOL    HW147966   0.205   6.330   9.305 -0.5391 -0.5285  0.5492
15451SOL    HW247967   0.283   6.360   9.432 -1.3289  2.0487  0.4816
15452SOL     OW47968   7.167   2.398   9.047 -0.2540 -0.1076 -0.2436
15452SOL    HW147969   7.169   2.350   8.964  1.7208 -0.6111  0.0434
15452SOL    HW247970   7.179   2.330   9.114  4.4848  0.7083  0.0970
15453SOL     OW47971   9.715   2.780   0.413 -0.5797  0.3451 -0.3309
15453SOL    HW147972   9.704   2.719   0.486 -3.1552  0.5170 -0.4575
15453SOL    HW247973   9.702   2.866   0.452  0.2019  0.6045 -0.6367
15454SOL     OW47974   4.470   9.048   0.203 -0.0962 -0.5494 -0.6658
15454SOL    HW147975   4.565   9.051   0.196 -0.1610  0.0075 -1.3981
15454SOL    HW247976   4.439   9.046   0.113 -0.7573 -2.2011 -0.4501
15455SOL     OW47977   8.514   6.162   3.723 -0.5357  0.5012  0.0203
15455SOL    HW147978   8.560   6.089   3.765  0.9696  1.4124  0.0035
15455SOL    HW247979   8.499   6.225   3.793  1.6193  1.8494 -0.6592
15456SOL     OW47980   8.647   5.243   6.371 -0.3492 -0.3371 -0.4571
15456SOL    HW147981   8.559   5.236   6.406 -0.3368  0.2486 -0.2877
15456SOL    HW247982   8.704   5.229   6.447 -0.3030 -0.4856 -0.5199
15457SOL     OW47983   7.915   4.911   4.368 -0.3566  0.9539 -0.1243
15457SOL    HW147984   7.885   4.926   4.279  1.5919 -1.1544 -1.2428
15457SOL    HW247985   7.963   4.990   4.391 -0.0647  1.1397 -1.3255
15458SOL     OW47986   7.882   7.639   5.049  0.3472 -0.5593 -0.2942
15458SOL    HW147987   7.790   7.660   5.031  0.9465  0.6524 -2.2167
15458SOL    HW247988   7.894   7.551   5.012 -0.4920 -1.6232  1.7953
15459SOL     OW47989   4.211   8.233   0.787  0.0920 -0.3197  0.1541
15459SOL    HW147990   4.197   8.239   0.692 -0.8173  0.8462  0.3368
15459SOL    HW247991   4.263   8.154   0.799  0.8468 -0.0917 -1.3825
15460SOL     OW47992   2.584   6.201   6.779 -0.1241  0.1460  0.3291
15460SOL    HW147993   2.661   6.188   6.833  0.5693 -1.7047 -0.9832
15460SOL    HW247994   2.529   6.262   6.829  1.4160  0.2013  2.0590
15461SOL     OW47995   2.056   4.584   1.978 -0.0135 -0.2742 -0.0211
15461SOL    HW147996   2.052   4.515   1.911  0.0993 -0.9730  0.6878
15461SOL    HW247997   2.115   4.649   1.940  0.0730 -0.6705 -0.5963
15462SOL     OW47998   9.815   6.596   2.334 -0.0557 -0.2017 -0.8026
15462SOL    HW147999   9.838   6.681   2.294 -0.2872 -0.1652 -0.8558
15462SOL    HW248000   9.758   6.554   2.270 -1.3807  0.3421 -0.0240
15463SOL     OW48001   0.488   8.026   0.888 -0.7087  0.0702  1.0306
15463SOL    HW148002   0.508   7.981   0.970 -3.3803  1.0331  2.3221
15463SOL    HW248003   0.508   8.118   0.906  0.1836  0.0860  0.0297
15464SOL     OW48004   2.301   6.888   2.751 -0.1727 -0.2156 -0.0910
15464SOL    HW148005   2.284   6.949   2.679  1.0840 -0.1087 -0.3079
15464SOL    HW248006   2.344   6.941   2.817  0.1785 -0.6898  0.0582
15465SOL     OW48007   5.359   6.249   7.879 -0.3964  0.3302  0.4444
15465SOL    HW148008   5.329   6.292   7.798  0.1068 -1.2336 -0.6299
15465SOL    HW248009   5.427   6.306   7.913  0.0829  0.5449 -0.8097
15466SOL     OW48010   9.428   1.450   2.330 -0.7960  0.3953 -0.4324
15466SOL    HW148011   9.414   1.534   2.287  1.5341  1.1207  0.0375
15466SOL    HW248012   9.489   1.403   2.273 -1.7284 -0.8270 -0.4687
15467SOL     OW48013   5.927   3.166   2.193  0.3127 -0.6799 -0.4025
15467SOL    HW148014   5.992   3.137   2.129  1.0006 -1.4338  0.6154
15467SOL    HW248015   5.855   3.104   2.183  0.7887 -1.3272  0.1519
15468SOL     OW48016   1.438   7.380   7.677  0.4522  0.1544  0.0860
15468SOL    HW148017   1.384   7.437   7.731  1.6268  0.4465  0.9845
15468SOL    HW248018   1.398   7.293   7.687  0.4925  0.2505  1.2357
15469SOL     OW48019   2.462   5.008   3.739  0.3798  0.4128 -0.0420
15469SOL    HW148020   2.481   4.947   3.668  1.5093  0.5418  0.1315
15469SOL    HW248021   2.482   4.959   3.819 -0.1966  0.5062  0.1643
15470SOL     OW48022   9.174   7.671   0.445 -0.3437  0.2483 -0.4102
15470SOL    HW148023   9.178   7.766   0.439 -2.5828  0.3247 -1.3739
15470SOL    HW248024   9.196   7.640   0.357  0.2956 -0.1481 -0.1215
15471SOL     OW48025   7.052   8.971   7.422  0.6220 -0.1884  0.4388
15471SOL    HW148026   7.131   8.991   7.471  0.2198  0.8598  0.6949
15471SOL    HW248027   7.083   8.946   7.335  1.3185 -1.6189  1.0772
15472SOL     OW48028   2.009   3.965   0.778  0.4530  0.1921  0.0160
15472SOL    HW148029   2.052   3.912   0.845 -1.7343  0.4776  1.7475
15472SOL    HW248030   1.999   4.051   0.819 -0.7339  0.4386 -0.7603
15473SOL     OW48031   9.282   2.397   2.655 -0.2684 -0.3350  0.0768
15473SOL    HW148032   9.270   2.306   2.629 -1.5159 -0.3977  0.7953
15473SOL    HW248033   9.194   2.428   2.674  0.3650  0.3025  2.2081
15474SOL     OW48034   7.033   7.058   6.055  0.0692  0.2083  0.4028
15474SOL    HW148035   7.095   7.037   6.125 -1.0478 -0.1604  1.3104
15474SOL    HW248036   7.067   7.138   6.016  0.0837  1.1043  2.1607
15475SOL     OW48037   8.431   8.647   5.002 -0.2162 -0.2659 -0.5513
15475SOL    HW148038   8.384   8.730   4.995 -1.7277 -1.0961 -0.7571
15475SOL    HW248039   8.454   8.625   4.912 -0.9499 -0.6761 -0.6461
15476SOL     OW48040   2.266   4.560   1.262 -0.0322 -0.5477 -0.5005
15476SOL    HW148041   2.228   4.535   1.177 -0.7164  0.8939 -0.6672
15476SOL    HW248042   2.191   4.560   1.322  0.4675 -1.6605  0.1574
15477SOL     OW48043   0.460   6.575   3.718 -0.0790  0.3750  0.6204
15477SOL    HW148044   0.392   6.512   3.697  0.2430 -0.3294  1.6264
15477SOL    HW248045   0.417   6.660   3.711 -0.0189  0.2744 -2.8050
15478SOL     OW48046   2.634   4.753   1.817 -0.1661  0.5987 -0.6309
15478SOL    HW148047   2.634   4.744   1.912  1.8054 -0.1487 -0.6616
15478SOL    HW248048   2.653   4.846   1.802  2.7466  0.1900 -0.2061
15479SOL     OW48049   3.245   0.553   2.095 -0.3060 -0.0572 -0.0936
15479SOL    HW148050   3.216   0.537   2.185  0.7939 -1.2735  0.0797
15479SOL    HW248051   3.332   0.592   2.104 -0.6758  0.9145 -0.6258
15480SOL     OW48052   4.061   2.868   8.922  0.4094  0.4182 -0.1901
15480SOL    HW148053   4.139   2.816   8.942  1.7373  1.3722 -2.5046
15480SOL    HW248054   4.029   2.897   9.008  1.1425 -1.9788  0.9923
15481SOL     OW48055   6.370   9.228   9.211  0.0560 -0.8657  0.6740
15481SOL    HW148056   6.384   9.203   9.302  0.0377 -1.0100  0.6372
15481SOL    HW248057   6.305   9.299   9.215  0.3276 -0.6208  0.7980
15482SOL     OW48058   5.528   4.788   7.581 -0.3408 -0.2620  0.3714
15482SOL    HW148059   5.575   4.871   7.590 -1.2355  0.3332 -0.3344
15482SOL    HW248060   5.582   4.736   7.522 -0.9932  0.7716 -1.2041
15483SOL     OW48061   2.533   1.904   0.051 -0.5015  0.0620  0.3055
15483SOL    HW148062   2.545   1.971  -0.016 -0.7235 -0.6153 -0.4223
15483SOL    HW248063   2.456   1.855   0.023 -0.9864  0.1639  1.4005
15484SOL     OW48064   1.816   9.699   6.495  0.1322  0.0613  0.4447
15484SOL    HW148065   1.864   9.765   6.544 -0.3812  0.9117 -0.1683
15484SOL    HW248066   1.790   9.635   6.561  1.0297  0.2237  0.9739
15485SOL     OW48067   5.288   2.555   3.106  0.1386 -0.1745  0.1074
15485SOL    HW148068   5.332   2.574   3.023  0.8574  0.2806  0.5804
15485SOL    HW248069   5.213   2.502   3.082 -1.9904  3.1417 -1.3460
15486SOL     OW48070   0.160   8.452   6.871 -0.2911  0.3850 -0.2449
15486SOL    HW148071   0.092   8.393   6.904 -0.8380  1.3902  0.4895
15486SOL    HW248072   0.163   8.435   6.777 -1.6872  0.4329 -0.3225
15487SOL     OW48073   2.455   6.138   6.527  0.6726 -0.2438  0.0956
15487SOL    HW148074   2.518   6.104   6.464 -0.0183 -1.3025 -0.0533
15487SOL    HW248075   2.501   6.137   6.611  0.3360 -2.6623  0.3063
15488SOL     OW48076   4.231   0.797   3.875  0.2397  0.2882  0.3380
15488SOL    HW148077   4.310   0.796   3.820 -0.7576  0.2113 -1.1504
15488SOL    HW248078   4.258   0.752   3.955  1.4290 -0.7225 -0.5698
15489SOL     OW48079   9.269   3.950   0.379 -0.1266 -0.2038  0.3951
15489SOL    HW148080   9.184   3.935   0.422  0.1869 -1.2869  0.6536
15489SOL    HW248081   9.246   3.983   0.293 -0.7861  0.7593  0.9179
15490SOL     OW48082   7.994   9.188   0.494 -0.3547 -0.1906  0.2660
15490SOL    HW148083   7.962   9.170   0.405  2.1854 -0.9069 -0.5751
15490SOL    HW248084   7.976   9.281   0.507 -1.6406 -0.2834 -0.5938
15491SOL     OW48085   5.517   4.585   4.660 -0.0569  0.2231  0.4544
15491SOL    HW148086   5.536   4.641   4.735 -1.1681  1.3723 -0.0754
15491SOL    HW248087   5.494   4.646   4.590 -2.6151 -0.8938  0.2200
15492SOL     OW48088   2.068   1.404   6.610 -0.2042  0.5432 -0.3947
15492SOL    HW148089   2.058   1.439   6.522 -0.9452 -1.2836 -1.0798
15492SOL    HW248090   2.074   1.310   6.598  0.2356  0.2878  1.4784
15493SOL     OW48091   3.572   9.405   0.944 -0.2568 -0.1664 -0.3087
15493SOL    HW148092   3.577   9.468   1.015  0.0457 -0.4003 -0.1149
15493SOL    HW248093   3.588   9.320   0.986 -1.3970 -0.4589 -0.4430
15494SOL     OW48094   4.463   0.877   8.122  0.5775  0.3460  0.0134
15494SOL    HW148095   4.535   0.922   8.166  1.2308  0.2511 -0.9277
15494SOL    HW248096   4.405   0.948   8.094  0.9727  0.5172 -0.3781
15495SOL     OW48097   3.367   7.059   9.353  0.5053  0.2182 -0.3464
15495SOL    HW148098   3.303   7.021   9.413  2.0021  0.4013  1.4692
15495SOL    HW248099   3.451   7.024   9.382  1.4787  1.6992 -1.2277
15496SOL     OW48100   1.661   6.328   2.776  0.6551  0.2587  0.3662
15496SOL    HW148101   1.709   6.252   2.810  0.6559  0.3745  0.6286
15496SOL    HW248102   1.730   6.386   2.744  0.6392  0.0185 -0.1160
15497SOL     OW48103   2.073   5.407   4.218 -0.5405 -0.0952  0.3280
15497SOL    HW148104   2.029   5.408   4.133  0.0368 -0.5583  0.0164
15497SOL    HW248105   2.164   5.432   4.199 -0.1804 -1.1025  0.6608
15498SOL     OW48106   9.585   3.774   5.804 -0.2227  0.3305  0.2855
15498SOL    HW148107   9.650   3.802   5.870 -0.9275  0.6715  0.8490
15498SOL    HW248108   9.588   3.679   5.807  0.2011  0.3402  0.3516
15499SOL     OW48109   8.550   0.100   5.445 -0.2150 -0.4047  0.3186
15499SOL    HW148110   8.612   0.045   5.492  1.5675  0.5856 -0.7426
15499SOL    HW248111   8.566   0.080   5.352 -0.3046  1.0334 -0.0372
15500SOL     OW48112   1.026   4.749   1.710  0.2116  0.5581 -0.0606
15500SOL    HW148113   0.943   4.702   1.706 -0.1587  1.1819  0.1409
15500SOL    HW248114   1.028   4.802   1.630  0.0627  1.1142  0.2985
15501SOL     OW48115   9.370   9.551   6.926  0.3144 -0.1765 -0.5978
15501SOL    HW148116   9.434   9.604   6.974  1.2146 -2.2078  0.5548
15501SOL    HW248117   9.292   9.553   6.981  1.6382 -3.2788  1.6697
15502SOL     OW48118   8.594   4.115   8.283 -0.8272  0.2223  0.5522
15502SOL    HW148119   8.649   4.111   8.205 -0.6209 -0.0950  0.7158
15502SOL    HW248120   8.505   4.118   8.249 -0.7491 -0.2006  0.3111
15503SOL     OW48121   5.655   3.084   2.521  0.4060 -0.0171  0.6340
15503SOL    HW148122   5.727   3.037   2.563  2.3811  0.4681 -1.9384
15503SOL    HW248123   5.624   3.145   2.588 -0.1167 -2.6647  3.0035
15504SOL     OW48124   0.026   4.855   9.555 -0.1069 -0.2743  0.0596
15504SOL    HW148125   0.016   4.772   9.507 -0.6128 -0.5159  0.5778
15504SOL    HW248126   0.117   4.854   9.584  1.2803  1.3352 -3.5706
15505SOL     OW48127   6.095   3.431   5.680  0.2809 -0.5294 -0.5095
15505SOL    HW148128   6.052   3.376   5.745  0.1186 -0.7768 -0.8285
15505SOL    HW248129   6.164   3.376   5.642  1.0221 -0.0766  0.1367
15506SOL     OW48130   9.792   3.822   1.595  0.1525  0.0490 -0.0720
15506SOL    HW148131   9.781   3.841   1.688  0.8910  1.3706 -0.2191
15506SOL    HW248132   9.799   3.908   1.554 -1.1610 -0.4855 -1.5045
15507SOL     OW48133   5.638   3.211   5.029  0.2610 -0.5816  0.0134
15507SOL    HW148134   5.555   3.183   4.990 -0.1340  0.9351 -0.2837
15507SOL    HW248135   5.616   3.231   5.120 -0.1863  1.7499 -0.5539
15508SOL     OW48136   9.005   4.573   9.498 -0.3280  0.1610  0.0598
15508SOL    HW148137   9.002   4.668   9.508 -0.1208  0.0666  1.0882
15508SOL    HW248138   9.069   4.544   9.563 -1.2122 -0.7809  0.5246
15509SOL     OW48139   6.512   5.851   6.291  0.1111 -0.1434  0.3750
15509SOL    HW148140   6.572   5.897   6.349 -0.3061 -1.1480  1.6661
15509SOL    HW248141   6.481   5.777   6.343 -0.0203 -1.2963 -1.2668
15510SOL     OW48142   6.763   1.036   5.986  0.3137 -0.0257 -0.2187
15510SOL    HW148143   6.840   0.988   6.016  0.3650  0.5878  0.6650
15510SOL    HW248144   6.705   1.038   6.062  0.3074  1.2789 -0.2341
15511SOL     OW48145   4.026   5.865   7.709  0.2223 -0.0758 -0.1301
15511SOL    HW148146   4.014   5.956   7.681 -0.2790 -0.2636 -0.5376
15511SOL    HW248147   4.112   5.841   7.676 -0.0156 -0.0279 -0.8000
15512SOL     OW48148   9.196   8.221   6.039 -0.0163  0.1504  0.3876
15512SOL    HW148149   9.210   8.148   6.099 -1.1825  0.8370  1.5458
15512SOL    HW248150   9.110   8.205   6.000  0.5057 -0.0175 -0.7499
15513SOL     OW48151   3.157   0.006   6.836  0.4065  0.2389 -0.1531
15513SOL    HW148152   3.092   0.075   6.824  1.8018  1.5839 -0.2912
15513SOL    HW248153   3.111  -0.075   6.814 -1.2976  1.1060  0.0937
15514SOL     OW48154   3.518   4.465   1.897  0.2951 -0.1002 -0.1964
15514SOL    HW148155   3.498   4.462   1.803 -1.4286  2.3524 -0.0102
15514SOL    HW248156   3.433   4.454   1.940  1.0779 -1.2886  1.1358
15515SOL     OW48157   5.908   5.615   5.491  0.7401  0.1070  0.4184
15515SOL    HW148158   5.991   5.613   5.443  1.4539  0.7379  1.5870
15515SOL    HW248159   5.873   5.703   5.475  0.1808 -0.2226 -0.2318
15516SOL     OW48160   0.688   9.703   4.439 -0.5480  0.1685 -0.0958
15516SOL    HW148161   0.713   9.687   4.348 -1.6549 -0.1330 -0.3641
15516SOL    HW248162   0.728   9.788   4.460 -0.5044  0.3670 -0.9504
15517SOL     OW48163   0.223   5.393   3.362 -0.1193 -0.0243  0.0514
15517SOL    HW148164   0.157   5.340   3.406 -0.2908 -0.3099 -0.5362
15517SOL    HW248165   0.259   5.449   3.431 -2.1318  1.3281  0.0899
15518SOL     OW48166   8.727   3.250   1.168  0.2852 -0.5146  0.0542
15518SOL    HW148167   8.784   3.322   1.193 -0.4499 -0.6526  2.4461
15518SOL    HW248168   8.649   3.262   1.223 -1.1392 -1.4408 -1.6696
15519SOL     OW48169   3.007   7.366   9.027  0.2648  0.3302 -0.4126
15519SOL    HW148170   2.928   7.312   9.019  1.9358 -2.0130 -3.4539
15519SOL    HW248171   2.984   7.447   8.982 -1.2378  0.9030  1.2721
15520SOL     OW48172   9.007   2.700   4.884  0.3802  0.0140  0.0953
15520SOL    HW148173   8.999   2.605   4.881  3.8409 -0.3928 -0.7651
15520SOL    HW248174   9.054   2.718   4.966  0.3760  0.9227 -0.0896
15521SOL     OW48175   4.763   6.208   2.993 -0.1054 -0.0648  0.0393
15521SOL    HW148176   4.750   6.252   2.909 -0.5421  0.8489  0.5676
15521SOL    HW248177   4.856   6.216   3.010 -0.1498  0.5283  0.0438
15522SOL     OW48178   1.196   9.722   0.023 -0.0208  0.2048 -0.3310
15522SOL    HW148179   1.218   9.715   0.116 -1.3596  1.9168  0.1739
15522SOL    HW248180   1.213   9.814   0.001 -1.1854  0.2070 -1.3599
15523SOL     OW48181   7.279   0.330   6.996 -0.1701 -0.5140 -0.3793
15523SOL    HW148182   7.268   0.256   7.056  1.5627 -0.7391 -0.2931
15523SOL    HW248183   7.200   0.383   7.010 -0.1899 -0.9535  1.5283
15524SOL     OW48184   1.020   4.315   0.362 -0.5498 -0.1358  0.4226
15524SOL    HW148185   0.980   4.340   0.279 -0.9002 -0.9158  0.3490
15524SOL    HW248186   1.105   4.277   0.338  0.9022  2.6511  0.6484
15525SOL     OW48187   6.213   8.233   5.690  0.3460 -0.6779 -0.4966
15525SOL    HW148188   6.194   8.232   5.596  2.0170  0.0418 -0.8644
15525SOL    HW248189   6.288   8.291   5.699 -1.0066  0.8843  1.5500
15526SOL     OW48190   2.439   8.774   2.371  0.4269  0.1711  0.7743
15526SOL    HW148191   2.430   8.864   2.341  2.7904 -0.0023 -0.7036
15526SOL    HW248192   2.387   8.723   2.309  0.1292  0.3684  0.8551
15527SOL     OW48193   3.596   4.374   9.584 -0.0915  0.0293 -0.4898
15527SOL    HW148194   3.580   4.299   9.641  0.2827 -0.7943 -1.4261
15527SOL    HW248195   3.593   4.450   9.642 -0.7224 -0.6819  0.4443
15528SOL     OW48196   2.338   0.640   2.957 -0.4250  0.2163  0.1790
15528SOL    HW148197   2.329   0.549   2.986  0.9980  0.6112  2.0843
15528SOL    HW248198   2.306   0.691   3.031 -1.0437  1.2940 -0.8076
15529SOL     OW48199   3.535   2.278   0.381 -0.5224  0.4442  0.3999
15529SOL    HW148200   3.483   2.270   0.302  1.2347  0.2588 -0.8047
15529SOL    HW248201   3.516   2.366   0.414 -1.0340  0.6456 -0.4147
15530SOL     OW48202   2.004   3.981   5.629 -0.9121 -0.6352  0.9639
15530SOL    HW148203   1.938   4.039   5.591 -1.4368  0.1240  2.9066
15530SOL    HW248204   2.064   3.962   5.557 -2.2476  0.1240 -0.3956
15531SOL     OW48205   2.738   9.264   3.016  0.4134 -0.0518 -0.7325
15531SOL    HW148206   2.703   9.207   2.948 -1.5288  1.1145 -0.7954
15531SOL    HW248207   2.804   9.317   2.971  1.0145 -1.0651 -1.0671
15532SOL     OW48208   9.756   9.761   0.734  0.0118  0.2257  0.5211
15532SOL    HW148209   9.750   9.775   0.828  1.8111  2.3266  0.3927
15532SOL    HW248210   9.694   9.824   0.696 -2.2531 -2.0062  0.2775
15533SOL     OW48211   4.673   3.439   9.835 -0.3251  0.1124 -0.3045
15533SOL    HW148212   4.658   3.467   9.925 -0.8282 -0.4011 -0.2215
15533SOL    HW248213   4.667   3.344   9.839 -0.7163  0.1090 -0.9467
15534SOL     OW48214   8.026   7.098   8.557  0.7221 -1.0187 -0.0692
15534SOL    HW148215   8.067   7.129   8.476  0.4186  1.6200  0.7085
15534SOL    HW248216   7.932   7.112   8.543  0.6295 -1.0027  0.5568
15535SOL     OW48217   0.509   2.556   3.915 -0.7083  0.0276  0.4369
15535SOL    HW148218   0.580   2.529   3.973  0.6204  2.3964  0.0661
15535SOL    HW248219   0.551   2.565   3.829 -1.6014  0.7869  0.0594
15536SOL     OW48220   9.232   3.420   8.966 -0.6235 -0.1395 -0.0730
15536SOL    HW148221   9.215   3.360   8.893 -0.7958  0.7023 -0.7447
15536SOL    HW248222   9.149   3.425   9.013 -0.2961 -1.3093  0.6865
15537SOL     OW48223   8.697   0.146   1.858  0.4886  0.0859  0.0713
15537SOL    HW148224   8.701   0.241   1.849 -0.0096  0.1488  0.4954
15537SOL    HW248225   8.771   0.124   1.914  0.6918  0.2027 -0.1451
15538SOL     OW48226   6.982   2.256   4.784  0.0558  0.2209 -0.1985
15538SOL    HW148227   6.964   2.165   4.758 -0.0281  0.6363 -1.6333
15538SOL    HW248228   6.923   2.272   4.857  0.0239 -0.8587  0.0306
15539SOL     OW48229   7.002   0.124   2.833  0.3617  0.0463 -0.0231
15539SOL    HW148230   6.909   0.146   2.828  0.3879 -0.0449 -1.1289
15539SOL    HW248231   7.004   0.040   2.879 -0.0346  0.4376  0.7185
15540SOL     OW48232   6.130   9.371   0.760 -0.0132 -0.0588  0.0221
15540SOL    HW148233   6.212   9.340   0.798  0.0434  1.7375  1.4564
15540SOL    HW248234   6.148   9.375   0.666  1.4276 -0.0407  0.2730
15541SOL     OW48235   5.304   0.232   5.882  0.1124  0.5700  0.0606
15541SOL    HW148236   5.344   0.241   5.795  0.2625  0.8311  0.1547
15541SOL    HW248237   5.269   0.320   5.901 -0.7931  0.2726 -0.1586
15542SOL     OW48238   9.348   1.881   7.963  0.0753  0.6638  0.2327
15542SOL    HW148239   9.368   1.832   8.043  0.4108 -1.8133 -1.2776
15542SOL    HW248240   9.253   1.879   7.956  0.1409 -1.0338 -0.5139
15543SOL     OW48241   3.266   0.341   7.818  0.0879  0.4524  0.0790
15543SOL    HW148242   3.293   0.408   7.755  1.8163 -0.6268 -0.3775
15543SOL    HW248243   3.269   0.385   7.903  0.8045  1.0719 -0.2570
15544SOL     OW48244   9.455   7.353   0.420  0.0606 -0.8148 -0.1304
15544SOL    HW148245   9.463   7.273   0.366 -1.3153  0.0437 -1.6742
15544SOL    HW248246   9.362   7.359   0.442  0.2514  0.0439  0.5013
15545SOL     OW48247   2.736   2.793   9.022 -0.1398 -0.6083 -0.3865
15545SOL    HW148248   2.747   2.767   8.930 -2.3261  0.7062 -1.1064
15545SOL    HW248249   2.822   2.824   9.049  0.6355 -1.3637 -1.8707
15546SOL     OW48250   5.756   8.819   8.071  0.0918 -0.1255 -0.5449
15546SOL    HW148251   5.810   8.797   8.147 -0.6625  1.0694  0.3888
15546SOL    HW248252   5.746   8.915   8.076  0.2153  0.0163 -2.2906
15547SOL     OW48253   1.070   9.458   3.626  0.0941 -0.2800 -0.0015
15547SOL    HW148254   1.032   9.522   3.566  0.5042  0.2314  0.2767
15547SOL    HW248255   1.163   9.478   3.628  0.4166 -1.5494 -0.7016
15548SOL     OW48256   5.636   7.437   5.015 -0.0581  0.4649 -0.5909
15548SOL    HW148257   5.641   7.351   5.057  0.3884 -0.8487 -3.1645
15548SOL    HW248258   5.546   7.443   4.983  0.5310 -0.1620 -2.5002
15549SOL     OW48259   1.475   0.129   7.861 -0.1713  0.2365 -0.0167
15549SOL    HW148260   1.383   0.152   7.852 -0.5954 -0.2955  2.4467
15549SOL    HW248261   1.504   0.173   7.941  1.0149 -1.6513  0.6558
15550SOL     OW48262   0.237   3.458   7.254 -0.4949  0.0806 -0.0185
15550SOL    HW148263   0.244   3.543   7.211 -1.6330  0.5141  0.6240
15550SOL    HW248264   0.190   3.403   7.192  1.0200 -0.3830 -0.8179
15551SOL     OW48265   2.234   9.597   9.639  0.0947 -0.1711 -0.0076
15551SOL    HW148266   2.264   9.534   9.573  1.2015  0.6111 -0.2817
15551SOL    HW248267   2.241   9.682   9.596  1.7943  0.4643  1.3872
15552SOL     OW48268   1.481   9.218   9.672 -0.0692 -0.1762  0.1289
15552SOL    HW148269   1.404   9.269   9.698 -0.4660 -0.4585 -0.4880
15552SOL    HW248270   1.534   9.279   9.621  0.0791 -0.0067  0.4830
15553SOL     OW48271   6.254   6.638   3.062  0.2247  0.4666 -0.4067
15553SOL    HW148272   6.299   6.720   3.042 -0.8838  1.4808  1.0454
15553SOL    HW248273   6.193   6.626   2.990  0.5856  0.7634 -0.7686
15554SOL     OW48274   7.136   8.107   6.805 -0.4625 -0.4526 -0.3292
15554SOL    HW148275   7.226   8.076   6.811  0.3992  1.5048 -1.9576
15554SOL    HW248276   7.123   8.159   6.885 -0.2556 -0.9679  0.0452
15555SOL     OW48277   5.034   1.284   1.611  0.2865  0.1956 -0.4839
15555SOL    HW148278   4.951   1.321   1.582  0.1200  0.1844 -0.0319
15555SOL    HW248279   5.052   1.327   1.694  0.6628  0.0927 -0.5103
15556SOL     OW48280   7.358   0.630   5.996  0.0731  0.0804  0.0720
15556SOL    HW148281   7.310   0.571   5.937 -1.0511  1.5231 -0.5048
15556SOL    HW248282   7.449   0.621   5.969 -0.1030 -1.1358 -0.2139
15557SOL     OW48283   9.240   5.880   7.390 -0.2225  0.3243 -0.6326
15557SOL    HW148284   9.187   5.926   7.325 -1.0955  1.0248  0.5353
15557SOL    HW248285   9.322   5.928   7.394 -1.7010  2.9280  1.7368
15558SOL     OW48286   3.080   5.949   9.545  0.3032  0.0166  0.6841
15558SOL    HW148287   3.059   5.860   9.518  1.6552 -0.2734  0.5324
15558SOL    HW248288   3.005   5.976   9.599 -0.8992 -0.5795 -0.6362
15559SOL     OW48289   5.500   5.930   3.579 -0.3987 -0.1996  0.3741
15559SOL    HW148290   5.478   6.000   3.640  0.5518 -0.8161  1.4616
15559SOL    HW248291   5.559   5.873   3.628 -0.0350 -1.0098 -0.9490
15560SOL     OW48292   4.946   3.530   3.789  0.6303 -0.3016 -0.1538
15560SOL    HW148293   4.857   3.496   3.785  0.3857  0.1852  0.7602
15560SOL    HW248294   4.957   3.558   3.880  1.0150  1.4691 -0.6932
15561SOL     OW48295   5.169   0.512   6.729 -0.0821  0.1180  0.1795
15561SOL    HW148296   5.097   0.488   6.788  0.0217  0.9909  0.6852
15561SOL    HW248297   5.203   0.594   6.765 -0.1513  0.7937 -1.2285
15562SOL     OW48298   1.087   5.236   7.549  0.3281  0.1922 -0.0023
15562SOL    HW148299   1.100   5.300   7.619  0.4754 -1.2156  1.3256
15562SOL    HW248300   1.042   5.285   7.480 -0.1357  1.5682  1.2060
15563SOL     OW48301   7.495   0.964   4.410 -0.2529 -0.2959  0.0184
15563SOL    HW148302   7.410   0.987   4.448 -0.2858  1.5435 -1.0525
15563SOL    HW248303   7.485   0.980   4.316  1.6366  1.3366  0.0192
15564SOL     OW48304   7.964   5.433   2.868  0.9347 -0.1053  0.0623
15564SOL    HW148305   7.869   5.418   2.871  1.0323 -0.7257  0.5168
15564SOL    HW248306   7.984   5.446   2.775  0.0503  2.6926  0.1728
15565SOL     OW48307   8.877   9.593   6.569  0.2793  0.1319  0.0460
15565SOL    HW148308   8.936   9.627   6.501 -0.1265  1.2074  0.2022
15565SOL    HW248309   8.923   9.611   6.651  0.3740 -0.3528  0.0984
15566SOL     OW48310   4.573   7.002   3.850  0.6402  0.2533  0.1484
15566SOL    HW148311   4.663   6.970   3.849  0.2241 -0.9640 -1.2725
15566SOL    HW248312   4.527   6.941   3.908  0.2161 -0.7231 -1.1732
15567SOL     OW48313   8.442   5.591   8.092 -0.6761 -0.4450 -0.4230
15567SOL    HW148314   8.380   5.519   8.106  1.4475 -2.2619  0.2535
15567SOL    HW248315   8.452   5.595   7.996 -0.8543 -1.0231 -0.4712
15568SOL     OW48316   6.998   9.348   0.992 -0.2210 -0.7695 -0.8639
15568SOL    HW148317   7.014   9.440   0.973  0.0301 -0.7891 -0.7469
15568SOL    HW248318   7.080   9.316   1.029 -0.6463 -0.7643  0.1133
15569SOL     OW48319   6.038   4.663   9.083  0.2882 -0.1640 -0.0252
15569SOL    HW148320   6.093   4.681   9.159 -0.4397 -0.8809  0.6924
15569SOL    HW248321   5.988   4.585   9.107 -0.1346 -0.2645 -1.1459
15570SOL     OW48322   0.564   8.758   4.156 -0.5606 -0.1118  0.4761
15570SOL    HW148323   0.651   8.729   4.182 -0.4653 -1.0888 -0.8556
15570SOL    HW248324   0.504   8.703   4.206 -0.3919 -0.7818 -0.0492
15571SOL     OW48325   3.523   6.698   0.411 -0.6700  0.2288  0.0721
15571SOL    HW148326   3.463   6.767   0.439  0.4727  0.2359  2.8545
15571SOL    HW248327   3.610   6.731   0.435  0.0785 -1.4270 -0.1949
15572SOL     OW48328   3.616   6.263   8.543  0.7503 -0.5628  0.4805
15572SOL    HW148329   3.643   6.348   8.508 -0.1626 -0.8595 -0.9953
15572SOL    HW248330   3.526   6.276   8.572  1.5004 -0.2924  2.9598
15573SOL     OW48331   6.854   0.922   7.109  0.0604 -0.0672 -0.0384
15573SOL    HW148332   6.770   0.916   7.063 -0.7515 -0.3128  1.3990
15573SOL    HW248333   6.892   0.834   7.101  0.4584  0.1893 -1.1523
15574SOL     OW48334   9.220   1.580   1.779 -0.2214 -0.0732  0.0878
15574SOL    HW148335   9.269   1.576   1.862 -0.2993 -0.3674  0.1178
15574SOL    HW248336   9.286   1.561   1.712 -0.0068  0.8257  0.0237
15575SOL     OW48337   7.014   3.145   6.244  0.3423  0.3018  0.3166
15575SOL    HW148338   6.921   3.153   6.221 -0.1379 -1.2877  1.4757
15575SOL    HW248339   7.034   3.053   6.231  1.5673  0.4816  0.7840
15576SOL     OW48340   0.048   3.049   2.387  0.3629  0.3925 -0.1571
15576SOL    HW148341   0.107   3.101   2.332 -0.0564  0.6288 -0.3886
15576SOL    HW248342   0.088   3.052   2.474  0.9270  0.1828 -0.3992
15577SOL     OW48343   2.779   3.942   4.235  0.3152 -0.5914  0.2505
15577SOL    HW148344   2.792   3.854   4.269 -0.6927 -0.8611 -0.0163
15577SOL    HW248345   2.734   3.930   4.151  1.4882  0.1214 -0.5073
15578SOL     OW48346   4.337   9.160   9.806  0.2296  0.0942  0.1692
15578SOL    HW148347   4.429   9.181   9.788  0.3913 -1.5108 -1.1036
15578SOL    HW248348   4.295   9.163   9.721 -0.7040 -0.0750  0.6164
15579SOL     OW48349   0.319   0.962   6.947  0.2556  0.6274  0.1144
15579SOL    HW148350   0.281   1.045   6.921 -1.2760  0.9315  2.9475
15579SOL    HW248351   0.248   0.899   6.937  0.7036  0.0970  0.2086
15580SOL     OW48352   6.837   2.365   2.894 -0.0599  0.2774 -0.3402
15580SOL    HW148353   6.746   2.397   2.892 -1.1139 -2.0409  2.5932
15580SOL    HW248354   6.874   2.403   2.974  0.6238 -0.9229 -0.0610
15581SOL     OW48355   1.657   7.874   1.427 -0.2741  0.1776  0.6552
15581SOL    HW148356   1.727   7.823   1.385 -0.1442  0.3526  0.6576
15581SOL    HW248357   1.646   7.832   1.512 -1.1036 -0.6828  0.1318
15582SOL     OW48358   5.689   7.543   7.604  0.0397  0.4430  0.0126
15582SOL    HW148359   5.602   7.556   7.640 -0.1982  1.1211 -0.7757
15582SOL    HW248360   5.695   7.605   7.531  0.1822 -1.4225 -1.6640
15583SOL     OW48361   7.827   3.261   7.564 -0.1763  0.3146 -0.4434
15583SOL    HW148362   7.735   3.270   7.539 -0.8842  1.0222  2.0992
15583SOL    HW248363   7.861   3.350   7.566 -0.1682  0.3092  0.9519
15584SOL     OW48364   7.496   3.229   4.560 -0.6495 -0.0936 -0.8161
15584SOL    HW148365   7.553   3.238   4.484  1.3164 -1.6837  0.3902
15584SOL    HW248366   7.546   3.267   4.632 -0.8772 -1.9034  0.3644
15585SOL     OW48367   1.383   5.155   7.598 -0.7020  0.0398  0.0720
15585SOL    HW148368   1.444   5.114   7.660  0.0005  0.4547 -0.3321
15585SOL    HW248369   1.299   5.158   7.645 -0.2524  0.0807  0.8892
15586SOL     OW48370   1.933   8.431   1.870 -0.1002  0.3185  0.3657
15586SOL    HW148371   1.980   8.402   1.949 -0.9412 -1.0883  0.3769
15586SOL    HW248372   2.003   8.460   1.811  1.0954 -3.6145 -0.4140
15587SOL     OW48373   2.537   8.723   3.835  0.3410 -0.6923  0.3852
15587SOL    HW148374   2.629   8.697   3.834  0.2973 -1.1740  2.3995
15587SOL    HW248375   2.490   8.644   3.809  0.4301 -1.2013  1.6768
15588SOL     OW48376   9.637   5.950   5.116  0.7405 -0.5705  0.0476
15588SOL    HW148377   9.637   6.043   5.135 -0.6238 -0.6328  0.4662
15588SOL    HW248378   9.586   5.942   5.035 -0.8508 -1.1142  1.0652
15589SOL     OW48379   1.984   5.012   8.982  0.3498 -0.3557 -0.2336
15589SOL    HW148380   2.000   4.929   9.027  1.8657  0.1562  0.2211
15589SOL    HW248381   1.899   5.041   9.015  0.4668 -1.0343  0.6936
15590SOL     OW48382   5.207   9.412   6.847  0.3003  0.1965  0.0821
15590SOL    HW148383   5.223   9.369   6.763 -0.2269 -0.6911  0.4332
15590SOL    HW248384   5.237   9.350   6.913 -0.7948  0.1973  0.6092
15591SOL     OW48385   6.419   3.310   2.134 -0.3896 -0.4286 -0.1897
15591SOL    HW148386   6.344   3.360   2.166 -0.5235 -0.3502 -0.6293
15591SOL    HW248387   6.426   3.237   2.195  0.0905  0.3600  0.7438
15592SOL     OW48388   4.468   9.564   1.430  0.3460  0.4131  0.0214
15592SOL    HW148389   4.440   9.601   1.346  0.7165  2.1292  0.6177
15592SOL    HW248390   4.434   9.625   1.496  0.6120 -0.5582  1.0923
15593SOL     OW48391   5.804   7.974   0.370 -0.1087 -0.0354 -0.0908
15593SOL    HW148392   5.823   7.969   0.464  1.0924 -2.0218 -0.3793
15593SOL    HW248393   5.873   7.922   0.329 -0.1028  1.5192 -2.1776
15594SOL     OW48394   5.993   6.349   0.969 -0.2426 -0.6518 -0.1870
15594SOL    HW148395   6.008   6.444   0.968 -2.7973 -0.1658  0.0568
15594SOL    HW248396   6.075   6.312   1.002  0.0565  1.6611  1.9318
15595SOL     OW48397   2.734   6.110   2.652  0.3271 -0.0843  0.0582
15595SOL    HW148398   2.763   6.180   2.594 -0.2469  0.3709  0.3180
15595SOL    HW248399   2.809   6.093   2.709  0.3846  0.4911  0.1580
15596SOL     OW48400   5.447   5.237   1.301 -0.0329 -0.0045  0.5950
15596SOL    HW148401   5.396   5.310   1.265 -0.4871  0.1603  1.5321
15596SOL    HW248402   5.469   5.266   1.390  2.6420  0.3960 -0.1117
15597SOL     OW48403   5.520   2.471   9.304 -0.0438  0.6736  0.5468
15597SOL    HW148404   5.449   2.475   9.368 -3.3557  0.1211 -2.7753
15597SOL    HW248405   5.478   2.485   9.220  4.1583  2.2865 -1.5968
15598SOL     OW48406   6.573   9.519   9.232  0.1542 -0.9630  0.0032
15598SOL    HW148407   6.525   9.465   9.294 -1.0636  2.1125  1.9469
15598SOL    HW248408   6.607   9.592   9.284  0.7090  0.7921 -2.5958
15599SOL     OW48409   0.531   2.633   7.585 -0.0405 -0.3867 -0.2775
15599SOL    HW148410   0.511   2.690   7.510 -0.9490 -0.6011 -0.2104
15599SOL    HW248411   0.622   2.607   7.571 -0.3670 -0.9163 -1.6572
15600SOL     OW48412   3.430   6.393   9.136 -0.3596  0.3330  0.3253
15600SOL    HW148413   3.467   6.310   9.106 -1.4095  0.0431 -0.2447
15600SOL    HW248414   3.399   6.435   9.056 -1.6712  0.3294  0.8090
15601SOL     OW48415   7.591   9.127   7.367 -0.2620 -0.2843  0.1540
15601SOL    HW148416   7.580   9.063   7.296  1.7819 -0.6142  0.0669
15601SOL    HW248417   7.613   9.209   7.322  1.6279 -0.6325  0.3725
15602SOL     OW48418   0.378   3.387   8.673 -0.2849 -0.0233  0.1156
15602SOL    HW148419   0.371   3.329   8.598 -0.2730  2.5173 -2.0132
15602SOL    HW248420   0.469   3.378   8.701 -0.2317 -0.8718 -0.3006
15603SOL     OW48421   0.992   7.285   1.838  0.3457 -0.8697 -0.4100
15603SOL    HW148422   1.014   7.295   1.930  0.3647 -0.5263 -0.4513
15603SOL    HW248423   0.940   7.204   1.834 -0.8089 -0.1801  0.1102
15604SOL     OW48424   6.154   8.264   1.571  0.6241 -0.2444  0.0952
15604SOL    HW148425   6.172   8.355   1.548 -1.0217  0.2911  0.8191
15604SOL    HW248426   6.084   8.238   1.511  1.2273 -1.1158 -0.2468
15605SOL     OW48427   5.893   5.505   5.090  0.5176 -0.1005  0.0596
15605SOL    HW148428   5.915   5.418   5.124  0.5705 -0.3023 -0.4860
15605SOL    HW248429   5.955   5.520   5.019  0.8496  0.6125  0.4887
15606SOL     OW48430   2.076   9.600   7.532 -0.3273 -0.0318  0.3221
15606SOL    HW148431   1.996   9.627   7.487 -0.4853 -0.3293  0.4216
15606SOL    HW248432   2.113   9.681   7.566 -2.5011 -0.2057  3.4772
15607SOL     OW48433   6.342   3.259   7.353 -0.2368 -0.0598 -0.6927
15607SOL    HW148434   6.356   3.276   7.447  0.7601 -0.7623 -0.6921
15607SOL    HW248435   6.416   3.203   7.328  0.0779  0.9514 -2.1412
15608SOL     OW48436   8.293   4.201   3.501  0.5213 -0.2103  0.2016
15608SOL    HW148437   8.281   4.295   3.483 -2.4200 -0.3955  0.7264
15608SOL    HW248438   8.280   4.193   3.595  3.6500 -0.8722  0.7071
15609SOL     OW48439   6.173   5.246   1.721  0.4616  0.1411 -0.0811
15609SOL    HW148440   6.203   5.331   1.754  0.5172 -0.1543  0.6498
15609SOL    HW248441   6.191   5.249   1.627  1.5150  0.4996  0.1241
15610SOL     OW48442   5.933   0.980   5.442  0.2101 -0.1682  0.5636
15610SOL    HW148443   5.896   0.918   5.380 -0.5646  1.3313 -0.5399
15610SOL    HW248444   5.975   0.926   5.509 -0.9544 -1.8629 -0.0244
15611SOL     OW48445   0.508   1.167   3.766 -0.0466 -0.5409  0.5190
15611SOL    HW148446   0.422   1.165   3.808 -0.0877  0.7451  0.5368
15611SOL    HW248447   0.523   1.077   3.737 -2.8028 -0.2759 -2.2870
15612SOL     OW48448   4.358   2.818   0.935 -0.5446 -0.2637  0.4443
15612SOL    HW148449   4.366   2.781   0.847 -0.6210 -2.7855  1.4306
15612SOL    HW248450   4.354   2.913   0.920 -0.3641 -0.5906 -2.2346
15613SOL     OW48451   2.186   5.206   6.313 -0.5883 -0.2701 -0.1894
15613SOL    HW148452   2.240   5.130   6.292  0.5964  0.5282 -0.0919
15613SOL    HW248453   2.149   5.185   6.399 -1.0701 -1.1532 -0.5961
15614SOL     OW48454   2.298   3.154   9.127 -0.2543  0.5664  0.6472
15614SOL    HW148455   2.256   3.141   9.212  0.5165 -1.7912  0.7358
15614SOL    HW248456   2.386   3.185   9.147 -0.1131  0.1254  0.7226
15615SOL     OW48457   5.038   3.972   5.384  0.0250  0.1178  0.0228
15615SOL    HW148458   5.048   3.893   5.437 -0.2322 -1.0874 -1.6317
15615SOL    HW248459   5.115   4.025   5.405  0.0494 -0.4358  1.3968
15616SOL     OW48460   3.562   0.158   3.462  0.2290 -0.2102  0.2027
15616SOL    HW148461   3.554   0.248   3.492  0.1873  0.2847 -1.2177
15616SOL    HW248462   3.654   0.150   3.436  0.2030 -0.5327  0.2107
15617SOL     OW48463   4.448   0.630   8.410 -0.1116 -0.0518 -0.4421
15617SOL    HW148464   4.534   0.612   8.448 -0.9851 -0.4249  1.5116
15617SOL    HW248465   4.416   0.544   8.381 -0.2034 -0.0675 -0.2967
15618SOL     OW48466   2.275   0.225   5.717 -0.4276 -0.6200 -0.1847
15618SOL    HW148467   2.343   0.257   5.657  0.1380  0.1498  0.8341
15618SOL    HW248468   2.195   0.224   5.664  0.0104  0.2785 -0.8879
15619SOL     OW48469   8.071   7.411   9.749 -0.9901  0.4609 -0.5930
15619SOL    HW148470   8.090   7.461   9.670 -0.5653  1.3377  0.0377
15619SOL    HW248471   8.100   7.322   9.730  1.4556  1.1936 -0.5533
15620SOL     OW48472   0.875   7.645   2.883 -0.0478  0.0471  0.2332
15620SOL    HW148473   0.790   7.607   2.907 -0.2563 -0.0438 -0.5954
15620SOL    HW248474   0.854   7.706   2.812  0.7917 -1.3421 -1.2864
15621SOL     OW48475   9.015   4.716   4.670  0.0825 -0.0432  0.2533
15621SOL    HW148476   8.976   4.757   4.747 -1.2427  0.8240 -0.8212
15621SOL    HW248477   8.959   4.745   4.597  2.1900  0.4278 -1.2532
15622SOL     OW48478   3.688   2.963   8.482  0.1261  0.2719  0.1134
15622SOL    HW148479   3.760   2.993   8.426 -1.4724 -1.4130 -3.1081
15622SOL    HW248480   3.685   2.868   8.467 -0.8557 -0.1735  2.6307
15623SOL     OW48481   3.086   0.230   0.480  0.1652 -0.8451  0.1805
15623SOL    HW148482   3.113   0.164   0.544  1.4285  0.9545  1.6041
15623SOL    HW248483   2.993   0.214   0.467  0.2573 -2.3575  1.1418
15624SOL     OW48484   7.227   0.504   8.527  0.3598 -0.2983 -0.4926
15624SOL    HW148485   7.194   0.568   8.464  0.6684  0.0198 -0.3313
15624SOL    HW248486   7.155   0.490   8.588  1.0682  1.6932  0.8876
15625SOL     OW48487   1.679   0.573   4.846  0.1191  0.2979  0.0555
15625SOL    HW148488   1.726   0.646   4.888 -2.7400  2.4215 -0.1210
15625SOL    HW248489   1.715   0.570   4.758  1.8317 -0.0342  0.7254
15626SOL     OW48490   8.243   8.758   6.740  0.2458 -0.1160  0.0493
15626SOL    HW148491   8.320   8.756   6.684 -0.9234 -0.4248 -1.6220
15626SOL    HW248492   8.207   8.670   6.736 -2.7347  1.0107 -3.0204
15627SOL     OW48493   9.130   6.651   6.778 -0.3456 -0.1096  0.0530
15627SOL    HW148494   9.074   6.608   6.842 -1.4253  1.3237  0.1264
15627SOL    HW248495   9.096   6.623   6.693 -0.1351 -0.5159  0.1041
15628SOL     OW48496   6.119   3.147   4.548  0.4786  0.6538  0.4565
15628SOL    HW148497   6.137   3.053   4.542  0.0880  0.6714 -2.4583
15628SOL    HW248498   6.204   3.189   4.535  0.5167  0.7388  0.9374
15629SOL     OW48499   7.279   3.800   3.707 -0.0669 -0.1909 -0.1151
15629SOL    HW148500   7.362   3.839   3.680  0.5643 -1.0421  0.5644
15629SOL    HW248501   7.266   3.727   3.647  0.0419 -0.4999  0.2331
15630SOL     OW48502   6.638   8.117   8.542  0.3203 -0.3782  0.1358
15630SOL    HW148503   6.550   8.148   8.562 -0.0700 -1.4369  0.1037
15630SOL    HW248504   6.649   8.039   8.595  0.6236 -1.1782 -1.0627
15631SOL     OW48505   7.520   0.539   0.215 -0.1953  0.0516  0.4359
15631SOL    HW148506   7.519   0.443   0.224  0.8100  0.1008  1.1621
15631SOL    HW248507   7.565   0.555   0.132  1.8614 -0.0574  1.4819
15632SOL     OW48508   8.296   8.878   4.946  0.5444 -0.1444 -0.2945
15632SOL    HW148509   8.318   8.969   4.966  1.3402 -0.3397 -0.2515
15632SOL    HW248510   8.206   8.868   4.976 -0.1798  1.1290 -1.9324
15633SOL     OW48511   3.334   8.378   6.545 -0.0991  0.1577 -0.1665
15633SOL    HW148512   3.379   8.462   6.542 -2.0955  1.3941  1.4034
15633SOL    HW248513   3.378   8.328   6.614  0.4282  0.3458 -0.3689
15634SOL     OW48514   7.217   8.622   9.094  0.2139 -0.3277 -0.0331
15634SOL    HW148515   7.259   8.678   9.160  0.4260  1.3112 -1.4794
15634SOL    HW248516   7.185   8.684   9.028  0.5595 -1.9378 -1.7804
15635SOL     OW48517   0.303   1.794   1.921 -0.2074 -0.1617  0.3375
15635SOL    HW148518   0.332   1.703   1.909 -0.4194 -0.2777  0.6879
15635SOL    HW248519   0.207   1.789   1.913 -0.3246 -0.1660  1.5090
15636SOL     OW48520   1.660   0.696   6.250 -0.2863  0.2988  0.3359
15636SOL    HW148521   1.625   0.626   6.195  0.4610 -0.2728  0.5840
15636SOL    HW248522   1.582   0.736   6.290 -0.6594 -1.1735  1.1415
15637SOL     OW48523   3.039   1.814   4.777 -0.4150  0.3096 -0.6398
15637SOL    HW148524   3.114   1.756   4.790 -0.0309  0.8045 -0.6228
15637SOL    HW248525   2.972   1.781   4.837  0.2935  0.7393  0.4212
15638SOL     OW48526   9.477   0.534   5.840  0.0007  0.1740  0.3327
15638SOL    HW148527   9.510   0.449   5.812 -1.5396 -1.1727  2.2313
15638SOL    HW248528   9.472   0.527   5.936  0.1957  2.5648  0.5733
15639SOL     OW48529   5.436   5.127   6.725  0.5178 -0.4565 -0.0433
15639SOL    HW148530   5.359   5.176   6.754  0.0925 -1.5992  0.8219
15639SOL    HW248531   5.497   5.133   6.799  1.5336  0.9250 -0.9360
15640SOL     OW48532   7.409   2.894   8.478  0.2311  0.1714  0.1871
15640SOL    HW148533   7.439   2.930   8.562  2.5708 -2.2005  0.5035
15640SOL    HW248534   7.315   2.880   8.491  0.6452 -0.7822  2.7147
15641SOL     OW48535   1.274   3.326   8.229  0.2239  0.0151 -0.3545
15641SOL    HW148536   1.223   3.400   8.263 -0.1567  0.0700 -1.0368
15641SOL    HW248537   1.271   3.261   8.300 -2.7006 -0.8956 -1.1794
15642SOL     OW48538   4.109   3.105   3.296 -0.4276  0.3215 -0.7792
15642SOL    HW148539   4.030   3.069   3.254  0.3085  0.0708 -2.0196
15642SOL    HW248540   4.078   3.141   3.379 -2.5212  3.3802 -2.6627
15643SOL     OW48541   0.831   1.808   7.110  0.5825 -0.1249  0.9892
15643SOL    HW148542   0.785   1.731   7.143 -1.4684 -0.2399 -1.7773
15643SOL    HW248543   0.789   1.882   7.154  0.8953 -0.4347  1.8289
15644SOL     OW48544   0.169   1.799   7.289  0.2528  0.7448  0.5908
15644SOL    HW148545   0.183   1.722   7.234  0.2519  1.7002 -0.8122
15644SOL    HW248546   0.137   1.764   7.372 -0.2853 -0.7365 -0.1991
15645SOL     OW48547   0.367   1.504   1.844  0.2587 -0.1321 -0.1673
15645SOL    HW148548   0.335   1.431   1.897  0.5693  0.3496  0.7088
15645SOL    HW248549   0.462   1.501   1.854  0.2612  0.5313  0.0786
15646SOL     OW48550   7.145   6.365   0.882  0.7985 -0.0385  0.8927
15646SOL    HW148551   7.135   6.410   0.798  0.1713 -1.3891  0.2061
15646SOL    HW248552   7.055   6.344   0.908  0.9853  0.4427  1.9544
15647SOL     OW48553   2.392   1.103   2.354  0.1556 -0.2526 -0.0494
15647SOL    HW148554   2.461   1.037   2.348 -2.0062 -2.7426  0.6508
15647SOL    HW248555   2.410   1.163   2.281  3.2665 -0.4743  0.3959
15648SOL     OW48556   1.547   7.239   4.926  0.0964  0.0553 -0.1491
15648SOL    HW148557   1.498   7.315   4.957  0.2473 -0.6023  1.7941
15648SOL    HW248558   1.484   7.167   4.932  0.9029 -0.5649  1.1902
15649SOL     OW48559   0.061   4.899   6.745 -0.7624 -0.0606 -0.2548
15649SOL    HW148560   0.062   4.941   6.831  0.5582 -1.2798  0.3673
15649SOL    HW248561   0.140   4.932   6.701 -1.1852  0.2024 -0.8284
15650SOL     OW48562   2.266   2.487   2.794 -0.2198 -0.5628  0.5213
15650SOL    HW148563   2.230   2.425   2.731  3.5782 -1.5930 -0.9480
15650SOL    HW248564   2.266   2.571   2.748  1.2910 -1.0455 -0.4440
15651SOL     OW48565   9.549   9.736   3.945 -0.6450  0.4951  0.2790
15651SOL    HW148566   9.622   9.774   3.994  0.1206  0.4148 -0.7609
15651SOL    HW248567   9.573   9.747   3.853 -1.6865 -0.0401 -0.0779
15652SOL     OW48568   5.365   4.584   3.510 -0.0151  0.7460  0.0496
15652SOL    HW148569   5.378   4.599   3.604 -0.2740 -1.1837  0.4493
15652SOL    HW248570   5.446   4.544   3.480 -0.0952  0.9519 -0.4560
15653SOL     OW48571   4.799   4.630   5.781 -0.1282 -0.2126  0.2673
15653SOL    HW148572   4.887   4.629   5.743 -0.1134 -0.3217  0.3027
15653SOL    HW248573   4.754   4.701   5.737 -0.2705 -0.6471 -0.3052
15654SOL     OW48574   4.890   1.507   3.847  0.3660 -0.0724 -0.3540
15654SOL    HW148575   4.942   1.528   3.925 -0.2601  0.6838 -0.1296
15654SOL    HW248576   4.939   1.548   3.775  0.8518 -0.6208 -0.3436
15655SOL     OW48577   6.233   0.200   8.663 -0.0832 -0.0305  0.1054
15655SOL    HW148578   6.153   0.252   8.653 -0.7723 -0.7987  1.3724
15655SOL    HW248579   6.304   0.263   8.650 -0.8086  0.3607 -2.7066
15656SOL     OW48580   0.060   9.607   1.685  0.3665 -0.1700  0.0582
15656SOL    HW148581   0.109   9.684   1.656  3.9002 -1.8354  1.0294
15656SOL    HW248582   0.092   9.537   1.628 -1.5459 -1.2474  0.2606
15657SOL     OW48583   6.705   1.590   8.974 -0.6279 -0.2602  0.6595
15657SOL    HW148584   6.787   1.541   8.969  0.3281  1.0653  2.2800
15657SOL    HW248585   6.646   1.545   8.914  1.5515 -0.7426 -1.2786
15658SOL     OW48586   1.326   1.888   6.060 -1.0115  0.0599  0.3006
15658SOL    HW148587   1.256   1.904   6.123 -0.3219 -0.9459  1.3602
15658SOL    HW248588   1.396   1.947   6.087 -0.6443 -0.5089  0.6164
15659SOL     OW48589   3.988   4.269   8.740  0.2135 -1.0624 -0.2978
15659SOL    HW148590   4.070   4.227   8.767  0.2220 -0.7642  0.1555
15659SOL    HW248591   4.004   4.363   8.754  1.0466 -0.6286 -3.4835
15660SOL     OW48592   7.479   4.923   0.507 -0.9158  0.1154  0.6228
15660SOL    HW148593   7.497   5.015   0.525 -0.8884  0.4077 -0.7565
15660SOL    HW248594   7.412   4.924   0.439  0.9184 -0.7842 -1.3567
15661SOL     OW48595   0.309   2.127   5.225  0.6970  0.0950 -0.5372
15661SOL    HW148596   0.333   2.075   5.148  2.1940 -0.3034  0.1638
15661SOL    HW248597   0.221   2.097   5.248  0.8563 -0.8974 -1.1728
15662SOL     OW48598   8.387   4.231   0.257 -0.2212 -0.3509  0.8463
15662SOL    HW148599   8.427   4.318   0.254  1.6714 -1.1384  1.7182
15662SOL    HW248600   8.350   4.225   0.344 -2.3132  0.3509  0.0601
15663SOL     OW48601   9.053   2.774   3.903 -0.2139 -0.1067 -0.1207
15663SOL    HW148602   9.006   2.733   3.830 -0.7864  0.2632  0.0282
15663SOL    HW248603   9.065   2.865   3.875 -1.1543  0.2487  0.5642
15664SOL     OW48604   0.126   1.084   7.447 -0.3875 -0.4246 -0.2714
15664SOL    HW148605   0.142   1.160   7.503  0.5002 -0.8061  0.0159
15664SOL    HW248606   0.051   1.109   7.393 -0.4606  0.4341  0.2120
15665SOL     OW48607   0.687   3.528   2.816 -0.2350  0.1162 -0.1115
15665SOL    HW148608   0.630   3.603   2.832  0.8423  1.0476 -0.4616
15665SOL    HW248609   0.775   3.560   2.838  0.3564 -0.7646 -1.0884
15666SOL     OW48610   1.905   3.598   4.984  0.3543  0.0160  0.1029
15666SOL    HW148611   1.941   3.566   4.901 -0.2855  0.3460 -0.3141
15666SOL    HW248612   1.876   3.519   5.030 -0.7197 -0.0694 -0.6829
15667SOL     OW48613   0.407   1.812   9.409  0.5072  0.8404  0.5188
15667SOL    HW148614   0.486   1.770   9.443 -0.2518 -0.2830  0.9926
15667SOL    HW248615   0.428   1.834   9.318  1.0777 -0.2439  0.3708
15668SOL     OW48616   2.048   4.647   5.977 -0.2934 -0.3909  0.3221
15668SOL    HW148617   2.061   4.683   5.889 -1.4569 -0.0435  0.2773
15668SOL    HW248618   2.105   4.571   5.980 -0.5453 -0.6481 -0.8837
15669SOL     OW48619   9.527   5.038   0.934  0.3878  0.4343 -0.1416
15669SOL    HW148620   9.557   5.074   0.851  1.0818  1.1693  0.4086
15669SOL    HW248621   9.556   5.102   0.999 -2.6315  1.3795  0.4310
15670SOL     OW48622   9.807   8.486   8.409 -0.1874 -0.0724  0.4042
15670SOL    HW148623   9.755   8.508   8.332  1.5152 -0.5595 -0.9350
15670SOL    HW248624   9.892   8.527   8.394  1.1914 -2.6820  0.5252
15671SOL     OW48625   3.172   3.252   8.131  0.4992 -0.4322  0.3537
15671SOL    HW148626   3.138   3.326   8.182  1.0725 -1.0885  1.7428
15671SOL    HW248627   3.180   3.286   8.042 -0.9286  0.6365  0.5839
15672SOL     OW48628   6.753   0.397   0.671 -0.3202  0.6031  0.0574
15672SOL    HW148629   6.828   0.435   0.625 -0.2408 -0.2031 -0.5006
15672SOL    HW248630   6.694   0.368   0.601 -0.7537  0.4493  0.4800
15673SOL     OW48631   4.410   3.445   5.127  0.2981  0.0102 -0.4320
15673SOL    HW148632   4.424   3.474   5.037  1.3885  0.3887 -0.1561
15673SOL    HW248633   4.327   3.398   5.124  0.7277 -0.7294 -1.8190
15674SOL     OW48634   2.866   9.122   1.700  0.4445  0.2511 -0.0078
15674SOL    HW148635   2.789   9.065   1.691 -0.3327  1.3264 -0.3800
15674SOL    HW248636   2.911   9.116   1.616  0.3782  0.1810 -0.0380
15675SOL     OW48637   4.739   1.277   2.672 -0.3847  0.3954  0.2213
15675SOL    HW148638   4.743   1.312   2.583  0.3643  0.5005  0.2881
15675SOL    HW248639   4.742   1.182   2.661  1.7466  0.4254  0.1965
15676SOL     OW48640   6.230   7.090   0.055  0.2160  0.0312 -1.1066
15676SOL    HW148641   6.225   7.012   0.111  1.7440 -0.5885 -1.7540
15676SOL    HW248642   6.279   7.060  -0.022  1.0306  1.6816 -1.2764
15677SOL     OW48643   2.090   1.615   9.766 -0.1831  0.2256  0.2148
15677SOL    HW148644   2.045   1.537   9.799 -0.4788  1.6077  3.4919
15677SOL    HW248645   2.019   1.674   9.740  0.0160 -0.0852 -1.1297
15678SOL     OW48646   2.215   7.233   8.099 -0.3850 -0.5457 -0.1342
15678SOL    HW148647   2.257   7.179   8.032 -1.0747 -0.0214 -1.0042
15678SOL    HW248648   2.131   7.258   8.061 -0.2980  0.7367  0.4618
15679SOL     OW48649   6.589   0.629   7.532 -0.0807 -0.6363 -0.5455
15679SOL    HW148650   6.520   0.567   7.507 -2.9387  1.8713  0.5149
15679SOL    HW248651   6.646   0.634   7.456 -1.1978 -2.6052 -1.6031
15680SOL     OW48652   5.351   8.528   4.485 -0.4315  0.3461  0.3801
15680SOL    HW148653   5.431   8.493   4.523  0.3847  0.2302 -1.3690
15680SOL    HW248654   5.380   8.583   4.412 -1.9407 -0.1274 -0.6388
15681SOL     OW48655   1.885   3.728   2.264  0.0780 -0.1941  0.1589
15681SOL    HW148656   1.975   3.712   2.292  0.6092  2.3723  0.0947
15681SOL    HW248657   1.833   3.721   2.344  0.9906  2.7174  1.1113
15682SOL     OW48658   3.202   5.737   8.245 -0.2713  0.3309  0.3793
15682SOL    HW148659   3.211   5.652   8.202 -0.5600  0.4371  0.1004
15682SOL    HW248660   3.108   5.755   8.241 -0.2368  0.5628  0.6284
15683SOL     OW48661   6.966   6.247   9.327 -0.0384 -0.0167  0.3026
15683SOL    HW148662   6.900   6.186   9.296 -1.5394  1.6330  0.0939
15683SOL    HW248663   6.993   6.213   9.412 -0.6278 -1.1031  0.0693
15684SOL     OW48664   6.474   9.747   2.320 -0.1331  0.0641  0.0991
15684SOL    HW148665   6.480   9.763   2.226 -0.0701 -1.1580 -0.1108
15684SOL    HW248666   6.515   9.824   2.360  0.7133  0.1361 -0.8857
15685SOL     OW48667   8.863   0.131   2.148  0.4138  0.4823  0.4375
15685SOL    HW148668   8.855   0.225   2.135  0.7691  0.4278 -0.2069
15685SOL    HW248669   8.924   0.102   2.080 -0.1047 -0.2903  0.2802
15686SOL     OW48670   6.173   3.862   2.047  0.9639  0.0830  0.6383
15686SOL    HW148671   6.240   3.900   1.991 -0.4294  1.2430 -0.2833
15686SOL    HW248672   6.146   3.934   2.104 -0.3650 -0.0251  0.1603
15687SOL     OW48673   7.016   5.388   5.612 -0.1147 -0.5645  0.0978
15687SOL    HW148674   7.022   5.448   5.686 -0.3497  1.9639 -1.7981
15687SOL    HW248675   7.107   5.361   5.596  0.4951  1.8132 -0.8671
15688SOL     OW48676   0.467   5.989   5.212  0.3106  0.2161  0.0556
15688SOL    HW148677   0.470   6.085   5.215  2.6611  0.2050  3.8029
15688SOL    HW248678   0.556   5.963   5.191  0.7730 -1.0426  3.1437
15689SOL     OW48679   1.287   6.593   1.947  0.2099  0.6719 -0.4794
15689SOL    HW148680   1.338   6.518   1.978 -0.4797  0.1051 -0.6955
15689SOL    HW248681   1.282   6.581   1.852  1.1629  1.6780 -0.6791
15690SOL     OW48682   1.859   8.277   6.548  0.0059 -0.0979 -0.1946
15690SOL    HW148683   1.828   8.338   6.615  0.4908 -0.1670  0.0998
15690SOL    HW248684   1.923   8.327   6.498 -0.3264 -0.0599 -0.5853
15691SOL     OW48685   4.853   1.140   7.070 -0.3761  0.4237 -0.2999
15691SOL    HW148686   4.867   1.234   7.066 -0.1895  0.4054 -0.0573
15691SOL    HW248687   4.778   1.125   7.013 -1.3785  0.9183  0.8395
15692SOL     OW48688   9.369   3.022   8.006  0.5713 -0.0732  1.1610
15692SOL    HW148689   9.388   3.115   7.993 -1.5107  0.0405 -2.9229
15692SOL    HW248690   9.444   2.977   7.969  0.0324  0.1443 -0.2956
15693SOL     OW48691   9.640   4.381   9.507  0.3533 -0.2167  0.1320
15693SOL    HW148692   9.632   4.345   9.419 -1.0210  1.3821 -0.4490
15693SOL    HW248693   9.563   4.437   9.517  1.5206  1.2388  1.5535
15694SOL     OW48694   4.792   6.395   1.068  0.5931  0.4708  0.5146
15694SOL    HW148695   4.745   6.352   1.140 -0.6161  1.5302  0.3965
15694SOL    HW248696   4.884   6.390   1.093  0.3670 -0.9437  1.1547
15695SOL     OW48697   4.192   2.006   1.274 -0.0195  0.0131  0.4101
15695SOL    HW148698   4.275   2.050   1.255  0.1078  0.4514  1.8653
15695SOL    HW248699   4.206   1.916   1.247  1.1665 -0.0727  1.2068
15696SOL     OW48700   3.202   1.405   2.505 -0.1745  0.3828  0.0062
15696SOL    HW148701   3.264   1.409   2.579 -0.4945  0.0998  0.2921
15696SOL    HW248702   3.132   1.465   2.530  0.0238  0.7723 -0.3609
15697SOL     OW48703   0.766   3.277   7.163  0.2846  0.3179  0.0298
15697SOL    HW148704   0.830   3.333   7.119 -0.0670  1.1588  0.5650
15697SOL    HW248705   0.718   3.235   7.092  0.0428  1.2848 -0.4009
15698SOL     OW48706   8.864   8.821   4.907  0.1607 -0.0881 -0.1813
15698SOL    HW148707   8.840   8.759   4.838 -3.4015  1.8863 -0.9531
15698SOL    HW248708   8.895   8.898   4.860  0.3595  0.2853  0.5579
15699SOL     OW48709   1.355   2.368   6.980  0.3369  0.1521  0.1088
15699SOL    HW148710   1.317   2.313   7.049 -1.8644  1.0410 -0.3204
15699SOL    HW248711   1.444   2.335   6.971 -0.1738 -1.8259  1.4505
15700SOL     OW48712   0.419   5.979   6.695 -0.5279  0.6317  0.7494
15700SOL    HW148713   0.361   5.977   6.771 -1.4448  2.1323  0.1300
15700SOL    HW248714   0.360   5.985   6.620  0.3694 -0.7018 -0.0984
15701SOL     OW48715   9.233   8.027   2.029 -0.0509 -0.2527 -0.4433
15701SOL    HW148716   9.269   8.019   1.941 -0.9252 -1.3742 -0.7239
15701SOL    HW248717   9.138   8.029   2.016 -0.1686  0.6467  0.4128
15702SOL     OW48718   3.098   7.207   4.594 -0.2895  0.4059 -0.1041
15702SOL    HW148719   3.029   7.142   4.607  0.7426 -0.4724  1.3500
15702SOL    HW248720   3.119   7.201   4.501 -3.1690  1.7959 -0.9263
15703SOL     OW48721   6.600   3.398   7.712 -0.2079  0.7961 -0.0596
15703SOL    HW148722   6.653   3.478   7.706 -1.3073  1.5718  0.1958
15703SOL    HW248723   6.663   3.329   7.735  1.4273  0.8214 -3.6836
15704SOL     OW48724   5.479   0.344   2.950  0.5780  0.5220  0.1988
15704SOL    HW148725   5.428   0.265   2.932 -1.0998  1.2596  1.3950
15704SOL    HW248726   5.569   0.320   2.928 -0.4075 -0.3205 -3.6644
15705SOL     OW48727   8.105   3.153   7.332  0.6078 -0.5684 -0.0325
15705SOL    HW148728   8.047   3.227   7.316 -0.2381 -1.3679 -0.7638
15705SOL    HW248729   8.179   3.191   7.380 -0.3619  0.5367  0.6717
15706SOL     OW48730   4.884   5.360   6.138 -0.3362 -0.3112 -0.0009
15706SOL    HW148731   4.881   5.267   6.160  1.8381 -0.1956  0.9850
15706SOL    HW248732   4.931   5.364   6.054  0.3699 -0.0507  0.4018
15707SOL     OW48733   4.208   4.838   8.983 -0.1851 -0.3627 -0.1490
15707SOL    HW148734   4.114   4.840   8.964 -0.3492 -1.5136  0.4283
15707SOL    HW248735   4.216   4.775   9.055  0.9684  0.1596  0.2029
15708SOL     OW48736   4.121   6.599   5.636  0.5304  0.1746 -0.4670
15708SOL    HW148737   4.201   6.572   5.592  1.1977  2.8379 -1.0903
15708SOL    HW248738   4.125   6.695   5.636 -1.7099  0.3519  1.2722
15709SOL     OW48739   9.422   7.559   3.088 -0.0761 -0.7813 -0.0257
15709SOL    HW148740   9.369   7.485   3.057 -1.7598 -0.2503  1.3538
15709SOL    HW248741   9.506   7.520   3.111 -0.5253 -2.0636 -0.4290
15710SOL     OW48742   0.865   4.864   4.210 -0.3537  0.0496 -0.2862
15710SOL    HW148743   0.927   4.792   4.218 -1.9827 -1.4816 -0.8281
15710SOL    HW248744   0.824   4.871   4.296 -0.1461  0.3872 -0.2131
15711SOL     OW48745   7.000   1.815   7.529  0.2202 -0.0691  0.8896
15711SOL    HW148746   7.024   1.813   7.436  2.4547 -2.6951  1.3735
15711SOL    HW248747   6.965   1.728   7.545  1.2196 -0.1598  2.7825
15712SOL     OW48748   0.192   5.847   0.315 -0.1782  0.0132  0.4941
15712SOL    HW148749   0.190   5.753   0.300 -1.7217  0.4311 -2.9770
15712SOL    HW248750   0.285   5.870   0.313  0.1211 -1.1984 -0.6134
15713SOL     OW48751   8.671   4.818   5.723  0.5352  0.0179 -0.0741
15713SOL    HW148752   8.591   4.768   5.742  0.3027  0.3947 -0.0606
15713SOL    HW248753   8.657   4.854   5.636  1.0923 -0.6986 -0.4709
15714SOL     OW48754   9.030   8.526   7.013  0.5721 -0.1270 -0.0065
15714SOL    HW148755   9.086   8.549   6.939  0.4173  0.0632 -0.0654
15714SOL    HW248756   8.956   8.587   7.008  0.9400  0.3987  0.7606
15715SOL     OW48757   3.752   5.992   9.235 -0.2746 -0.1333  0.1517
15715SOL    HW148758   3.826   6.051   9.224 -1.0297  0.5834 -1.4262
15715SOL    HW248759   3.683   6.046   9.274 -1.0017  0.1126 -1.3921
15716SOL     OW48760   4.133   1.761   2.264  0.0799  0.4037  0.3545
15716SOL    HW148761   4.181   1.723   2.337 -1.3647 -1.8591  0.2169
15716SOL    HW248762   4.116   1.852   2.292 -0.8003 -0.4797  3.0625
15717SOL     OW48763   9.596   6.835   1.884 -0.1869  0.3575 -0.5850
15717SOL    HW148764   9.553   6.809   1.803 -2.7412  1.0147  0.4700
15717SOL    HW248765   9.554   6.917   1.908  0.8752  0.4429  1.1518
15718SOL     OW48766   5.126   0.399   8.415  0.0962 -0.1626  0.1192
15718SOL    HW148767   5.115   0.481   8.465 -1.2716  0.3518 -0.9490
15718SOL    HW248768   5.098   0.422   8.326  0.4962 -1.5919 -0.3950
15719SOL     OW48769   7.881   9.128   7.003 -0.3125 -0.7325 -0.6282
15719SOL    HW148770   7.853   9.039   6.980  1.3699 -1.4843  0.0086
15719SOL    HW248771   7.902   9.123   7.096  0.6917  0.0687 -0.7981
15720SOL     OW48772   3.046   6.774   8.152  0.3040 -0.2020  0.0599
15720SOL    HW148773   2.994   6.738   8.080 -2.2089  0.0813  1.6063
15720SOL    HW248774   3.049   6.868   8.134  1.6584 -0.3737 -0.7990
15721SOL     OW48775   6.801   8.959   7.482  0.1211 -0.5740 -0.0255
15721SOL    HW148776   6.896   8.955   7.473  0.0737 -1.3803 -0.2959
15721SOL    HW248777   6.779   9.051   7.467  0.9016 -0.2875  0.5227
15722SOL     OW48778   6.370   1.932   5.448 -0.1798 -0.1557 -0.6207
15722SOL    HW148779   6.385   1.881   5.369 -0.9168  0.1151 -0.9472
15722SOL    HW248780   6.318   2.007   5.419  1.2549  1.0440 -0.2438
15723SOL     OW48781   2.794   7.117   4.085 -0.6449 -0.3547  0.1874
15723SOL    HW148782   2.780   7.110   3.990  0.7747 -1.5600  0.0369
15723SOL    HW248783   2.769   7.031   4.119  0.0917 -0.3648  0.7244
15724SOL     OW48784   8.709   7.785   2.827  0.5829  0.2409 -0.1593
15724SOL    HW148785   8.790   7.787   2.777  1.0616  2.2289  0.6284
15724SOL    HW248786   8.733   7.812   2.916 -0.7309 -0.3321  0.4060
15725SOL     OW48787   0.587   6.473   4.999 -0.6890 -0.1631 -0.1517
15725SOL    HW148788   0.599   6.465   5.094  0.8311  0.8931 -0.2223
15725SOL    HW248789   0.508   6.524   4.989 -0.1176  0.9021  0.5992
15726SOL     OW48790   8.312   4.113   4.108  0.2169  0.1543  0.6336
15726SOL    HW148791   8.317   4.022   4.078  0.4232 -0.2441  1.8175
15726SOL    HW248792   8.401   4.133   4.137 -0.0099  0.4708  1.1141
15727SOL     OW48793   3.058   1.428   4.489 -0.2198  0.3681  0.1893
15727SOL    HW148794   3.115   1.351   4.497 -1.1013 -0.3910 -0.6406
15727SOL    HW248795   3.119   1.502   4.489  0.8381 -0.4511 -1.1775
15728SOL     OW48796   5.073   2.009   5.551 -1.0470  0.2591 -0.5936
15728SOL    HW148797   5.073   2.089   5.499 -1.3822 -0.1692 -1.2694
15728SOL    HW248798   5.114   1.944   5.494 -0.4540  0.0233  0.0801
15729SOL     OW48799   7.493   6.667   8.548 -0.1312  0.4427  0.4316
15729SOL    HW148800   7.566   6.651   8.609  0.1687  1.7194  0.4331
15729SOL    HW248801   7.419   6.689   8.605  0.0051  1.0888  0.3657
15730SOL     OW48802   3.977   3.962   1.672  0.0679  0.3282  0.3718
15730SOL    HW148803   4.001   3.870   1.668 -2.5949 -0.4002 -0.3763
15730SOL    HW248804   4.015   3.993   1.755  1.8365 -1.1215  0.1635
15731SOL     OW48805   9.664   6.725   3.829 -0.1943  0.0407 -0.1240
15731SOL    HW148806   9.645   6.655   3.891  1.0227  0.4738  0.7768
15731SOL    HW248807   9.598   6.792   3.847 -0.0410  0.0306  0.4959
15732SOL     OW48808   3.778   8.521   5.169 -0.1954 -0.2653 -0.0304
15732SOL    HW148809   3.722   8.587   5.210  1.8520  0.6895  1.3687
15732SOL    HW248810   3.774   8.446   5.228 -0.3083 -0.3428 -0.1360
15733SOL     OW48811   6.810   8.858   1.132  0.1306 -0.1067  0.9645
15733SOL    HW148812   6.863   8.788   1.170 -0.6125 -0.7009  0.9539
15733SOL    HW248813   6.811   8.840   1.037  1.1611  0.7812  0.8000
15734SOL     OW48814   9.812   6.283   9.366 -0.4632 -0.1918  0.1615
15734SOL    HW148815   9.797   6.189   9.353  0.8842 -0.3091 -0.7503
15734SOL    HW248816   9.802   6.321   9.279  1.7532  0.0753 -0.0300
15735SOL     OW48817   2.230   7.588   2.832  0.2586  0.7618 -0.0402
15735SOL    HW148818   2.213   7.566   2.740  0.1138  3.0941 -0.6305
15735SOL    HW248819   2.169   7.660   2.851  0.5687  0.5970  1.7755
15736SOL     OW48820   4.357   9.608   6.362  0.2137  0.1026 -0.3511
15736SOL    HW148821   4.353   9.656   6.280 -0.5089  0.1791 -0.2800
15736SOL    HW248822   4.392   9.671   6.425 -0.3817  0.4347 -0.3404
15737SOL     OW48823   5.455   2.629   6.267  0.1766 -0.2284  0.2988
15737SOL    HW148824   5.386   2.695   6.275  1.2354  0.8110  1.2785
15737SOL    HW248825   5.421   2.553   6.313 -0.2905  0.3033  0.8487
15738SOL     OW48826   6.734   0.295   2.012  0.0184  0.0618 -0.0845
15738SOL    HW148827   6.732   0.350   2.091 -0.0644 -0.8290  0.5534
15738SOL    HW248828   6.693   0.212   2.040 -3.1694  0.8353 -1.9219
15739SOL     OW48829   0.361   6.658   4.597 -0.0176 -0.1671 -0.4637
15739SOL    HW148830   0.381   6.565   4.585  0.2235 -0.0538 -0.9949
15739SOL    HW248831   0.319   6.684   4.515 -2.6736 -0.4523  0.6934
15740SOL     OW48832   4.381   4.742   2.923 -0.2359  0.3578 -0.0650
15740SOL    HW148833   4.353   4.658   2.886 -0.1728  0.1555  0.3476
15740SOL    HW248834   4.300   4.792   2.934 -0.6168 -0.6711  2.2451
15741SOL     OW48835   9.476   4.096   1.697 -0.3063  0.3257 -0.1318
15741SOL    HW148836   9.446   4.187   1.689 -0.4357  0.1861 -1.5402
15741SOL    HW248837   9.568   4.098   1.670 -0.0513  0.1634  0.6855
15742SOL     OW48838   0.991   2.537   7.227 -0.3433  0.8844 -0.0024
15742SOL    HW148839   1.004   2.602   7.158 -0.9855  0.1105 -0.8918
15742SOL    HW248840   0.993   2.453   7.181 -0.6258  0.3397  0.9511
15743SOL     OW48841   6.424   4.732   6.989 -0.6527 -0.0442  0.8043
15743SOL    HW148842   6.441   4.764   6.901 -0.6815  0.6143  1.0326
15743SOL    HW248843   6.495   4.670   7.006 -1.0071 -0.6479  0.0865
15744SOL     OW48844   9.373   7.921   8.019  0.0673 -0.1983  0.1517
15744SOL    HW148845   9.303   7.956   8.074 -0.0523  1.7143 -1.1052
15744SOL    HW248846   9.331   7.905   7.934  0.8194 -0.4976 -0.1745
15745SOL     OW48847   0.160   3.748   8.250  0.1429 -0.7120  0.4215
15745SOL    HW148848   0.229   3.708   8.198  0.4021  0.4523 -0.1547
15745SOL    HW248849   0.206   3.808   8.309 -0.3502 -0.1946  0.2812
15746SOL     OW48850   2.870   7.118   5.777 -0.2116  0.1882 -0.5252
15746SOL    HW148851   2.924   7.167   5.716 -0.0210 -0.0069 -0.5131
15746SOL    HW248852   2.789   7.101   5.728  0.0190 -0.1477 -0.8046
15747SOL     OW48853   0.959   4.621   4.347  0.1984 -0.3188  0.0423
15747SOL    HW148854   1.038   4.595   4.394  0.8314  0.7389 -0.4051
15747SOL    HW248855   0.919   4.688   4.402  0.2083 -0.0587 -0.2668
15748SOL     OW48856   7.776   1.708   0.135  0.3130 -0.3639  0.6717
15748SOL    HW148857   7.857   1.688   0.183  0.8326 -0.3351 -0.1806
15748SOL    HW248858   7.805   1.758   0.059 -0.6598  1.0017  1.1552
15749SOL     OW48859   4.241   5.418   3.365  0.0259  0.2726  0.3559
15749SOL    HW148860   4.233   5.412   3.270 -0.5851  0.6138  0.3747
15749SOL    HW248861   4.221   5.509   3.385 -0.0793  0.1508  0.8309
15750SOL     OW48862   5.354   7.559   4.054 -0.0444  0.4485  0.4463
15750SOL    HW148863   5.431   7.517   4.015 -0.6429 -0.5928  0.3480
15750SOL    HW248864   5.287   7.554   3.986 -1.0400 -1.1956  1.5027
15751SOL     OW48865   2.825   6.300   2.480  0.0506  0.6340 -0.2728
15751SOL    HW148866   2.812   6.307   2.386  1.5561 -0.1814 -0.5707
15751SOL    HW248867   2.886   6.371   2.501  0.5434  0.1646 -0.1002
15752SOL     OW48868   7.669   7.721   1.835 -0.3363  0.3001 -0.2383
15752SOL    HW148869   7.696   7.812   1.825 -2.5466  1.0150 -0.1841
15752SOL    HW248870   7.657   7.689   1.746  0.5583 -0.0013 -0.2609
15753SOL     OW48871   7.300   5.952   0.342 -0.0653 -0.3568  0.0391
15753SOL    HW148872   7.327   5.916   0.258 -0.4284  0.2528 -0.3414
15753SOL    HW248873   7.331   5.887   0.406  0.2809 -0.7865 -0.5472
15754SOL     OW48874   5.156   6.946   3.145  0.2547  0.7878  0.1814
15754SOL    HW148875   5.248   6.965   3.161 -0.0792  1.9650  0.8676
15754SOL    HW248876   5.120   6.925   3.231 -0.1539  0.5223 -0.0494
15755SOL     OW48877   4.941   8.026   5.194 -0.2621  0.1402 -0.0110
15755SOL    HW148878   4.992   8.066   5.124 -0.2727  0.5116  0.1905
15755SOL    HW248879   4.856   8.070   5.191 -0.7493 -0.7961 -0.6430
15756SOL     OW48880   6.992   6.175   2.355  0.8112 -0.1395 -0.0529
15756SOL    HW148881   7.057   6.120   2.398 -0.0830 -0.3150  1.1643
15756SOL    HW248882   7.020   6.265   2.374  1.8296 -0.1537 -1.3532
15757SOL     OW48883   5.641   1.018   1.429 -0.2497  0.0329 -0.3689
15757SOL    HW148884   5.604   1.068   1.357  1.0225  3.3068  1.0464
15757SOL    HW248885   5.732   1.002   1.403  0.5757  2.2947  0.8720
15758SOL     OW48886   7.500   6.574   2.355  0.3392  0.7544 -0.0382
15758SOL    HW148887   7.548   6.644   2.311 -0.1422  1.3726  0.3948
15758SOL    HW248888   7.477   6.611   2.440 -0.2545  0.2049  0.0466
15759SOL     OW48889   6.355   0.430   5.901  0.5313 -1.0008 -0.1959
15759SOL    HW148890   6.443   0.457   5.876  0.1597  0.0667 -0.4057
15759SOL    HW248891   6.322   0.502   5.955 -0.0146 -1.6335  0.3349
15760SOL     OW48892   3.788   0.949   9.829  0.0559  0.1185  0.1658
15760SOL    HW148893   3.799   0.896   9.908  0.4696 -1.0503 -0.6459
15760SOL    HW248894   3.827   1.034   9.851  2.1440 -0.8611  0.5511
15761SOL     OW48895   4.925   1.446   9.138  0.3470 -0.5717  0.0081
15761SOL    HW148896   4.906   1.495   9.219  0.4375  1.8971 -1.3725
15761SOL    HW248897   5.013   1.475   9.113  0.7740 -2.1599 -0.4423
15762SOL     OW48898   4.237   2.514   2.898 -0.2283 -0.5311  0.2345
15762SOL    HW148899   4.288   2.503   2.978  1.4986  3.3731 -0.0661
15762SOL    HW248900   4.153   2.550   2.928 -0.6267 -1.5735  0.4000
15763SOL     OW48901   4.287   5.748   6.457  0.1435 -0.3601 -0.1527
15763SOL    HW148902   4.364   5.692   6.449  0.7605  0.5188 -0.4688
15763SOL    HW248903   4.233   5.725   6.381  0.5435 -0.3112 -0.4593
15764SOL     OW48904   2.599   1.540   2.230 -0.0435 -0.3865  0.4317
15764SOL    HW148905   2.608   1.548   2.325  3.6197 -1.2213  0.3385
15764SOL    HW248906   2.641   1.619   2.195 -2.4254  0.5151 -0.5831
15765SOL     OW48907   8.387   1.269   2.559  0.6066 -0.1832  0.0846
15765SOL    HW148908   8.435   1.237   2.636 -0.0625 -0.5246  0.3626
15765SOL    HW248909   8.295   1.256   2.581  0.3205  1.4624  0.0116
15766SOL     OW48910   5.428   7.398   2.627 -0.2777 -0.0216 -0.5721
15766SOL    HW148911   5.351   7.444   2.595 -0.8417  0.9312  1.9067
15766SOL    HW248912   5.429   7.316   2.578 -2.3158  0.3600 -1.3512
15767SOL     OW48913   3.091   5.883   6.652 -0.6094  0.2880 -0.2593
15767SOL    HW148914   3.170   5.888   6.705 -1.1765  2.3761  0.4993
15767SOL    HW248915   3.114   5.926   6.570 -0.4659 -0.6708 -0.7303
15768SOL     OW48916   1.700   9.478   6.015 -0.2955 -0.1533 -0.0511
15768SOL    HW148917   1.638   9.414   5.978  0.2518 -0.5105 -0.3602
15768SOL    HW248918   1.738   9.521   5.938  0.1489 -0.2344  0.1236
15769SOL     OW48919   4.520   7.708   1.601  0.2300  0.6253  0.0378
15769SOL    HW148920   4.472   7.743   1.676  2.5927  1.0854  1.4632
15769SOL    HW248921   4.510   7.774   1.533 -1.9059  0.2362 -0.0762
15770SOL     OW48922   2.356   4.154   1.370  0.1739 -0.2108  0.2879
15770SOL    HW148923   2.413   4.214   1.321 -0.8033  1.0440  0.6255
15770SOL    HW248924   2.361   4.071   1.322  2.1125 -0.0834  0.2179
15771SOL     OW48925   3.282   8.424   5.886 -0.6726  0.3443  0.1920
15771SOL    HW148926   3.297   8.331   5.902  0.4127  0.6068  0.8021
15771SOL    HW248927   3.350   8.449   5.825 -0.1036  1.0196  1.0774
15772SOL     OW48928   6.483   4.247   6.464  0.6706  0.0252  0.1425
15772SOL    HW148929   6.572   4.258   6.431  0.1766  0.2265 -1.1937
15772SOL    HW248930   6.494   4.210   6.552  2.0425 -3.0213 -1.1528
15773SOL     OW48931   4.852   0.516   9.184 -0.1319 -0.4884  0.3388
15773SOL    HW148932   4.878   0.605   9.163 -0.9643 -0.3616 -0.1843
15773SOL    HW248933   4.869   0.508   9.278  1.6754 -0.3923  0.0572
15774SOL     OW48934   5.913   6.820   0.991  0.2156 -0.0727  0.3369
15774SOL    HW148935   6.002   6.853   0.978  0.5431 -1.2564 -0.5926
15774SOL    HW248936   5.857   6.893   0.966  0.9304 -0.0593 -1.4224
15775SOL     OW48937   1.551   7.811   4.624  0.1835 -0.2774  0.1096
15775SOL    HW148938   1.604   7.889   4.642 -0.2943  0.3248 -0.9991
15775SOL    HW248939   1.611   7.738   4.635  0.5085  0.1819  1.7368
15776SOL     OW48940   0.332   6.537   2.535  0.3861 -0.2274  0.9079
15776SOL    HW148941   0.335   6.631   2.554  2.0649 -0.0763  0.0573
15776SOL    HW248942   0.240   6.513   2.548 -0.1123  1.5687  0.9448
15777SOL     OW48943   7.084   2.315   7.542 -0.4937  0.1945 -0.3445
15777SOL    HW148944   7.034   2.384   7.585  1.8827  2.1871 -0.5715
15777SOL    HW248945   7.114   2.259   7.613 -3.0819 -1.1669 -0.2241
15778SOL     OW48946   0.740   5.780   9.219 -0.3971  0.8160  0.5363
15778SOL    HW148947   0.783   5.761   9.136 -0.3320 -0.4188  0.8332
15778SOL    HW248948   0.705   5.869   9.208  2.3342  1.9657  0.3479
15779SOL     OW48949   8.161   5.158   7.955 -0.3467  0.0147  0.4234
15779SOL    HW148950   8.080   5.122   7.919  0.1256 -1.4857  0.8134
15779SOL    HW248951   8.198   5.210   7.884 -1.1456 -0.1042 -0.0931
15780SOL     OW48952   7.869   6.807   6.354  0.5872  0.0093 -0.2250
15780SOL    HW148953   7.951   6.760   6.337  1.0724  1.1632 -1.1948
15780SOL    HW248954   7.848   6.786   6.445  2.7514  0.8415  0.5354
15781SOL     OW48955   9.156   6.127   4.668  0.3979 -0.4866  0.4363
15781SOL    HW148956   9.146   6.071   4.591  0.7515  0.3364 -0.2187
15781SOL    HW248957   9.117   6.077   4.739 -1.0398 -0.7419 -0.5041
15782SOL     OW48958   6.069   2.487   8.596 -1.0779 -0.3364  0.6967
15782SOL    HW148959   6.146   2.443   8.633  0.1096  0.2535 -0.9455
15782SOL    HW248960   6.001   2.420   8.594  0.5356 -2.0435 -1.3142
15783SOL     OW48961   3.181   3.261   0.164 -0.3117  0.4963  0.4684
15783SOL    HW148962   3.155   3.215   0.244 -1.0040 -1.4311 -0.7857
15783SOL    HW248963   3.271   3.234   0.149 -1.3778 -2.5394 -1.4842
15784SOL     OW48964   4.861   9.009   9.589 -0.1982 -0.8143 -0.0952
15784SOL    HW148965   4.843   9.092   9.546 -0.7191 -0.6797  0.3661
15784SOL    HW248966   4.919   9.031   9.662 -0.8593 -0.7475  0.4220
15785SOL     OW48967   7.961   7.839   5.409  0.3413 -0.1222 -0.2345
15785SOL    HW148968   8.000   7.777   5.348 -1.1575 -0.4296 -0.9111
15785SOL    HW248969   7.871   7.850   5.379  0.2124  1.4441  0.5957
15786SOL     OW48970   7.011   7.995   5.037 -0.0576  0.2507  0.0658
15786SOL    HW148971   6.954   7.933   5.081  0.1986 -0.6841 -0.8618
15786SOL    HW248972   7.006   7.970   4.944  3.2186 -1.1121  0.0952
15787SOL     OW48973   5.743   1.779   6.518 -0.1893 -0.0826  0.2879
15787SOL    HW148974   5.834   1.795   6.543 -0.4063  0.4867  0.7397
15787SOL    HW248975   5.693   1.839   6.573 -0.8357 -0.3758  0.0213
15788SOL     OW48976   7.343   5.581   0.727 -0.3483 -0.0632  0.1399
15788SOL    HW148977   7.339   5.626   0.812  0.8501 -0.9307  0.6930
15788SOL    HW248978   7.301   5.496   0.743 -0.2756 -0.1595 -0.1854
15789SOL     OW48979   4.666   3.988   1.156  0.4701  0.0233 -0.3889
15789SOL    HW148980   4.684   3.903   1.197  3.4654 -0.2643 -1.9905
15789SOL    HW248981   4.677   3.972   1.062 -1.9055  1.5907 -1.0105
15790SOL     OW48982   7.111   3.005   8.763  0.3423  0.0070 -0.4705
15790SOL    HW148983   7.138   2.982   8.674  0.0425  0.2164 -0.6152
15790SOL    HW248984   7.065   3.089   8.753 -0.7131 -0.5331 -0.2776
15791SOL     OW48985   1.646   7.854   0.349 -0.1461 -0.3932 -0.0730
15791SOL    HW148986   1.629   7.931   0.402 -1.9856 -0.2763 -0.7758
15791SOL    HW248987   1.660   7.784   0.412  0.1063  0.2099  0.5545
15792SOL     OW48988   2.093   9.530   5.567 -0.1884 -0.5901 -0.8188
15792SOL    HW148989   2.141   9.535   5.485 -0.5394 -1.8813 -1.1280
15792SOL    HW248990   2.151   9.570   5.632  1.5110 -2.4284 -1.1086
15793SOL     OW48991   5.985   7.621   5.238 -0.3432 -0.4932 -0.4631
15793SOL    HW148992   5.946   7.644   5.322 -1.0296  0.9892 -1.1558
15793SOL    HW248993   5.988   7.525   5.238 -0.0117 -0.5169  1.3748
15794SOL     OW48994   2.693   2.289   5.925 -0.0709 -0.3800  0.1289
15794SOL    HW148995   2.778   2.260   5.891  1.4059  1.0520  2.2953
15794SOL    HW248996   2.709   2.377   5.959 -2.6117  0.1813  0.0976
15795SOL     OW48997   4.034   7.790   7.155 -0.0399  0.3994 -0.7229
15795SOL    HW148998   4.052   7.699   7.135  0.0314 -0.2400  1.8634
15795SOL    HW248999   4.110   7.819   7.205 -1.6628  0.6652  1.7626
15796SOL     OW49000   7.885   4.400   1.017  0.2184  0.0940 -0.1382
15796SOL    HW149001   7.890   4.305   1.020 -1.2393 -0.0308 -0.6463
15796SOL    HW249002   7.973   4.429   0.993  0.6463 -1.1268 -0.0773
15797SOL     OW49003   0.094   2.242   5.989 -0.1766  0.0928 -0.0892
15797SOL    HW149004   0.135   2.317   5.946 -1.8150  0.8306 -0.4519
15797SOL    HW249005   0.036   2.281   6.055  0.9219 -0.9605  1.5923
15798SOL     OW49006   1.501   9.305   5.960  0.7097  0.1021 -0.6725
15798SOL    HW149007   1.443   9.230   5.977 -0.4062  1.3467  1.4681
15798SOL    HW249008   1.547   9.282   5.880 -1.2665 -1.8757 -1.3440
15799SOL     OW49009   5.309   7.159   4.398  0.1953  0.7708  0.0744
15799SOL    HW149010   5.286   7.232   4.341 -1.5516 -0.5638 -1.0553
15799SOL    HW249011   5.347   7.094   4.339  1.0261  0.4421  0.9399
15800SOL     OW49012   4.249   7.809   4.350 -0.1429  0.0113 -0.0962
15800SOL    HW149013   4.175   7.752   4.327 -0.7868  0.0084  1.7822
15800SOL    HW249014   4.262   7.864   4.273  0.0588 -2.1922 -1.7077
15801SOL     OW49015   0.363   5.946   8.730 -0.0090  0.3299 -0.2040
15801SOL    HW149016   0.312   6.025   8.715 -0.0475  0.1661 -0.9609
15801SOL    HW249017   0.454   5.973   8.715  0.1381  0.5967  1.0439
15802SOL     OW49018   3.513   5.676   1.184  0.3001 -0.4931 -0.0962
15802SOL    HW149019   3.540   5.730   1.258  1.4508 -0.8190 -0.2493
15802SOL    HW249020   3.549   5.589   1.203 -1.0490 -1.0698 -0.1211
15803SOL     OW49021   0.568   1.308   4.276  0.0545  0.0109  0.5876
15803SOL    HW149022   0.660   1.285   4.290 -0.0152 -1.0521 -0.5388
15803SOL    HW249023   0.559   1.311   4.181 -1.1709 -0.3135  0.6862
15804SOL     OW49024   8.866   5.486   4.871  0.4231  0.3519 -0.5079
15804SOL    HW149025   8.902   5.409   4.915  1.7876  1.1781 -0.1320
15804SOL    HW249026   8.841   5.454   4.784 -0.9014 -0.9524  0.3101
15805SOL     OW49027   6.163   8.490   7.430 -0.4043 -0.1424  0.5033
15805SOL    HW149028   6.132   8.579   7.418 -0.4414 -0.5058 -3.8264
15805SOL    HW249029   6.084   8.436   7.425 -0.0398 -0.5716 -1.2022
15806SOL     OW49030   2.044   1.527   5.981  0.3472  0.2203  0.0138
15806SOL    HW149031   2.005   1.481   6.056 -0.3628  0.9297  0.0924
15806SOL    HW249032   2.045   1.619   6.008  1.6789  0.2743 -0.1680
15807SOL     OW49033   2.698   2.548   3.335  0.3230 -0.6714 -0.2866
15807SOL    HW149034   2.707   2.569   3.242 -0.5223 -1.6035 -0.6075
15807SOL    HW249035   2.671   2.456   3.335  2.1719 -1.2770  0.9524
15808SOL     OW49036   0.175   1.407   7.477  1.0016 -0.1717  0.6467
15808SOL    HW149037   0.149   1.495   7.450  1.3719 -0.5239 -0.9635
15808SOL    HW249038   0.112   1.383   7.545 -0.6890  0.3617 -0.6633
15809SOL     OW49039   0.077   9.114   1.273 -0.0951 -0.1448  0.3744
15809SOL    HW149040   0.066   9.087   1.364 -1.8931 -0.3170  0.1496
15809SOL    HW249041   0.116   9.038   1.230 -0.1749 -0.4258  0.7948
15810SOL     OW49042   9.610   6.128   9.836 -0.0936  0.3730 -0.2375
15810SOL    HW149043   9.520   6.151   9.860 -0.0612 -0.3310  0.6339
15810SOL    HW249044   9.664   6.186   9.890 -0.0216  0.8386 -0.8077
15811SOL     OW49045   4.037   7.689   0.167  0.0950  0.0778  0.6599
15811SOL    HW149046   3.971   7.743   0.210  1.5161  0.0950  3.0143
15811SOL    HW249047   4.004   7.677   0.078 -1.2314  3.1952  0.5894
15812SOL     OW49048   4.928   4.218   2.006  0.0723  0.6018  1.1647
15812SOL    HW149049   4.885   4.140   2.041 -0.4997  0.1822 -0.4015
15812SOL    HW249050   4.857   4.281   1.994 -0.0483  0.1654 -0.7234
15813SOL     OW49051   7.734   3.238   8.380 -0.1223 -0.6085  0.7449
15813SOL    HW149052   7.734   3.314   8.323  0.2413 -1.2120 -0.0779
15813SOL    HW249053   7.827   3.218   8.393 -0.1880 -2.0140 -0.5875
15814SOL     OW49054   4.221   1.897   2.811  0.2334 -0.1392  0.2632
15814SOL    HW149055   4.309   1.909   2.777  0.2767 -1.1691 -0.0138
15814SOL    HW249056   4.187   1.821   2.765 -0.6273 -0.0480  0.7172
15815SOL     OW49057   6.968   7.121   2.245 -0.4008  0.3506 -0.1439
15815SOL    HW149058   7.037   7.070   2.202 -1.6283 -1.3677 -0.1766
15815SOL    HW249059   7.001   7.136   2.334  0.0337 -0.4052 -0.1703
15816SOL     OW49060   5.162   1.177   6.026 -0.5338 -0.5977 -0.4313
15816SOL    HW149061   5.069   1.174   6.002 -0.5412  1.7312 -0.9368
15816SOL    HW249062   5.168   1.249   6.089  1.1493  0.4806 -1.7206
15817SOL     OW49063   1.295   7.690   4.663  0.0773 -0.2206 -0.1046
15817SOL    HW149064   1.332   7.602   4.667 -0.7901 -0.6531 -1.1681
15817SOL    HW249065   1.368   7.745   4.635  0.0795 -0.9778 -1.6933
15818SOL     OW49066   3.030   1.260   8.579  0.5137 -0.0698 -0.2829
15818SOL    HW149067   2.971   1.270   8.654 -1.3656  0.9968 -1.8251
15818SOL    HW249068   3.067   1.172   8.589  0.0964 -0.0646  1.7181
15819SOL     OW49069   1.668   2.909   5.996 -0.0620  0.2693 -0.0585
15819SOL    HW149070   1.586   2.861   5.995 -0.1016  0.2826 -1.9608
15819SOL    HW249071   1.735   2.842   6.004 -0.2134  0.1221 -0.0349
15820SOL     OW49072   4.800   7.033   0.104  0.3021 -0.0267 -0.1554
15820SOL    HW149073   4.892   7.046   0.127  0.2852 -1.0913  0.5807
15820SOL    HW249074   4.763   6.988   0.179 -0.4511 -1.0044 -1.0937
15821SOL     OW49075   0.802   7.987   4.217 -0.1860  0.3401 -0.3931
15821SOL    HW149076   0.882   7.933   4.214  0.0496  0.5663  1.0321
15821SOL    HW249077   0.834   8.074   4.242 -1.0048  0.0479  1.9096
15822SOL     OW49078   8.293   6.033   5.890 -0.2625 -0.1313 -0.6248
15822SOL    HW149079   8.269   6.120   5.922 -0.0625  0.3601 -1.7512
15822SOL    HW249080   8.276   6.037   5.796 -0.6510 -1.4543 -0.6336
15823SOL     OW49081   5.391   8.326   6.566 -0.5522  0.2359 -0.5200
15823SOL    HW149082   5.343   8.243   6.556 -0.5860  0.2935 -0.8655
15823SOL    HW249083   5.441   8.333   6.485 -1.2506  1.0037 -0.8990
15824SOL     OW49084   1.577   7.908   8.825 -0.0494  0.9385  0.1240
15824SOL    HW149085   1.656   7.859   8.848  1.2358  2.9540  0.3359
15824SOL    HW249086   1.596   7.944   8.738 -0.9815  0.9844 -0.0676
15825SOL     OW49087   0.224   2.288   0.672  0.4396  0.6687  0.1998
15825SOL    HW149088   0.272   2.341   0.736  1.1609 -0.6047  0.7558
15825SOL    HW249089   0.282   2.286   0.595  0.5815  0.3902  0.3131
15826SOL     OW49090   4.319   9.043   7.122  0.2086 -0.4067  0.0572
15826SOL    HW149091   4.295   8.955   7.148 -1.1443 -0.6795 -1.9228
15826SOL    HW249092   4.408   9.034   7.089  0.2251 -0.9366  0.2319
15827SOL     OW49093   4.759   3.108   8.441  0.0092  0.1999 -0.4339
15827SOL    HW149094   4.705   3.151   8.374  0.6198 -0.4522 -1.3614
15827SOL    HW249095   4.704   3.110   8.520 -0.1738  2.2224 -0.5517
15828SOL     OW49096   0.146   9.244   6.299 -0.6118 -0.4812 -1.0596
15828SOL    HW149097   0.096   9.304   6.355 -0.1867 -1.3054  0.2447
15828SOL    HW249098   0.117   9.265   6.210 -0.3646  1.7563 -0.6702
15829SOL     OW49099   8.764   9.824   4.380  0.6643  0.5346  0.3409
15829SOL    HW149100   8.677   9.863   4.391 -0.1817 -0.8812 -0.9717
15829SOL    HW249101   8.807   9.880   4.315  0.4540  0.7830  0.4115
15830SOL     OW49102   3.730   3.235   8.141 -0.4446  0.4995 -0.7944
15830SOL    HW149103   3.651   3.180   8.144 -0.5789  0.7303  0.3863
15830SOL    HW249104   3.717   3.300   8.210  0.6922  0.6691 -0.7183
15831SOL     OW49105   5.405   5.534   3.571  0.0821  0.4962 -0.0822
15831SOL    HW149106   5.340   5.539   3.640  0.2719  1.8836  0.0166
15831SOL    HW249107   5.415   5.440   3.555 -0.9498  0.2082  0.8195
15832SOL     OW49108   2.308   6.379   4.771 -0.1461  0.1171 -0.6223
15832SOL    HW149109   2.302   6.286   4.748 -0.9241 -0.3407  1.2266
15832SOL    HW249110   2.322   6.424   4.688  1.2930 -1.7312 -1.4559
15833SOL     OW49111   3.709   8.280   8.283 -0.2068 -0.9757  0.1957
15833SOL    HW149112   3.780   8.311   8.340  0.4390 -1.4597 -0.3284
15833SOL    HW249113   3.717   8.185   8.285 -0.3972 -1.0067 -0.4343
15834SOL     OW49114   0.173   0.153   3.340  0.8230 -0.1109  0.6160
15834SOL    HW149115   0.147   0.242   3.366  1.4935  0.2708  0.0127
15834SOL    HW249116   0.267   0.159   3.324  0.3831 -0.1049 -2.6153
15835SOL     OW49117   0.328   5.715   2.762  0.1958  0.1290 -0.1481
15835SOL    HW149118   0.254   5.737   2.707  0.0955 -0.3575 -0.2105
15835SOL    HW249119   0.386   5.663   2.706  0.0061 -0.5275  0.2458
15836SOL     OW49120   1.281   6.088   3.411  0.0314 -0.4471 -0.5066
15836SOL    HW149121   1.271   6.121   3.322 -2.4210  1.9673  0.4977
15836SOL    HW249122   1.370   6.112   3.437  0.1891  0.3536 -1.7357
15837SOL     OW49123   5.249   1.242   7.779  0.2632  1.0590  0.3691
15837SOL    HW149124   5.298   1.233   7.860  1.7767  0.5157 -0.5726
15837SOL    HW249125   5.281   1.323   7.739  1.3174  0.1030 -0.8147
15838SOL     OW49126   0.061   3.868   6.424  0.8492  0.6922  0.3318
15838SOL    HW149127  -0.020   3.888   6.375  0.5663 -1.0926 -0.0062
15838SOL    HW249128   0.036   3.875   6.516  1.2285  3.4891  0.3137
15839SOL     OW49129   3.775   8.044   8.457  0.1555 -0.4033 -0.2300
15839SOL    HW149130   3.714   8.007   8.520  0.4296  0.2981  0.4612
15839SOL    HW249131   3.786   7.975   8.391  0.3623 -1.3861  0.8104
15840SOL     OW49132   0.901   8.621   1.141  0.0032  0.1801  0.7431
15840SOL    HW149133   0.862   8.536   1.120 -0.5132  0.6926 -0.4785
15840SOL    HW249134   0.992   8.601   1.164 -0.3189 -0.7701  1.2434
15841SOL     OW49135   8.707   6.053   4.609  0.3555  0.2020  0.4236
15841SOL    HW149136   8.765   6.120   4.646  0.1694  1.1750 -0.9728
15841SOL    HW249137   8.634   6.048   4.671  0.8136  0.6364  1.0133
15842SOL     OW49138   6.166   7.873   2.353  0.2118 -0.3322  0.1622
15842SOL    HW149139   6.153   7.960   2.315 -0.1773 -0.4226  0.0800
15842SOL    HW249140   6.108   7.871   2.429  2.0282  0.3625  1.6447
15843SOL     OW49141   0.237   4.551   6.139  0.2163  0.2752  0.6743
15843SOL    HW149142   0.199   4.514   6.220 -0.1133 -1.6296 -0.2857
15843SOL    HW249143   0.327   4.571   6.162  0.4004 -1.1364  1.2826
15844SOL     OW49144   5.689   7.105   3.386  0.3803  0.5873  0.0918
15844SOL    HW149145   5.722   7.088   3.297  1.7638 -0.4848  0.7526
15844SOL    HW249146   5.596   7.085   3.381  0.0500  2.2802 -1.5258
15845SOL     OW49147   8.139   0.328   4.410  0.0587  0.3759 -0.3806
15845SOL    HW149148   8.100   0.307   4.495 -0.8245 -0.9267 -1.0802
15845SOL    HW249149   8.088   0.402   4.378  1.6138  2.1673  1.0124
15846SOL     OW49150   0.692   7.355   4.092 -0.7284 -0.0982  0.3196
15846SOL    HW149151   0.601   7.354   4.119 -0.9989  2.3546 -0.3282
15846SOL    HW249152   0.693   7.304   4.010 -1.1168 -1.7402  1.2914
15847SOL     OW49153   7.787   5.261   4.336  0.3050  0.3768  0.1467
15847SOL    HW149154   7.809   5.205   4.410  0.7150 -1.7936 -1.5161
15847SOL    HW249155   7.718   5.213   4.289  1.7708  0.4353 -2.2060
15848SOL     OW49156   6.463   3.213   6.498  0.1537  0.2760  0.0926
15848SOL    HW149157   6.472   3.303   6.467 -1.5468  0.1501 -0.8766
15848SOL    HW249158   6.421   3.221   6.583  0.5293  0.4089  0.2698
15849SOL     OW49159   2.808   7.009   0.724  0.2167 -0.6867  0.3614
15849SOL    HW149160   2.880   7.062   0.691  2.1687 -2.8583  0.8426
15849SOL    HW249161   2.804   7.029   0.817 -0.2171 -0.1125  0.2197
15850SOL     OW49162   0.520   3.303   2.278  0.6618 -0.1820 -0.3165
15850SOL    HW149163   0.501   3.314   2.371  3.8210  1.2930  0.3054
15850SOL    HW249164   0.461   3.364   2.234  0.6072  0.6937  0.9216
15851SOL     OW49165   5.863   6.708   3.139 -0.1514 -0.2059 -0.0468
15851SOL    HW149166   5.910   6.778   3.185  0.0622 -1.2003  1.3129
15851SOL    HW249167   5.839   6.646   3.208 -0.1841 -1.5673 -1.2365
15852SOL     OW49168   7.291   2.090   1.140 -0.7504 -0.3789 -0.1279
15852SOL    HW149169   7.367   2.082   1.083 -1.0590 -0.8649 -0.4778
15852SOL    HW249170   7.278   2.185   1.150  0.0568 -0.2938  0.1578
15853SOL     OW49171   4.366   4.118   2.135 -0.0813  0.4093 -0.6706
15853SOL    HW149172   4.424   4.170   2.080  2.1778  1.5187  2.5123
15853SOL    HW249173   4.394   4.027   2.120 -1.2353  0.3826 -3.1157
15854SOL     OW49174   3.349   7.840   0.678 -0.3080  0.5803 -0.2924
15854SOL    HW149175   3.330   7.825   0.586 -0.9957  0.0382 -0.0705
15854SOL    HW249176   3.410   7.771   0.702 -1.5081 -0.3934  0.0886
15855SOL     OW49177   1.146   6.462   2.432  0.0956 -0.4176  0.5440
15855SOL    HW149178   1.239   6.487   2.434 -0.3813  1.4642  0.7907
15855SOL    HW249179   1.112   6.502   2.352 -0.3933 -1.6737  0.0860
15856SOL     OW49180   2.483   5.150   5.055 -0.2368  0.0751 -0.4911
15856SOL    HW149181   2.507   5.059   5.072 -1.2821 -0.2519 -0.6866
15856SOL    HW249182   2.527   5.172   4.973 -1.2463 -0.7819 -1.2901
15857SOL     OW49183   4.905   3.458   4.541 -0.0252  0.1598  0.5474
15857SOL    HW149184   4.904   3.387   4.477  0.2599  1.0939 -0.5389
15857SOL    HW249185   4.998   3.477   4.553 -0.0993  0.3242  0.8660
15858SOL     OW49186   3.912   7.911   8.239 -0.2325 -0.3379  0.3889
15858SOL    HW149187   3.931   7.845   8.305  1.2726 -0.7591 -0.4247
15858SOL    HW249188   3.927   7.868   8.155  3.3954  1.6303 -0.1713
15859SOL     OW49189   5.121   4.025   8.368  0.3122  0.0961 -0.6551
15859SOL    HW149190   5.197   4.051   8.420 -0.2102  0.4524 -0.0560
15859SOL    HW249191   5.091   4.106   8.327 -0.0714  0.0564 -0.4540
15860SOL     OW49192   6.547   8.095   4.198  0.0858  0.1084  0.4768
15860SOL    HW149193   6.590   8.143   4.269 -1.0453 -1.5844  2.4239
15860SOL    HW249194   6.560   8.003   4.221 -3.3261 -0.4882  0.4214
15861SOL     OW49195   7.638   6.107   7.424  0.1588 -0.0595  0.2009
15861SOL    HW149196   7.547   6.077   7.419  0.4839 -0.8866 -1.1228
15861SOL    HW249197   7.688   6.039   7.380  1.3897  0.5730  0.5848
15862SOL     OW49198   7.198   3.631   0.268 -0.0769  0.1194 -0.0263
15862SOL    HW149199   7.244   3.583   0.336  0.7277  1.7614  0.6352
15862SOL    HW249200   7.264   3.646   0.200 -0.3732  0.1491 -0.3117
15863SOL     OW49201   4.443   2.530   5.994  0.0966  0.4365 -0.8353
15863SOL    HW149202   4.412   2.562   5.910  0.7415  1.1845 -0.7945
15863SOL    HW249203   4.406   2.442   6.001  0.1594  0.3066 -1.9619
15864SOL     OW49204   4.598   7.870   2.380 -0.3252  0.4409  0.1029
15864SOL    HW149205   4.630   7.846   2.292  0.5719 -0.0324  0.5378
15864SOL    HW249206   4.576   7.963   2.372 -2.4590 -0.1175 -1.2250
15865SOL     OW49207   3.952   5.296   2.072  0.0514 -0.2971 -0.0591
15865SOL    HW149208   3.958   5.392   2.073 -0.4907 -0.2538 -0.6869
15865SOL    HW249209   3.974   5.271   1.983  2.2045 -0.9215  0.5863
15866SOL     OW49210   2.889   0.215   2.020  0.1142 -0.1359  0.5102
15866SOL    HW149211   2.933   0.250   2.098 -0.1324  0.1489  0.5242
15866SOL    HW249212   2.961   0.188   1.962  0.3297  1.0810  0.1869
15867SOL     OW49213   4.990   7.964   8.171  0.7700  0.5000 -0.4078
15867SOL    HW149214   4.991   7.874   8.139  0.5130  0.8013 -1.2863
15867SOL    HW249215   5.005   8.018   8.093 -1.6028  1.3302 -0.3667
15868SOL     OW49216   6.203   1.373   0.768  0.1121 -0.5019  0.3064
15868SOL    HW149217   6.125   1.377   0.713  0.0621  2.3614  0.4790
15868SOL    HW249218   6.172   1.395   0.856  0.7510 -1.8100  0.8973
15869SOL     OW49219   4.169   3.311   0.985  0.5279  0.3957 -1.0134
15869SOL    HW149220   4.121   3.368   1.045 -0.7487  0.0908 -1.7322
15869SOL    HW249221   4.256   3.351   0.980  0.3115  1.0632  0.1546
15870SOL     OW49222   5.150   6.524   4.231 -0.5958 -0.2291 -0.0999
15870SOL    HW149223   5.141   6.617   4.215  0.9116 -0.1841 -0.9131
15870SOL    HW249224   5.200   6.518   4.313 -1.6417 -0.3570  0.5469
15871SOL     OW49225   8.094   0.902   0.744  0.8621  0.1131  0.3438
15871SOL    HW149226   8.181   0.941   0.739  1.7564 -1.9661 -1.7963
15871SOL    HW249227   8.109   0.809   0.759 -1.1352  0.0338  2.6746
15872SOL     OW49228   3.033   4.838   3.454 -0.2357  0.1619  0.5282
15872SOL    HW149229   3.074   4.915   3.492  1.7669 -0.2078 -0.7298
15872SOL    HW249230   3.077   4.764   3.497  0.4810 -0.2478 -0.8722
15873SOL     OW49231   6.513   5.814   7.822  0.8900  0.6325  0.1455
15873SOL    HW149232   6.462   5.851   7.895 -0.1369  0.7981 -0.6396
15873SOL    HW249233   6.490   5.722   7.821  2.0709  0.2955  0.9566
15874SOL     OW49234   4.187   9.656   3.406 -0.0504  0.0511 -0.1794
15874SOL    HW149235   4.210   9.618   3.490 -2.5432  0.4307  0.7569
15874SOL    HW249236   4.234   9.739   3.404 -0.7830  0.5502  1.3837
15875SOL     OW49237   4.843   3.601   0.895 -0.6765  0.1429  0.1318
15875SOL    HW149238   4.926   3.605   0.847 -0.9183  0.5698 -0.2409
15875SOL    HW249239   4.779   3.643   0.839 -1.3368 -0.9260  0.0483
15876SOL     OW49240   3.564   5.464   2.838 -0.6197  0.0947 -0.0342
15876SOL    HW149241   3.659   5.458   2.840 -0.5995 -2.1309 -2.2289
15876SOL    HW249242   3.542   5.531   2.903  2.2612 -1.0476  2.3582
15877SOL     OW49243   4.282   9.018   0.388  0.5346 -0.2298  0.2320
15877SOL    HW149244   4.234   9.099   0.401 -0.7582 -0.5687 -1.9592
15877SOL    HW249245   4.349   9.040   0.324  0.8914 -0.6491  0.4528
15878SOL     OW49246   6.759   8.284   6.903  0.0683 -0.0370  0.0249
15878SOL    HW149247   6.745   8.318   6.815 -0.8229  0.1216  0.2257
15878SOL    HW249248   6.685   8.316   6.954 -0.1641 -1.2790  0.5001
15879SOL     OW49249   2.051   3.498   4.758 -0.6477 -0.5364  0.2377
15879SOL    HW149250   2.061   3.429   4.692 -0.9299  1.4654 -2.0357
15879SOL    HW249251   2.074   3.578   4.712  1.4362  0.7787  3.2624
15880SOL     OW49252   9.350   3.965   3.623 -0.4787 -0.0463 -0.7084
15880SOL    HW149253   9.361   3.880   3.581  0.7666  0.4107 -1.3749
15880SOL    HW249254   9.366   4.028   3.552 -0.0479  0.7376  0.0629
15881SOL     OW49255   5.007   0.532   4.378  0.2985  0.1999  0.3846
15881SOL    HW149256   5.053   0.493   4.303  0.8292 -0.2571  0.9383
15881SOL    HW249257   4.978   0.457   4.430  0.0668  0.5192  0.7190
15882SOL     OW49258   3.538   1.321   3.159  0.3477 -0.3503 -0.1018
15882SOL    HW149259   3.630   1.311   3.133  0.2988 -0.2528 -0.3198
15882SOL    HW249260   3.542   1.356   3.248  0.5256  0.1040 -0.2867
15883SOL     OW49261   5.670   3.522   6.761 -0.1372  0.4430 -0.7586
15883SOL    HW149262   5.619   3.489   6.836  0.7512 -0.7170 -0.6272
15883SOL    HW249263   5.744   3.567   6.801 -0.4373  1.1317 -0.9554
15884SOL     OW49264   0.883   5.200   5.625 -0.2249  0.3341  1.1323
15884SOL    HW149265   0.899   5.131   5.689  1.5937 -0.4161 -0.0440
15884SOL    HW249266   0.970   5.224   5.594 -0.9869  1.4490 -0.2523
15885SOL     OW49267   5.270   0.826   2.537 -0.2246  0.1289 -0.2549
15885SOL    HW149268   5.217   0.869   2.469 -0.0859 -0.3935 -0.7006
15885SOL    HW249269   5.210   0.815   2.611 -0.7813 -0.5532 -0.7907
15886SOL     OW49270   3.006   4.428   0.975  0.0672  0.5234 -0.1232
15886SOL    HW149271   2.994   4.438   1.070  1.4967  2.4016 -0.0751
15886SOL    HW249272   2.975   4.511   0.939  3.3993  1.6263 -0.8284
15887SOL     OW49273   7.036   2.507   6.112 -0.1048 -0.0814 -0.4292
15887SOL    HW149274   7.061   2.523   6.203  1.0669 -0.7458 -0.6147
15887SOL    HW249275   6.976   2.433   6.115  1.7127 -1.6544 -0.3349
15888SOL     OW49276   3.228   5.598   6.561 -0.3485 -0.2922  0.5886
15888SOL    HW149277   3.237   5.635   6.649  1.4445 -0.0223  0.3344
15888SOL    HW249278   3.133   5.598   6.545 -0.7060 -0.1622  2.4216
15889SOL     OW49279   3.230   7.254   0.272  0.3288 -0.2345 -0.4008
15889SOL    HW149280   3.290   7.213   0.335  0.8155  0.3925 -0.4482
15889SOL    HW249281   3.153   7.276   0.324  1.3915  1.8333  0.4075
15890SOL     OW49282   0.757   6.792   1.073 -0.1209 -0.0183 -0.0610
15890SOL    HW149283   0.714   6.815   0.990 -0.9981 -0.1469  0.3473
15890SOL    HW249284   0.734   6.700   1.087 -0.5583  0.1948  0.6670
15891SOL     OW49285   2.439   4.377   6.087  0.0369  0.5055  0.1757
15891SOL    HW149286   2.354   4.399   6.048 -0.2540 -1.6111 -0.4959
15891SOL    HW249287   2.416   4.335   6.170  0.4554  0.2698  0.1711
15892SOL     OW49288   6.103   4.544   7.655 -0.6634  0.5210  0.1685
15892SOL    HW149289   6.054   4.542   7.737  1.2949 -1.5128  1.4088
15892SOL    HW249290   6.051   4.491   7.595 -0.1059 -1.6205  1.4634
15893SOL     OW49291   0.378   9.038   2.802  0.1934  0.1053 -0.2826
15893SOL    HW149292   0.378   8.990   2.719  0.6175 -0.7917  0.2208
15893SOL    HW249293   0.295   9.086   2.802 -0.3320 -0.7737 -0.7256
15894SOL     OW49294   0.825   4.714   0.870  0.0553 -0.1612  0.4203
15894SOL    HW149295   0.739   4.689   0.905  0.8282 -1.0962  1.7616
15894SOL    HW249296   0.845   4.797   0.914  0.0083 -0.1528  0.4256
15895SOL     OW49297   5.998   8.746   1.661 -0.4091  0.1435  0.6173
15895SOL    HW149298   6.034   8.796   1.588 -0.0925  0.7242  1.1643
15895SOL    HW249299   5.912   8.784   1.677 -1.2079 -1.0960 -0.5412
15896SOL     OW49300   1.542   3.538   2.155 -0.0991 -0.1723  0.1030
15896SOL    HW149301   1.573   3.614   2.106 -1.5746 -1.1399 -2.5382
15896SOL    HW249302   1.501   3.575   2.233 -0.6366  1.7482 -1.0314
15897SOL     OW49303   6.677   7.684   8.868 -0.4233  0.1323  0.3366
15897SOL    HW149304   6.749   7.621   8.863 -1.5652 -1.2007 -0.0592
15897SOL    HW249305   6.702   7.754   8.808  0.4933 -0.3620  0.1297
15898SOL     OW49306   4.528   9.154   9.334 -0.0823 -0.8945  0.3625
15898SOL    HW149307   4.474   9.229   9.355 -0.7874  0.0454 -3.8959
15898SOL    HW249308   4.470   9.078   9.346 -1.2053 -0.2197 -0.6011
15899SOL     OW49309   3.658   2.056   1.599 -0.2861 -0.5240  0.3174
15899SOL    HW149310   3.690   1.966   1.606 -2.0712 -1.0567  2.7270
15899SOL    HW249311   3.625   2.063   1.510 -0.7130 -2.4725  0.2868
15900SOL     OW49312   4.636   0.948   6.808  0.0341  0.6916  0.7724
15900SOL    HW149313   4.699   0.902   6.863  2.1570  1.8982 -0.5103
15900SOL    HW249314   4.551   0.936   6.852  1.4183  0.6092  3.6158
15901SOL     OW49315   6.643   6.252   6.604 -0.2709  0.3774  0.5301
15901SOL    HW149316   6.713   6.305   6.642  1.0275 -0.8453 -0.0097
15901SOL    HW249317   6.620   6.297   6.523  0.4391  0.4195  0.3386
15902SOL     OW49318   2.925   9.738   0.113  0.0024  0.1372 -0.5552
15902SOL    HW149319   2.926   9.681   0.036 -0.3148  0.9396 -1.1645
15902SOL    HW249320   2.833   9.755   0.129  0.0635 -0.0751  0.0505
15903SOL     OW49321   6.540   7.526   5.783  0.0160  0.1712 -0.1971
15903SOL    HW149322   6.605   7.517   5.712  0.1071  0.7714 -0.1939
15903SOL    HW249323   6.480   7.453   5.769  0.4560 -0.1516 -0.4508
15904SOL     OW49324   5.409   7.844   2.966  0.2334 -0.2572 -0.2389
15904SOL    HW149325   5.329   7.832   3.017 -0.1579 -0.0429 -0.7911
15904SOL    HW249326   5.477   7.799   3.017  0.2186  1.4171  1.3852
15905SOL     OW49327   8.563   3.080   3.894  0.2716  0.2568  0.5480
15905SOL    HW149328   8.579   3.073   3.988  1.6275 -2.7322  0.2007
15905SOL    HW249329   8.480   3.032   3.880  0.6204 -0.2385  0.1173
15906SOL     OW49330   5.540   4.118   5.908  0.4118  0.7203  0.1595
15906SOL    HW149331   5.572   4.072   5.986 -1.2794  0.8463  0.9593
15906SOL    HW249332   5.551   4.210   5.929 -0.1580  0.7571  0.3161
15907SOL     OW49333   8.012   2.814   1.363  0.3070 -0.2460  0.1649
15907SOL    HW149334   8.067   2.791   1.438 -1.1752  0.0323  1.4065
15907SOL    HW249335   7.937   2.755   1.370 -0.0950  0.1327 -0.8271
15908SOL     OW49336   7.486   3.587   3.824 -0.2557  0.0444 -0.1668
15908SOL    HW149337   7.394   3.605   3.806 -0.1572 -0.9589 -1.9338
15908SOL    HW249338   7.503   3.503   3.781  1.8127  0.8600 -1.1293
15909SOL     OW49339   8.433   9.215   7.952  0.6024  0.1997 -0.5941
15909SOL    HW149340   8.496   9.146   7.973  0.0818 -0.2177 -0.3921
15909SOL    HW249341   8.482   9.276   7.897  0.8962 -0.6419 -1.2834
15910SOL     OW49342   3.542   7.137   0.673 -0.0525 -0.3359 -0.2952
15910SOL    HW149343   3.492   7.114   0.751  1.1178  0.9346  0.8911
15910SOL    HW249344   3.622   7.177   0.707  0.6003  0.0379 -2.1539
15911SOL     OW49345   3.179   6.415   1.902 -0.3090  0.2681  0.2911
15911SOL    HW149346   3.197   6.332   1.856  2.5145  0.0678  1.5530
15911SOL    HW249347   3.087   6.433   1.883 -0.5664 -2.2758 -1.4205
15912SOL     OW49348   2.369   2.204   2.266  0.5785  0.2719 -0.0111
15912SOL    HW149349   2.453   2.166   2.238 -0.3774 -1.8069 -0.1857
15912SOL    HW249350   2.356   2.172   2.355  0.1576  0.9493  0.1801
15913SOL     OW49351   1.496   4.774   4.233  0.0787  0.7002  0.4599
15913SOL    HW149352   1.477   4.714   4.160  1.5531  1.4094 -0.5607
15913SOL    HW249353   1.410   4.807   4.260 -0.7362 -1.5132  0.7727
15914SOL     OW49354   1.510   5.629   3.811  0.4259 -0.3403 -0.9673
15914SOL    HW149355   1.572   5.702   3.802 -0.2247  0.4608  0.7341
15914SOL    HW249356   1.536   5.585   3.892  0.7920 -2.0307 -1.9479
15915SOL     OW49357   0.760   1.324   1.668 -0.0121 -0.0651  0.0579
15915SOL    HW149358   0.743   1.277   1.750  0.4055 -1.3302 -0.5587
15915SOL    HW249359   0.685   1.304   1.613  0.7179 -0.9736 -0.6244
15916SOL     OW49360   0.972   1.503   5.056 -0.7719 -0.1730  0.5058
15916SOL    HW149361   0.931   1.585   5.083 -0.5098  1.1223 -2.5742
15916SOL    HW249362   1.033   1.528   4.987 -0.6933 -2.9588 -0.5915
15917SOL     OW49363   0.567   4.244   7.684  0.2504 -0.1870  0.0898
15917SOL    HW149364   0.641   4.199   7.643  0.9021  0.7242  0.2487
15917SOL    HW249365   0.601   4.331   7.706 -0.5643 -0.1079  1.0927
15918SOL     OW49366   1.568   8.118   9.017  0.0390  0.0883  0.7473
15918SOL    HW149367   1.559   8.047   8.954  0.7129  0.5543  0.1044
15918SOL    HW249368   1.480   8.156   9.022  0.1902  0.7313 -0.7619
15919SOL     OW49369   1.172   5.522   4.592  0.0321 -0.3055  0.5113
15919SOL    HW149370   1.259   5.535   4.629  0.0481  1.7206 -0.0836
15919SOL    HW249371   1.120   5.596   4.626 -0.9972 -0.5760 -0.3951
15920SOL     OW49372   7.625   4.969   8.217  0.2351  0.1903  0.7343
15920SOL    HW149373   7.586   5.056   8.220  1.9631  1.0703 -0.1862
15920SOL    HW249374   7.671   4.960   8.301  1.8627  1.1315 -0.0057
15921SOL     OW49375   7.966   1.054   8.734 -0.0169  0.0037 -0.1834
15921SOL    HW149376   7.923   1.138   8.718 -1.6352 -0.9697 -1.2430
15921SOL    HW249377   7.947   1.034   8.826  1.4136  1.3040  0.4512
15922SOL     OW49378   1.077   7.034   9.568  0.0822 -0.4574  0.5506
15922SOL    HW149379   1.139   7.014   9.498 -0.2381 -3.6895  1.0232
15922SOL    HW249380   1.037   6.949   9.589  0.4564  0.2167  4.9177
15923SOL     OW49381   7.008   4.327   0.039 -0.2843  0.1510 -0.8081
15923SOL    HW149382   7.083   4.364  -0.006 -0.4504  1.1020 -0.3397
15923SOL    HW249383   7.035   4.320   0.130 -0.8042  0.6522 -0.6059
15924SOL     OW49384   8.201   2.537   3.070 -0.4323  0.6035 -0.3449
15924SOL    HW149385   8.275   2.476   3.073 -0.2281  0.8270 -0.7254
15924SOL    HW249386   8.186   2.561   3.161 -0.7206 -0.2595 -0.1540
15925SOL     OW49387   6.403   3.848   5.587  0.2596  0.1673  0.1557
15925SOL    HW149388   6.433   3.876   5.674  2.9767 -1.1289 -0.2464
15925SOL    HW249389   6.437   3.914   5.527 -0.4235  0.3266 -0.0684
15926SOL     OW49390   1.124   6.637   8.916  0.5571 -0.0524  0.2808
15926SOL    HW149391   1.161   6.712   8.870 -0.9676  0.4720 -0.1479
15926SOL    HW249392   1.055   6.605   8.859 -0.0271 -0.6522  1.2925
15927SOL     OW49393   0.688   2.481   7.036 -1.0943 -0.3563 -0.1821
15927SOL    HW149394   0.624   2.418   7.071  0.1514 -1.6575 -0.1607
15927SOL    HW249395   0.730   2.518   7.114 -0.8528 -0.5437 -0.2224
15928SOL     OW49396   3.891   6.297   9.576  0.3216  0.3366 -0.5023
15928SOL    HW149397   3.864   6.384   9.550  1.7206  2.1048  3.1873
15928SOL    HW249398   3.809   6.252   9.597 -0.3343  1.7721  0.1529
15929SOL     OW49399   9.509   9.223   7.101 -0.1334  0.3252 -0.1098
15929SOL    HW149400   9.462   9.209   7.019 -1.6230  3.8050 -0.0361
15929SOL    HW249401   9.441   9.253   7.163  1.5121  1.4660  1.2456
15930SOL     OW49402   1.592   2.127   0.642  0.0611  0.5434  0.1547
15930SOL    HW149403   1.544   2.189   0.586 -0.5614 -0.4289 -0.4032
15930SOL    HW249404   1.673   2.174   0.665 -1.3124  2.4263  1.5355
15931SOL     OW49405   7.512   5.699   1.606  0.1109 -0.0680 -0.3197
15931SOL    HW149406   7.418   5.696   1.621  0.4687 -2.1491  2.2244
15931SOL    HW249407   7.551   5.684   1.692  2.7228 -1.4504 -1.6149
15932SOL     OW49408   6.818   3.223   7.824  0.1722  0.5744  0.0005
15932SOL    HW149409   6.767   3.203   7.903 -0.6618  0.0818 -0.6507
15932SOL    HW249410   6.854   3.310   7.841 -0.2013  0.5843  0.8169
15933SOL     OW49411   1.222   8.076   7.716 -0.4411 -0.2651 -0.0171
15933SOL    HW149412   1.143   8.031   7.687 -0.6003 -1.1816  1.6788
15933SOL    HW249413   1.294   8.026   7.677 -0.6781  0.3598 -1.2760
15934SOL     OW49414   5.245   4.678   4.848 -0.2103 -0.5011 -0.0154
15934SOL    HW149415   5.251   4.641   4.760 -0.9420 -1.4930  0.3250
15934SOL    HW249416   5.196   4.759   4.836 -0.5908 -0.7904 -0.4956
15935SOL     OW49417   9.785   1.686   7.123  0.2554 -0.3951 -0.2420
15935SOL    HW149418   9.817   1.596   7.122 -1.6878 -1.2118  1.9415
15935SOL    HW249419   9.798   1.715   7.213 -0.5191  0.9737 -0.5427
15936SOL     OW49420   8.329   5.750   9.004  0.0637 -0.1649  0.3070
15936SOL    HW149421   8.237   5.722   8.998  0.1613 -0.8601  1.7514
15936SOL    HW249422   8.346   5.756   9.098  1.8744 -1.2898  0.0964
15937SOL     OW49423   2.934   9.646   2.790 -0.0533  0.1204 -0.6551
15937SOL    HW149424   2.889   9.667   2.708  0.0462 -0.9093 -0.9978
15937SOL    HW249425   2.986   9.723   2.810 -0.9618  0.8297 -0.9481
15938SOL     OW49426   2.975   8.805   1.788 -0.0129  0.0194 -0.1961
15938SOL    HW149427   2.907   8.737   1.789 -0.7435  0.7129 -0.7828
15938SOL    HW249428   3.010   8.805   1.877 -1.1642  0.0009  0.2810
15939SOL     OW49429   0.063   4.049   5.884 -0.0294 -0.2306  0.4683
15939SOL    HW149430   0.077   4.113   5.813 -1.9850 -0.9384 -0.6333
15939SOL    HW249431   0.139   4.059   5.941  0.8349  1.4735 -0.9001
15940SOL     OW49432   8.795   3.075   8.230 -0.6762  0.0605  0.1800
15940SOL    HW149433   8.834   2.988   8.216 -1.7964 -0.1046 -2.6396
15940SOL    HW249434   8.857   3.135   8.188 -0.9009  0.3935  0.3249
15941SOL     OW49435   3.415   6.017   4.451  0.1297 -0.5676  0.4360
15941SOL    HW149436   3.485   5.952   4.451  1.0518  0.4058  1.0133
15941SOL    HW249437   3.450   6.091   4.403 -0.3508  0.0926  1.0788
15942SOL     OW49438   4.796   5.495   9.294 -0.2160 -0.2644  0.4511
15942SOL    HW149439   4.714   5.471   9.249 -1.4452  1.6977  1.4896
15942SOL    HW249440   4.839   5.412   9.312 -2.2513 -1.4096  0.3324
15943SOL     OW49441   1.870   5.624   2.103  0.1881 -0.2206 -0.2592
15943SOL    HW149442   1.931   5.625   2.177 -0.3225  1.5135  0.1694
15943SOL    HW249443   1.795   5.574   2.134 -0.3850  1.1981  0.7390
15944SOL     OW49444   8.013   6.035   9.316  0.3941  0.3876 -0.2424
15944SOL    HW149445   8.016   6.130   9.321  2.4882  0.4360 -1.3910
15944SOL    HW249446   8.051   6.014   9.231 -2.2995 -1.4308 -1.1337
15945SOL     OW49447   4.831   6.852   6.186 -0.4668  0.5446 -0.6816
15945SOL    HW149448   4.882   6.908   6.245  0.2098  0.3822 -1.0981
15945SOL    HW249449   4.789   6.788   6.243 -0.1229  0.6206 -0.3406
15946SOL     OW49450   6.689   8.301   1.383  0.0707  0.1441  0.5901
15946SOL    HW149451   6.622   8.256   1.435 -1.1047 -3.0398 -3.1714
15946SOL    HW249452   6.640   8.366   1.333  0.5745  0.8691  1.0413
15947SOL     OW49453   1.443   7.596   8.915 -0.1305  0.3493 -0.0716
15947SOL    HW149454   1.440   7.688   8.939  1.2133 -0.0461  1.8724
15947SOL    HW249455   1.352   7.572   8.899 -1.5650  0.5862  5.5964
15948SOL     OW49456   8.390   1.821   6.838  0.2022 -0.1760  0.6142
15948SOL    HW149457   8.450   1.860   6.902 -0.1759  0.9371  0.3163
15948SOL    HW249458   8.333   1.893   6.811  0.3753 -0.5995 -1.0090
15949SOL     OW49459   6.437   8.536   7.938  0.0319  0.0743 -0.0367
15949SOL    HW149460   6.347   8.538   7.972  0.3488  0.8126  0.7868
15949SOL    HW249461   6.427   8.553   7.844 -0.5178  2.6277  0.4198
15950SOL     OW49462   7.170   2.583   4.415  0.2537  0.5154 -0.0060
15950SOL    HW149463   7.172   2.603   4.508 -1.6843  1.2170 -0.0645
15950SOL    HW249464   7.237   2.515   4.403  0.4926  0.3758  1.8902
15951SOL     OW49465   3.021   3.249   8.599  0.2380 -1.0283 -0.0029
15951SOL    HW149466   2.998   3.166   8.640  0.5116 -0.9387  0.3320
15951SOL    HW249467   2.950   3.265   8.536  0.2177 -1.5456 -0.1172
15952SOL     OW49468   5.600   1.119   6.561  0.1803 -0.1035  0.3123
15952SOL    HW149469   5.654   1.197   6.546  0.4239 -0.3985 -0.3789
15952SOL    HW249470   5.648   1.070   6.628 -0.2887  0.6316  1.2027
15953SOL     OW49471   3.557   9.160   1.090  0.1408 -0.3653 -0.3865
15953SOL    HW149472   3.637   9.142   1.139  0.1475  0.8067  0.0623
15953SOL    HW249473   3.487   9.137   1.151  0.1416 -0.3298 -0.3721
15954SOL     OW49474   4.593   1.933   3.898  0.1242 -0.5364 -0.2573
15954SOL    HW149475   4.635   1.870   3.957  1.6515 -0.4287 -1.1716
15954SOL    HW249476   4.582   1.885   3.815 -0.6562 -0.2436 -0.3318
15955SOL     OW49477   5.534   3.754   2.579  0.4176 -0.4387 -0.0547
15955SOL    HW149478   5.472   3.694   2.620  1.5191 -1.7978 -0.3051
15955SOL    HW249479   5.529   3.734   2.486 -0.6540  1.2901 -0.4230
15956SOL     OW49480   4.725   7.352   4.830  0.0562  0.3970 -0.2696
15956SOL    HW149481   4.692   7.442   4.834  0.3173  0.4945 -0.2905
15956SOL    HW249482   4.665   7.307   4.770  0.7744  0.9320 -1.4321
15957SOL     OW49483   2.234   1.402   7.800 -0.1948  0.4896  0.4099
15957SOL    HW149484   2.165   1.338   7.816  0.6032 -0.1633  1.3956
15957SOL    HW249485   2.315   1.354   7.816  0.4966  1.2861 -0.5499
15958SOL     OW49486   0.885   9.829   7.351 -0.2467 -0.2081  0.3508
15958SOL    HW149487   0.845   9.776   7.282 -1.2805  1.1065 -0.1106
15958SOL    HW249488   0.945   9.887   7.304  0.5768 -0.6936  0.7976
15959SOL     OW49489   3.151   4.577   1.392 -0.0684 -0.2496  0.2736
15959SOL    HW149490   3.090   4.638   1.434  1.4269  1.1821  0.4786
15959SOL    HW249491   3.225   4.632   1.365  0.1318 -1.5086 -2.0631
15960SOL     OW49492   9.226   1.171   0.092  0.3644 -0.5903 -0.3026
15960SOL    HW149493   9.308   1.217   0.074 -1.1602  1.5684 -2.4778
15960SOL    HW249494   9.219   1.106   0.023  0.5894 -1.3188  0.3501
15961SOL     OW49495   6.951   1.164   4.679 -0.0795  0.2761  0.0134
15961SOL    HW149496   7.012   1.218   4.629  1.1002 -1.2335 -0.2511
15961SOL    HW249497   6.871   1.217   4.684  1.4435  2.6757  1.0537
15962SOL     OW49498   6.265   6.123   2.796  0.4310 -0.1583 -0.0878
15962SOL    HW149499   6.245   6.090   2.708  0.0165 -0.0315 -0.0412
15962SOL    HW249500   6.210   6.070   2.854  0.3910  0.0417  0.0582
15963SOL     OW49501   8.722   8.783   5.687 -0.5958 -0.3725  0.4461
15963SOL    HW149502   8.630   8.791   5.714 -1.0004 -0.8597 -0.7203
15963SOL    HW249503   8.720   8.790   5.592  0.8992  2.3927  0.5360
15964SOL     OW49504   0.318   6.094   7.732 -0.6876 -0.2619  0.3257
15964SOL    HW149505   0.347   6.168   7.784 -0.3314  0.8665 -1.3999
15964SOL    HW249506   0.268   6.133   7.660  1.1360 -1.4426 -1.7344
15965SOL     OW49507   7.106   2.612   3.360  0.8150  0.7400 -0.3009
15965SOL    HW149508   7.160   2.660   3.424 -0.4643 -0.6267  1.9384
15965SOL    HW249509   7.061   2.546   3.412 -1.9590  0.9033 -2.2885
15966SOL     OW49510   0.409   5.924   9.016 -0.7417 -0.0859  0.3396
15966SOL    HW149511   0.451   5.879   8.943 -0.5508 -0.7196  0.8351
15966SOL    HW249512   0.439   6.014   9.009  1.6492 -0.7420  1.3545
15967SOL     OW49513   1.678   6.782   2.378  0.3478 -0.5961  0.5485
15967SOL    HW149514   1.703   6.830   2.299 -0.4258 -1.7392 -0.4313
15967SOL    HW249515   1.593   6.818   2.402  0.1455 -0.9101  0.2999
15968SOL     OW49516   1.272   2.145   7.790 -0.0600 -0.2755 -0.0078
15968SOL    HW149517   1.231   2.198   7.722 -0.5966 -1.3607 -0.5500
15968SOL    HW249518   1.200   2.116   7.845  0.3975  0.8768  1.2694
15969SOL     OW49519   2.039   2.000   2.864 -0.0189  0.0250  0.3049
15969SOL    HW149520   1.989   2.058   2.806 -0.9368 -3.5758 -2.9089
15969SOL    HW249521   2.130   2.028   2.852 -0.4949  1.4065 -0.3157
15970SOL     OW49522   2.236   7.465   7.352 -0.0555 -1.1822 -0.0778
15970SOL    HW149523   2.222   7.505   7.266  0.3966  1.1459  0.8481
15970SOL    HW249524   2.148   7.455   7.388 -0.1508  2.0151  0.8769
15971SOL     OW49525   9.789   6.157   7.963 -0.0277  0.1639  0.6340
15971SOL    HW149526   9.843   6.219   8.012 -0.7840  0.4577  1.1055
15971SOL    HW249527   9.730   6.212   7.912 -0.1241 -0.1618  0.3901
15972SOL     OW49528   7.147   4.292   2.889  0.1606 -0.0038 -0.3454
15972SOL    HW149529   7.190   4.208   2.906 -0.7432 -0.3672  0.2279
15972SOL    HW249530   7.216   4.348   2.853  0.9533 -0.7557 -0.0170
15973SOL     OW49531   3.128   0.354   1.136  0.5567  0.1437 -0.0341
15973SOL    HW149532   3.223   0.348   1.133  0.4914 -0.5708 -1.9478
15973SOL    HW249533   3.108   0.444   1.110  0.6955  0.2809  0.3274
15974SOL     OW49534   0.697   8.025   3.237 -0.0500 -0.4280 -0.3356
15974SOL    HW149535   0.699   7.950   3.297  0.1344 -0.0069  0.1955
15974SOL    HW249536   0.789   8.054   3.234  0.2141 -1.3277 -1.9620
15975SOL     OW49537   8.883   8.350   9.092 -0.5664  0.2940 -0.2302
15975SOL    HW149538   8.793   8.336   9.061  0.5264 -0.1467 -3.5468
15975SOL    HW249539   8.886   8.444   9.113 -2.1355  0.0357  1.3980
15976SOL     OW49540   9.299   6.475   2.832  0.0338 -0.4291 -0.2733
15976SOL    HW149541   9.292   6.473   2.928 -1.1041 -0.6178 -0.3436
15976SOL    HW249542   9.275   6.387   2.805 -0.1723 -0.2238 -0.7660
15977SOL     OW49543   9.545   5.912   3.928 -0.3642 -0.4975  0.0142
15977SOL    HW149544   9.625   5.953   3.896 -0.4695  0.2885  0.7332
15977SOL    HW249545   9.521   5.850   3.859  0.9115 -0.8202 -0.1656
15978SOL     OW49546   2.908   2.251   5.169 -0.4714 -0.0163  0.3558
15978SOL    HW149547   2.815   2.236   5.178 -0.4445  0.1061  0.8714
15978SOL    HW249548   2.928   2.320   5.232  0.0752 -0.4530  0.6700
15979SOL     OW49549   9.623   5.744   1.942 -0.3456  0.3966  0.4611
15979SOL    HW149550   9.592   5.653   1.941 -1.0517  0.6320 -0.6912
15979SOL    HW249551   9.547   5.795   1.914  0.4056  1.2289 -0.0972
15980SOL     OW49552   4.148   4.446   0.516  0.1066 -0.3637  0.3897
15980SOL    HW149553   4.185   4.533   0.504  1.5835 -1.1461 -1.1354
15980SOL    HW249554   4.224   4.389   0.527 -0.6543 -1.8601 -1.5526
15981SOL     OW49555   8.909   8.676   4.620 -0.1654  0.1576  0.9326
15981SOL    HW149556   8.979   8.644   4.676 -0.7620  0.2233  1.7333
15981SOL    HW249557   8.947   8.679   4.533  1.2373  1.4694  1.5607
15982SOL     OW49558   1.202   9.192   0.497  0.0439  0.1273 -0.1323
15982SOL    HW149559   1.296   9.179   0.487 -0.0318 -0.7265  0.1617
15982SOL    HW249560   1.188   9.284   0.477  1.6326  1.6104  4.3804
15983SOL     OW49561   1.429   2.364   4.161  0.9638 -0.7663  0.3141
15983SOL    HW149562   1.465   2.445   4.125  1.4052 -0.6917  0.9033
15983SOL    HW249563   1.505   2.319   4.198  0.5858 -1.0314  0.7752
15984SOL     OW49564   2.080   2.922   2.323  0.3931 -0.1039 -0.1857
15984SOL    HW149565   2.036   2.974   2.391 -0.1238  1.8702 -1.9479
15984SOL    HW249566   2.172   2.922   2.349  0.0346 -0.4645  1.1725
15985SOL     OW49567   8.991   3.462   6.710  0.1507  0.8508 -0.0755
15985SOL    HW149568   9.060   3.466   6.776  1.4322  1.4565 -1.4035
15985SOL    HW249569   8.910   3.452   6.761  1.0405  1.7116  1.5984
15986SOL     OW49570   9.091   9.550   3.271 -0.1977 -0.7777 -0.3434
15986SOL    HW149571   9.095   9.641   3.299  0.7267 -1.2030  0.9703
15986SOL    HW249572   9.180   9.517   3.280 -0.3674 -1.6356 -1.4715
15987SOL     OW49573   8.422   0.019   4.511 -0.1153  0.0124 -0.7070
15987SOL    HW149574   8.400   0.080   4.581 -1.7432  0.0373 -1.1859
15987SOL    HW249575   8.456  -0.058   4.556 -1.6633 -0.1944  0.1837
15988SOL     OW49576   4.706   1.941   3.001 -0.8392 -0.0436 -0.0369
15988SOL    HW149577   4.693   2.009   2.934  0.0125  1.0423  0.8500
15988SOL    HW249578   4.619   1.906   3.018 -1.1910  0.3430 -1.0239
15989SOL     OW49579   0.013   7.179   6.826  0.0195  0.1264  0.5650
15989SOL    HW149580   0.077   7.243   6.796  2.1695 -1.7022  1.0024
15989SOL    HW249581  -0.026   7.219   6.903  0.7422  1.2210  0.3944
15990SOL     OW49582   1.326   9.304   2.553  0.2106  0.0150 -0.1527
15990SOL    HW149583   1.288   9.337   2.635 -1.2898 -0.8757 -0.4371
15990SOL    HW249584   1.419   9.292   2.573  0.3522  2.0565  0.6711
15991SOL     OW49585   6.667   3.971   0.510  0.0866  0.5786 -0.6787
15991SOL    HW149586   6.620   3.909   0.565  2.2044  0.5960  1.2872
15991SOL    HW249587   6.627   3.961   0.423 -1.2483 -1.7560  0.1138
15992SOL     OW49588   9.320   8.988   3.785  0.1566 -0.3310 -0.3252
15992SOL    HW149589   9.400   9.013   3.739  0.0515 -2.1170 -1.5741
15992SOL    HW249590   9.324   8.893   3.791 -0.6413 -0.2699  1.9774
15993SOL     OW49591   6.228   1.161   4.656 -0.2097 -0.7621 -0.3035
15993SOL    HW149592   6.158   1.226   4.656 -0.2589 -0.8140 -0.6623
15993SOL    HW249593   6.302   1.205   4.696  0.1501 -0.0554 -1.6849
15994SOL     OW49594   7.092   4.706   7.084 -0.2487 -0.3478 -0.5746
15994SOL    HW149595   7.075   4.745   7.171  0.5038 -1.1482 -0.0529
15994SOL    HW249596   7.021   4.643   7.072 -1.3166  0.9472 -1.3017
15995SOL     OW49597   5.704   1.794   1.700  0.4804 -0.1177  0.2739
15995SOL    HW149598   5.759   1.865   1.667  2.0776 -1.7844 -0.8313
15995SOL    HW249599   5.765   1.736   1.746 -1.3288  1.1378  4.7925
15996SOL     OW49600   8.681   6.573   9.148 -0.0615  0.4539  0.3627
15996SOL    HW149601   8.639   6.487   9.156  2.2347 -0.6447  2.0772
15996SOL    HW249602   8.639   6.614   9.073 -0.6368 -2.5570 -1.1166
15997SOL     OW49603   4.712   3.193   6.269 -0.7210 -0.9372 -0.0211
15997SOL    HW149604   4.755   3.126   6.321  1.0312  0.7665  0.8588
15997SOL    HW249605   4.686   3.259   6.332  4.0833  2.6673 -1.2039
15998SOL     OW49606   4.206   2.840   7.449 -0.5719  0.8678  0.1421
15998SOL    HW149607   4.164   2.760   7.417 -0.4098  0.3154  1.2371
15998SOL    HW249608   4.193   2.837   7.544 -0.3426  2.0229  0.2166
15999SOL     OW49609   6.752   1.292   6.356 -0.0448  0.4305  0.2634
15999SOL    HW149610   6.787   1.208   6.327 -0.7158 -0.6679  2.4462
15999SOL    HW249611   6.657   1.281   6.356 -0.1687 -0.5241  4.7631
16000SOL     OW49612   3.139   3.488   8.458  0.2695 -0.1517 -0.0640
16000SOL    HW149613   3.100   3.414   8.505  0.1852  0.7816  1.3865
16000SOL    HW249614   3.224   3.455   8.428 -0.9892 -1.7818 -2.1261
16001SOL     OW49615   9.527   2.292   0.549  0.0663 -0.0474  0.1191
16001SOL    HW149616   9.485   2.375   0.529  0.0915 -0.4276 -1.6848
16001SOL    HW249617   9.573   2.269   0.469  1.3646 -1.0440  1.1029
16002SOL     OW49618   0.025   4.165   9.141  0.5634  0.2458  0.4175
16002SOL    HW149619   0.102   4.212   9.172  0.6807 -0.5985  1.4527
16002SOL    HW249620   0.041   4.152   9.047  2.2114 -0.8425  0.8011
16003SOL     OW49621   7.572   1.448   1.774  0.3172 -0.2396  0.3665
16003SOL    HW149622   7.516   1.388   1.724  1.6146 -1.3040  0.1624
16003SOL    HW249623   7.657   1.445   1.730 -0.0009  3.2241 -0.8399
16004SOL     OW49624   8.634   7.108   5.664 -0.5367  0.1276  0.4366
16004SOL    HW149625   8.565   7.135   5.725 -0.0588  2.4769  0.0537
16004SOL    HW249626   8.715   7.134   5.708 -0.1643  1.4138 -0.9192
16005SOL     OW49627   7.431   4.438   4.639 -0.6640 -0.0362 -0.1209
16005SOL    HW149628   7.368   4.507   4.657 -1.1485 -0.4815 -0.0765
16005SOL    HW249629   7.506   4.483   4.601 -1.0416  0.4909 -0.2523
16006SOL     OW49630   1.792   9.367   3.801 -0.3689 -0.1265  0.1471
16006SOL    HW149631   1.732   9.368   3.727 -0.7656  0.2987  0.4616
16006SOL    HW249632   1.856   9.435   3.782 -1.6185  1.3869  1.0844
16007SOL     OW49633   9.716   1.427   8.989 -0.2722  0.1282  0.2027
16007SOL    HW149634   9.707   1.347   8.938  0.1801 -0.2841  0.7518
16007SOL    HW249635   9.686   1.496   8.931 -1.6606 -0.5456  0.0859
16008SOL     OW49636   2.025   5.493   9.608  0.1110 -0.0431  0.1257
16008SOL    HW149637   1.971   5.507   9.530 -0.4673 -0.6544  0.4086
16008SOL    HW249638   2.050   5.581   9.636 -0.8421  0.2566  0.0564
16009SOL     OW49639   1.182   6.372   8.636  0.8457 -0.0609 -0.1561
16009SOL    HW149640   1.190   6.381   8.731  0.5565  0.0798 -0.1469
16009SOL    HW249641   1.183   6.462   8.603 -0.8955 -0.0177 -0.1484
16010SOL     OW49642   3.155   4.710   3.230  0.0518  0.6651  0.2081
16010SOL    HW149643   3.141   4.775   3.161 -1.2788 -0.4856 -0.6577
16010SOL    HW249644   3.097   4.737   3.301 -1.9606 -0.5492 -0.8860
16011SOL     OW49645   3.861   8.320   9.029 -0.1313  0.3339  0.3917
16011SOL    HW149646   3.913   8.390   8.992  0.2129 -0.7109 -1.1978
16011SOL    HW249647   3.839   8.350   9.117  2.4854  1.1608  0.8517
16012SOL     OW49648   3.107   1.299   3.358 -0.3966  0.8087 -0.3274
16012SOL    HW149649   3.176   1.233   3.360 -1.5145 -0.4017 -0.0097
16012SOL    HW249650   3.153   1.382   3.358  1.0589  0.0367 -0.4397
16013SOL     OW49651   6.369   1.882   4.703  0.0347  0.0161  0.3823
16013SOL    HW149652   6.364   1.882   4.608  1.6306 -0.1221  0.2863
16013SOL    HW249653   6.376   1.790   4.727  1.8622  0.1395  0.4684
16014SOL     OW49654   9.740   8.289   7.377  0.0929  0.7987 -0.4809
16014SOL    HW149655   9.756   8.291   7.471  1.5909  0.4405 -0.6965
16014SOL    HW249656   9.828   8.289   7.338 -0.4990  0.8427 -1.8729
16015SOL     OW49657   2.546   0.033   9.371  0.0418 -0.7014 -0.0778
16015SOL    HW149658   2.633   0.017   9.334 -0.0262 -2.3752  0.4092
16015SOL    HW249659   2.494  -0.043   9.344 -1.0274 -0.1569  0.3905
16016SOL     OW49660   6.409   6.174   5.346 -0.0330  0.5127 -0.0401
16016SOL    HW149661   6.421   6.085   5.315 -0.2305  1.0650 -1.7951
16016SOL    HW249662   6.336   6.208   5.294 -1.3312  1.0646  2.0188
16017SOL     OW49663   5.490   6.103   3.358 -0.1677 -0.4455  0.0626
16017SOL    HW149664   5.403   6.110   3.320 -0.1863 -0.1740  0.1529
16017SOL    HW249665   5.479   6.046   3.434  0.0962 -2.0138 -1.0318
16018SOL     OW49666   6.355   4.663   6.703  0.3301 -0.2043 -0.1536
16018SOL    HW149667   6.410   4.623   6.635 -0.0741 -1.3542  0.1759
16018SOL    HW249668   6.305   4.591   6.739  0.0039  0.5162  0.8835
16019SOL     OW49669   4.168   6.339   3.534 -0.2642 -0.1164  0.0111
16019SOL    HW149670   4.226   6.288   3.591 -1.2146 -1.2424 -0.0020
16019SOL    HW249671   4.182   6.302   3.447 -2.0765 -1.4348  0.2379
16020SOL     OW49672   4.339   6.480   8.306 -0.2034  0.2841  0.2253
16020SOL    HW149673   4.377   6.393   8.295  1.1393  0.6755  1.4713
16020SOL    HW249674   4.250   6.463   8.336  0.2783 -0.6848  1.1814
16021SOL     OW49675   2.871   8.430   3.703 -0.3872 -0.2053 -0.1881
16021SOL    HW149676   2.830   8.507   3.741 -2.4507 -0.8565 -0.9621
16021SOL    HW249677   2.844   8.358   3.760 -0.0060 -0.6146 -0.5143
16022SOL     OW49678   9.389   0.476   2.721  0.0957 -0.5846 -0.1426
16022SOL    HW149679   9.374   0.570   2.737  2.1443 -0.3865  1.0252
16022SOL    HW249680   9.439   0.473   2.640  0.7475 -0.5770  0.2502
16023SOL     OW49681   9.835   1.757   8.586  0.0375  0.1586 -0.0902
16023SOL    HW149682   9.928   1.775   8.601  0.5907 -2.9630  1.2618
16023SOL    HW249683   9.834   1.670   8.546 -2.2821  1.0984 -2.3056
16024SOL     OW49684   2.052   5.347   0.026 -0.2298  0.3486 -0.2850
16024SOL    HW149685   2.012   5.369  -0.058 -3.7991 -0.4011  1.0090
16024SOL    HW249686   2.043   5.252   0.033  1.8418  0.1478  0.1630
16025SOL     OW49687   8.436   7.164   5.850 -0.3004 -0.4942 -0.3421
16025SOL    HW149688   8.347   7.200   5.853 -0.9848 -2.0640 -0.5450
16025SOL    HW249689   8.427   7.076   5.888  1.0055 -0.9846 -1.0965
16026SOL     OW49690   9.593   0.977   7.763 -0.3994 -0.0676 -0.6418
16026SOL    HW149691   9.609   1.027   7.843 -0.2076  0.3215 -0.9181
16026SOL    HW249692   9.498   0.966   7.760 -0.4186  0.0460 -0.4368
16027SOL     OW49693   0.473   2.511   2.828 -0.3365  0.1587 -0.2065
16027SOL    HW149694   0.522   2.533   2.749  0.5450 -0.3291  0.1916
16027SOL    HW249695   0.467   2.594   2.877 -0.8547  0.4529 -0.7570
16028SOL     OW49696   8.137   5.208   5.798 -0.0167 -0.1145 -0.1520
16028SOL    HW149697   8.046   5.179   5.805 -0.0739 -0.3371 -1.4198
16028SOL    HW249698   8.188   5.126   5.797  0.1649 -0.0067  0.1675
16029SOL     OW49699   2.304   6.540   1.515  0.3780 -0.1846 -0.2664
16029SOL    HW149700   2.355   6.587   1.582 -0.2049  0.1543 -0.0501
16029SOL    HW249701   2.319   6.448   1.535  1.9459 -0.1268 -1.0061
16030SOL     OW49702   3.100   0.275   2.264  0.3331 -0.5589  0.1665
16030SOL    HW149703   3.103   0.358   2.312 -0.9923  0.2360 -1.0375
16030SOL    HW249704   3.190   0.262   2.233  0.7847 -0.1227  1.2220
16031SOL     OW49705   9.065   2.566   8.179 -0.3536  0.3786 -0.2712
16031SOL    HW149706   9.126   2.493   8.168 -0.7693 -0.1287  0.6459
16031SOL    HW249707   9.108   2.640   8.136 -0.9886 -0.9197 -3.3626
16032SOL     OW49708   4.409   8.745   0.814  0.3268  0.0889  0.1450
16032SOL    HW149709   4.370   8.660   0.834 -0.7762  0.5500 -0.0292
16032SOL    HW249710   4.347   8.788   0.755  0.3553  1.4380  1.0552
16033SOL     OW49711   6.324   0.474   0.826  0.5071 -0.3402 -0.4038
16033SOL    HW149712   6.359   0.385   0.816 -0.0943 -0.7884  1.2435
16033SOL    HW249713   6.238   0.462   0.865 -0.6595  0.8685 -2.4717
16034SOL     OW49714   8.023   2.925   0.142 -0.4747 -0.1036  0.0523
16034SOL    HW149715   8.055   2.912   0.232 -1.9013  0.8385  0.7271
16034SOL    HW249716   8.045   3.016   0.121  1.5957 -0.8444 -1.3402
16035SOL     OW49717   3.229   5.343   5.404  0.6455  0.3427  0.4574
16035SOL    HW149718   3.218   5.427   5.360  3.0015  0.2673 -0.4136
16035SOL    HW249719   3.206   5.277   5.338  1.8738  0.2829  0.0552
16036SOL     OW49720   9.164   4.976   3.825  0.4806 -0.2883 -0.4072
16036SOL    HW149721   9.189   4.945   3.738  2.0185 -0.2716 -0.0087
16036SOL    HW249722   9.144   4.897   3.874 -0.3575 -0.3004 -0.7382
16037SOL     OW49723   2.740   5.465   3.869  0.1914 -0.0030  0.5942
16037SOL    HW149724   2.647   5.453   3.887  0.1948  0.6407  1.0816
16037SOL    HW249725   2.761   5.550   3.908  0.8149  0.2026 -0.1577
16038SOL     OW49726   3.191   1.687   3.653  0.4636  0.2303 -0.7386
16038SOL    HW149727   3.158   1.599   3.673  0.0260  0.3529 -0.8970
16038SOL    HW249728   3.142   1.713   3.575  0.3153  0.7635 -0.4738
16039SOL     OW49729   7.471   4.437   6.308 -0.4577 -0.6096 -0.0545
16039SOL    HW149730   7.376   4.445   6.297 -0.4840  0.0257  0.5336
16039SOL    HW249731   7.486   4.345   6.325 -1.1030 -0.5436  0.9497
16040SOL     OW49732   6.992   2.094   6.001  0.1181  0.1778 -0.3661
16040SOL    HW149733   7.008   2.029   6.069 -0.6251  0.4877  0.1305
16040SOL    HW249734   7.000   2.047   5.919  0.2892 -0.3792 -0.0299
16041SOL     OW49735   3.445   0.155   0.619 -0.2488  0.2462 -0.2032
16041SOL    HW149736   3.499   0.228   0.650  0.4821 -0.2550 -0.2805
16041SOL    HW249737   3.440   0.168   0.524 -0.6235  0.5279 -0.1480
16042SOL     OW49738   5.205   4.536   4.572  0.3792 -1.2067  0.2606
16042SOL    HW149739   5.276   4.472   4.567  0.5278 -0.9313 -1.7026
16042SOL    HW249740   5.132   4.496   4.525  0.7392  0.3202 -1.7598
16043SOL     OW49741   2.589   6.823   5.958  0.0885 -0.1113  0.4021
16043SOL    HW149742   2.534   6.881   6.010  0.1370  0.9707 -0.7124
16043SOL    HW249743   2.542   6.812   5.875  0.9476 -0.1759 -0.0902
16044SOL     OW49744   0.695   5.805   4.993  0.2803  0.5554  0.3382
16044SOL    HW149745   0.720   5.871   5.058  1.1617  0.2155  0.3586
16044SOL    HW249746   0.698   5.722   5.040  1.5242  0.2338 -0.2696
16045SOL     OW49747   0.698   4.313   1.209  0.4845  0.2327 -0.0708
16045SOL    HW149748   0.615   4.353   1.237  0.9769  0.7711  0.6531
16045SOL    HW249749   0.676   4.221   1.196  0.0558  0.1007  1.4038
16046SOL     OW49750   8.724   5.167   5.369 -0.2210 -0.5376 -0.4073
16046SOL    HW149751   8.787   5.108   5.329 -0.3165 -0.0580 -1.2854
16046SOL    HW249752   8.645   5.159   5.316 -0.7100 -0.6800  0.3170
16047SOL     OW49753   2.718   6.387   8.694  0.5515 -0.0400  0.0270
16047SOL    HW149754   2.761   6.450   8.752 -0.2295  0.4843  0.0517
16047SOL    HW249755   2.789   6.352   8.641  1.1463  0.1353  0.6870
16048SOL     OW49756   4.505   3.270   1.840 -0.3626  0.3985 -0.3997
16048SOL    HW149757   4.537   3.313   1.920 -1.6421 -0.7583  0.7914
16048SOL    HW249758   4.585   3.252   1.790  0.5509  0.5681  0.9219
16049SOL     OW49759   7.978   6.778   2.006 -0.0270  0.1056 -0.2648
16049SOL    HW149760   7.949   6.708   2.065 -0.4844 -0.9939 -1.7480
16049SOL    HW249761   7.992   6.853   2.064 -2.5932 -0.2645  0.9949
16050SOL     OW49762   2.562   1.118   4.870  0.0556 -0.1063  0.1026
16050SOL    HW149763   2.611   1.098   4.949  2.4169 -1.2921 -1.5303
16050SOL    HW249764   2.575   1.211   4.856 -0.7517  0.2067  1.2949
16051SOL     OW49765   4.173   2.272   7.503  0.0057 -0.1604  0.3030
16051SOL    HW149766   4.204   2.181   7.495  1.6393  0.4597 -1.1068
16051SOL    HW249767   4.213   2.303   7.584  2.3406  0.2644 -0.9081
16052SOL     OW49768   6.050   1.399   2.370 -0.9757  0.0160 -0.2661
16052SOL    HW149769   6.000   1.321   2.346 -0.4691 -0.2278 -0.5453
16052SOL    HW249770   6.141   1.371   2.365 -0.8124 -0.2473  2.5380
16053SOL     OW49771   8.600   5.359   8.056 -0.0804  0.3005  0.2920
16053SOL    HW149772   8.535   5.423   8.028 -0.0368  0.0225 -0.4844
16053SOL    HW249773   8.679   5.410   8.072 -0.6428  0.7246  1.8670
16054SOL     OW49774   0.065   8.850   4.724 -0.5929 -0.2898 -0.7065
16054SOL    HW149775  -0.021   8.828   4.689 -1.7630  2.0742  0.5193
16054SOL    HW249776   0.051   8.862   4.817  1.2890 -0.7434 -0.3268
16055SOL     OW49777   0.468   7.067   8.470  0.0259  1.0600 -0.8778
16055SOL    HW149778   0.439   6.986   8.512  0.4111  2.1578  1.7269
16055SOL    HW249779   0.558   7.051   8.444  0.7539  1.1623  1.3590
16056SOL     OW49780   6.665   5.870   2.473  0.1213  0.2088  0.2913
16056SOL    HW149781   6.661   5.778   2.447  2.2210  0.1189  0.1179
16056SOL    HW249782   6.733   5.873   2.541  1.7065  1.9192 -1.2553
16057SOL     OW49783   0.053   9.836   1.032  0.5340  0.5179  0.1681
16057SOL    HW149784   0.008   9.754   1.013  1.0772  0.3938 -0.6281
16057SOL    HW249785   0.025   9.859   1.121  0.8501 -0.8580  0.6538
16058SOL     OW49786   3.306   4.450   4.853  0.1179  0.5934  0.0929
16058SOL    HW149787   3.291   4.395   4.930  0.1439  1.1141  0.4762
16058SOL    HW249788   3.219   4.460   4.814  0.1374  0.1511 -0.0758
16059SOL     OW49789   3.250   6.042   2.072 -0.0000  0.3035  0.0546
16059SOL    HW149790   3.178   5.986   2.041 -0.4527 -0.2077  1.9185
16059SOL    HW249791   3.210   6.097   2.140  0.8663  1.6642 -0.4783
16060SOL     OW49792   6.191   8.527   0.605  0.0462  0.3038 -0.1609
16060SOL    HW149793   6.203   8.556   0.514  1.8086  1.1937  0.3179
16060SOL    HW249794   6.145   8.599   0.647  2.2231  1.4202  0.4264
16061SOL     OW49795   5.205   0.707   5.294  0.3475  0.3232 -0.4249
16061SOL    HW149796   5.215   0.801   5.282 -1.3195  0.3809 -1.7513
16061SOL    HW249797   5.141   0.681   5.228 -0.0119 -1.5726  0.5904
16062SOL     OW49798   0.159   6.534   4.244  0.2452 -0.2514 -0.4377
16062SOL    HW149799   0.090   6.506   4.305  0.6930 -0.7788 -0.1595
16062SOL    HW249800   0.152   6.473   4.171 -0.5017  0.5810 -1.0870
16063SOL     OW49801   5.218   9.041   2.067  0.0648 -0.2674 -0.1932
16063SOL    HW149802   5.162   9.032   2.143  0.7732  0.4554  0.4345
16063SOL    HW249803   5.169   9.097   2.006 -0.2545 -0.3581 -0.0163
16064SOL     OW49804   4.226   4.240   3.661 -0.6122 -0.4991  0.2417
16064SOL    HW149805   4.141   4.244   3.619 -0.0006 -0.6225 -1.0316
16064SOL    HW249806   4.250   4.148   3.660 -0.5497 -0.4949  0.7970
16065SOL     OW49807   6.345   6.323   5.700 -0.1591 -0.8224 -0.2208
16065SOL    HW149808   6.353   6.397   5.640  0.6495 -2.0049 -1.6500
16065SOL    HW249809   6.407   6.258   5.666 -1.7053 -2.6317  0.2365
16066SOL     OW49810   7.151   4.307   5.254 -0.2651 -0.4464 -0.4271
16066SOL    HW149811   7.239   4.271   5.265  0.3912  1.3886  0.6345
16066SOL    HW249812   7.149   4.384   5.311 -1.9127  0.6615 -1.8867
16067SOL     OW49813   3.008   9.835   7.207  0.1775  0.6828  0.1547
16067SOL    HW149814   2.961   9.879   7.278 -0.3042 -0.8346  0.8201
16067SOL    HW249815   2.966   9.866   7.127 -0.5051  1.0351  0.6400
16068SOL     OW49816   6.135   0.526   4.331  0.2135  0.3283  0.8379
16068SOL    HW149817   6.214   0.573   4.305 -0.0095  0.5441  0.5514
16068SOL    HW249818   6.070   0.594   4.347 -0.1390  0.1213  0.3232
16069SOL     OW49819   8.376   9.382   4.418  0.6473  0.1629 -0.1630
16069SOL    HW149820   8.289   9.371   4.458  0.5953  0.0389 -0.3055
16069SOL    HW249821   8.367   9.458   4.361 -0.3453 -1.7340 -2.7417
16070SOL     OW49822   7.781   3.988   7.032 -0.1086  0.0395  0.2309
16070SOL    HW149823   7.826   4.001   6.948  0.9660  0.9847  0.9311
16070SOL    HW249824   7.851   3.982   7.097 -0.6132 -4.6789  0.7246
16071SOL     OW49825   1.600   9.736   0.262 -0.3303  0.2514  0.3014
16071SOL    HW149826   1.562   9.648   0.260  0.6867 -0.1877 -1.2495
16071SOL    HW249827   1.683   9.727   0.215  0.2241  1.8496  0.9376
16072SOL     OW49828   4.419   5.970   8.171 -0.0159  0.7539 -0.4022
16072SOL    HW149829   4.471   5.999   8.247  0.2884  0.9737 -0.6909
16072SOL    HW249830   4.483   5.929   8.113 -0.2023  0.8360 -0.6671
16073SOL     OW49831   5.596   9.603   0.189 -0.5404  0.2666 -0.0842
16073SOL    HW149832   5.561   9.564   0.109  0.0879 -1.0621  0.2706
16073SOL    HW249833   5.584   9.698   0.176 -2.5529 -0.0292 -0.7343
16074SOL     OW49834   4.728   0.778   8.014  0.3105  0.1757  0.1394
16074SOL    HW149835   4.793   0.842   8.044 -0.0076  0.0762  1.0731
16074SOL    HW249836   4.645   0.814   8.043  0.0493 -0.2145 -0.1245
16075SOL     OW49837   7.935   6.978   7.333  0.2050  0.0408  0.3529
16075SOL    HW149838   8.017   6.928   7.331 -0.7721 -1.5905 -0.7858
16075SOL    HW249839   7.952   7.049   7.396  2.3207 -0.5174  0.4908
16076SOL     OW49840   4.399   7.644   7.787 -0.4760 -0.1879 -0.0975
16076SOL    HW149841   4.366   7.679   7.704  0.2069 -0.7543 -0.6167
16076SOL    HW249842   4.476   7.594   7.763  0.9868  1.3680  1.1493
16077SOL     OW49843   0.359   7.410   5.646  0.0012  0.4097  0.0393
16077SOL    HW149844   0.362   7.505   5.631 -0.9736 -0.0441 -5.0616
16077SOL    HW249845   0.447   7.380   5.627 -0.0486  0.1667  0.1938
16078SOL     OW49846   0.381   3.363   7.934  0.2050 -0.1088  0.0900
16078SOL    HW149847   0.405   3.270   7.934  0.1871 -0.1124  0.2633
16078SOL    HW249848   0.288   3.364   7.910  0.4216 -0.0828 -0.7846
16079SOL     OW49849   6.135   0.748   0.845 -0.2515 -0.1574  0.1697
16079SOL    HW149850   6.118   0.705   0.929 -0.4099  1.0978  0.7960
16079SOL    HW249851   6.121   0.841   0.862  0.7843  0.2341 -0.9765
16080SOL     OW49852   3.460   1.896   3.592  0.3107 -0.2031 -0.1474
16080SOL    HW149853   3.411   1.953   3.533  0.0015 -0.9520 -0.6215
16080SOL    HW249854   3.456   1.810   3.551 -0.3751 -0.8591  1.2350
16081SOL     OW49855   0.158   0.407   5.373  0.0045 -0.1810  0.4099
16081SOL    HW149856   0.090   0.367   5.428  0.0247 -0.8508 -0.0315
16081SOL    HW249857   0.116   0.485   5.337 -0.2674 -0.1609  0.7625
16082SOL     OW49858   9.319   3.957   8.175  0.0980  0.1355  0.2927
16082SOL    HW149859   9.360   3.908   8.247  0.3940 -1.0673 -0.6527
16082SOL    HW249860   9.392   3.995   8.127  0.0067 -0.3813 -0.2689
16083SOL     OW49861   3.232   9.322   2.586 -0.3137  0.2193  0.2910
16083SOL    HW149862   3.303   9.258   2.577  0.0527  0.7591 -0.7993
16083SOL    HW249863   3.152   9.270   2.578 -0.0394 -0.2761  0.6850
16084SOL     OW49864   7.109   2.847   5.827  0.0490 -0.1720  0.0974
16084SOL    HW149865   7.145   2.759   5.844 -1.6902 -0.9102  0.1481
16084SOL    HW249866   7.033   2.831   5.771 -1.8541  1.0380  2.2060
16085SOL     OW49867   1.388   5.563   6.050  0.0801 -0.0001  0.2528
16085SOL    HW149868   1.349   5.496   5.996  0.7013 -0.2022  0.0404
16085SOL    HW249869   1.470   5.585   6.006  0.3423  0.2091  0.8257
16086SOL     OW49870   0.372   4.470   5.886 -0.1808  0.4729 -0.4560
16086SOL    HW149871   0.305   4.452   5.819  0.3801  1.7228 -1.4004
16086SOL    HW249872   0.329   4.526   5.949 -0.7947 -0.9327  0.4114
16087SOL     OW49873   2.911   0.735   6.182 -0.1948 -0.4749 -0.0763
16087SOL    HW149874   2.912   0.651   6.137  0.7900 -1.1548  1.1420
16087SOL    HW249875   2.966   0.792   6.129 -0.4687 -0.7420 -0.6506
16088SOL     OW49876   1.952   3.678   8.747  0.4573 -0.0729 -0.6358
16088SOL    HW149877   2.003   3.598   8.754 -1.4956 -1.3191  0.0843
16088SOL    HW249878   1.951   3.699   8.654  3.6812  1.0150 -0.5296
16089SOL     OW49879   4.539   4.529   8.325  0.0924 -0.1477  0.1025
16089SOL    HW149880   4.592   4.541   8.246  2.2289 -1.5033  1.2176
16089SOL    HW249881   4.466   4.591   8.315  1.0900  0.7789 -2.2106
16090SOL     OW49882   6.508   9.190   8.287  0.0769 -0.2354  0.1839
16090SOL    HW149883   6.464   9.263   8.329  1.6230 -0.5624  2.5174
16090SOL    HW249884   6.473   9.112   8.331  1.3232 -0.6289  0.5120
16091SOL     OW49885   7.728   8.782   5.122 -0.1177  0.3120 -0.8042
16091SOL    HW149886   7.753   8.854   5.180  1.4340  0.1578 -1.2234
16091SOL    HW249887   7.807   8.729   5.115 -0.2454  0.3256 -3.0444
16092SOL     OW49888   3.218   5.388   2.282  0.4516 -0.1131 -0.0282
16092SOL    HW149889   3.198   5.318   2.344 -2.0905 -0.4166 -1.0606
16092SOL    HW249890   3.229   5.466   2.337  3.2393 -1.1876  1.1243
16093SOL     OW49891   7.446   1.112   4.825 -0.8314 -0.5322 -0.0495
16093SOL    HW149892   7.506   1.042   4.799 -0.4431 -0.1103 -0.3062
16093SOL    HW249893   7.481   1.144   4.908 -1.0534 -0.6917  0.1065
16094SOL     OW49894   2.544   9.361   2.204 -0.4631 -0.0278  0.1464
16094SOL    HW149895   2.525   9.400   2.119  0.3565 -1.9287 -0.9554
16094SOL    HW249896   2.563   9.436   2.261 -1.0920  1.2787 -1.3054
16095SOL     OW49897   9.691   6.504   3.677  0.1252  0.2316  0.5004
16095SOL    HW149898   9.785   6.499   3.695 -0.1691 -0.4121  2.0507
16095SOL    HW249899   9.668   6.594   3.697  0.5550  0.6266 -0.7259
16096SOL     OW49900   6.648   6.621   6.087  0.2778 -0.0338  0.2208
16096SOL    HW149901   6.615   6.711   6.078  0.4711  0.0435  0.2627
16096SOL    HW249902   6.573   6.565   6.068  0.1581  0.1386  0.1861
16097SOL     OW49903   9.220   6.818   9.802 -0.0046  0.3517  0.2019
16097SOL    HW149904   9.215   6.783   9.891 -0.6561  0.4529  0.2084
16097SOL    HW249905   9.275   6.896   9.810 -0.2697  0.5032  0.5605
16098SOL     OW49906   4.503   1.402   5.858 -0.2153  0.1745  0.6500
16098SOL    HW149907   4.443   1.342   5.814 -0.3600  0.7791  0.0085
16098SOL    HW249908   4.480   1.395   5.951 -1.4410  0.5608  0.3933
16099SOL     OW49909   1.017   7.011   4.275 -0.4571  0.2081 -0.3348
16099SOL    HW149910   1.090   7.057   4.233  0.5105 -2.3096 -1.6230
16099SOL    HW249911   0.939   7.060   4.250  0.4009  0.5322 -2.5528
16100SOL     OW49912   7.837   2.782   0.605 -0.2512  0.1135 -0.1421
16100SOL    HW149913   7.782   2.704   0.599  0.3008 -0.2854 -0.0618
16100SOL    HW249914   7.921   2.751   0.639 -0.4367  0.9400  1.1305
16101SOL     OW49915   2.034   6.150   0.765  0.5255 -0.2506 -0.3434
16101SOL    HW149916   2.116   6.100   0.764  0.1485 -0.9078  0.5040
16101SOL    HW249917   2.017   6.167   0.858  0.5071  1.2559 -0.5920
16102SOL     OW49918   5.835   5.749   9.713 -0.1726  0.0301 -0.2413
16102SOL    HW149919   5.841   5.790   9.627  0.8919 -1.5556 -0.9753
16102SOL    HW249920   5.746   5.714   9.717 -0.6248  1.1469 -0.1752
16103SOL     OW49921   1.306   0.943   4.661 -0.2585  0.3340  0.3556
16103SOL    HW149922   1.253   0.874   4.701 -1.0321  1.4961  1.4606
16103SOL    HW249923   1.265   0.958   4.576 -0.0173 -0.6170  0.0626
16104SOL     OW49924   0.868   1.946   3.171  0.1600 -0.5296 -0.0426
16104SOL    HW149925   0.906   1.916   3.253 -0.0754 -1.5540 -0.2888
16104SOL    HW249926   0.943   1.965   3.115  0.3260 -1.0002  0.0122
16105SOL     OW49927   4.670   8.910   4.405 -0.3699 -0.5165 -0.2696
16105SOL    HW149928   4.749   8.868   4.440 -0.5097  0.5316  1.3773
16105SOL    HW249929   4.599   8.876   4.458 -0.9801 -0.9590 -1.3326
16106SOL     OW49930   4.743   4.419   1.953 -0.5105 -0.6542 -0.5755
16106SOL    HW149931   4.757   4.458   2.039 -0.1933 -1.2739 -0.3447
16106SOL    HW249932   4.771   4.487   1.891  0.4419 -0.6697 -0.1727
16107SOL     OW49933   7.452   5.695   4.477 -0.7906 -0.4193 -0.0921
16107SOL    HW149934   7.496   5.628   4.528  0.8667  0.5959 -0.1235
16107SOL    HW249935   7.442   5.657   4.390  0.1295 -0.6306 -0.1083
16108SOL     OW49936   9.139   0.909   8.062  0.1721  0.2514  0.0719
16108SOL    HW149937   9.095   0.825   8.059  1.6638 -0.5731  0.5719
16108SOL    HW249938   9.071   0.973   8.039 -1.1471 -1.0006  0.4123
16109SOL     OW49939   9.793   8.947   9.547 -0.8752  0.0254 -0.3990
16109SOL    HW149940   9.815   8.936   9.639 -2.4082 -1.1361 -0.1373
16109SOL    HW249941   9.795   9.042   9.534 -1.4607  0.2649  1.0525
16110SOL     OW49942   5.248   5.167   7.711 -0.8604  0.5148  0.3192
16110SOL    HW149943   5.327   5.217   7.693 -1.1644  0.4570 -1.3041
16110SOL    HW249944   5.235   5.112   7.633 -2.9902  1.2056  0.1164
16111SOL     OW49945   4.071   1.514   0.463 -0.0700 -0.3495 -0.0808
16111SOL    HW149946   4.084   1.602   0.428  0.9022 -0.4117  0.1183
16111SOL    HW249947   4.054   1.527   0.556 -5.6716  0.0928 -0.8152
16112SOL     OW49948   8.994   6.600   6.172 -0.3440 -0.1743  0.6749
16112SOL    HW149949   9.052   6.565   6.239  1.3439  1.0138 -0.0972
16112SOL    HW249950   8.958   6.679   6.211  0.8276  0.6507  0.1468
16113SOL     OW49951   1.734   3.849   6.638 -0.2668 -0.6189  0.0640
16113SOL    HW149952   1.771   3.807   6.716 -1.0530 -0.4016  0.5566
16113SOL    HW249953   1.642   3.823   6.638 -0.1148 -1.2665 -1.2284
16114SOL     OW49954   8.885   2.553   6.769  0.4299  0.1447 -0.2562
16114SOL    HW149955   8.935   2.471   6.766 -0.0220 -0.3141  2.5369
16114SOL    HW249956   8.947   2.618   6.801  0.0199  0.2317  0.3712
16115SOL     OW49957   0.475   7.746   1.334  0.4842 -0.5680 -0.0728
16115SOL    HW149958   0.534   7.698   1.392  1.2579 -1.2706 -1.4040
16115SOL    HW249959   0.412   7.680   1.304 -0.6605  0.0520  0.8838
16116SOL     OW49960   1.995   0.432   9.662 -0.1435 -0.0690 -0.1395
16116SOL    HW149961   2.066   0.395   9.610 -1.2410 -2.4261 -0.0618
16116SOL    HW249962   2.032   0.443   9.749  0.3963 -0.3804 -0.3254
16117SOL     OW49963   2.120   3.190   3.890 -0.8801 -0.3451  0.6240
16117SOL    HW149964   2.186   3.123   3.909  0.4748  0.7943  0.1100
16117SOL    HW249965   2.049   3.143   3.846  0.4309 -1.3046 -0.5423
16118SOL     OW49966   0.888   4.464   8.069 -0.2005  0.3521  0.1059
16118SOL    HW149967   0.938   4.391   8.031  0.4032  0.4059  0.7725
16118SOL    HW249968   0.861   4.432   8.155 -0.1245  0.8310  0.3117
16119SOL     OW49969   5.680   8.459   2.970  0.4950  0.6601  0.7707
16119SOL    HW149970   5.666   8.552   2.987  0.4650  0.7435  0.2995
16119SOL    HW249971   5.606   8.433   2.915  0.2832  0.2583  1.2355
16120SOL     OW49972   7.543   2.292   7.975 -0.2810 -0.0969 -0.4823
16120SOL    HW149973   7.630   2.330   7.992  0.0405 -2.3807  5.0769
16120SOL    HW249974   7.482   2.359   8.006 -0.1201 -0.5157  0.8327
16121SOL     OW49975   0.769   8.310   5.684  0.0170 -0.0319 -0.2049
16121SOL    HW149976   0.748   8.295   5.592 -3.4374 -0.9914  0.5863
16121SOL    HW249977   0.698   8.267   5.732  2.1012 -0.2478  2.9607
16122SOL     OW49978   8.233   9.763   1.744  0.0079  0.1117 -0.2519
16122SOL    HW149979   8.184   9.844   1.736 -0.6599 -0.3471 -0.9806
16122SOL    HW249980   8.316   9.780   1.699  0.1769  0.6127  0.2366
16123SOL     OW49981   0.109   5.014   6.305 -0.1030  0.4774 -0.2096
16123SOL    HW149982   0.107   5.086   6.241  2.2226  2.7693  2.1015
16123SOL    HW249983   0.189   4.966   6.285 -0.6664 -0.3693 -0.5184
16124SOL     OW49984   4.866   8.693   8.217 -0.1990  0.3177 -0.0302
16124SOL    HW149985   4.909   8.642   8.148  1.4454  0.9968  0.4438
16124SOL    HW249986   4.799   8.635   8.252  1.8869 -1.7380  0.7847
16125SOL     OW49987   5.972   0.128   8.879 -0.1879 -0.2573  0.6708
16125SOL    HW149988   5.985   0.069   8.953 -0.9069  0.0881  1.0908
16125SOL    HW249989   6.015   0.209   8.906 -0.9460  0.0589  0.9777
16126SOL     OW49990   1.677   8.341   0.483  0.0646 -0.4444  0.4124
16126SOL    HW149991   1.729   8.421   0.488 -0.2211 -0.2601  0.4951
16126SOL    HW249992   1.621   8.354   0.406  0.7822 -1.0329 -0.2196
16127SOL     OW49993   2.166   2.527   5.192 -0.3427  0.3182 -0.4046
16127SOL    HW149994   2.086   2.516   5.141 -1.4954  0.8400  1.2203
16127SOL    HW249995   2.219   2.588   5.141 -0.3616 -1.0546 -2.1540
16128SOL     OW49996   7.823   2.941   2.553  0.6424 -0.1165 -0.0172
16128SOL    HW149997   7.896   2.893   2.591  0.4856 -1.4491 -1.3147
16128SOL    HW249998   7.745   2.898   2.589  0.4975 -1.1216 -1.4549
16129SOL     OW49999   3.774   3.135   6.242  0.1479  0.1754 -0.6223
16129SOL    HW150000   3.765   3.079   6.165 -1.6659  0.0274 -0.3406
16129SOL    HW250001   3.758   3.224   6.210 -0.4638  0.1301 -0.4458
16130SOL     OW50002   6.819   9.224   4.531  0.6890 -0.3659 -0.3322
16130SOL    HW150003   6.900   9.187   4.567 -0.2729 -1.9502  0.2625
16130SOL    HW250004   6.793   9.291   4.594  1.9341  0.7315 -0.9314
16131SOL     OW50005   0.766   3.607   3.213  0.1432 -0.3579  0.2323
16131SOL    HW150006   0.675   3.620   3.184  0.7914  2.1908 -1.0172
16131SOL    HW250007   0.795   3.529   3.167 -0.9566 -0.2742 -0.6675
16132SOL     OW50008   8.648   1.417   1.186  0.0093 -0.2419 -0.2177
16132SOL    HW150009   8.733   1.424   1.141  0.8121  2.0578  1.4584
16132SOL    HW250010   8.601   1.497   1.162 -1.4707 -1.1954 -0.6262
16133SOL     OW50011   2.603   6.461   1.249  0.2540 -0.1100  0.3468
16133SOL    HW150012   2.633   6.552   1.243 -0.7523  0.1348 -1.6279
16133SOL    HW250013   2.593   6.433   1.159 -0.8647 -1.7297  0.9307
16134SOL     OW50014   8.879   0.728   8.732  0.1124 -0.4993  0.1011
16134SOL    HW150015   8.960   0.747   8.780 -0.1568  0.4871  0.1996
16134SOL    HW250016   8.819   0.798   8.759 -0.4099 -0.5747 -0.8252
16135SOL     OW50017   1.279   7.262   9.669 -0.8012  0.2521 -0.5576
16135SOL    HW150018   1.203   7.204   9.679 -1.7171  1.6443  1.0974
16135SOL    HW250019   1.339   7.234   9.739 -0.7641  0.5698 -0.4628
16136SOL     OW50020   8.105   1.392   1.520  0.0642 -0.3784  0.6307
16136SOL    HW150021   8.179   1.350   1.475 -1.1858 -1.1844 -0.7627
16136SOL    HW250022   8.064   1.446   1.452 -0.0188  0.9068  1.6694
16137SOL     OW50023   5.927   1.740   7.530  0.4162  0.1830 -0.5259
16137SOL    HW150024   5.947   1.674   7.464 -0.4507 -1.8244  1.1242
16137SOL    HW250025   5.970   1.819   7.498  0.1891 -0.7320 -3.3827
16138SOL     OW50026   1.008   7.445   4.149 -0.0283 -0.4533 -0.2903
16138SOL    HW150027   0.995   7.428   4.242  1.7469 -0.8354 -0.0764
16138SOL    HW250028   0.971   7.368   4.105  0.1092 -0.7757  0.1560
16139SOL     OW50029   1.953   0.476   5.687  0.0650 -0.0190 -0.2698
16139SOL    HW150030   1.893   0.461   5.761 -1.3183  0.2993 -1.2886
16139SOL    HW250031   1.926   0.560   5.651  0.6714 -0.2112 -1.1965
16140SOL     OW50032   1.427   9.095   5.462  1.0411 -0.3205  0.4407
16140SOL    HW150033   1.389   9.177   5.492 -0.8475 -0.1402 -2.1363
16140SOL    HW250034   1.391   9.029   5.521  1.7136  0.5345  1.8569
16141SOL     OW50035   2.267   0.476   6.994 -0.1226  0.7444  0.0884
16141SOL    HW150036   2.330   0.525   6.942  0.4297  0.7400  0.7422
16141SOL    HW250037   2.318   0.405   7.033 -0.9765 -0.6127 -1.1426
16142SOL     OW50038   3.765   9.666   6.805  0.0539 -0.1352  0.1972
16142SOL    HW150039   3.741   9.739   6.748  0.2104  0.1464  0.4870
16142SOL    HW250040   3.683   9.642   6.848  0.1226  0.2768  0.5623
16143SOL     OW50041   0.852   6.739   0.787  0.1085  0.0168 -0.6778
16143SOL    HW150042   0.760   6.727   0.763  0.4792  0.1417 -2.2210
16143SOL    HW250043   0.860   6.832   0.804 -0.4756 -0.2610  1.4751
16144SOL     OW50044   0.432   8.714   3.078 -0.2343 -0.0274 -0.1696
16144SOL    HW150045   0.421   8.693   2.985  1.2984 -1.6547 -0.0380
16144SOL    HW250046   0.523   8.744   3.085 -0.1425 -0.5347  0.8971
16145SOL     OW50047   3.409   8.583   9.562  0.4635 -0.0944 -0.0932
16145SOL    HW150048   3.435   8.659   9.615 -0.4000 -0.7181  1.2900
16145SOL    HW250049   3.474   8.516   9.583  0.1825 -0.3080  0.1048
16146SOL     OW50050   6.505   5.531   3.210  0.5125  0.2111 -0.2371
16146SOL    HW150051   6.413   5.539   3.236  0.3177 -0.2945 -0.7454
16146SOL    HW250052   6.510   5.574   3.125  0.4943 -0.7431 -0.7352
16147SOL     OW50053   5.247   0.944   5.149 -0.1903  0.1498  0.0380
16147SOL    HW150054   5.185   1.016   5.158  0.0669  0.2232  1.3434
16147SOL    HW250055   5.333   0.986   5.147 -0.1078 -0.0314 -0.6684
16148SOL     OW50056   8.975   6.035   2.248 -0.6503 -0.0637 -0.4388
16148SOL    HW150057   8.988   6.082   2.330  1.8667 -0.3657 -0.5978
16148SOL    HW250058   8.969   5.943   2.273 -1.6014 -0.0246 -0.4771
16149SOL     OW50059   9.039   3.571   4.541  0.8087  0.1669  0.4081
16149SOL    HW150060   9.030   3.533   4.628 -2.7004  0.0215  0.1059
16149SOL    HW250061   9.037   3.666   4.556 -2.3727  0.2050  0.4774
16150SOL     OW50062   5.320   2.984   7.969 -0.4106 -0.6108 -0.4107
16150SOL    HW150063   5.314   2.891   7.951  0.7116 -0.6034 -0.8985
16150SOL    HW250064   5.391   2.993   8.032 -0.1579 -0.0453 -0.7628
16151SOL     OW50065   1.411   4.998   9.312 -0.3385  0.0875  0.1065
16151SOL    HW150066   1.452   5.080   9.339  1.7218 -0.6175 -0.6804
16151SOL    HW250067   1.364   5.019   9.231  1.2101  0.2791 -0.7784
16152SOL     OW50068   8.624   5.084   6.669 -0.0317  0.2047 -0.1216
16152SOL    HW150069   8.635   5.032   6.748  0.5332 -0.6060 -0.7207
16152SOL    HW250070   8.623   5.021   6.598 -0.3592  0.9348 -0.7843
16153SOL     OW50071   0.503   6.572   3.994 -0.0752 -0.2846  0.2246
16153SOL    HW150072   0.445   6.648   3.981  1.3877  0.7849 -0.4672
16153SOL    HW250073   0.504   6.529   3.909  0.5121 -0.0079  0.0867
16154SOL     OW50074   2.863   3.394   0.675  0.0472 -0.4131 -0.3662
16154SOL    HW150075   2.784   3.396   0.729  0.4906 -2.1131  0.4407
16154SOL    HW250076   2.932   3.430   0.732 -0.7698  5.7770 -2.6024
16155SOL     OW50077   8.149   9.114   8.233 -0.5287  0.3734  0.1163
16155SOL    HW150078   8.118   9.092   8.145  1.7469  1.5793 -1.1132
16155SOL    HW250079   8.221   9.053   8.249  0.3063  1.3805  0.2986
16156SOL     OW50080   3.246   0.430   6.810 -0.6811 -0.3366  0.4389
16156SOL    HW150081   3.322   0.486   6.794 -1.8461  1.1119 -0.2142
16156SOL    HW250082   3.236   0.379   6.730 -1.1467  0.3973  0.0244
16157SOL     OW50083   3.256   2.566   4.807  0.6722  0.1677  0.4202
16157SOL    HW150084   3.316   2.620   4.857 -0.1484  0.4907  1.0841
16157SOL    HW250085   3.175   2.567   4.858  0.4417 -1.1693  0.1248
16158SOL     OW50086   2.926   4.415   3.351 -0.0304 -0.3143  0.0309
16158SOL    HW150087   2.894   4.483   3.292 -0.1731  0.1662  0.6486
16158SOL    HW250088   2.901   4.333   3.309  0.3344  0.0002 -0.8296
16159SOL     OW50089   2.301   4.346   9.359  0.2544 -0.6513 -0.1173
16159SOL    HW150090   2.265   4.434   9.351 -1.1856 -1.1233  0.9855
16159SOL    HW250091   2.390   4.359   9.392  0.2665  0.4032 -0.5426
16160SOL     OW50092   4.458   0.552   8.692  0.3387  0.0777 -0.3959
16160SOL    HW150093   4.492   0.490   8.756 -1.7288  0.1394  0.8413
16160SOL    HW250094   4.447   0.500   8.612 -1.3029 -1.2237  0.5917
16161SOL     OW50095   5.813   4.423   9.836  0.1789 -0.2802 -0.1737
16161SOL    HW150096   5.799   4.331   9.815  0.0740 -0.3326  0.1128
16161SOL    HW250097   5.904   4.427   9.866 -0.8854 -1.0885  3.7725
16162SOL     OW50098   6.289   5.657   2.094  0.1379 -0.0821 -0.8834
16162SOL    HW150099   6.382   5.673   2.075  0.3067 -0.4541 -0.4077
16162SOL    HW250100   6.272   5.709   2.173  0.0798 -0.4186 -0.6726
16163SOL     OW50101   2.664   7.978   3.664  0.0997  0.1271 -0.3692
16163SOL    HW150102   2.699   7.918   3.598  0.0245 -0.2400 -0.0814
16163SOL    HW250103   2.576   7.944   3.682  0.3120 -0.0799  0.2883
16164SOL     OW50104   0.774   5.986   1.707  0.4618  0.4112 -0.1404
16164SOL    HW150105   0.704   6.047   1.729 -0.7825 -0.6349 -1.0621
16164SOL    HW250106   0.805   6.014   1.621 -0.1656 -0.2601 -0.6020
16165SOL     OW50107   4.000   7.207   9.835 -0.1192  0.2861 -0.0336
16165SOL    HW150108   3.962   7.259   9.764 -1.8009  0.3839  0.8743
16165SOL    HW250109   4.094   7.221   9.828 -0.0684 -0.8530 -3.1132
16166SOL     OW50110   5.685   5.179   1.179  0.6027  0.4259  0.9189
16166SOL    HW150111   5.602   5.190   1.226  1.4724 -0.0670  2.6652
16166SOL    HW250112   5.659   5.156   1.090 -1.2086 -2.4424  2.0551
16167SOL     OW50113   7.424   4.932   2.881 -0.2442  0.2882  0.3313
16167SOL    HW150114   7.473   4.866   2.930  1.4045  1.0584 -0.1963
16167SOL    HW250115   7.423   5.009   2.937 -0.2603  0.4854  0.0657
16168SOL     OW50116   9.751   4.598   6.380  0.0320  0.0359  0.4759
16168SOL    HW150117   9.823   4.555   6.333  0.2587  1.0532 -0.1377
16168SOL    HW250118   9.791   4.626   6.462  0.5368  1.1755 -0.1367
16169SOL     OW50119   6.610   0.700   5.955  0.1002 -0.3747  0.3696
16169SOL    HW150120   6.662   0.755   6.014 -0.3735  0.1067  0.3432
16169SOL    HW250121   6.544   0.760   5.918 -0.2139 -0.8884  0.0916
16170SOL     OW50122   8.639   2.059   5.388 -0.3655  0.6379  0.6164
16170SOL    HW150123   8.723   2.022   5.359 -0.9289 -0.7113  0.6131
16170SOL    HW250124   8.575   2.023   5.326 -1.2131 -0.0731  1.8588
16171SOL     OW50125   1.991   4.790   1.325 -0.3664  0.0548 -0.3242
16171SOL    HW150126   1.906   4.796   1.368 -0.7186 -0.6755 -0.9038
16171SOL    HW250127   2.019   4.700   1.339  0.0331  0.1262 -0.6387
16172SOL     OW50128   7.335   3.241   9.261  0.2836  0.2748  0.1203
16172SOL    HW150129   7.270   3.310   9.244  0.7143  0.1492 -2.4513
16172SOL    HW250130   7.413   3.269   9.213  1.4924 -0.5874  1.4877
16173SOL     OW50131   8.219   2.042   6.785 -0.0525  0.3876  0.0255
16173SOL    HW150132   8.157   1.993   6.731 -0.4517  0.6266  0.2583
16173SOL    HW250133   8.290   2.066   6.725 -0.6205  0.8829 -0.4635
16174SOL     OW50134   2.085   4.375   7.177  0.6750  0.0192 -0.5510
16174SOL    HW150135   2.109   4.375   7.085 -0.0458 -0.3777 -0.7442
16174SOL    HW250136   2.001   4.422   7.180  0.1388 -0.9347 -0.2571
16175SOL     OW50137   4.801   4.601   3.896 -0.2883 -0.0632 -0.1758
16175SOL    HW150138   4.741   4.556   3.955 -0.6214 -1.9239 -1.8360
16175SOL    HW250139   4.749   4.669   3.854 -0.8589 -0.6923 -0.5013
16176SOL     OW50140   6.279   3.256   2.429 -0.5527 -0.2135 -0.0913
16176SOL    HW150141   6.204   3.221   2.478  1.0005 -1.9173  1.2174
16176SOL    HW250142   6.305   3.334   2.478  0.8006 -1.7380  1.7706
16177SOL     OW50143   6.238   7.017   4.297  0.0368 -0.1465  0.4718
16177SOL    HW150144   6.222   6.923   4.311 -3.2726  0.5022  2.1413
16177SOL    HW250145   6.190   7.037   4.216  2.6984 -0.2155 -1.2331
16178SOL     OW50146   2.791   7.010   5.024 -0.2570 -0.2624 -0.2785
16178SOL    HW150147   2.876   6.982   5.058 -0.3748  0.6233  0.8056
16178SOL    HW250148   2.734   7.013   5.101 -1.1298 -0.3189 -0.9069
16179SOL     OW50149   4.316   5.790   4.205  0.0409 -0.0720 -0.1303
16179SOL    HW150150   4.382   5.771   4.272  0.6015  1.6990 -0.1202
16179SOL    HW250151   4.234   5.798   4.253  0.0737 -0.8277  0.0603
16180SOL     OW50152   4.174   3.716   3.661 -0.3151 -0.7824 -0.0671
16180SOL    HW150153   4.084   3.717   3.693 -0.6262  2.3880 -0.7324
16180SOL    HW250154   4.167   3.743   3.569  1.3963  0.8250  0.2348
16181SOL     OW50155   3.364   9.202   1.565  0.2987 -0.0989  0.7057
16181SOL    HW150156   3.327   9.154   1.639 -1.4641  1.8524  1.2062
16181SOL    HW250157   3.447   9.237   1.598  0.5891 -1.0535  1.0096
16182SOL     OW50158   3.284   7.420   0.009  0.1690  0.3126  0.0699
16182SOL    HW150159   3.303   7.350  -0.053  1.1073 -0.2278  0.9380
16182SOL    HW250160   3.250   7.375   0.087 -2.1773  1.0551 -0.4376
16183SOL     OW50161   4.045   4.957   6.537  0.0495  0.1152  0.2256
16183SOL    HW150162   3.970   4.906   6.570 -0.4724 -0.1097 -1.2532
16183SOL    HW250163   4.056   4.927   6.447  1.2524  0.9324  0.0907
16184SOL     OW50164   0.270   3.663   7.940  0.0088  0.0847  0.0440
16184SOL    HW150165   0.275   3.757   7.923  0.0063 -0.1314 -1.2937
16184SOL    HW250166   0.332   3.648   8.011  1.4505  0.8457 -0.9802
16185SOL     OW50167   0.700   3.707   8.002  0.0393  0.2325  0.1596
16185SOL    HW150168   0.688   3.699   7.908 -1.2148 -0.4698  0.3521
16185SOL    HW250169   0.616   3.679   8.039 -0.3016  2.7224  1.4251
16186SOL     OW50170   5.525   4.141   4.338  0.1783  0.1659 -0.0261
16186SOL    HW150171   5.539   4.232   4.313 -1.2186  0.3943 -0.0860
16186SOL    HW250172   5.441   4.142   4.385 -0.8251 -1.3643 -1.6854
16187SOL     OW50173   3.346   9.709   9.135 -0.0607 -0.1170  0.4496
16187SOL    HW150174   3.373   9.629   9.091  2.0051  0.4641  0.5348
16187SOL    HW250175   3.312   9.765   9.065 -1.1398 -0.8833  0.3340
16188SOL     OW50176   6.807   8.169   5.766 -0.1220  0.6081 -0.3642
16188SOL    HW150177   6.776   8.242   5.712 -2.1259 -0.3488 -0.5975
16188SOL    HW250178   6.733   8.109   5.771  1.6242 -1.7618 -0.7372
16189SOL     OW50179   5.410   5.538   1.535 -0.2609  0.3049  0.0236
16189SOL    HW150180   5.393   5.470   1.601  1.0326 -2.0793 -1.9378
16189SOL    HW250181   5.323   5.568   1.510 -0.8675 -0.4786  1.0802
16190SOL     OW50182   7.607   7.168   4.453  0.3418 -0.1105 -0.4828
16190SOL    HW150183   7.532   7.153   4.510  1.1780 -0.0767  0.6711
16190SOL    HW250184   7.649   7.247   4.489  1.4046 -0.6110 -0.5732
16191SOL     OW50185   7.230   3.980   1.963 -0.1659 -0.5750  0.7010
16191SOL    HW150186   7.256   3.893   1.995  0.6543 -0.1835  1.1483
16191SOL    HW250187   7.244   4.037   2.039 -0.0548  0.0513  0.2111
16192SOL     OW50188   3.174   5.667   2.031  0.1586  0.1129 -0.1991
16192SOL    HW150189   3.165   5.738   2.094  1.1353  0.2777 -0.2225
16192SOL    HW250190   3.085   5.647   2.003 -0.3908 -0.5212  1.8440
16193SOL     OW50191   1.024   6.254   4.364  0.0671 -0.3330 -0.0480
16193SOL    HW150192   0.955   6.320   4.353 -0.2289 -0.6763 -0.3137
16193SOL    HW250193   1.094   6.299   4.411  0.5416  0.6281 -1.6185
16194SOL     OW50194   0.268   5.117   1.894  0.3220 -0.0935 -0.2871
16194SOL    HW150195   0.204   5.155   1.834 -0.9149  0.7243  1.4633
16194SOL    HW250196   0.262   5.171   1.973 -0.1109 -2.6784  1.5867
16195SOL     OW50197   5.809   4.170   6.627  0.1646 -0.0149  0.4592
16195SOL    HW150198   5.786   4.085   6.664 -0.3658 -0.4973 -0.9219
16195SOL    HW250199   5.855   4.215   6.698  1.9247 -2.0637  0.7439
16196SOL     OW50200   3.330   0.299   3.100 -0.1072  0.4762 -0.5860
16196SOL    HW150201   3.382   0.355   3.158 -1.2722 -0.5602  1.5762
16196SOL    HW250202   3.386   0.223   3.083 -0.6747 -0.4415  1.3913
16197SOL     OW50203   3.474   1.980   2.994 -0.0373 -0.5749 -0.8529
16197SOL    HW150204   3.487   1.933   2.912 -0.2869  0.0735 -1.2715
16197SOL    HW250205   3.515   1.925   3.061 -0.6553 -1.5567 -1.2762
16198SOL     OW50206   2.366   9.662   8.242 -0.3302  0.2762  0.6711
16198SOL    HW150207   2.381   9.755   8.224  1.4876 -0.0120  0.5410
16198SOL    HW250208   2.271   9.651   8.233 -0.5169  2.0070  0.1859
16199SOL     OW50209   8.337   9.421   7.648 -0.1922 -0.1573  0.5631
16199SOL    HW150210   8.392   9.384   7.579 -1.6297 -0.9501 -0.2097
16199SOL    HW250211   8.399   9.451   7.715  1.2302  0.3655 -0.9234
16200SOL     OW50212   4.487   3.969   2.461 -0.0473  0.0986 -0.3466
16200SOL    HW150213   4.495   3.962   2.366  0.8661 -0.8827 -0.2108
16200SOL    HW250214   4.577   3.979   2.493 -0.2159 -0.9234  0.5086
16201SOL     OW50215   6.748   2.498   2.171  0.0729 -0.3500  0.0280
16201SOL    HW150216   6.755   2.541   2.085  1.1914  0.8815  0.6992
16201SOL    HW250217   6.725   2.569   2.231  0.1545 -1.0417  0.8916
16202SOL     OW50218   0.141   8.713   2.673  0.4496 -0.0502 -0.0163
16202SOL    HW150219   0.169   8.756   2.753  1.1252 -0.6843  0.0988
16202SOL    HW250220   0.105   8.784   2.619  2.0727  0.7797 -0.0739
16203SOL     OW50221   8.985   9.108   1.233  0.1922 -0.1449  0.1895
16203SOL    HW150222   8.930   9.178   1.267  0.1932 -0.5083  0.9459
16203SOL    HW250223   9.042   9.084   1.306  0.7674 -0.3620 -0.3215
16204SOL     OW50224   4.340   0.266   6.428 -0.3952 -0.3048 -0.0446
16204SOL    HW150225   4.317   0.355   6.401  0.1166 -0.2771 -0.4125
16204SOL    HW250226   4.330   0.266   6.523 -0.7110  0.0530 -0.0755
16205SOL     OW50227   6.977   9.364   8.477  0.0976  0.4071 -0.0449
16205SOL    HW150228   6.938   9.298   8.419  0.8177  0.1729 -0.2824
16205SOL    HW250229   7.055   9.321   8.513 -0.7445  0.2746  1.7143
16206SOL     OW50230   9.119   2.740   5.224 -0.5176 -0.2156 -0.1377
16206SOL    HW150231   9.213   2.753   5.208 -0.6892  0.3555 -0.7215
16206SOL    HW250232   9.114   2.715   5.317 -0.0619  3.4203  1.0353
16207SOL     OW50233   4.518   6.357   3.013  0.6998  0.8080  0.1891
16207SOL    HW150234   4.593   6.302   3.035 -0.7549 -0.5453  2.1329
16207SOL    HW250235   4.485   6.386   3.098 -0.9661  1.3853 -0.6264
16208SOL     OW50236   3.710   2.118   6.855 -0.0945 -0.4105 -0.1341
16208SOL    HW150237   3.637   2.062   6.880 -1.1861  0.7972 -0.5077
16208SOL    HW250238   3.736   2.086   6.769 -0.3737 -0.6570 -0.1291
16209SOL     OW50239   1.108   4.032   4.789 -0.4677 -0.0048  0.1023
16209SOL    HW150240   1.057   4.062   4.714  1.4060  0.4332 -1.0637
16209SOL    HW250241   1.078   4.087   4.862 -0.9791  0.8891 -0.7594
16210SOL     OW50242   3.267   0.122   5.229 -0.1031 -0.2468 -0.4024
16210SOL    HW150243   3.263   0.051   5.165  0.6151 -0.2571 -0.4443
16210SOL    HW250244   3.192   0.106   5.287 -0.5845 -0.4047 -1.0577
16211SOL     OW50245   0.403   7.771   5.514  0.1194 -0.3387  0.0253
16211SOL    HW150246   0.378   7.816   5.595 -0.7326  0.3179 -0.5902
16211SOL    HW250247   0.320   7.757   5.468  0.4366 -1.9233 -0.1339
16212SOL     OW50248   7.558   8.885   2.289  0.6456 -0.1354 -0.3267
16212SOL    HW150249   7.545   8.882   2.384  1.6187 -0.9619 -0.1991
16212SOL    HW250250   7.516   8.967   2.262 -1.3789 -0.8310  0.5175
16213SOL     OW50251   8.811   7.336   4.262  0.3207 -0.1253  0.3960
16213SOL    HW150252   8.773   7.345   4.350 -1.9674  2.4520 -0.7211
16213SOL    HW250253   8.776   7.252   4.230 -0.0936 -0.3432  1.3724
16214SOL     OW50254   3.811   1.657   5.586 -0.5287 -0.7131 -0.0953
16214SOL    HW150255   3.854   1.599   5.649 -0.5395 -1.0557 -0.3962
16214SOL    HW250256   3.876   1.671   5.517 -0.2456  0.2727  0.3539
16215SOL     OW50257   7.157   7.427   1.744 -0.4336  0.0865 -0.6428
16215SOL    HW150258   7.075   7.397   1.782 -0.5354  0.9904 -0.1108
16215SOL    HW250259   7.131   7.502   1.689  0.2245  1.6936  1.1121
16216SOL     OW50260   9.382   6.442   1.801 -0.4941  0.6385  0.2639
16216SOL    HW150261   9.404   6.513   1.861  1.2963 -0.6420  1.2073
16216SOL    HW250262   9.330   6.382   1.854  1.1922 -0.5525  0.6510
16217SOL     OW50263   3.084   4.799   6.075  0.0477 -0.2313  0.2203
16217SOL    HW150264   3.034   4.760   6.003  1.1867 -1.1817 -0.1057
16217SOL    HW250265   3.175   4.773   6.057  0.7805  1.9610  0.4320
16218SOL     OW50266   6.833   7.537   2.622 -0.6742  0.7088  0.0133
16218SOL    HW150267   6.807   7.608   2.680 -1.1828  0.1528  0.4799
16218SOL    HW250268   6.752   7.491   2.601 -0.1529 -1.0645  1.5072
16219SOL     OW50269   8.913   6.817   6.342  0.0914  1.0009  0.1387
16219SOL    HW150270   8.870   6.901   6.357  1.4225  1.4224  1.9929
16219SOL    HW250271   8.967   6.804   6.420  0.7385 -1.0765 -0.5955
16220SOL     OW50272   0.402   0.759   5.351 -0.4901  0.2760  0.0099
16220SOL    HW150273   0.307   0.757   5.363 -0.3967  2.7534  1.9290
16220SOL    HW250274   0.437   0.740   5.438  0.7491  0.4033 -0.4419
16221SOL     OW50275   2.698   4.092   3.078 -0.3125 -0.1003  0.3829
16221SOL    HW150276   2.738   4.054   3.000 -0.7028  1.3814 -0.5831
16221SOL    HW250277   2.769   4.094   3.142  0.5897  0.4644 -0.5907
16222SOL     OW50278   7.772   8.047   5.189 -0.1023  0.6381  0.3347
16222SOL    HW150279   7.749   8.009   5.104 -1.7762  1.3499  0.4267
16222SOL    HW250280   7.741   7.982   5.253  1.5793 -0.1180  0.4334
16223SOL     OW50281   4.931   8.317   2.052  0.1872 -0.4800 -0.4738
16223SOL    HW150282   4.997   8.354   2.111 -0.9528  0.7582  0.0684
16223SOL    HW250283   4.977   8.305   1.969  0.6397  2.2039 -0.6878
16224SOL     OW50284   3.332   5.075   8.589  0.1563 -0.1157 -0.2504
16224SOL    HW150285   3.283   5.053   8.668 -0.5218 -0.2062 -0.6849
16224SOL    HW250286   3.347   5.169   8.595 -1.4856  0.2221 -0.8582
16225SOL     OW50287   2.125   8.776   2.705 -0.2811 -0.1353  0.2566
16225SOL    HW150288   2.049   8.828   2.729 -0.5472 -0.2169 -0.3846
16225SOL    HW250289   2.143   8.800   2.614 -0.1722 -0.8731  0.0728
16226SOL     OW50290   1.567   2.650   3.260  0.0734 -0.2768 -0.1846
16226SOL    HW150291   1.622   2.591   3.311 -0.0169  0.4192  0.7301
16226SOL    HW250292   1.564   2.610   3.173  2.0797 -0.2964 -0.2875
16227SOL     OW50293   2.341   8.916   5.037 -0.0752  0.5178  0.4448
16227SOL    HW150294   2.394   8.901   5.115  0.7512 -0.1996 -0.2237
16227SOL    HW250295   2.288   8.837   5.028  1.7452 -0.6317 -1.1395
16228SOL     OW50296   3.381   2.362   8.237  0.2756 -0.8349  0.1876
16228SOL    HW150297   3.357   2.269   8.232  0.1763 -0.7503 -1.3098
16228SOL    HW250298   3.354   2.398   8.153 -0.0340  0.6538  0.8992
16229SOL     OW50299   3.566   7.304   1.933  0.3020 -0.0741  0.2276
16229SOL    HW150300   3.531   7.234   1.988 -0.3429  0.2321  0.2143
16229SOL    HW250301   3.660   7.304   1.953 -0.1581  1.4023  2.9490
16230SOL     OW50302   4.488   4.264   8.940  0.3084  0.4033 -0.0519
16230SOL    HW150303   4.499   4.358   8.922  0.9609 -0.0378 -2.1885
16230SOL    HW250304   4.469   4.260   9.034 -1.3136  2.7811 -0.1961
16231SOL     OW50305   7.944   0.490   1.887 -0.0989 -0.0072 -0.3397
16231SOL    HW150306   7.859   0.472   1.847 -0.3719  1.5509 -0.5126
16231SOL    HW250307   7.925   0.503   1.980 -0.0887  0.6148 -0.4251
16232SOL     OW50308   1.419   8.243   1.313 -0.1495 -0.5956 -0.0087
16232SOL    HW150309   1.328   8.239   1.344  0.1854 -0.7254  0.9925
16232SOL    HW250310   1.412   8.269   1.221 -1.1834 -0.2219  0.1638
16233SOL     OW50311   3.106   3.678   2.246 -0.3670  0.7214 -0.1863
16233SOL    HW150312   3.081   3.592   2.212  1.7913  0.7282 -2.0281
16233SOL    HW250313   3.027   3.731   2.241 -1.3921 -0.7688 -0.2827
16234SOL     OW50314   3.577   3.663   6.771 -0.1557 -0.0825 -0.3661
16234SOL    HW150315   3.573   3.598   6.701  1.9502 -1.2450  0.5009
16234SOL    HW250316   3.650   3.720   6.747 -0.0287  0.0845  0.3990
16235SOL     OW50317   3.305   9.625   8.628 -0.5647  0.4070 -0.1383
16235SOL    HW150318   3.341   9.538   8.610  1.2593  1.0232  0.3178
16235SOL    HW250319   3.370   9.666   8.686 -2.1313  1.5236  0.8955
16236SOL     OW50320   1.744   9.194   6.842  0.6166  0.0688  0.1393
16236SOL    HW150321   1.653   9.190   6.812  0.2034  1.2546  1.1607
16236SOL    HW250322   1.762   9.105   6.874  0.8050 -1.0042 -2.6811
16237SOL     OW50323   6.977   9.204   0.490 -0.0532  0.1836  0.0236
16237SOL    HW150324   7.070   9.224   0.499 -0.4147  1.8173  0.5220
16237SOL    HW250325   6.964   9.194   0.396  0.2953  1.8714 -0.2313
16238SOL     OW50326   0.146   3.455   7.800 -0.7579  0.4776  0.8726
16238SOL    HW150327   0.185   3.523   7.856 -0.2746  0.1094  1.0001
16238SOL    HW250328   0.161   3.485   7.711  1.2494 -0.3719  0.8629
16239SOL     OW50329   7.689   1.521   4.445  0.1457 -0.3509 -0.1011
16239SOL    HW150330   7.668   1.437   4.403  0.0813 -0.9944  1.1678
16239SOL    HW250331   7.772   1.547   4.406 -0.0035 -0.8362 -0.7588
16240SOL     OW50332   1.981   8.007   8.684  0.0093  0.1817 -0.0705
16240SOL    HW150333   2.076   8.017   8.674  0.0099  1.2353  0.7405
16240SOL    HW250334   1.945   8.034   8.600  0.3815  0.8612 -0.0167
16241SOL     OW50335   2.304   1.733   6.276  0.1330  0.0881  0.0089
16241SOL    HW150336   2.220   1.721   6.321  0.2268  0.9014  0.4251
16241SOL    HW250337   2.280   1.771   6.191 -0.2060 -3.1695 -1.5204
16242SOL     OW50338   5.026   2.394   4.236 -0.3736  0.6189 -0.1076
16242SOL    HW150339   4.951   2.451   4.255 -0.4989  0.0361  1.3053
16242SOL    HW250340   5.039   2.344   4.317 -0.2188 -1.3134 -1.2640
16243SOL     OW50341   2.207   4.530   9.176 -0.2289 -0.2674 -0.1430
16243SOL    HW150342   2.154   4.576   9.110 -1.7497 -1.6881  0.0055
16243SOL    HW250343   2.189   4.577   9.258  0.0170  0.2361 -0.3749
16244SOL     OW50344   7.781   6.757   0.063 -0.2679  0.1643 -0.0264
16244SOL    HW150345   7.798   6.663   0.076  1.7380  0.4897  0.1024
16244SOL    HW250346   7.863   6.790   0.026 -1.0713  1.8180 -0.3838
16245SOL     OW50347   4.441   9.799   3.498 -0.2520  0.2706  0.1395
16245SOL    HW150348   4.391   9.881   3.498 -1.2493 -0.3062 -0.1803
16245SOL    HW250349   4.440   9.770   3.589 -0.6249  0.2125  0.1227
16246SOL     OW50350   6.901   7.383   1.413  0.1997  0.1854  0.2979
16246SOL    HW150351   6.898   7.441   1.337 -1.7226 -1.8699 -1.3325
16246SOL    HW250352   6.959   7.312   1.386 -0.6656 -0.6679  0.6347
16247SOL     OW50353   3.092   2.107   5.641 -0.1931 -0.1830  0.0509
16247SOL    HW150354   3.152   2.035   5.661  0.3221  0.3858  0.5817
16247SOL    HW250355   3.115   2.133   5.552 -0.8079 -1.0768 -0.3881
16248SOL     OW50356   3.909   0.640   3.383 -0.7277  0.0531  0.5989
16248SOL    HW150357   3.887   0.730   3.359  0.9651  0.8095  1.6469
16248SOL    HW250358   3.905   0.640   3.479  0.0989 -0.7394  0.6491
16249SOL     OW50359   6.010   1.646   3.350  0.4938  0.3737 -0.0446
16249SOL    HW150360   5.965   1.602   3.278  0.4608  0.2820  0.0324
16249SOL    HW250361   6.029   1.734   3.317  0.8224  0.2086 -0.3106
16250SOL     OW50362   8.731   0.989   5.656  0.5639 -0.5925  0.0666
16250SOL    HW150363   8.712   1.019   5.567  1.1678 -1.7195 -0.4596
16250SOL    HW250364   8.792   1.053   5.691 -0.6216  0.5351  0.1240
16251SOL     OW50365   1.365   5.300   7.935  0.2588 -1.0963 -0.4072
16251SOL    HW150366   1.438   5.288   7.874 -0.3468 -0.8277 -1.2024
16251SOL    HW250367   1.322   5.380   7.905  2.1188  1.2705  2.5786
16252SOL     OW50368   5.718   4.999   2.491  0.0134  0.2291  0.1279
16252SOL    HW150369   5.730   5.025   2.399 -1.7342  2.3169  0.3896
16252SOL    HW250370   5.708   4.904   2.488 -2.1823  0.4176 -2.1869
16253SOL     OW50371   9.416   4.953   0.542 -0.1935  0.4523  0.1835
16253SOL    HW150372   9.470   4.980   0.468  0.8479 -2.4403 -0.2266
16253SOL    HW250373   9.439   5.014   0.612  1.6071  0.9424 -0.7774
16254SOL     OW50374   2.565   3.006   6.919 -0.6610  0.0100  0.8157
16254SOL    HW150375   2.490   3.038   6.869  0.5556 -0.0891 -1.1888
16254SOL    HW250376   2.551   2.912   6.926 -0.2033 -0.1808 -0.5626
16255SOL     OW50377   4.757   0.746   1.152  0.4301  0.5110  0.2721
16255SOL    HW150378   4.680   0.724   1.206 -0.2424  0.5127 -0.6633
16255SOL    HW250379   4.728   0.732   1.062  1.7074  0.0124 -0.0746
16256SOL     OW50380   6.919   4.407   0.612  0.3637  1.0002 -0.2328
16256SOL    HW150381   6.897   4.337   0.674 -2.7544 -0.2960 -2.5472
16256SOL    HW250382   7.002   4.380   0.574  0.1722 -0.4588  0.3124
16257SOL     OW50383   0.385   7.771   3.608  0.3103  0.7253  0.1680
16257SOL    HW150384   0.407   7.693   3.659  1.4495  0.4777 -0.6532
16257SOL    HW250385   0.353   7.834   3.672  0.0320 -0.1819  0.9364
16258SOL     OW50386   3.166   1.578   7.327 -0.0067  0.2956 -0.0670
16258SOL    HW150387   3.261   1.582   7.342 -0.0229  0.8533 -0.1107
16258SOL    HW250388   3.134   1.663   7.356 -0.2937  0.7004 -1.5203
16259SOL     OW50389   8.353   0.938   0.645 -0.0520 -0.3940  0.3165
16259SOL    HW150390   8.414   1.011   0.654 -1.6577  1.2715 -1.3894
16259SOL    HW250391   8.408   0.865   0.615  1.1746  0.9551 -0.8636
16260SOL     OW50392   7.532   0.286   6.454 -0.0264 -0.0193 -0.1907
16260SOL    HW150393   7.590   0.351   6.412  0.8460 -0.0362  0.9497
16260SOL    HW250394   7.449   0.332   6.465  0.9243  1.3475  1.6821
16261SOL     OW50395   3.503   8.619   9.176  0.7152 -0.2985  0.0842
16261SOL    HW150396   3.543   8.538   9.208 -0.8606 -0.2155  2.5450
16261SOL    HW250397   3.450   8.591   9.101  1.9680 -1.1145 -0.5367
16262SOL     OW50398   6.156   2.254   7.217 -0.4547 -0.0869 -0.6916
16262SOL    HW150399   6.198   2.330   7.178  1.4479 -1.2438 -1.0257
16262SOL    HW250400   6.199   2.179   7.176 -2.1137 -1.3637 -0.2249
16263SOL     OW50401   3.429   9.682   1.686 -0.4839  0.8862  0.2644
16263SOL    HW150402   3.429   9.595   1.725 -0.3470  0.2950 -1.0185
16263SOL    HW250403   3.337   9.709   1.687 -0.2820  1.7603  2.8084
16264SOL     OW50404   0.055   5.218   6.085  0.1180 -0.0862 -0.2794
16264SOL    HW150405  -0.007   5.256   6.147  1.0643  1.0399  0.0228
16264SOL    HW250406   0.004   5.201   6.006 -0.9165 -0.7286  0.4989
16265SOL     OW50407   8.981   8.390   9.811  0.4283 -0.2154 -0.1885
16265SOL    HW150408   8.926   8.439   9.873  0.3792 -1.4243  0.7682
16265SOL    HW250409   8.956   8.424   9.725 -0.0988  0.9246  0.3846
16266SOL     OW50410   5.326   2.472   4.612 -0.1284  0.4895  0.2541
16266SOL    HW150411   5.277   2.431   4.683 -0.0566 -0.7627 -0.3865
16266SOL    HW250412   5.339   2.562   4.640  0.5037 -0.1526  2.1251
16267SOL     OW50413   2.363   0.348   8.374 -0.4055 -0.1887 -0.0450
16267SOL    HW150414   2.321   0.367   8.457  0.0185  2.3316 -0.3229
16267SOL    HW250415   2.453   0.378   8.385 -0.0968 -0.6347 -1.1460
16268SOL     OW50416   5.611   5.981   8.481 -0.6354  0.2610 -0.1197
16268SOL    HW150417   5.672   6.041   8.438 -0.8960 -0.1374 -1.0849
16268SOL    HW250418   5.548   5.958   8.412 -1.1857 -0.2476  0.5385
16269SOL     OW50419   2.070   7.469   0.304 -0.2744  0.1288 -0.3049
16269SOL    HW150420   1.977   7.473   0.325 -0.5068  0.0534 -1.2732
16269SOL    HW250421   2.075   7.496   0.212  0.5233 -1.0003 -0.6187
16270SOL     OW50422   6.731   1.904   3.260  0.0327  0.3419 -0.0467
16270SOL    HW150423   6.728   1.984   3.314 -0.0789  0.5248 -0.3269
16270SOL    HW250424   6.753   1.935   3.172  0.2401  0.0380 -0.1038
16271SOL     OW50425   9.190   3.733   4.888  0.2341 -0.1261 -0.2413
16271SOL    HW150426   9.285   3.730   4.904  0.0971  0.7958  0.9513
16271SOL    HW250427   9.151   3.729   4.976 -0.9044 -1.9660 -0.7838
16272SOL     OW50428   0.973   9.792   6.516 -0.5912 -0.0372  0.1909
16272SOL    HW150429   0.975   9.868   6.458 -1.0563 -0.4130 -0.3187
16272SOL    HW250430   0.981   9.717   6.458 -1.9859 -0.4597  0.5227
16273SOL     OW50431   1.583   2.231   7.669 -0.0997 -0.2882  0.1400
16273SOL    HW150432   1.637   2.264   7.598 -2.8316  1.9729 -1.1259
16273SOL    HW250433   1.537   2.156   7.631  0.3411 -0.6976  0.4073
16274SOL     OW50434   3.680   1.373   8.179 -0.2692  0.4760  0.3317
16274SOL    HW150435   3.697   1.363   8.273  1.8647  1.3902  0.0975
16274SOL    HW250436   3.614   1.442   8.174  0.0310  0.8387  1.1531
16275SOL     OW50437   8.508   2.128   2.168  0.1807 -0.1044  0.1588
16275SOL    HW150438   8.600   2.151   2.184  0.4896 -1.6924  0.7586
16275SOL    HW250439   8.471   2.114   2.255 -0.2005 -1.0635 -0.1474
16276SOL     OW50440   4.882   6.565   3.865 -0.0299  0.2216  0.0051
16276SOL    HW150441   4.868   6.640   3.923  1.4056 -0.0907  0.7959
16276SOL    HW250442   4.954   6.516   3.905 -0.0103 -0.8350 -1.2386
16277SOL     OW50443   2.494   9.247   7.511 -0.5795  0.2582 -0.1532
16277SOL    HW150444   2.533   9.181   7.569 -0.4488 -0.0760 -0.6178
16277SOL    HW250445   2.407   9.212   7.491 -1.1161  0.9724  0.8299
16278SOL     OW50446   3.178   6.627   2.839  0.2834  0.4291  0.2221
16278SOL    HW150447   3.174   6.697   2.774 -0.1041  1.8795  1.7186
16278SOL    HW250448   3.271   6.603   2.842  0.3890  0.7387 -0.4626
16279SOL     OW50449   8.960   3.121   7.604  0.3178 -0.1069  0.0578
16279SOL    HW150450   8.998   3.112   7.691  1.1674 -0.1884 -0.3074
16279SOL    HW250451   8.889   3.056   7.602  0.7910 -0.6438  0.4244
16280SOL     OW50452   2.229   1.576   9.087  0.3204  0.0485  0.0943
16280SOL    HW150453   2.196   1.515   9.021 -1.0517  2.8336 -1.9795
16280SOL    HW250454   2.154   1.595   9.142  0.6940  0.0121  0.6232
16281SOL     OW50455   5.800   8.617   2.597  0.6582  0.3506  0.3227
16281SOL    HW150456   5.880   8.592   2.644  1.2463  0.9601 -0.3370
16281SOL    HW250457   5.790   8.710   2.616  0.6962  0.5167 -0.4521
16282SOL     OW50458   4.134   4.218   2.976  0.0709  0.6084 -0.0538
16282SOL    HW150459   4.056   4.167   2.955 -0.3671  2.2834 -2.9364
16282SOL    HW250460   4.110   4.266   3.056 -0.7677 -1.0153  0.7039
16283SOL     OW50461   2.283   6.275   0.463  0.2393  0.5661  0.2003
16283SOL    HW150462   2.366   6.322   0.469 -0.2577  1.5557 -0.5927
16283SOL    HW250463   2.228   6.315   0.531 -0.0979  0.9633 -0.3040
16284SOL     OW50464   5.548   8.732   5.023 -0.1296 -0.9752  0.2938
16284SOL    HW150465   5.541   8.815   5.071  0.1475 -0.8216  0.0764
16284SOL    HW250466   5.580   8.669   5.088  0.3148 -0.7513  0.3016
16285SOL     OW50467   4.229   7.129   8.821  0.1281  0.2893 -0.8572
16285SOL    HW150468   4.161   7.176   8.771 -0.0098  0.9393 -0.0783
16285SOL    HW250469   4.180   7.067   8.875  0.3290 -1.0200 -2.1161
16286SOL     OW50470   0.541   7.180   1.994  0.4920 -0.0724 -0.2003
16286SOL    HW150471   0.518   7.190   2.086 -0.0853 -1.4844 -0.1671
16286SOL    HW250472   0.466   7.135   1.956  0.4667  1.0059 -1.5057
16287SOL     OW50473   6.363   2.872   6.598  0.3471  0.0868 -0.3562
16287SOL    HW150474   6.346   2.910   6.684 -0.0421 -1.3444  0.2223
16287SOL    HW250475   6.451   2.835   6.606 -0.1976 -1.2020 -0.1242
16288SOL     OW50476   1.993   7.784   9.367 -0.2831 -0.1186 -0.4016
16288SOL    HW150477   1.979   7.842   9.442  0.9446  0.8692 -0.9131
16288SOL    HW250478   2.010   7.843   9.293  0.8993 -1.0968 -0.9521
16289SOL     OW50479   0.379   7.246   8.021 -0.2875 -0.2090 -0.2082
16289SOL    HW150480   0.472   7.258   8.003  0.7980 -0.6818  3.9974
16289SOL    HW250481   0.348   7.332   8.050 -0.6201 -0.5137  0.3602
16290SOL     OW50482   5.338   3.468   0.816 -0.3311 -0.3450  0.5621
16290SOL    HW150483   5.393   3.395   0.845  0.7752  0.0929 -0.3716
16290SOL    HW250484   5.260   3.426   0.780  0.2011 -1.0617  0.2265
16291SOL     OW50485   9.280   8.442   3.910 -0.0026  0.5969  0.1579
16291SOL    HW150486   9.331   8.453   3.990  0.8015  0.0953 -0.2677
16291SOL    HW250487   9.289   8.525   3.864  0.5681  0.4595  0.0148
16292SOL     OW50488   0.824   0.955   3.973 -0.2081 -0.7080 -0.1241
16292SOL    HW150489   0.764   0.922   3.906  0.8490 -2.0154 -0.4758
16292SOL    HW250490   0.880   1.016   3.926  0.0098 -1.0073 -0.2582
16293SOL     OW50491   4.583   2.055   6.523  0.0860 -0.1078 -0.2410
16293SOL    HW150492   4.649   1.986   6.516 -0.1382 -0.3648  0.1342
16293SOL    HW250493   4.602   2.098   6.606 -0.3710 -0.3443 -0.0111
16294SOL     OW50494   5.775   9.690   3.569  0.0314 -0.1348 -0.2133
16294SOL    HW150495   5.838   9.749   3.611  0.0424 -0.6865  0.5519
16294SOL    HW250496   5.722   9.656   3.640  0.3486 -1.4445 -0.5890
16295SOL     OW50497   7.328   8.751   9.301 -0.1928  0.5399 -0.0933
16295SOL    HW150498   7.349   8.664   9.335  0.0962  0.8542  0.5535
16295SOL    HW250499   7.412   8.785   9.267 -0.7811 -0.4558 -2.7987
16296SOL     OW50500   5.703   6.784   9.299 -0.0703  0.2104 -0.2373
16296SOL    HW150501   5.747   6.792   9.214 -0.4489 -2.2234 -0.7438
16296SOL    HW250502   5.768   6.813   9.363  1.1359 -0.3049 -1.1892
16297SOL     OW50503   8.929   8.555   4.169  0.0361  0.7255 -0.4543
16297SOL    HW150504   8.846   8.508   4.163  0.9135 -0.7591 -1.7636
16297SOL    HW250505   8.995   8.490   4.145  1.6926  1.6297  1.3726
16298SOL     OW50506   5.606   4.566   9.215  0.0872 -0.1413  0.4596
16298SOL    HW150507   5.641   4.483   9.248  0.2243 -0.3877 -0.2933
16298SOL    HW250508   5.645   4.632   9.272  1.3955 -0.4543 -0.0318
16299SOL     OW50509   3.817   0.910   6.251  0.5367  0.0543 -0.0246
16299SOL    HW150510   3.856   0.913   6.164 -0.5300  1.1372 -0.5040
16299SOL    HW250511   3.889   0.932   6.311  1.3752 -1.1138 -0.5692
16300SOL     OW50512   4.983   8.725   4.155  0.6677  0.1935 -0.0019
16300SOL    HW150513   4.998   8.644   4.105 -0.1887  0.3566 -0.5442
16300SOL    HW250514   5.039   8.716   4.232  1.1508 -0.5799 -0.4250
16301SOL     OW50515   1.901   5.369   1.121 -0.2006  0.2576  0.2607
16301SOL    HW150516   1.819   5.417   1.131 -0.0619  0.7846 -0.9788
16301SOL    HW250517   1.943   5.408   1.044  0.1685 -1.4963 -0.4784
16302SOL     OW50518   0.051   3.835   4.260  0.3717  0.4569  0.7101
16302SOL    HW150519  -0.029   3.797   4.296  1.3349  0.3786  2.9018
16302SOL    HW250520   0.105   3.760   4.235 -0.5207  0.5063 -1.6071
16303SOL     OW50521   9.376   7.650   1.260  0.2378  0.1949  0.4827
16303SOL    HW150522   9.385   7.744   1.244  0.0332  0.1845  0.3072
16303SOL    HW250523   9.282   7.633   1.249 -0.3520  0.5992  3.7516
16304SOL     OW50524   5.004   1.154   7.725  0.0797 -0.3970 -0.2410
16304SOL    HW150525   5.087   1.186   7.758  0.3926 -1.9743  0.6396
16304SOL    HW250526   4.968   1.102   7.798 -1.0609 -0.7770 -1.0460
16305SOL     OW50527   0.612   1.581   2.905  0.0552  0.2955 -0.3805
16305SOL    HW150528   0.701   1.611   2.887 -0.1580  0.6785 -0.8164
16305SOL    HW250529   0.622   1.488   2.928  0.9809  1.1203  3.0898
16306SOL     OW50530   1.445   7.858   9.142  0.0108 -0.3657 -0.3058
16306SOL    HW150531   1.539   7.874   9.150 -0.2588  0.5606  1.9666
16306SOL    HW250532   1.428   7.785   9.202 -0.6539 -0.8585 -1.0819
16307SOL     OW50533   7.057   2.421   2.451  0.0319 -0.1443 -0.4545
16307SOL    HW150534   7.036   2.346   2.395 -2.0037  0.2154 -0.2599
16307SOL    HW250535   7.137   2.457   2.413  0.3345 -1.6398 -1.3308
16308SOL     OW50536   8.124   8.364   8.705  0.4048  0.1390  0.0432
16308SOL    HW150537   8.170   8.302   8.648  0.4642 -0.0726  0.3179
16308SOL    HW250538   8.194   8.406   8.756  0.1637 -1.9604  2.2536
16309SOL     OW50539   9.655   8.209   2.605  0.2925 -0.6117 -0.1234
16309SOL    HW150540   9.582   8.243   2.657  0.8092  0.3053  0.0227
16309SOL    HW250541   9.700   8.287   2.572  1.8424 -1.1266  0.6840
16310SOL     OW50542   6.105   1.984   7.166  0.2798 -0.3684  0.5788
16310SOL    HW150543   6.045   2.033   7.222 -0.0253  0.0885 -0.1328
16310SOL    HW250544   6.049   1.921   7.120  0.3287  0.0829 -0.1163
16311SOL     OW50545   0.630   5.898   9.648  0.3777 -0.1623  0.0973
16311SOL    HW150546   0.536   5.917   9.640  0.5715 -0.0477 -2.9947
16311SOL    HW250547   0.647   5.904   9.742 -2.6467  0.0485  0.7538
16312SOL     OW50548   2.059   0.117   3.402  0.2316 -0.3894 -0.3151
16312SOL    HW150549   2.057   0.052   3.472  0.0986 -1.5926 -1.3994
16312SOL    HW250550   2.019   0.195   3.441 -1.2939 -1.5164  0.4787
16313SOL     OW50551   3.577   3.528   5.924 -0.9598  0.3882  0.5803
16313SOL    HW150552   3.576   3.587   5.999  0.8128 -0.3981  1.2966
16313SOL    HW250553   3.597   3.584   5.849  0.0203  0.8262  1.1427
16314SOL     OW50554   3.863   4.905   9.113 -0.1074 -0.0977 -0.2695
16314SOL    HW150555   3.841   4.933   9.202  1.2289 -2.7783  1.0451
16314SOL    HW250556   3.802   4.834   9.094  0.6808 -0.6544 -0.8074
16315SOL     OW50557   3.385   1.428   9.100  0.0967 -0.2720  0.1106
16315SOL    HW150558   3.360   1.416   9.008 -0.0031 -0.3687  0.1508
16315SOL    HW250559   3.306   1.409   9.149 -0.1274  0.7393  0.1640
16316SOL     OW50560   5.227   7.227   3.028 -0.0822 -0.1187  0.5261
16316SOL    HW150561   5.275   7.217   2.946 -0.3154  0.0710  0.3644
16316SOL    HW250562   5.168   7.152   3.030  0.6031 -0.6631  0.9957
16317SOL     OW50563   6.406   1.999   0.730 -0.3883  0.3528  0.0757
16317SOL    HW150564   6.428   2.007   0.637  0.5736 -0.5233  0.2125
16317SOL    HW250565   6.486   1.965   0.771 -0.9542  0.2799  1.1490
16318SOL     OW50566   0.376   7.073   5.426 -0.2829 -0.1391  0.8102
16318SOL    HW150567   0.302   7.081   5.366 -0.6000  0.7172  1.2987
16318SOL    HW250568   0.453   7.071   5.369 -0.5391  1.2302  0.3729
16319SOL     OW50569   9.141   6.916   9.373  0.0911 -0.0595 -0.1679
16319SOL    HW150570   9.219   6.946   9.420  0.1327  1.1544 -0.9686
16319SOL    HW250571   9.167   6.915   9.281 -1.0004  0.9313 -0.5082
16320SOL     OW50572   2.088   3.739   4.619 -0.6630  0.0331 -0.1200
16320SOL    HW150573   2.097   3.793   4.541  1.9049  0.8984  0.6692
16320SOL    HW250574   2.037   3.793   4.680 -1.1105  0.1068 -0.5589
16321SOL     OW50575   0.827   5.261   8.451  0.4174 -0.0310 -0.1954
16321SOL    HW150576   0.750   5.205   8.444  0.5811 -0.3137  0.2247
16321SOL    HW250577   0.840   5.296   8.363  0.8642 -1.3748 -0.6805
16322SOL     OW50578   8.032   5.275   1.489  0.3034 -0.2962 -0.1824
16322SOL    HW150579   8.034   5.311   1.400  0.0603 -1.1870 -0.5631
16322SOL    HW250580   7.986   5.191   1.480  0.2756 -0.3979  0.7846
16323SOL     OW50581   0.085   8.777   0.573 -0.0737 -0.1568  0.3725
16323SOL    HW150582   0.103   8.685   0.593  0.3737 -0.4859 -1.3632
16323SOL    HW250583   0.039   8.774   0.489  2.2087  1.3156 -1.0393
16324SOL     OW50584   7.701   1.732   2.728 -0.2462 -0.8075  0.2834
16324SOL    HW150585   7.665   1.777   2.804  2.0892  0.0396  0.9718
16324SOL    HW250586   7.793   1.757   2.726  0.2259 -2.3872 -1.6940
16325SOL     OW50587   3.910   0.111   2.444  0.0769 -0.8507 -0.0602
16325SOL    HW150588   3.848   0.161   2.391  0.6353  0.8037  0.7626
16325SOL    HW250589   3.910   0.156   2.528 -1.0035 -3.5614  1.5186
16326SOL     OW50590   8.702   2.364   3.754  0.1227 -0.1794  0.3328
16326SOL    HW150591   8.627   2.423   3.746  0.9889  1.0485  1.1088
16326SOL    HW250592   8.695   2.308   3.676 -1.2774  0.2678  0.0964
16327SOL     OW50593   2.323   2.070   2.905  0.8836 -0.5406 -0.2388
16327SOL    HW150594   2.384   2.096   2.974  1.2977 -0.8962 -0.4696
16327SOL    HW250595   2.372   2.009   2.851  0.1919 -1.1601 -0.1822
16328SOL     OW50596   7.038   7.935   5.673  0.1607 -0.3498 -0.3453
16328SOL    HW150597   7.114   7.954   5.618 -0.5685 -0.6143 -1.4822
16328SOL    HW250598   6.966   7.982   5.632 -0.2414  0.1557  0.9025
16329SOL     OW50599   2.836   0.863   5.850  0.3736 -0.7607  0.2203
16329SOL    HW150600   2.770   0.857   5.782 -0.9728  2.6488  1.0169
16329SOL    HW250601   2.812   0.795   5.913  0.1407 -2.2484 -1.3912
16330SOL     OW50602   3.814   8.822   3.199 -0.3476  1.0508  0.7166
16330SOL    HW150603   3.865   8.903   3.201  0.0230  0.8836  3.7954
16330SOL    HW250604   3.733   8.846   3.154  1.7366  1.6506 -3.1364
16331SOL     OW50605   3.814   8.575   8.285  0.3566  0.5070  0.1991
16331SOL    HW150606   3.740   8.514   8.283  0.3204  0.5480  0.3249
16331SOL    HW250607   3.779   8.654   8.242  0.4122  0.4300  0.0101
16332SOL     OW50608   9.118   4.926   4.237  0.2802  0.0367  1.0458
16332SOL    HW150609   9.037   4.880   4.261  0.0039  1.0917  2.2347
16332SOL    HW250610   9.187   4.876   4.281  0.2805 -0.7912  0.1327
16333SOL     OW50611   2.942   2.222   2.820  0.0448 -0.8353  0.0635
16333SOL    HW150612   2.912   2.278   2.749 -0.4233 -0.6025  0.4424
16333SOL    HW250613   2.977   2.282   2.886  1.7566 -1.1061 -0.5301
16334SOL     OW50614   4.182   6.903   6.399  0.0536 -0.3781  0.3512
16334SOL    HW150615   4.224   6.899   6.485  1.3528 -0.7422 -0.2803
16334SOL    HW250616   4.248   6.941   6.342 -1.1909  0.9201 -0.2792
16335SOL     OW50617   4.872   6.645   8.109  0.2479 -0.3250  0.4890
16335SOL    HW150618   4.895   6.730   8.147 -1.8343  0.3642  0.3365
16335SOL    HW250619   4.906   6.581   8.172  2.9445  0.4891  0.0195
16336SOL     OW50620   6.843   3.792   1.035 -0.2576 -0.0059 -0.1933
16336SOL    HW150621   6.759   3.746   1.026 -0.1267  0.0269 -2.0985
16336SOL    HW250622   6.904   3.739   0.983  0.4893  0.9230 -0.2783
16337SOL     OW50623   2.514   9.429   8.271 -0.4096 -0.3375  0.4722
16337SOL    HW150624   2.606   9.453   8.280 -0.3235 -0.8145  0.8759
16337SOL    HW250625   2.468   9.513   8.258  0.1438 -0.1467 -0.3598
16338SOL     OW50626   3.692   8.415   1.007  0.0852 -0.2512  0.5597
16338SOL    HW150627   3.600   8.430   0.987 -0.2281 -0.0421  2.0036
16338SOL    HW250628   3.705   8.460   1.091  1.4544 -0.4337  0.4625
16339SOL     OW50629   0.892   5.348   2.782  0.5982  0.4772  0.3227
16339SOL    HW150630   0.911   5.440   2.797  0.3544  0.4518  0.7968
16339SOL    HW250631   0.912   5.305   2.865 -0.5890  0.3109  0.5375
16340SOL     OW50632   1.784   0.465   7.739 -0.2796 -0.5080 -0.4432
16340SOL    HW150633   1.806   0.375   7.765  0.8088 -0.6953 -1.8839
16340SOL    HW250634   1.764   0.459   7.646 -2.4429  0.4113 -0.0970
16341SOL     OW50635   5.951   4.677   5.474  0.0321  0.3041 -0.2430
16341SOL    HW150636   5.993   4.735   5.411 -0.9645 -0.2447 -1.4447
16341SOL    HW250637   6.009   4.601   5.479 -0.9624 -0.6486 -2.2252
16342SOL     OW50638   9.026   7.766   3.192  0.1114  0.2496 -0.2494
16342SOL    HW150639   8.933   7.777   3.174  0.1686 -0.6504 -1.1348
16342SOL    HW250640   9.045   7.675   3.170  1.3091  0.5506 -0.5693
16343SOL     OW50641   0.652   5.793   2.419  0.6091  0.0933  0.0642
16343SOL    HW150642   0.654   5.823   2.328 -0.4634  0.3406  0.1141
16343SOL    HW250643   0.727   5.733   2.426  0.4276 -0.2952 -1.1092
16344SOL     OW50644   9.682   2.350   8.414 -0.0646 -0.0263  0.2559
16344SOL    HW150645   9.694   2.295   8.337 -0.9950  0.4511 -0.2490
16344SOL    HW250646   9.732   2.429   8.396 -0.9585  0.4349 -0.2350
16345SOL     OW50647   7.624   0.667   4.789 -0.2866 -0.2856  0.3838
16345SOL    HW150648   7.573   0.684   4.868 -0.2882  3.1249 -0.2112
16345SOL    HW250649   7.558   0.663   4.719 -0.0645 -0.4332  0.1790
16346SOL     OW50650   6.694   0.034   5.016 -0.1584 -0.2391  0.1970
16346SOL    HW150651   6.724   0.013   5.105  0.7212 -1.7996 -0.4249
16346SOL    HW250652   6.765   0.086   4.979 -0.7932  0.9281  0.5897
16347SOL     OW50653   8.536   3.063   4.819  0.3959  0.5271  0.3490
16347SOL    HW150654   8.500   2.977   4.839  0.3637  0.7147  1.1374
16347SOL    HW250655   8.607   3.046   4.757 -0.4919  0.0723 -0.5973
16348SOL     OW50656   1.711   5.789   1.041 -0.4039  0.3399  0.3103
16348SOL    HW150657   1.682   5.796   1.132  1.8366  0.8619  1.0289
16348SOL    HW250658   1.703   5.877   1.005 -0.5211  0.3010  0.2383
16349SOL     OW50659   8.892   8.694   2.483  0.0824  0.3243 -0.1838
16349SOL    HW150660   8.930   8.607   2.469  0.4570  0.5574 -0.6257
16349SOL    HW250661   8.865   8.723   2.396 -0.0093  0.6685 -0.0430
16350SOL     OW50662   8.496   1.831   0.178  0.1939  0.3587 -0.9442
16350SOL    HW150663   8.589   1.831   0.202  0.0890  0.5917 -0.5365
16350SOL    HW250664   8.455   1.891   0.240 -0.3256 -0.1710 -0.7737
16351SOL     OW50665   4.052   4.580   7.251  0.2702  0.2497 -0.7751
16351SOL    HW150666   4.062   4.668   7.216  0.0812 -0.4496 -2.6885
16351SOL    HW250667   4.141   4.553   7.276  0.6532  0.2337 -2.1107
16352SOL     OW50668   3.783   6.294   1.029  0.4190 -0.1559  0.0170
16352SOL    HW150669   3.752   6.297   0.938 -0.0124 -1.9799  0.0772
16352SOL    HW250670   3.718   6.344   1.078 -0.3716 -0.7306 -0.4236
16353SOL     OW50671   4.578   1.272   4.114  0.2545 -0.6126 -0.3774
16353SOL    HW150672   4.650   1.214   4.090 -0.1543 -0.9306 -0.8483
16353SOL    HW250673   4.501   1.215   4.116  0.1928 -0.5103  1.2622
16354SOL     OW50674   6.239   1.291   9.825 -0.9762 -0.2442 -0.0781
16354SOL    HW150675   6.241   1.296   9.729 -1.2633 -0.8557 -0.1212
16354SOL    HW250676   6.180   1.361   9.852  0.7698  1.3551 -0.2163
16355SOL     OW50677   9.040   4.793   1.736 -0.3819  0.7691 -0.4269
16355SOL    HW150678   9.003   4.705   1.724  1.0504  0.0906 -0.0643
16355SOL    HW250679   8.971   4.852   1.706 -2.7770 -0.3048  2.5026
16356SOL     OW50680   7.286   3.678   4.637  0.1738  0.4112 -0.0673
16356SOL    HW150681   7.295   3.629   4.719  0.4299  0.2660 -0.1832
16356SOL    HW250682   7.376   3.694   4.608  0.1259 -1.8601 -1.7159
16357SOL     OW50683   5.867   5.796   0.512 -0.0623 -0.3904 -0.5247
16357SOL    HW150684   5.942   5.837   0.555 -0.0291  1.1042 -1.9285
16357SOL    HW250685   5.824   5.867   0.465 -0.9696 -1.6800 -1.7151
16358SOL     OW50686   4.010   2.026   6.293  0.4880 -0.4568  0.1492
16358SOL    HW150687   4.027   2.003   6.384  1.7940 -2.2020 -0.4839
16358SOL    HW250688   4.018   1.944   6.245 -1.1838  0.2301 -1.4391
16359SOL     OW50689   6.288   1.566   5.377  0.3146  0.0948 -0.2622
16359SOL    HW150690   6.219   1.514   5.335  0.1240  0.6382 -0.6208
16359SOL    HW250691   6.369   1.522   5.353  0.1362 -0.1993 -0.3334
16360SOL     OW50692   6.995   7.725   9.733  0.5813  0.6265 -0.2457
16360SOL    HW150693   7.020   7.790   9.668  2.1800 -0.3867 -0.7111
16360SOL    HW250694   7.042   7.646   9.707  1.1555  0.1414  2.0499
16361SOL     OW50695   3.599   9.020   3.857  0.1150  0.5060 -0.1358
16361SOL    HW150696   3.542   9.064   3.920  1.0582  1.8184 -0.1555
16361SOL    HW250697   3.630   9.090   3.799 -0.9771 -0.6910 -2.3009
16362SOL     OW50698   7.972   6.578   7.430 -0.5636  0.3024 -0.1591
16362SOL    HW150699   7.993   6.503   7.374  0.0261  1.3491 -1.3767
16362SOL    HW250700   7.997   6.549   7.518 -0.2321 -0.8907 -0.6202
16363SOL     OW50701   4.335   2.758   1.545 -0.4575 -0.6169 -0.0130
16363SOL    HW150702   4.412   2.790   1.497 -1.5666  0.3727 -1.2205
16363SOL    HW250703   4.321   2.670   1.511 -0.7303 -0.2371 -0.9247
16364SOL     OW50704   4.341   3.761   5.571  0.6194  0.7103  0.3692
16364SOL    HW150705   4.327   3.666   5.579  0.6618  0.5747 -0.9935
16364SOL    HW250706   4.329   3.779   5.478  4.6990  1.3431 -0.2215
16365SOL     OW50707   6.385   4.193   3.707 -0.6200  0.2571 -0.3408
16365SOL    HW150708   6.298   4.203   3.669 -0.0818  2.1042 -1.1988
16365SOL    HW250709   6.444   4.197   3.632  0.3642  2.0536  0.4714
16366SOL     OW50710   3.667   3.477   7.913  0.6064 -0.3223 -0.2851
16366SOL    HW150711   3.607   3.512   7.847  1.0083  0.4142 -0.2626
16366SOL    HW250712   3.643   3.384   7.919 -0.9574  0.0748  0.1775
16367SOL     OW50713   8.477   7.100   7.138 -0.0561  0.2113 -0.5160
16367SOL    HW150714   8.550   7.087   7.077  1.9200  2.5365  1.1880
16367SOL    HW250715   8.461   7.194   7.136 -1.7331 -0.0155  0.6139
16368SOL     OW50716   1.631   6.103   1.113  0.1363  0.0058 -0.1021
16368SOL    HW150717   1.718   6.062   1.116 -0.1478 -0.6033 -0.0943
16368SOL    HW250718   1.592   6.070   1.032  0.7123  1.9374 -1.2234
16369SOL     OW50719   4.337   5.249   4.582  0.0689 -0.4307 -0.1976
16369SOL    HW150720   4.366   5.172   4.631  0.3704  0.2351  0.7074
16369SOL    HW250721   4.244   5.258   4.603  0.1380 -0.2945  0.0506
16370SOL     OW50722   4.718   8.830   3.280 -0.4847 -0.4264  0.3238
16370SOL    HW150723   4.794   8.884   3.257 -0.2275 -0.2213  1.6131
16370SOL    HW250724   4.735   8.746   3.238  1.0515 -0.7754  1.5454
16371SOL     OW50725   5.279   7.628   1.512  0.5939  0.4811  0.6055
16371SOL    HW150726   5.247   7.572   1.582 -0.5539  1.4359  0.8804
16371SOL    HW250727   5.368   7.597   1.494  1.3317  0.8753  3.2140
16372SOL     OW50728   6.949   1.676   6.037 -0.1793  0.3734 -0.0839
16372SOL    HW150729   6.907   1.728   6.105 -1.5392  0.6016 -1.0526
16372SOL    HW250730   7.014   1.623   6.083 -1.0278  0.5639  1.3667
16373SOL     OW50731   7.976   7.663   4.253 -0.0345  0.1944 -0.2964
16373SOL    HW150732   7.998   7.755   4.238 -0.1332  0.4868  1.1422
16373SOL    HW250733   7.928   7.635   4.175  0.0322  1.3466 -0.7586
16374SOL     OW50734   3.613   0.370   4.442 -0.2981 -0.1528 -0.3489
16374SOL    HW150735   3.540   0.399   4.388  0.2954  1.9638 -0.0971
16374SOL    HW250736   3.571   0.332   4.520 -1.1502  0.5907 -0.4263
16375SOL     OW50737   1.998   5.259   4.833 -0.2295 -0.0181 -0.5859
16375SOL    HW150738   1.969   5.350   4.842  1.6354  0.5858 -0.3536
16375SOL    HW250739   2.025   5.234   4.922 -0.9306 -0.9046 -0.6002
16376SOL     OW50740   3.855   6.237   3.305  0.3359 -0.0165  0.0235
16376SOL    HW150741   3.873   6.152   3.264 -1.6360 -0.1262 -0.6937
16376SOL    HW250742   3.929   6.292   3.278  1.1882 -1.2403 -0.2428
16377SOL     OW50743   0.584   1.142   7.996 -0.1164 -0.3086  0.4666
16377SOL    HW150744   0.531   1.160   8.073  0.1391  0.1738  0.5339
16377SOL    HW250745   0.526   1.094   7.937 -0.3876 -0.4573  0.8572
16378SOL     OW50746   5.943   3.364   0.065  0.2267  0.4636 -0.1240
16378SOL    HW150747   5.880   3.331   0.001 -0.2311  2.2279 -0.6328
16378SOL    HW250748   5.983   3.285   0.102 -0.5552 -0.6324 -1.5132
16379SOL     OW50749   7.114   4.742   5.619  0.6733 -0.4959  0.2059
16379SOL    HW150750   7.194   4.698   5.647  0.9761  0.7062  1.3369
16379SOL    HW250751   7.139   4.835   5.614 -0.1806 -0.3070 -1.2090
16380SOL     OW50752   7.346   8.273   5.755  0.0994  0.1657  0.0237
16380SOL    HW150753   7.326   8.235   5.841  1.7942 -0.8586  0.0124
16380SOL    HW250754   7.378   8.361   5.775 -2.5370  1.1837  0.1549
16381SOL     OW50755   2.958   5.764   8.995 -0.3415 -0.5688 -0.1861
16381SOL    HW150756   2.936   5.809   9.076 -0.9690 -2.4517  0.7515
16381SOL    HW250757   2.882   5.778   8.938  0.5270  1.6225 -0.9066
16382SOL     OW50758   4.857   1.795   1.770  0.3192  0.0016  0.2171
16382SOL    HW150759   4.797   1.780   1.697  0.3780 -2.2015  0.5639
16382SOL    HW250760   4.922   1.726   1.763  1.6806  1.1397  1.0262
16383SOL     OW50761   8.390   5.191   6.358 -0.5418  0.0224  0.1746
16383SOL    HW150762   8.441   5.143   6.292 -0.2411  0.9857 -0.3111
16383SOL    HW250763   8.299   5.184   6.328 -0.8149 -2.1547  1.3259
16384SOL     OW50764   0.843   5.620   5.492  0.1186  0.3243 -0.2305
16384SOL    HW150765   0.896   5.632   5.571  0.3759 -1.2057 -0.1408
16384SOL    HW250766   0.784   5.549   5.514 -1.3375  1.3508 -0.6776
16385SOL     OW50767   8.354   6.021   8.471 -0.0594 -0.1990 -0.7023
16385SOL    HW150768   8.333   6.110   8.442  1.9949  0.4712 -0.3286
16385SOL    HW250769   8.363   5.970   8.391  1.2534  0.5711 -1.0657
16386SOL     OW50770   3.072   4.416   8.069 -0.4378 -0.6035 -0.4264
16386SOL    HW150771   3.130   4.350   8.108  3.2687  1.2003 -2.3571
16386SOL    HW250772   3.078   4.490   8.129  0.4343  0.0714 -1.3220
16387SOL     OW50773   7.945   5.759   0.322 -0.0650 -0.4588  0.2128
16387SOL    HW150774   7.921   5.764   0.229  0.3311 -1.0050  0.0746
16387SOL    HW250775   7.863   5.736   0.366 -0.8442  2.1595  0.3257
16388SOL     OW50776   7.877   4.601   5.359 -0.0558 -0.7492  0.2196
16388SOL    HW150777   7.890   4.612   5.453 -0.0735 -0.5131  0.1944
16388SOL    HW250778   7.965   4.604   5.321 -0.0424 -0.9166  0.2347
16389SOL     OW50779   2.455   8.581   5.211  0.9683 -0.1017  0.1428
16389SOL    HW150780   2.396   8.526   5.260  1.9444 -1.9070 -0.6213
16389SOL    HW250781   2.488   8.645   5.275 -0.8229  0.1762  0.8382
16390SOL     OW50782   0.147   0.479   0.115 -0.7811  0.6214  0.1732
16390SOL    HW150783   0.170   0.572   0.119  0.3048  0.3605  0.6203
16390SOL    HW250784   0.126   0.463   0.023  1.9845  0.6905 -0.5664
16391SOL     OW50785   0.446   7.917   4.757 -0.0057 -0.0018  0.2431
16391SOL    HW150786   0.513   7.951   4.697  0.2992 -0.0763  0.5382
16391SOL    HW250787   0.363   7.936   4.713  0.2457 -2.2571 -1.4073
16392SOL     OW50788   5.323   1.941   4.937 -0.2723 -0.2219 -0.5376
16392SOL    HW150789   5.305   2.020   4.987 -0.1326  0.7644 -1.9857
16392SOL    HW250790   5.257   1.941   4.867 -0.5695 -1.6413 -0.3015
16393SOL     OW50791   9.433   7.387   7.106 -0.2331 -0.1791  0.6398
16393SOL    HW150792   9.408   7.471   7.145 -0.1937  0.6811 -1.0986
16393SOL    HW250793   9.447   7.407   7.014  0.5114 -1.9659  0.3339
16394SOL     OW50794   8.184   7.153   9.749  0.7009 -0.3059  0.5802
16394SOL    HW150795   8.224   7.189   9.670 -0.1499 -1.9769 -0.6834
16394SOL    HW250796   8.215   7.063   9.753 -2.3550 -1.5431 -0.1974
16395SOL     OW50797   2.889   6.558   9.157 -0.1211 -0.0620 -0.5709
16395SOL    HW150798   2.940   6.593   9.230 -0.8744  0.1688 -0.1422
16395SOL    HW250799   2.827   6.498   9.199 -1.2117  0.7996 -0.8982
16396SOL     OW50800   4.521   2.947   6.340 -0.6918  0.3092 -0.0059
16396SOL    HW150801   4.517   2.968   6.433 -0.1739 -0.0759  0.1034
16396SOL    HW250802   4.474   3.020   6.297 -1.6461  0.0721  0.6088
16397SOL     OW50803   7.112   6.560   8.468 -0.7297  0.0341  0.2273
16397SOL    HW150804   7.157   6.530   8.547 -1.1050  0.5794  0.6536
16397SOL    HW250805   7.035   6.504   8.461 -0.4764 -0.2920  0.0081
16398SOL     OW50806   4.676   6.774   8.575  0.6584 -0.0935 -0.5180
16398SOL    HW150807   4.710   6.854   8.534  0.2157 -0.2526 -1.2031
16398SOL    HW250808   4.642   6.722   8.503  0.3949 -0.6400 -0.0098
16399SOL     OW50809   7.739   3.021   3.602  0.3586 -0.3551 -0.2148
16399SOL    HW150810   7.685   2.991   3.529 -3.0576  1.4404  1.3566
16399SOL    HW250811   7.742   3.116   3.593  1.4905 -0.2535  0.9666
16400SOL     OW50812   1.557   6.596   9.565 -0.1165 -0.6528  0.2932
16400SOL    HW150813   1.464   6.578   9.579 -0.3995  1.7468  2.1861
16400SOL    HW250814   1.601   6.553   9.638 -0.1004  0.6197  1.0606
16401SOL     OW50815   8.450   2.919   1.560 -0.3901 -0.3384 -0.3312
16401SOL    HW150816   8.409   2.865   1.627  2.0888 -1.4287  0.4225
16401SOL    HW250817   8.406   3.004   1.567 -0.8352 -0.7033  2.0444
16402SOL     OW50818   4.060   2.684   3.009  0.2970 -0.4047 -0.3834
16402SOL    HW150819   3.988   2.718   3.062 -0.3749 -1.6596 -0.4721
16402SOL    HW250820   4.107   2.763   2.981  0.4336  0.3277  1.6975
16403SOL     OW50821   7.453   5.279   7.721 -0.0674 -0.4537 -0.2093
16403SOL    HW150822   7.419   5.191   7.741  0.2461 -0.6750 -0.6360
16403SOL    HW250823   7.436   5.290   7.627  1.2139 -0.6508 -0.4780
16404SOL     OW50824   2.420   2.904   8.003 -0.3624  0.4154  0.1383
16404SOL    HW150825   2.329   2.913   8.034 -0.2206  2.5193  0.0504
16404SOL    HW250826   2.470   2.886   8.082 -0.6656  0.7129  0.4006
16405SOL     OW50827   0.799   5.769   4.739 -0.3460  0.3469 -0.6677
16405SOL    HW150828   0.774   5.758   4.831  4.1028  0.4817  0.8060
16405SOL    HW250829   0.816   5.680   4.708  1.6066  0.4711 -0.0980
16406SOL     OW50830   4.939   4.864   2.735 -0.1206 -0.1335  0.7259
16406SOL    HW150831   4.881   4.837   2.806 -0.4705  1.5618  1.1468
16406SOL    HW250832   4.880   4.880   2.661  0.0473 -0.3339  0.5485
16407SOL     OW50833   5.404   4.153   5.203  0.0563  0.0620 -0.3322
16407SOL    HW150834   5.483   4.098   5.207 -0.0790 -0.0752  2.1275
16407SOL    HW250835   5.370   4.140   5.115  0.6122 -3.0122 -0.2081
16408SOL     OW50836   6.208   7.046   8.680  0.2364  0.3528  0.0765
16408SOL    HW150837   6.124   7.002   8.671 -0.5686  0.9679  3.2253
16408SOL    HW250838   6.257   6.991   8.741  2.1564  0.0552 -1.6246
16409SOL     OW50839   2.930   0.639   1.056 -0.0726  0.8396 -0.6215
16409SOL    HW150840   2.946   0.715   1.111 -1.2962 -0.2069  1.2786
16409SOL    HW250841   2.848   0.603   1.088 -0.3859 -0.3517 -2.5833
16410SOL     OW50842   7.909   1.240   1.101 -0.6319 -0.3003  0.1849
16410SOL    HW150843   7.988   1.188   1.116 -0.6981 -1.0077 -1.6960
16410SOL    HW250844   7.939   1.316   1.052 -1.0499 -0.3442 -0.1451
16411SOL     OW50845   3.477   0.175   0.362 -0.5056 -0.0157 -0.4879
16411SOL    HW150846   3.571   0.192   0.359 -0.1239 -1.8951  0.0766
16411SOL    HW250847   3.441   0.226   0.289  1.0889 -0.1611 -1.4137
16412SOL     OW50848   2.477   3.102   0.844 -0.5069 -0.1413  0.1254
16412SOL    HW150849   2.529   3.182   0.848  1.2524 -1.1248 -1.1846
16412SOL    HW250850   2.386   3.131   0.851  0.0943  1.9354 -0.0905
16413SOL     OW50851   3.323   3.540   0.300 -0.3820  0.3218  0.2837
16413SOL    HW150852   3.344   3.454   0.263 -2.3857 -0.3834  0.6662
16413SOL    HW250853   3.402   3.592   0.287  1.0408 -1.7079  0.4424
16414SOL     OW50854   5.813   2.513   8.429  0.1806  0.0105 -0.4743
16414SOL    HW150855   5.795   2.482   8.340  0.6563  1.7212 -1.2021
16414SOL    HW250856   5.754   2.588   8.441  0.6155  0.2274  0.3894
16415SOL     OW50857   1.992   2.526   3.468  0.2494 -0.3516 -0.4306
16415SOL    HW150858   2.035   2.588   3.409  1.3431  0.7074  1.3926
16415SOL    HW250859   1.899   2.547   3.460  0.6190  2.1878  0.7363
16416SOL     OW50860   6.328   0.834   9.294  0.0003 -0.0931  0.8363
16416SOL    HW150861   6.351   0.926   9.285  0.1325  0.0900  2.7804
16416SOL    HW250862   6.360   0.793   9.213 -0.0661  1.5443 -0.0528
16417SOL     OW50863   4.985   2.534   5.054 -0.1907  0.7199 -0.1667
16417SOL    HW150864   4.971   2.614   5.003  1.1478 -0.2811 -2.2345
16417SOL    HW250865   5.079   2.534   5.072  0.2065 -1.2794 -1.8933
16418SOL     OW50866   9.388   3.885   5.272  0.3483 -0.1030 -0.2566
16418SOL    HW150867   9.294   3.893   5.288  0.5285 -0.1240  0.9135
16418SOL    HW250868   9.429   3.935   5.343  1.2381 -1.1050 -0.0265
16419SOL     OW50869   6.630   1.804   8.334  0.2496 -0.7353  0.0790
16419SOL    HW150870   6.700   1.745   8.308  1.5484  0.1197  1.5178
16419SOL    HW250871   6.629   1.801   8.430 -0.5418  0.5615  0.1398
16420SOL     OW50872   9.108   2.943   4.486  0.2649  0.2227  0.8754
16420SOL    HW150873   9.113   3.034   4.458  0.1506  0.3799  1.3476
16420SOL    HW250874   9.193   2.906   4.463  0.0056  0.2163 -0.0849
16421SOL     OW50875   1.816   0.194   9.405 -0.4140 -0.1509 -0.1061
16421SOL    HW150876   1.737   0.204   9.351 -1.6153  2.0461  1.8235
16421SOL    HW250877   1.874   0.264   9.374  0.7235 -1.5630 -1.3039
16422SOL     OW50878   7.198   3.856   1.088 -0.1224 -0.2878 -0.3433
16422SOL    HW150879   7.161   3.803   1.017 -0.9695 -0.6467  0.3594
16422SOL    HW250880   7.207   3.943   1.049 -0.5962 -0.4749 -0.8944
16423SOL     OW50881   3.900   8.846   6.906  0.5938  0.1501 -0.4120
16423SOL    HW150882   3.966   8.830   6.973  1.5746  0.3627 -1.2920
16423SOL    HW250883   3.857   8.761   6.894  1.2544 -0.1968 -0.3804
16424SOL     OW50884   7.490   8.777   7.737 -0.3183  0.0347 -0.0626
16424SOL    HW150885   7.550   8.757   7.665 -0.1034 -0.1589  0.1664
16424SOL    HW250886   7.503   8.705   7.799 -0.0099  0.5481  0.4751
16425SOL     OW50887   6.495   4.495   8.567  0.1162  0.3306 -0.2228
16425SOL    HW150888   6.449   4.525   8.489  0.2282 -0.1829 -0.4865
16425SOL    HW250889   6.442   4.529   8.640  0.0188  0.8206 -0.5169
16426SOL     OW50890   6.026   8.973   6.589  0.1141 -0.0523 -0.0008
16426SOL    HW150891   6.018   9.064   6.617  1.0514 -0.3991  1.5688
16426SOL    HW250892   6.005   8.922   6.668  1.9803 -1.1086 -0.1147
16427SOL     OW50893   1.866   9.711   9.216 -0.4849  0.0122  0.1637
16427SOL    HW150894   1.876   9.734   9.308 -1.6338 -1.3527  0.6676
16427SOL    HW250895   1.861   9.615   9.215 -0.9891  0.0213 -1.2523
16428SOL     OW50896   0.900   1.689   2.044  0.0419  0.3467  0.5238
16428SOL    HW150897   0.814   1.665   2.010 -0.2862 -0.1739  1.6636
16428SOL    HW250898   0.890   1.780   2.073 -0.3777  0.0198  1.4263
16429SOL     OW50899   7.289   7.077   8.428  0.4606 -0.3320 -0.1333
16429SOL    HW150900   7.246   6.992   8.433  0.5217 -0.3881 -0.5844
16429SOL    HW250901   7.225   7.134   8.385  0.9658 -0.4995 -1.1202
16430SOL     OW50902   1.703   7.452   0.065 -0.1828  0.1642  0.7470
16430SOL    HW150903   1.625   7.500   0.038  0.0309 -0.4707 -1.1441
16430SOL    HW250904   1.769   7.475  -0.000  0.4543 -1.3025  0.8350
16431SOL     OW50905   4.257   4.482   3.521  0.1909 -0.4216  0.2614
16431SOL    HW150906   4.246   4.415   3.589 -1.4188 -0.6848 -0.2157
16431SOL    HW250907   4.277   4.432   3.442  0.4275 -0.2301  0.1999
16432SOL     OW50908   8.382   9.696   7.248  0.1695  0.2888 -0.1207
16432SOL    HW150909   8.373   9.787   7.220  0.0025  0.3778  0.2170
16432SOL    HW250910   8.341   9.694   7.334  0.1088 -0.1254 -0.1618
16433SOL     OW50911   8.063   1.623   4.693 -0.2564  0.4901  0.5694
16433SOL    HW150912   7.996   1.653   4.633  2.8801  0.9828 -3.1096
16433SOL    HW250913   8.129   1.693   4.692  1.6012 -1.1408  1.6554
16434SOL     OW50914   8.645   0.873   2.583 -0.4088 -0.9038  0.2423
16434SOL    HW150915   8.678   0.792   2.622  0.6401 -0.6030  0.0109
16434SOL    HW250916   8.684   0.874   2.496  1.3645  0.9023  0.9949
16435SOL     OW50917   9.347   0.978   7.883  0.2871 -0.1832  0.6256
16435SOL    HW150918   9.366   0.884   7.888 -0.7852 -0.3792  1.6641
16435SOL    HW250919   9.270   0.989   7.939  0.1654  1.2616  0.2050
16436SOL     OW50920   5.309   3.679   0.983 -0.2022  0.2199  0.0560
16436SOL    HW150921   5.345   3.611   0.926 -0.5708  0.1876 -0.1477
16436SOL    HW250922   5.384   3.715   1.030  0.1398  0.3743 -0.5926
16437SOL     OW50923   2.160   2.214   3.402  0.4773  0.4629 -0.2240
16437SOL    HW150924   2.092   2.157   3.437  2.0496 -0.7066  1.0749
16437SOL    HW250925   2.161   2.290   3.461  0.1565  0.5981 -0.3892
16438SOL     OW50926   3.105   9.842   4.202  0.5348  0.2291  0.1875
16438SOL    HW150927   3.028   9.869   4.252  0.5034  0.0316  0.2491
16438SOL    HW250928   3.173   9.904   4.226  0.2674  0.6883 -0.2237
16439SOL     OW50929   8.458   8.357   7.365 -0.1044  0.3180  0.3578
16439SOL    HW150930   8.386   8.370   7.426 -0.2767 -1.6219  0.6518
16439SOL    HW250931   8.456   8.263   7.346  2.3498  0.1827  0.4143
16440SOL     OW50932   6.719   5.269   4.901  0.2875  0.3898  0.1675
16440SOL    HW150933   6.742   5.245   4.990 -1.7121 -0.3472  0.5506
16440SOL    HW250934   6.623   5.273   4.901  0.2330  0.5086 -1.9004
16441SOL     OW50935   2.736   7.456   2.769 -0.2744 -0.0456 -0.4465
16441SOL    HW150936   2.829   7.473   2.786 -0.4604  0.0328  0.5258
16441SOL    HW250937   2.691   7.532   2.805 -0.6659  0.3138 -1.6639
16442SOL     OW50938   7.151   9.184   8.545  0.5596 -0.0481 -0.0648
16442SOL    HW150939   7.186   9.157   8.460  0.5534 -2.5197  0.6165
16442SOL    HW250940   7.228   9.204   8.597  0.6655 -0.2617 -0.1376
16443SOL     OW50941   9.759   6.661   7.935 -0.4448 -0.3002  0.8252
16443SOL    HW150942   9.714   6.584   7.900  0.5743 -0.8765  0.7532
16443SOL    HW250943   9.691   6.709   7.981 -1.0834 -1.2901  0.9548
16444SOL     OW50944   0.662   2.790   2.164 -0.3512 -0.4987 -0.8299
16444SOL    HW150945   0.613   2.773   2.084 -0.8684  0.4671 -0.7328
16444SOL    HW250946   0.734   2.728   2.162 -1.4375 -1.7953 -1.0898
16445SOL     OW50947   5.091   8.012   8.420 -0.0543  0.5287  0.4657
16445SOL    HW150948   5.061   7.977   8.336 -0.6163  1.1795  0.3797
16445SOL    HW250949   5.176   8.051   8.401 -0.6612  1.6404 -0.0679
16446SOL     OW50950   1.947   3.487   9.076 -0.1081 -0.0103 -0.1365
16446SOL    HW150951   2.035   3.453   9.059 -0.2960 -0.0678 -1.0352
16446SOL    HW250952   1.950   3.578   9.047 -0.1289  0.2135  0.5538
16447SOL     OW50953   6.829   8.574   1.214  0.1219 -0.2657  0.1833
16447SOL    HW150954   6.747   8.548   1.173 -0.1297  1.9068 -0.8862
16447SOL    HW250955   6.897   8.528   1.164 -0.3946 -1.5091  0.6060
16448SOL     OW50956   5.036   7.980   7.362  0.3731  0.0970 -0.2372
16448SOL    HW150957   5.079   7.922   7.299  0.0076  0.5154 -0.8770
16448SOL    HW250958   5.102   7.993   7.431  0.8932 -0.1065 -0.6863
16449SOL     OW50959   8.504   4.550   3.505  0.8588 -0.4274 -0.0080
16449SOL    HW150960   8.413   4.522   3.498  0.5472  0.6052 -0.1871
16449SOL    HW250961   8.502   4.624   3.566  1.4385  0.1793 -0.7009
16450SOL     OW50962   7.636   2.858   5.229 -0.1408 -0.3603  0.9176
16450SOL    HW150963   7.569   2.814   5.176  0.2593 -0.6271  0.6359
16450SOL    HW250964   7.600   2.946   5.243 -0.0928 -0.1605 -0.1006
16451SOL     OW50965   2.840   9.202   9.241 -0.1257  0.1721  0.0465
16451SOL    HW150966   2.862   9.162   9.325 -0.4375  2.0977  1.0866
16451SOL    HW250967   2.773   9.145   9.204 -0.9953  0.0419  1.7502
16452SOL     OW50968   3.627   4.422   4.081 -0.0011  0.2531  0.9136
16452SOL    HW150969   3.549   4.418   4.026  0.2708 -3.1819  0.5906
16452SOL    HW250970   3.694   4.460   4.025 -0.5709 -0.0553  0.0015
16453SOL     OW50971   2.355   4.953   2.829  0.8377  0.0229 -0.3174
16453SOL    HW150972   2.290   4.887   2.804  1.0041 -0.4778  0.5549
16453SOL    HW250973   2.426   4.904   2.869  0.4070  0.8085  1.5105
16454SOL     OW50974   0.313   6.585   0.829 -0.6622 -0.0827 -0.0585
16454SOL    HW150975   0.256   6.511   0.805  1.3461 -2.4106  1.8442
16454SOL    HW250976   0.261   6.636   0.891 -0.9309 -1.8679  1.2544
16455SOL     OW50977   2.639   2.929   7.853  0.7406  0.1945 -0.5643
16455SOL    HW150978   2.554   2.901   7.887  0.8294  0.9657  0.3178
16455SOL    HW250979   2.633   3.024   7.846  1.6234  0.2853 -0.2405
16456SOL     OW50980   8.858   7.117   0.219 -0.2683 -0.0421  0.6791
16456SOL    HW150981   8.810   7.136   0.139  1.8162  0.8763 -0.4465
16456SOL    HW250982   8.854   7.197   0.270 -0.0166  0.0097  0.6196
16457SOL     OW50983   8.441   0.077   8.995  0.2691 -0.3443  0.0015
16457SOL    HW150984   8.527   0.119   8.987  1.0084 -1.5612  1.2515
16457SOL    HW250985   8.440   0.012   8.925  0.0407  0.1754 -0.4901
16458SOL     OW50986   1.709   8.292   3.860 -0.3131 -0.3129 -0.1244
16458SOL    HW150987   1.621   8.297   3.897 -0.0908 -2.3826  0.8154
16458SOL    HW250988   1.754   8.227   3.914  1.4232 -0.1573 -1.3188
16459SOL     OW50989   4.485   9.357   6.469  0.3901  0.0344  0.4166
16459SOL    HW150990   4.548   9.310   6.415 -0.4710 -0.1917 -0.4270
16459SOL    HW250991   4.454   9.428   6.413 -0.2269  0.0369  0.7503
16460SOL     OW50992   0.359   2.709   5.755 -0.6296  0.2605  0.3245
16460SOL    HW150993   0.416   2.775   5.794  1.1679 -1.8301  1.4276
16460SOL    HW250994   0.296   2.759   5.704  1.2527  2.7639  0.2853
16461SOL     OW50995   1.916   5.017   6.942  0.3895 -0.3763  0.5788
16461SOL    HW150996   1.877   5.104   6.951 -0.0318 -0.5360  0.2944
16461SOL    HW250997   2.011   5.034   6.942  0.2966  0.1810 -0.4525
16462SOL     OW50998   3.302   7.217   0.522 -0.3532 -0.3131  0.6020
16462SOL    HW150999   3.224   7.204   0.576 -1.5560 -0.6835 -1.1369
16462SOL    HW251000   3.375   7.200   0.581 -1.6018 -0.7451  2.0898
16463SOL     OW51001   8.988   6.702   3.052 -0.0660  0.5303  0.7537
16463SOL    HW151002   8.919   6.701   2.986  0.6722  1.0201 -0.0390
16463SOL    HW251003   9.069   6.709   3.002  0.5761 -0.1559  1.6664
16464SOL     OW51004   6.322   8.936   6.851  0.2814 -0.0248 -0.1716
16464SOL    HW151005   6.237   8.969   6.823 -0.6754 -2.0894  0.1394
16464SOL    HW251006   6.306   8.845   6.875  2.3211 -0.0908  1.1656
16465SOL     OW51007   8.134   4.037   8.490  0.1844  0.9021  0.2297
16465SOL    HW151008   8.090   3.952   8.484  0.3866  0.8395 -0.3946
16465SOL    HW251009   8.195   4.027   8.563  1.4347 -0.0599 -0.9039
16466SOL     OW51010   0.815   1.182   8.218 -0.5125  0.0711  0.1924
16466SOL    HW151011   0.744   1.141   8.168 -1.0626  1.3653 -0.1465
16466SOL    HW251012   0.789   1.274   8.224  1.0020  0.5168  0.3316
16467SOL     OW51013   4.952   0.949   0.815  0.0891 -0.3852  0.9380
16467SOL    HW151014   4.986   1.033   0.785  0.6504 -1.1226 -0.5962
16467SOL    HW251015   4.965   0.950   0.910  1.1694  0.7718  0.7961
16468SOL     OW51016   3.398   5.481   8.910  0.6307  0.1408  0.3843
16468SOL    HW151017   3.307   5.507   8.922 -0.0500 -1.7831 -0.3566
16468SOL    HW251018   3.444   5.563   8.894 -1.4198  0.9338 -2.0091
16469SOL     OW51019   9.712   9.020   7.954 -0.1339  0.6572  0.7006
16469SOL    HW151020   9.662   8.984   7.880  0.6545  0.9386  0.0141
16469SOL    HW251021   9.660   9.095   7.983  0.4984  1.7889 -0.8881
16470SOL     OW51022   6.544   8.490   0.814  0.0359 -0.2521 -0.2296
16470SOL    HW151023   6.499   8.510   0.896  1.2586 -2.5885  1.1024
16470SOL    HW251024   6.474   8.461   0.755 -0.6796  0.0731  0.4382
16471SOL     OW51025   2.371   1.889   3.916 -0.8829 -0.2750 -0.1642
16471SOL    HW151026   2.447   1.839   3.887  0.2027  1.8272 -1.1854
16471SOL    HW251027   2.392   1.914   4.006  0.3149  1.4233 -0.8760
16472SOL     OW51028   2.508   4.582   1.148 -0.0222  0.8817 -0.7310
16472SOL    HW151029   2.421   4.566   1.185  0.1171  1.5397 -0.0976
16472SOL    HW251030   2.563   4.601   1.223  0.8077 -0.0622 -1.0824
16473SOL     OW51031   7.112   1.078   9.141 -0.0761  0.2853 -0.6517
16473SOL    HW151032   7.136   1.072   9.048  1.1827 -0.9749 -0.2790
16473SOL    HW251033   7.187   1.121   9.182 -0.9978  1.6262 -0.3300
16474SOL     OW51034   3.396   6.411   4.121  0.5367 -0.2060  0.2299
16474SOL    HW151035   3.467   6.447   4.068  1.8673 -0.9117  1.4795
16474SOL    HW251036   3.347   6.354   4.061  0.2049  1.2927 -0.9779
16475SOL     OW51037   1.100   7.590   3.905 -0.2589 -0.1168  0.1345
16475SOL    HW151038   1.075   7.567   3.995 -0.7666 -1.4463 -0.3238
16475SOL    HW251039   1.024   7.565   3.852  0.2344  0.1924 -0.7346
16476SOL     OW51040   9.265   8.239   1.635 -0.0644  0.3125  0.3793
16476SOL    HW151041   9.185   8.208   1.677  0.2147  0.8567  1.3613
16476SOL    HW251042   9.235   8.300   1.567 -0.5107 -0.3199 -0.0023
16477SOL     OW51043   2.088   4.880   2.392 -0.1257  0.0864  0.0798
16477SOL    HW151044   2.095   4.966   2.435  1.2715 -0.4318  0.9270
16477SOL    HW251045   2.009   4.841   2.429 -0.4655  0.7646  0.0957
16478SOL     OW51046   0.607   7.800   5.152  0.2519  0.4040  0.0244
16478SOL    HW151047   0.527   7.754   5.128  0.5775  0.7530 -1.9015
16478SOL    HW251048   0.665   7.732   5.187 -0.0267 -0.2714 -0.8137
16479SOL     OW51049   7.966   1.753   6.795 -0.0245  0.2081 -0.5522
16479SOL    HW151050   7.885   1.719   6.757  0.5796  0.7045 -2.4141
16479SOL    HW251051   8.035   1.701   6.753  0.6432 -0.6632  1.4847
16480SOL     OW51052   4.917   2.673   8.426 -0.5552  0.1394 -0.1593
16480SOL    HW151053   4.840   2.680   8.483 -0.5822  1.1574 -0.3065
16480SOL    HW251054   4.901   2.735   8.355  0.6050  0.7233  0.0577
16481SOL     OW51055   3.904   5.146   8.071 -0.2993 -0.4898 -0.1967
16481SOL    HW151056   3.965   5.092   8.021  1.0239 -0.6269  1.4577
16481SOL    HW251057   3.866   5.086   8.136 -1.4996 -0.1913 -0.5938
16482SOL     OW51058   7.618   0.628   3.673 -0.4577 -0.2510  0.3991
16482SOL    HW151059   7.681   0.676   3.726 -2.1526 -0.9562  3.3087
16482SOL    HW251060   7.544   0.689   3.663 -0.7768 -0.6638  0.2032
16483SOL     OW51061   5.253   0.462   1.301  0.0603 -0.2001  0.4017
16483SOL    HW151062   5.278   0.376   1.334  0.2789 -0.6706 -0.9452
16483SOL    HW251063   5.228   0.447   1.210 -1.7022  0.8569  0.6484
16484SOL     OW51064   6.790   7.089   0.536  0.4593  0.0337  0.0134
16484SOL    HW151065   6.730   7.019   0.561  0.7456 -0.6502 -1.1400
16484SOL    HW251066   6.737   7.168   0.533 -0.0382 -0.2765  0.5395
16485SOL     OW51067   9.676   9.477   1.364 -0.0771 -0.1895 -0.2985
16485SOL    HW151068   9.715   9.407   1.417 -2.6353 -2.4476 -1.1234
16485SOL    HW251069   9.684   9.445   1.274 -0.6935  0.9476 -0.7721
16486SOL     OW51070   5.005   4.245   8.213  0.2248 -0.0975  0.4921
16486SOL    HW151071   5.044   4.274   8.295  0.9152  0.0711  0.1048
16486SOL    HW251072   4.942   4.314   8.191  0.4565  0.1425  0.5776
16487SOL     OW51073   5.616   6.191   7.384  0.2356  0.0038  0.0846
16487SOL    HW151074   5.586   6.158   7.469 -4.6218  2.1427 -0.4452
16487SOL    HW251075   5.650   6.279   7.402  0.0182  0.1189 -0.0533
16488SOL     OW51076   8.890   7.612   3.912  0.0105  0.2528  0.2933
16488SOL    HW151077   8.944   7.548   3.959  0.1612 -1.2792 -1.7983
16488SOL    HW251078   8.853   7.668   3.980  0.0904 -1.9117  2.2130
16489SOL     OW51079   4.305   0.609   0.511 -0.3811 -0.8730  0.1974
16489SOL    HW151080   4.290   0.655   0.429 -0.8097  0.0175  0.7590
16489SOL    HW251081   4.225   0.559   0.526 -0.8910  0.0759  0.7627
16490SOL     OW51082   9.211   8.237   1.233 -0.2812 -0.2540  0.0170
16490SOL    HW151083   9.228   8.176   1.304  2.7444  0.1363 -0.2533
16490SOL    HW251084   9.245   8.321   1.265 -0.6027  0.3481 -1.1708
16491SOL     OW51085   1.563   6.958   9.809  0.2793  0.3339 -0.6770
16491SOL    HW151086   1.587   6.999   9.726  1.7255 -0.0047 -0.4527
16491SOL    HW251087   1.582   6.865   9.796 -3.4021 -0.4957 -1.3518
16492SOL     OW51088   0.313   6.979   3.438  0.1128  0.3787  0.0095
16492SOL    HW151089   0.280   6.965   3.349 -1.4548 -0.4901  0.6761
16492SOL    HW251090   0.408   6.972   3.430 -0.0726 -1.2585 -1.3656
16493SOL     OW51091   1.841   2.397   6.826 -0.6963 -0.7435 -0.0678
16493SOL    HW151092   1.924   2.378   6.870  0.3494 -0.3181 -1.7727
16493SOL    HW251093   1.841   2.340   6.749 -1.6816 -0.2527 -0.4395
16494SOL     OW51094   3.234   1.192   5.002  0.7238  0.7162  0.6293
16494SOL    HW151095   3.267   1.277   5.032 -3.0555  1.9860  1.7570
16494SOL    HW251096   3.257   1.189   4.909  1.3020  2.8102  0.6551
16495SOL     OW51097   3.962   2.419   7.603 -0.2138 -0.3654  0.1048
16495SOL    HW151098   4.015   2.345   7.572 -0.5059 -0.2272 -0.7427
16495SOL    HW251099   4.019   2.465   7.664  0.4097 -0.6018 -0.2882
16496SOL     OW51100   1.838   0.095   0.027  0.0455  0.1461  0.8344
16496SOL    HW151101   1.919   0.110  -0.022 -0.0313 -1.5389  0.1395
16496SOL    HW251102   1.862   0.030   0.093 -0.9328 -1.0538  0.0438
16497SOL     OW51103   8.788   2.864   7.836  0.5174 -0.2408 -0.4070
16497SOL    HW151104   8.792   2.919   7.758  2.1065 -0.6675 -0.6670
16497SOL    HW251105   8.858   2.801   7.824  1.1181 -0.0264  1.5803
16498SOL     OW51106   9.278   2.144   1.739 -0.0812 -0.2154  0.2569
16498SOL    HW151107   9.320   2.058   1.738 -1.2805 -0.8460 -1.6131
16498SOL    HW251108   9.198   2.132   1.689 -1.4487  1.4653  1.9087
16499SOL     OW51109   1.310   0.997   0.300  0.6621 -0.5338  0.0757
16499SOL    HW151110   1.266   1.025   0.380  0.6417 -0.6675  0.1105
16499SOL    HW251111   1.400   1.029   0.309  0.5517 -0.1828 -0.0332
16500SOL     OW51112   4.331   7.491   4.334  0.4483  0.1197 -0.0427
16500SOL    HW151113   4.420   7.515   4.308  0.5972 -0.3361  0.0553
16500SOL    HW251114   4.306   7.558   4.398  0.3594  0.8122 -0.7851
16501SOL     OW51115   3.189   7.437   8.545  0.1650 -0.2927 -0.0203
16501SOL    HW151116   3.156   7.440   8.455 -1.3988  2.7390  0.5333
16501SOL    HW251117   3.113   7.415   8.598  0.2420  1.3394  0.8242
16502SOL     OW51118   1.264   6.498   1.232 -0.3355 -0.0929 -0.3759
16502SOL    HW151119   1.235   6.425   1.287  0.7547 -0.5626 -0.4059
16502SOL    HW251120   1.329   6.460   1.173 -0.9873  0.5517 -1.5463
16503SOL     OW51121   6.245   2.588   4.429 -0.2729  0.2830 -0.1594
16503SOL    HW151122   6.218   2.520   4.367 -2.1371  0.0698  0.8088
16503SOL    HW251123   6.300   2.543   4.493  1.8266  0.5395 -1.6759
16504SOL     OW51124   8.290   1.747   9.170  0.0476  0.3297 -0.0826
16504SOL    HW151125   8.353   1.801   9.122  1.8190 -0.3241  1.3583
16504SOL    HW251126   8.288   1.786   9.257  0.1342 -0.9590  0.5090
16505SOL     OW51127   2.683   6.001   1.518  0.1002  0.1561  0.8940
16505SOL    HW151128   2.686   6.068   1.450  1.7798  1.8404  2.5008
16505SOL    HW251129   2.681   5.918   1.470 -0.8857  1.2827 -1.1688
16506SOL     OW51130   2.754   9.280   4.192  0.3399  0.0764 -0.3974
16506SOL    HW151131   2.832   9.332   4.212  0.1304  0.3222 -0.2078
16506SOL    HW251132   2.729   9.242   4.276 -0.0247  0.3917 -0.3598
16507SOL     OW51133   1.783   3.682   6.877 -0.1118 -0.1494 -0.0575
16507SOL    HW151134   1.777   3.616   6.946 -2.8306  0.2554  0.2417
16507SOL    HW251135   1.780   3.765   6.925  1.8202  0.2283 -0.5117
16508SOL     OW51136   1.654   2.304   4.969 -0.6532 -0.6326  0.1817
16508SOL    HW151137   1.583   2.286   4.908  0.5995 -2.2979 -0.9027
16508SOL    HW251138   1.659   2.399   4.975 -1.0542 -0.4330 -2.0505
16509SOL     OW51139   2.238   6.660   5.369 -0.1146  0.9908 -0.4748
16509SOL    HW151140   2.258   6.713   5.446 -0.9832 -3.2325  3.0766
16509SOL    HW251141   2.152   6.622   5.387  0.7035 -2.0856 -2.3079
16510SOL     OW51142   9.724   2.242   4.287  0.2337 -0.1837 -0.0780
16510SOL    HW151143   9.637   2.280   4.272  0.3015 -0.4458 -1.2438
16510SOL    HW251144   9.765   2.299   4.352  0.3885  1.8330 -1.8410
16511SOL     OW51145   6.047   8.184   5.890  0.0826 -0.6242 -0.4637
16511SOL    HW151146   6.059   8.092   5.913  0.1726 -0.8786 -1.4912
16511SOL    HW251147   6.090   8.194   5.805  0.7229  0.5400 -0.0281
16512SOL     OW51148   4.401   4.717   7.776 -0.0801  0.0079 -0.2275
16512SOL    HW151149   4.487   4.732   7.815  0.1202 -2.0628  0.2408
16512SOL    HW251150   4.341   4.765   7.834  0.5230 -0.6181  0.9681
16513SOL     OW51151   2.487   4.892   9.808 -0.8601 -0.3398 -0.2609
16513SOL    HW151152   2.434   4.972   9.815  0.0504  0.3456 -0.8639
16513SOL    HW251153   2.450   4.833   9.873 -1.1146  0.8413  0.7125
16514SOL     OW51154   0.788   8.752   6.805 -0.2289  0.0828 -0.8484
16514SOL    HW151155   0.753   8.663   6.798 -1.4355  0.5930 -1.6036
16514SOL    HW251156   0.848   8.761   6.731  0.2300 -0.2363 -0.5204
16515SOL     OW51157   4.216   4.127   8.844  0.0708  0.5201 -0.0157
16515SOL    HW151158   4.234   4.042   8.884 -0.7853  0.0719 -0.5317
16515SOL    HW251159   4.288   4.183   8.872 -0.8128  0.4493  2.6953
16516SOL     OW51160   7.198   3.029   5.018  0.0251  0.5394  0.6320
16516SOL    HW151161   7.126   3.011   4.958  0.7044  0.0425 -0.0610
16516SOL    HW251162   7.207   2.950   5.071 -0.7562  1.0839  1.6033
16517SOL     OW51163   2.831   7.413   1.404  0.4219 -0.2533 -0.3070
16517SOL    HW151164   2.832   7.499   1.448 -1.5933  0.7256 -2.0300
16517SOL    HW251165   2.860   7.431   1.315 -0.0277 -1.3833 -0.6959
16518SOL     OW51166   0.547   6.194   1.697  0.6474  0.4375 -0.0137
16518SOL    HW151167   0.461   6.155   1.681  0.9804  0.3457 -1.7466
16518SOL    HW251168   0.554   6.264   1.632  2.3977 -0.4028 -0.7950
16519SOL     OW51169   6.603   6.636   9.842  0.4628 -0.1612 -0.0605
16519SOL    HW151170   6.546   6.564   9.868 -0.0600  0.4135  0.3901
16519SOL    HW251171   6.643   6.666   9.923 -0.8137  1.3254  0.0739
16520SOL     OW51172   6.935   8.296   1.481  0.3227  0.1552 -0.7776
16520SOL    HW151173   6.843   8.302   1.453 -0.1051 -1.2921  0.2110
16520SOL    HW251174   6.964   8.212   1.447  1.1265  0.3690 -0.6247
16521SOL     OW51175   7.511   0.380   1.217 -0.3445  0.5251 -0.0014
16521SOL    HW151176   7.580   0.377   1.151 -0.7444  0.0724 -0.4066
16521SOL    HW251177   7.541   0.323   1.287  1.1920  2.8212  1.3383
16522SOL     OW51178   6.666   0.416   7.194 -0.4074  0.0483  0.2647
16522SOL    HW151179   6.688   0.341   7.138  2.1087 -0.6926  2.0720
16522SOL    HW251180   6.676   0.492   7.137  2.6193 -0.6340 -0.2848
16523SOL     OW51181   4.001   4.811   0.332 -0.1295  0.1845 -0.1307
16523SOL    HW151182   3.942   4.745   0.369 -1.4189  0.9729 -0.7169
16523SOL    HW251183   4.042   4.767   0.258  0.8411 -0.7030  0.8874
16524SOL     OW51184   2.539   7.737   0.319  0.1675 -0.1328 -0.3284
16524SOL    HW151185   2.611   7.715   0.259 -0.1522 -2.3494  0.0290
16524SOL    HW251186   2.535   7.833   0.316  1.4277 -0.0691 -2.3475
16525SOL     OW51187   5.648   0.741   9.694 -0.2932  0.5288 -0.1208
16525SOL    HW151188   5.708   0.787   9.637  0.2080 -2.4893 -2.2633
16525SOL    HW251189   5.561   0.757   9.657 -0.2672  0.8126 -0.0566
16526SOL     OW51190   8.023   1.452   5.450 -0.3738  0.0015  0.1798
16526SOL    HW151191   8.036   1.421   5.540  1.2062 -1.1523 -0.3967
16526SOL    HW251192   7.958   1.391   5.413  0.1662 -0.5264  0.0813
16527SOL     OW51193   3.560   1.135   0.794  0.0441  0.2913  0.1369
16527SOL    HW151194   3.555   1.146   0.889 -1.6383  0.4140  0.0703
16527SOL    HW251195   3.488   1.188   0.760  1.8741  1.9447 -1.4036
16528SOL     OW51196   0.605   8.229   3.997  0.0959  0.4990 -0.1491
16528SOL    HW151197   0.665   8.237   3.923 -0.7438 -0.2104 -0.9253
16528SOL    HW251198   0.594   8.135   4.009 -1.6313  0.6116 -0.6628
16529SOL     OW51199   7.593   5.319   3.084 -0.0425  0.5090 -0.5533
16529SOL    HW151200   7.678   5.304   3.042 -0.1195 -2.3748  0.1023
16529SOL    HW251201   7.563   5.402   3.048  2.3323  0.8379 -2.0050
16530SOL     OW51202   3.495   6.651   6.463  0.6335  0.4305 -0.3187
16530SOL    HW151203   3.486   6.699   6.545  0.4818 -0.3315  0.1257
16530SOL    HW251204   3.531   6.714   6.401 -0.2514  1.3121  0.0425
16531SOL     OW51205   4.863   0.586   8.218  0.3972  0.0561 -0.2456
16531SOL    HW151206   4.848   0.632   8.136  0.0541  1.0236  0.3353
16531SOL    HW251207   4.954   0.606   8.241  0.3687  0.1279 -0.1928
16532SOL     OW51208   2.968   6.970   2.865 -0.0363  0.5330 -0.4085
16532SOL    HW151209   2.905   7.033   2.901 -2.5683 -1.7126 -0.5827
16532SOL    HW251210   2.970   6.899   2.929  0.2876 -0.6404 -1.6796
16533SOL     OW51211   4.933   6.766   1.483  0.0486 -0.3080  0.3653
16533SOL    HW151212   5.005   6.703   1.491 -1.1522 -1.7121  0.5733
16533SOL    HW251213   4.906   6.783   1.573  1.3261  1.7446  0.4285
16534SOL     OW51214   6.330   0.720   1.238 -0.4873  0.2196  0.2584
16534SOL    HW151215   6.401   0.744   1.179 -0.1549  0.2640  0.6675
16534SOL    HW251216   6.254   0.709   1.181  0.1855 -1.3634 -0.3965
16535SOL     OW51217   8.937   3.805   7.617  0.5019 -0.2099 -0.1558
16535SOL    HW151218   8.938   3.845   7.530 -1.3176 -1.6250 -0.8924
16535SOL    HW251219   8.857   3.837   7.658  1.1039  0.0794  0.8574
16536SOL     OW51220   5.687   6.497   6.361  0.4052  0.7461  0.2844
16536SOL    HW151221   5.649   6.498   6.449 -0.0061 -2.0015  0.2535
16536SOL    HW251222   5.777   6.467   6.374  0.2440  0.0043 -0.2294
16537SOL     OW51223   6.063   8.865   4.506 -0.3033 -0.6525  0.4495
16537SOL    HW151224   6.076   8.909   4.590  2.0832  1.0249 -0.6998
16537SOL    HW251225   5.990   8.911   4.465  0.7503  0.8327  0.1952
16538SOL     OW51226   9.022   6.735   5.704  0.0704  0.0877  0.5360
16538SOL    HW151227   8.933   6.714   5.733 -0.0971  0.4553  0.3045
16538SOL    HW251228   9.078   6.710   5.778 -0.1350 -0.9200  0.3625
16539SOL     OW51229   2.662   0.061   1.984 -0.4937 -0.6868 -0.1097
16539SOL    HW151230   2.732   0.125   1.976 -0.1617 -1.1620 -1.3150
16539SOL    HW251231   2.611   0.089   2.060 -0.6195  1.2369 -0.8551
16540SOL     OW51232   2.524   0.427   8.901  0.3755  0.1369  0.9269
16540SOL    HW151233   2.596   0.418   8.838 -0.0883  1.2541  0.1952
16540SOL    HW251234   2.478   0.507   8.873  0.3239  0.8422  2.8650
16541SOL     OW51235   8.366   4.421   8.395  0.5797  0.1332 -0.0185
16541SOL    HW151236   8.445   4.434   8.342  1.1560 -0.2407  0.7169
16541SOL    HW251237   8.350   4.326   8.390 -1.1622  0.4607 -1.9858
16542SOL     OW51238   0.916   3.420   9.025  0.5136 -0.1667  0.1048
16542SOL    HW151239   0.954   3.407   9.112  0.1841  0.5789  0.3761
16542SOL    HW251240   0.899   3.515   9.021 -1.8341 -0.5020  0.2410
16543SOL     OW51241   1.209   8.070   8.207  0.7002 -0.1743  0.8045
16543SOL    HW151242   1.192   8.128   8.281  1.2604  1.4518 -0.2747
16543SOL    HW251243   1.209   8.128   8.131 -0.6925 -1.9028 -0.6001
16544SOL     OW51244   4.243   5.882   3.634  0.1637 -0.4541  0.0579
16544SOL    HW151245   4.308   5.823   3.673  1.9111 -0.2264 -2.2911
16544SOL    HW251246   4.237   5.854   3.543 -2.8522 -0.2051  0.0992
16545SOL     OW51247   3.050   1.643   9.171 -0.3233 -0.0797 -0.1238
16545SOL    HW151248   3.004   1.654   9.088 -0.8827 -0.4770  0.1325
16545SOL    HW251249   2.987   1.669   9.238  0.3447  0.8894  0.1528
16546SOL     OW51250   0.324   4.870   4.384 -0.1820  0.4383 -0.4045
16546SOL    HW151251   0.359   4.781   4.390 -0.9497  0.1695  0.3223
16546SOL    HW251252   0.265   4.867   4.309 -2.0150 -0.3527  0.9839
16547SOL     OW51253   2.264   5.223   1.488  0.6767  0.5064  0.3190
16547SOL    HW151254   2.207   5.215   1.565  0.9140 -2.3290  0.3278
16547SOL    HW251255   2.212   5.273   1.425 -0.3597  1.0919  1.5831
16548SOL     OW51256   3.692   0.700   9.465 -0.0821 -0.0052  0.1964
16548SOL    HW151257   3.617   0.653   9.501 -0.5601  0.9095  0.4286
16548SOL    HW251258   3.653   0.775   9.418  0.6490  0.0854 -0.2775
16549SOL     OW51259   7.218   7.595   2.327 -0.5563 -0.4093  0.5334
16549SOL    HW151260   7.162   7.601   2.405 -1.0449 -1.2819  0.2704
16549SOL    HW251261   7.251   7.684   2.314  0.2612 -0.4249  2.2639
16550SOL     OW51262   2.587   0.551   3.534 -0.3443  0.3419  0.0973
16550SOL    HW151263   2.669   0.547   3.485 -0.2923  0.7482  0.1414
16550SOL    HW251264   2.518   0.546   3.467 -0.2920 -0.4360  0.0961
16551SOL     OW51265   4.448   8.030   5.471 -0.1552  0.0937  0.3766
16551SOL    HW151266   4.513   8.039   5.541  0.9307  0.9484 -0.6930
16551SOL    HW251267   4.414   8.119   5.458 -0.2586 -0.0299 -0.2552
16552SOL     OW51268   4.310   5.591   1.309  0.0980 -0.4596  0.0632
16552SOL    HW151269   4.343   5.574   1.221  0.5175 -0.1983  0.1665
16552SOL    HW251270   4.360   5.531   1.365  0.0330 -0.4265  0.1561
16553SOL     OW51271   0.991   1.683   5.627 -0.8891 -0.3465  0.3550
16553SOL    HW151272   1.034   1.728   5.701 -0.6340  2.6946 -1.4515
16553SOL    HW251273   1.063   1.655   5.571 -1.0848  0.5653 -0.3952
16554SOL     OW51274   0.140   6.816   9.381 -0.3982  0.0992 -0.1215
16554SOL    HW151275   0.203   6.833   9.311 -0.6942 -0.4857 -0.5382
16554SOL    HW251276   0.170   6.871   9.454  1.2227 -0.9187  0.0553
16555SOL     OW51277   2.720   7.479   0.884 -0.1246 -0.5054  0.3549
16555SOL    HW151278   2.728   7.538   0.809  2.3261 -0.9469  0.1787
16555SOL    HW251279   2.707   7.538   0.959  0.7530  0.2024 -0.0199
16556SOL     OW51280   0.162   5.265   4.409  0.5402  0.0619 -0.0521
16556SOL    HW151281   0.215   5.257   4.331  2.1815 -1.0991  1.1152
16556SOL    HW251282   0.089   5.205   4.395  1.5267 -1.1433 -0.1689
16557SOL     OW51283   2.189   4.833   6.582 -0.4080  0.2961 -0.1562
16557SOL    HW151284   2.106   4.795   6.612 -0.1382 -0.5830 -0.4864
16557SOL    HW251285   2.253   4.764   6.596  0.1027  0.6358 -0.7824
16558SOL     OW51286   7.984   0.149   2.436 -0.3455  0.4472 -0.2916
16558SOL    HW151287   7.895   0.174   2.460  0.1468  1.7242  0.2993
16558SOL    HW251288   7.991   0.172   2.343 -0.4760  0.8566 -0.2050
16559SOL     OW51289   5.282   2.946   3.490 -0.5258 -0.3786  0.3308
16559SOL    HW151290   5.213   2.911   3.546 -1.1201 -0.6637 -0.5631
16559SOL    HW251291   5.291   2.883   3.418  1.6812 -1.1170  1.1546
16560SOL     OW51292   1.798   6.778   6.302 -0.6318  0.1935 -0.2227
16560SOL    HW151293   1.798   6.737   6.388  0.8324 -0.4322 -0.4983
16560SOL    HW251294   1.804   6.872   6.321  2.3450 -0.0252  0.4057
16561SOL     OW51295   8.924   6.198   2.037  0.2084 -0.1727 -0.1829
16561SOL    HW151296   8.953   6.130   2.098  0.6067  0.4876  0.3715
16561SOL    HW251297   8.883   6.149   1.966 -0.7836 -0.9583  0.8707
16562SOL     OW51298   0.614   8.112   5.806  0.4071 -0.1077 -0.2474
16562SOL    HW151299   0.623   8.035   5.862 -0.4231 -1.5581 -2.0050
16562SOL    HW251300   0.551   8.167   5.853 -0.8407 -1.6175 -0.0595
16563SOL     OW51301   8.187   5.382   2.400 -0.3424  0.0286 -0.3552
16563SOL    HW151302   8.162   5.351   2.313  1.8803  1.7728 -1.7460
16563SOL    HW251303   8.283   5.380   2.400 -0.2440  1.4602  1.4969
16564SOL     OW51304   4.281   1.041   3.336  0.2449  0.4118 -0.1079
16564SOL    HW151305   4.278   1.135   3.352  0.0961  0.5757 -1.0520
16564SOL    HW251306   4.239   1.003   3.413  0.6253  1.0924  0.4489
16565SOL     OW51307   7.015   3.805   6.442 -0.0229 -0.7785 -0.1814
16565SOL    HW151308   7.093   3.824   6.390 -0.2086 -1.4045 -0.7072
16565SOL    HW251309   6.946   3.859   6.404 -0.1557 -1.2280 -0.5909
16566SOL     OW51310   2.648   7.600   3.918  0.2249 -0.1256  0.4630
16566SOL    HW151311   2.649   7.612   4.013 -0.2433  0.3246  0.4169
16566SOL    HW251312   2.583   7.532   3.902 -1.3186  1.3214  0.3230
16567SOL     OW51313   4.832   6.944   9.066  0.1532 -0.5896  0.4612
16567SOL    HW151314   4.755   7.000   9.053  0.1185 -0.8153 -0.3548
16567SOL    HW251315   4.889   6.963   8.991  2.4058  1.9060  2.5902
16568SOL     OW51316   3.324   4.664   6.432 -0.4466  0.1053  0.1668
16568SOL    HW151317   3.256   4.634   6.372 -0.5833  2.9168 -1.2873
16568SOL    HW251318   3.297   4.752   6.457  1.5696  0.4793  1.2916
16569SOL     OW51319   6.154   8.203   0.716  0.7533  0.1637  0.3261
16569SOL    HW151320   6.150   8.137   0.647 -1.5915 -0.3407  0.8596
16569SOL    HW251321   6.122   8.283   0.675 -0.8247 -0.1802  0.7987
16570SOL     OW51322   1.188   4.445   7.903  0.2226 -0.0431 -0.2994
16570SOL    HW151323   1.240   4.525   7.901  0.7115 -0.3661 -1.0330
16570SOL    HW251324   1.114   4.462   7.846 -1.4050  0.9978  1.9927
16571SOL     OW51325   9.082   1.539   3.505 -0.8050  0.0834 -0.2332
16571SOL    HW151326   9.051   1.562   3.592  2.2314 -0.6760  1.1840
16571SOL    HW251327   9.052   1.449   3.491  0.0489 -0.3907  0.8014
16572SOL     OW51328   1.762   2.073   8.042  0.5721 -0.1382  0.2038
16572SOL    HW151329   1.706   2.066   8.120 -0.4781 -1.9031 -0.6505
16572SOL    HW251330   1.744   2.160   8.007  0.1488  0.2115  1.2437
16573SOL     OW51331   9.047   3.159   8.144  0.1340 -0.1707 -0.1007
16573SOL    HW151332   9.116   3.128   8.203  1.1951  0.1260 -1.1385
16573SOL    HW251333   9.069   3.120   8.059  0.8331  2.3385 -1.1818
16574SOL     OW51334   5.049   2.806   3.604  0.3157  0.3225 -0.1030
16574SOL    HW151335   5.014   2.718   3.612  0.6675  0.2150  0.3127
16574SOL    HW251336   5.108   2.815   3.679  3.9090 -0.7275 -2.5487
16575SOL     OW51337   9.556   4.583   0.234  0.2811  0.0281 -0.4330
16575SOL    HW151338   9.496   4.611   0.304  1.4122 -1.1784  1.1000
16575SOL    HW251339   9.585   4.665   0.194 -2.8233  0.6406 -1.6851
16576SOL     OW51340   7.341   5.214   8.570 -0.2284  0.1766  0.9374
16576SOL    HW151341   7.347   5.302   8.608  0.2474  0.3561  0.4689
16576SOL    HW251342   7.362   5.155   8.642 -1.1432  0.4090  1.4082
16577SOL     OW51343   2.458   1.914   4.192 -0.5426  0.4195 -0.2496
16577SOL    HW151344   2.423   1.830   4.224 -0.2000  0.6858  0.8784
16577SOL    HW251345   2.541   1.925   4.240 -0.2267  1.0570 -0.9264
16578SOL     OW51346   0.297   6.316   6.103  0.5253  0.0249 -0.1185
16578SOL    HW151347   0.337   6.401   6.085  2.1471 -0.8007 -0.5983
16578SOL    HW251348   0.264   6.324   6.193  0.1553  1.3311 -0.3553
16579SOL     OW51349   0.765   1.613   7.918 -0.0316  0.1662 -0.5949
16579SOL    HW151350   0.702   1.546   7.945 -0.2944  1.0533  1.1385
16579SOL    HW251351   0.743   1.631   7.827 -1.5849 -0.3096 -0.3387
16580SOL     OW51352   2.798   8.202   9.736 -0.0713 -0.0356 -0.4631
16580SOL    HW151353   2.840   8.210   9.822 -1.0669 -0.5031  0.0867
16580SOL    HW251354   2.830   8.119   9.701  2.4347  1.3920 -1.7616
16581SOL     OW51355   1.442   0.117   9.375  0.5382 -0.0778 -0.4046
16581SOL    HW151356   1.370   0.068   9.414 -0.4689  1.9579  0.4187
16581SOL    HW251357   1.521   0.069   9.403 -0.3947 -1.4137  0.0386
16582SOL     OW51358   2.313   1.159   5.822  0.0364 -0.1605  0.0511
16582SOL    HW151359   2.314   1.241   5.871  1.3565  0.2997 -0.6988
16582SOL    HW251360   2.402   1.150   5.788 -0.1760 -1.7457 -0.1513
16583SOL     OW51361   2.523   0.815   3.701 -0.3599  0.0253  0.1980
16583SOL    HW151362   2.537   0.765   3.621 -0.3803 -0.4370  0.4762
16583SOL    HW251363   2.437   0.788   3.731 -1.7525  2.4975 -1.2522
16584SOL     OW51364   3.646   6.715   1.122 -0.9358 -0.8810  0.3808
16584SOL    HW151365   3.572   6.727   1.181 -0.6384 -0.1532  0.6166
16584SOL    HW251366   3.721   6.698   1.179 -1.0320 -2.3148  0.1155
16585SOL     OW51367   6.537   4.714   4.185  0.6317 -0.9245 -0.7813
16585SOL    HW151368   6.528   4.792   4.130  2.2940  0.7276  1.1311
16585SOL    HW251369   6.553   4.643   4.123  1.4975  0.6775 -2.4981
16586SOL     OW51370   7.042   0.041   0.670  0.1566 -0.4273  0.0248
16586SOL    HW151371   7.110  -0.014   0.630  0.4575 -0.2101  0.2436
16586SOL    HW251372   7.045   0.123   0.620 -0.9075 -0.9268 -0.9077
16587SOL     OW51373   5.446   5.130   7.428  0.1742  0.1784  0.2346
16587SOL    HW151374   5.518   5.084   7.386  1.7276 -0.2733  3.1544
16587SOL    HW251375   5.488   5.189   7.490 -1.9466  0.7439  1.2192
16588SOL     OW51376   2.853   5.009   2.242 -0.2549  0.3937  0.4316
16588SOL    HW151377   2.834   4.945   2.310  1.0043 -3.5816 -2.5922
16588SOL    HW251378   2.769   5.026   2.200 -0.2579 -1.8557 -0.6398
16589SOL     OW51379   1.574   3.037   8.893  0.2354  0.0293 -0.2915
16589SOL    HW151380   1.626   3.005   8.819 -0.6043  0.8475 -1.2533
16589SOL    HW251381   1.584   2.968   8.959  2.5816  0.1768 -0.3962
16590SOL     OW51382   1.489   0.639   5.531  0.2192  0.4734 -0.0685
16590SOL    HW151383   1.537   0.680   5.602  0.3206  1.5852 -0.7622
16590SOL    HW251384   1.489   0.704   5.460 -0.9108 -0.1296 -0.6607
16591SOL     OW51385   7.749   4.215   0.144 -0.0610  0.3107 -0.2332
16591SOL    HW151386   7.679   4.173   0.094  0.4736  0.4255 -1.0883
16591SOL    HW251387   7.744   4.174   0.231  0.4229 -1.5009 -1.0127
16592SOL     OW51388   3.490   3.895   6.932  0.0864  0.2007 -0.1142
16592SOL    HW151389   3.496   3.811   6.886 -0.6934 -0.0062  0.1617
16592SOL    HW251390   3.574   3.903   6.978  0.2892 -0.2766 -0.3981
16593SOL     OW51391   1.352   4.662   1.680 -0.2200  0.0280  0.3733
16593SOL    HW151392   1.404   4.663   1.760  1.9796 -1.2594 -0.9205
16593SOL    HW251393   1.378   4.581   1.636 -2.7367 -0.2221 -0.8035
16594SOL     OW51394   5.890   2.587   4.122  0.0321  0.5439 -0.5327
16594SOL    HW151395   5.963   2.624   4.171  0.7360  0.5115 -1.5177
16594SOL    HW251396   5.824   2.656   4.121  0.3756  0.8790 -0.3153
16595SOL     OW51397   5.036   7.071   7.628  0.7849 -0.4546 -0.3491
16595SOL    HW151398   5.018   7.025   7.710  0.6071  0.2452  0.0068
16595SOL    HW251399   5.127   7.050   7.608  1.7303  1.5661  1.4777
16596SOL     OW51400   6.793   4.605   2.316  0.2414 -0.0020 -1.3124
16596SOL    HW151401   6.727   4.565   2.372  1.0896  1.3737  0.7902
16596SOL    HW251402   6.761   4.591   2.227 -1.5711 -1.5657 -0.4821
16597SOL     OW51403   9.161   9.532   5.902  0.6564  0.6643 -0.2689
16597SOL    HW151404   9.090   9.472   5.922 -0.6796  1.8766 -1.1373
16597SOL    HW251405   9.210   9.541   5.984  0.5173 -1.0750  0.0281
16598SOL     OW51406   0.423   3.707   3.583  0.2066  0.4018 -0.5560
16598SOL    HW151407   0.351   3.725   3.523  0.0845  0.3304 -0.4306
16598SOL    HW251408   0.420   3.612   3.598  0.2413  0.4178 -0.4433
16599SOL     OW51409   4.705   6.912   5.467  0.3137  0.4837 -0.0809
16599SOL    HW151410   4.678   6.874   5.550  0.6402  0.7155  0.1309
16599SOL    HW251411   4.794   6.879   5.453  0.5066  0.9725 -0.0175
16600SOL     OW51412   3.817   9.122   6.306 -0.6780 -0.0568 -0.1139
16600SOL    HW151413   3.728   9.125   6.341 -0.9919 -3.0269 -0.3743
16600SOL    HW251414   3.869   9.082   6.376  0.1125  0.1936 -0.5483
16601SOL     OW51415   1.288   7.170   2.336  0.0018 -0.6104  0.8317
16601SOL    HW151416   1.263   7.112   2.407  0.1201  1.4675  2.6772
16601SOL    HW251417   1.366   7.216   2.367  2.3690 -2.2286 -2.1750
16602SOL     OW51418   4.166   4.279   4.499 -0.3091  0.9175  0.2132
16602SOL    HW151419   4.106   4.274   4.425  0.5552  1.7978 -0.5751
16602SOL    HW251420   4.221   4.201   4.490 -0.8012  0.5336  0.4750
16603SOL     OW51421   1.363   1.333   2.158  0.2779  0.4968  0.6587
16603SOL    HW151422   1.371   1.372   2.071  0.4649  0.7846  0.8044
16603SOL    HW251423   1.336   1.243   2.141  0.4908  0.4978  0.2922
16604SOL     OW51424   9.142   8.990   6.252  0.0643 -0.2078  0.4741
16604SOL    HW151425   9.154   8.895   6.245 -0.4602 -0.3071  0.8830
16604SOL    HW251426   9.051   9.005   6.229 -0.2902  0.0145  1.9281
16605SOL     OW51427   9.727   7.477   2.305  0.3713  0.2899 -0.9782
16605SOL    HW151428   9.682   7.545   2.355  1.1680  0.7422 -0.8506
16605SOL    HW251429   9.711   7.397   2.354 -1.2110  0.2277 -1.5322
16606SOL     OW51430   9.665   5.057   3.520  0.3706 -0.1317 -0.1552
16606SOL    HW151431   9.679   4.966   3.545 -2.8146 -0.4596  0.9200
16606SOL    HW251432   9.587   5.084   3.569  0.4649  2.7814 -1.3888
16607SOL     OW51433   9.501   0.356   2.224 -0.5287  0.2068  0.6069
16607SOL    HW151434   9.506   0.270   2.183 -3.4479  0.0241  0.4819
16607SOL    HW251435   9.550   0.345   2.306  0.4050 -1.1119 -0.0878
16608SOL     OW51436   3.361   0.853   1.873 -0.0512 -0.4035  0.6103
16608SOL    HW151437   3.323   0.781   1.823 -0.4352 -0.2352  0.6525
16608SOL    HW251438   3.303   0.928   1.855  0.6779  0.0467  0.1006
16609SOL     OW51439   2.377   4.817   5.509  0.0319  0.1628 -0.1527
16609SOL    HW151440   2.412   4.733   5.538  0.5032  0.0854 -0.9241
16609SOL    HW251441   2.371   4.869   5.589  0.9819 -0.1595  0.1427
16610SOL     OW51442   4.831   0.831   0.410 -0.4532  0.0755  0.3399
16610SOL    HW151443   4.789   0.828   0.495  1.6037  0.6252  1.4517
16610SOL    HW251444   4.790   0.904   0.365 -0.7322  0.5471  1.3374
16611SOL     OW51445   2.329   3.383   5.637  0.2400 -0.3986 -0.2864
16611SOL    HW151446   2.279   3.358   5.715 -1.1078 -0.7974 -1.2336
16611SOL    HW251447   2.314   3.477   5.628  2.9465  0.3297  1.6373
16612SOL     OW51448   6.194   0.743   2.704  0.6225 -0.5947 -0.0885
16612SOL    HW151449   6.250   0.666   2.690  1.3621  0.3999 -3.4999
16612SOL    HW251450   6.244   0.816   2.669 -1.2386  0.9911  0.4030
16613SOL     OW51451   1.521   7.425   8.012  0.1345 -0.3006 -0.0534
16613SOL    HW151452   1.431   7.402   8.033  0.7286 -0.8751  2.1103
16613SOL    HW251453   1.514   7.511   7.969 -1.5018 -0.9234 -1.1221
16614SOL     OW51454   9.041   9.800   3.376  0.4010  0.6162 -0.3886
16614SOL    HW151455   9.043   9.878   3.320 -1.2910 -0.8878 -2.7312
16614SOL    HW251456   8.948   9.785   3.391  0.6773 -1.1462 -0.2858
16615SOL     OW51457   6.832   3.975   7.716  0.1903  0.0598  0.4250
16615SOL    HW151458   6.911   3.955   7.765  0.2100  0.5900  0.6187
16615SOL    HW251459   6.846   3.936   7.630  0.1065 -0.9842  0.8722
16616SOL     OW51460   5.039   8.622   0.190  0.1622  0.5003 -0.5424
16616SOL    HW151461   5.041   8.660   0.102  0.0453  0.1993 -0.6744
16616SOL    HW251462   5.011   8.532   0.177  2.6605 -0.3653 -0.4890
16617SOL     OW51463   4.739   1.819   0.191 -0.4041  0.2601  0.3041
16617SOL    HW151464   4.818   1.808   0.138  0.4372 -1.1827  1.7775
16617SOL    HW251465   4.671   1.772   0.143 -0.5068  1.8056 -1.1564
16618SOL     OW51466   0.784   0.054   7.651  0.1774 -0.2261 -0.3923
16618SOL    HW151467   0.696   0.083   7.674  1.4640  2.7635  1.1646
16618SOL    HW251468   0.783   0.051   7.555 -1.7390 -0.8353 -0.3997
16619SOL     OW51469   5.712   7.230   2.847  0.7148  0.1080  0.0935
16619SOL    HW151470   5.746   7.143   2.863 -2.4337 -1.4269 -0.6162
16619SOL    HW251471   5.721   7.243   2.752  1.3379  0.6584  0.2198
16620SOL     OW51472   7.008   1.973   5.740 -0.2870  0.7301  0.3213
16620SOL    HW151473   7.089   1.948   5.695 -0.8215  0.1008 -0.3165
16620SOL    HW251474   6.945   1.986   5.669 -0.4300  2.4439  0.7325
16621SOL     OW51475   0.321   5.554   9.095  0.2117 -0.2857  0.3453
16621SOL    HW151476   0.295   5.614   9.026  0.5779 -0.8663 -0.3160
16621SOL    HW251477   0.417   5.548   9.086  0.1613 -1.0973  0.2817
16622SOL     OW51478   2.530   7.337   4.923  0.5362 -0.1927  0.0075
16622SOL    HW151479   2.595   7.269   4.911  0.2154 -0.2634 -1.5735
16622SOL    HW251480   2.569   7.415   4.883 -0.0255 -0.0397 -0.2534
16623SOL     OW51481   1.568   9.656   3.092  0.3264 -0.1397  0.3371
16623SOL    HW151482   1.547   9.657   2.998  0.5412  0.7226  0.2931
16623SOL    HW251483   1.664   9.655   3.094  0.5304  3.8667  0.4906
16624SOL     OW51484   3.985   7.484   3.326 -0.5140 -0.1992  0.1508
16624SOL    HW151485   3.971   7.536   3.247  1.1346 -0.8267 -0.6151
16624SOL    HW251486   4.027   7.404   3.294 -0.3650 -0.7189  1.6027
16625SOL     OW51487   5.501   6.645   8.563 -0.0065  0.0059 -0.4408
16625SOL    HW151488   5.504   6.677   8.472  1.6757  0.5539 -0.2190
16625SOL    HW251489   5.467   6.556   8.555 -2.5665  0.9560 -1.3054
16626SOL     OW51490   9.389   1.883   1.161  0.1062  0.5803 -0.5561
16626SOL    HW151491   9.429   1.963   1.126  2.5149  0.1411  0.9861
16626SOL    HW251492   9.458   1.817   1.156  0.2527  0.1542  3.5820
16627SOL     OW51493   2.763   6.085   6.135 -0.3121  0.0784 -0.3917
16627SOL    HW151494   2.702   6.098   6.208 -0.1010  0.6219 -0.3036
16627SOL    HW251495   2.733   6.006   6.092 -0.1058 -0.5742  0.6252
16628SOL     OW51496   4.212   9.101   2.592  0.4818 -0.2162  0.2410
16628SOL    HW151497   4.302   9.121   2.615  0.9802 -1.8731 -0.1624
16628SOL    HW251498   4.211   9.007   2.576 -1.2122 -0.1539 -0.2573
16629SOL     OW51499   8.677   8.452   3.561 -0.2966  0.3028 -0.4453
16629SOL    HW151500   8.620   8.377   3.576  0.8343 -0.3264  0.9101
16629SOL    HW251501   8.695   8.487   3.648 -0.9320  2.2909 -1.0507
16630SOL     OW51502   2.489   4.701   9.364  0.2496 -0.1493 -0.3493
16630SOL    HW151503   2.577   4.738   9.368  0.4951 -0.5834 -1.5801
16630SOL    HW251504   2.470   4.692   9.271 -1.6307  1.1832 -0.1580
16631SOL     OW51505   6.514   5.390   0.312 -0.7453  0.7082 -0.3446
16631SOL    HW151506   6.461   5.405   0.391 -0.8273 -0.9964 -0.0296
16631SOL    HW251507   6.460   5.422   0.240 -2.5924 -1.5807 -0.1077
16632SOL     OW51508   0.686   6.813   6.905  0.4210  0.4198 -0.3992
16632SOL    HW151509   0.609   6.835   6.853 -1.3313 -0.9753  1.4257
16632SOL    HW251510   0.658   6.740   6.960  2.6620  0.6996  1.2839
16633SOL     OW51511   6.852   2.199   5.044  0.4492  0.4079 -0.2614
16633SOL    HW151512   6.791   2.147   5.095 -1.3594  1.3332 -1.3863
16633SOL    HW251513   6.823   2.289   5.056  0.1195  0.6741 -2.6625
16634SOL     OW51514   5.789   1.037   0.483 -0.7430 -0.2594 -0.5215
16634SOL    HW151515   5.718   1.100   0.469 -0.4843  0.0126 -0.6336
16634SOL    HW251516   5.801   0.995   0.397 -0.7618 -0.2974 -0.5055
16635SOL     OW51517   4.611   2.293   8.926 -0.1719  0.2018  0.3399
16635SOL    HW151518   4.657   2.223   8.972  1.1683 -0.4724 -1.8628
16635SOL    HW251519   4.543   2.247   8.876 -0.5811  0.7278  0.4051
16636SOL     OW51520   1.060   6.067   2.457  0.4547  0.0015  0.7690
16636SOL    HW151521   1.064   6.143   2.516  1.7199  0.3757  0.2250
16636SOL    HW251522   0.999   6.007   2.500 -0.8808  1.4763  1.0156
16637SOL     OW51523   8.627   7.059   6.094 -0.0915 -0.1067 -0.3159
16637SOL    HW151524   8.588   7.114   6.026 -0.4307 -0.3707 -0.3360
16637SOL    HW251525   8.715   7.094   6.106  0.9759 -1.6600 -2.7810
16638SOL     OW51526   9.839   5.580   7.750  0.8150  0.6898 -0.3116
16638SOL    HW151527   9.924   5.582   7.793  0.1870  0.7754  0.9573
16638SOL    HW251528   9.819   5.487   7.738 -0.2711  0.5224  2.2281
16639SOL     OW51529   6.341   8.523   6.003  0.4584  0.0904 -0.6358
16639SOL    HW151530   6.387   8.449   5.963  1.6490  0.5494 -0.1473
16639SOL    HW251531   6.313   8.490   6.088 -0.7438 -0.3963 -1.1860
16640SOL     OW51532   4.793   5.109   5.999 -0.4347  0.2611  0.4547
16640SOL    HW151533   4.759   5.064   6.076 -1.5294 -0.4547 -0.4250
16640SOL    HW251534   4.749   5.067   5.925 -1.0443  2.3516 -0.4460
16641SOL     OW51535   4.396   1.097   4.925 -0.8551  0.1664 -0.1471
16641SOL    HW151536   4.441   1.012   4.923 -0.3077  0.4361  0.4500
16641SOL    HW251537   4.460   1.159   4.892  0.0172  0.8892  2.6026
16642SOL     OW51538   5.350   3.084   4.909  0.4086  0.3800 -0.3983
16642SOL    HW151539   5.333   3.007   4.964 -0.8857 -0.1220 -1.4211
16642SOL    HW251540   5.281   3.146   4.934 -0.1629  0.1626 -1.3832
16643SOL     OW51541   5.913   3.313   7.020  0.2933 -0.1301  0.3171
16643SOL    HW151542   5.999   3.329   7.060  0.5146  0.0560 -0.2122
16643SOL    HW251543   5.860   3.388   7.044  0.8913  0.7503 -0.9782
16644SOL     OW51544   1.876   5.845   2.423 -0.6310 -0.1314 -0.2949
16644SOL    HW151545   1.836   5.874   2.505 -2.3559 -1.9135 -0.4472
16644SOL    HW251546   1.881   5.750   2.430  1.2191 -0.1733 -1.4039
16645SOL     OW51547   6.846   8.475   3.519  0.4507  0.1315 -0.1174
16645SOL    HW151548   6.940   8.489   3.530  0.3989 -0.2282  0.9064
16645SOL    HW251549   6.815   8.451   3.607 -0.3754 -1.0519 -0.7056
16646SOL     OW51550   4.267   1.927   4.394 -0.0577 -0.5502  0.0394
16646SOL    HW151551   4.288   1.859   4.330 -1.4677 -1.5591  0.5946
16646SOL    HW251552   4.312   1.900   4.474  0.5479 -0.0512 -0.1289
16647SOL     OW51553   0.673   1.712   9.524 -0.3298  0.3662  0.6307
16647SOL    HW151554   0.686   1.688   9.616  1.0012  0.3009  0.4401
16647SOL    HW251555   0.675   1.628   9.478  1.3798  0.5476  0.2992
16648SOL     OW51556   8.648   4.827   1.111  0.6020  0.2831  0.3173
16648SOL    HW151557   8.711   4.762   1.142  0.9128 -0.9010 -2.4790
16648SOL    HW251558   8.692   4.868   1.036  0.2588  3.5464  1.7583
16649SOL     OW51559   6.848   0.658   7.405 -0.3427  0.6318  0.3943
16649SOL    HW151560   6.878   0.625   7.321  0.8664  0.0887  1.0205
16649SOL    HW251561   6.879   0.748   7.408 -2.1927  1.3576 -0.5977
16650SOL     OW51562   2.976   0.234   5.963  0.5005  0.2184 -0.2034
16650SOL    HW151563   3.048   0.175   5.986  0.8855  0.1408 -1.4881
16650SOL    HW251564   2.900   0.176   5.953  0.6175  0.0851 -0.3334
16651SOL     OW51565   9.680   7.495   3.136  0.5224  0.1223  0.9728
16651SOL    HW151566   9.773   7.497   3.114  0.1085  1.5673 -0.9443
16651SOL    HW251567   9.674   7.538   3.221  1.4654  1.6496  0.3124
16652SOL     OW51568   7.526   9.766   3.629  0.5839 -0.1896 -0.0865
16652SOL    HW151569   7.456   9.711   3.665  1.1956  0.1260  1.6769
16652SOL    HW251570   7.570   9.709   3.565 -0.3072 -0.9136 -0.0794
16653SOL     OW51571   2.114   4.269   3.622 -0.0298 -0.7896  0.1068
16653SOL    HW151572   2.196   4.299   3.580 -0.9159  0.6319 -0.7118
16653SOL    HW251573   2.140   4.194   3.675  1.7945 -0.4387 -0.2163
16654SOL     OW51574   1.383   8.897   3.172 -0.4935 -0.3312  0.3118
16654SOL    HW151575   1.368   8.903   3.078  1.5638 -0.0776 -0.0347
16654SOL    HW251576   1.357   8.983   3.206  0.2303  0.1229 -0.2576
16655SOL     OW51577   2.121   8.972   3.992  0.0700 -0.6584  0.6361
16655SOL    HW151578   2.148   9.059   4.021 -0.5589 -0.3827  0.4203
16655SOL    HW251579   2.197   8.916   4.008  0.7260  0.0693  0.1277
16656SOL     OW51580   9.119   5.190   9.257  0.3378  0.0726  0.5684
16656SOL    HW151581   9.213   5.183   9.244  0.2688  0.7656 -0.4441
16656SOL    HW251582   9.108   5.247   9.332  0.7193  0.9402 -0.0259
16657SOL     OW51583   3.334   4.977   4.269  0.0699  1.0909  0.1055
16657SOL    HW151584   3.273   4.949   4.201  0.5994 -1.7486  0.6810
16657SOL    HW251585   3.399   4.907   4.273 -0.1938  0.8660  3.8316
16658SOL     OW51586   5.686   2.912   7.802  0.0039  0.0793 -0.6019
16658SOL    HW151587   5.710   2.832   7.851 -0.9405 -0.1291 -0.4569
16658SOL    HW251588   5.679   2.883   7.711 -0.8496 -0.1435 -0.4819
16659SOL     OW51589   2.653   1.850   6.317  0.2527 -0.0571  0.1591
16659SOL    HW151590   2.654   1.928   6.260 -1.2585  0.9994  1.4672
16659SOL    HW251591   2.745   1.832   6.335  0.6716  2.5178  1.1630
16660SOL     OW51592   9.361   0.695   9.049 -0.1348 -0.6618  0.5223
16660SOL    HW151593   9.452   0.720   9.033 -0.2192 -0.1366  0.8126
16660SOL    HW251594   9.330   0.760   9.112 -1.1658  0.0880 -0.7056
16661SOL     OW51595   2.902   7.853   8.929  0.2238 -0.7043  0.1203
16661SOL    HW151596   2.977   7.899   8.892  0.1057 -0.3288  0.3452
16661SOL    HW251597   2.924   7.840   9.021 -0.4843  0.4614  0.4709
16662SOL     OW51598   1.341   1.038   8.309  0.2326  0.3110  0.3755
16662SOL    HW151599   1.270   0.983   8.342  0.0586  1.1620  1.4747
16662SOL    HW251600   1.414   0.977   8.295 -0.2793 -0.3569  0.5605
16663SOL     OW51601   6.835   3.209   7.282  0.3396 -0.6632  0.0537
16663SOL    HW151602   6.848   3.304   7.279 -2.0026 -0.2794  0.4220
16663SOL    HW251603   6.855   3.180   7.193 -0.1722  0.3739 -0.4203
16664SOL     OW51604   2.903   1.086   0.054  0.2381 -0.2185  0.1163
16664SOL    HW151605   2.852   1.123   0.125  0.5146 -0.7399  0.5948
16664SOL    HW251606   2.896   0.991   0.066  0.9873 -0.3027 -0.0379
16665SOL     OW51607   6.175   2.229   7.517  0.0401 -0.7911  0.1861
16665SOL    HW151608   6.264   2.234   7.552 -0.1213 -1.4906  0.7306
16665SOL    HW251609   6.186   2.234   7.422  0.5604  0.2436  0.2833
16666SOL     OW51610   6.030   9.823   1.566  0.7218 -0.1310  0.1660
16666SOL    HW151611   6.047   9.842   1.474  1.2970 -0.7536  0.1342
16666SOL    HW251612   6.065   9.898   1.614 -1.2215  1.0918 -0.1995
16667SOL     OW51613   9.760   7.534   3.812  0.3439 -0.7244 -0.3573
16667SOL    HW151614   9.743   7.470   3.881 -0.3603 -0.2943 -0.1261
16667SOL    HW251615   9.787   7.613   3.859 -1.2996 -0.0546 -0.4902
16668SOL     OW51616   3.206   4.815   7.561 -0.0111  0.2243 -0.2278
16668SOL    HW151617   3.229   4.904   7.588 -0.6349 -0.2031  1.8456
16668SOL    HW251618   3.290   4.771   7.549  0.2969  0.6077  0.4883
16669SOL     OW51619   0.900   4.912   5.166  0.0375  0.5606 -0.4083
16669SOL    HW151620   0.850   4.831   5.157  1.4567 -0.8096  2.7539
16669SOL    HW251621   0.876   4.946   5.252  1.4326  2.1198 -0.5863
16670SOL     OW51622   7.371   6.343   1.419 -0.6979 -0.2124  0.4643
16670SOL    HW151623   7.324   6.418   1.382  1.1785  1.0104  0.4265
16670SOL    HW251624   7.370   6.357   1.513 -0.8508 -0.4670  0.5028
16671SOL     OW51625   5.042   0.217   1.373  0.3633 -0.8231 -0.6691
16671SOL    HW151626   5.028   0.200   1.280 -0.1478  0.5534 -0.8667
16671SOL    HW251627   4.975   0.166   1.418 -1.6021  1.1155 -1.2698
16672SOL     OW51628   7.285   7.293   2.915 -0.1135 -0.5257  0.3262
16672SOL    HW151629   7.206   7.345   2.926 -0.2901 -0.2769 -1.8337
16672SOL    HW251630   7.354   7.346   2.956 -0.6720  0.3319  0.1800
16673SOL     OW51631   7.256   6.452   8.127  0.0408 -0.0247 -0.6264
16673SOL    HW151632   7.314   6.465   8.201  0.4774 -0.1873 -0.9361
16673SOL    HW251633   7.225   6.362   8.136  0.1451 -0.0653 -0.6775
16674SOL     OW51634   1.457   7.501   4.995 -0.7831 -0.0336  0.3792
16674SOL    HW151635   1.379   7.550   5.021 -0.4815  1.9307 -2.0043
16674SOL    HW251636   1.526   7.567   4.988  0.2071 -1.1281 -0.8425
16675SOL     OW51637   5.737   2.798   2.704 -0.2866 -0.4111 -0.5833
16675SOL    HW151638   5.792   2.851   2.646  0.6285  0.2902  0.8562
16675SOL    HW251639   5.799   2.751   2.760 -1.1236 -0.6791  0.1559
16676SOL     OW51640   6.251   3.151   9.825 -0.3048  0.7436  0.2687
16676SOL    HW151641   6.273   3.226   9.880  0.8315  1.4695 -1.1096
16676SOL    HW251642   6.333   3.129   9.782 -1.4434  1.1949 -2.2974
16677SOL     OW51643   4.549   0.903   4.750  0.0924  0.0123 -0.2014
16677SOL    HW151644   4.610   0.964   4.791 -0.8450  0.8185  0.0515
16677SOL    HW251645   4.586   0.886   4.664  0.6786  0.4680 -0.0459
16678SOL     OW51646   9.640   3.750   9.379 -0.3940  0.3421  0.1813
16678SOL    HW151647   9.702   3.823   9.381 -1.9173  1.7044 -0.2451
16678SOL    HW251648   9.691   3.676   9.347  1.0218  1.4080 -0.0999
16679SOL     OW51649   1.224   9.460   0.503  0.0179 -0.5345 -0.3717
16679SOL    HW151650   1.238   9.509   0.423 -1.2125 -0.3189 -0.4809
16679SOL    HW251651   1.311   9.427   0.528  0.6840  0.8059 -0.8636
16680SOL     OW51652   6.949   4.973   1.541  0.2989 -0.1755  0.8475
16680SOL    HW151653   6.906   4.890   1.522 -0.6681 -0.2898  3.2035
16680SOL    HW251654   6.962   5.013   1.455 -1.7879 -1.4975 -0.1741
16681SOL     OW51655   4.735   2.455   3.900  0.6146  0.6782 -0.2627
16681SOL    HW151656   4.761   2.537   3.942  0.7384  1.3374 -1.5903
16681SOL    HW251657   4.760   2.387   3.963  2.8756  1.4691 -0.2095
16682SOL     OW51658   7.777   3.773   5.980  0.3944  0.1366 -0.3668
16682SOL    HW151659   7.857   3.771   5.928 -0.1106  2.2753 -1.3337
16682SOL    HW251660   7.710   3.735   5.922  0.7005 -1.8609  0.5228
16683SOL     OW51661   7.945   3.976   6.821 -0.1305  1.2832 -0.4932
16683SOL    HW151662   8.036   3.985   6.852 -0.0407 -0.1580 -0.2691
16683SOL    HW251663   7.945   4.017   6.735  0.7745  1.1863 -0.5523
16684SOL     OW51664   9.407   9.163   9.454 -0.5833 -0.7130 -0.1381
16684SOL    HW151665   9.371   9.247   9.426 -2.6512 -1.3836  0.3112
16684SOL    HW251666   9.406   9.167   9.550  0.9864 -0.6097 -0.1013
16685SOL     OW51667   6.365   5.704   3.654  0.9560 -0.8076 -0.2779
16685SOL    HW151668   6.349   5.726   3.562 -3.5931 -0.5111  0.3587
16685SOL    HW251669   6.411   5.780   3.689  0.9240 -0.0108 -1.8787
16686SOL     OW51670   2.611   1.080   6.070  0.1749  0.1979 -0.2280
16686SOL    HW151671   2.587   1.139   6.141  0.0185 -2.6015  2.2966
16686SOL    HW251672   2.704   1.062   6.085 -0.3453 -2.0563  0.7190
16687SOL     OW51673   5.867   6.173   6.260 -0.0290  0.4640 -1.1143
16687SOL    HW151674   5.832   6.101   6.312 -0.0765 -0.0560 -1.8659
16687SOL    HW251675   5.864   6.248   6.320  2.4205 -0.6258  0.5948
16688SOL     OW51676   7.431   0.327   2.832 -0.2168 -0.0401  0.5490
16688SOL    HW151677   7.392   0.401   2.879  2.6848  0.2846  2.6678
16688SOL    HW251678   7.370   0.255   2.847 -2.3409  1.4709 -0.2928
16689SOL     OW51679   6.430   7.894   7.936  0.0540 -0.1809  0.0830
16689SOL    HW151680   6.525   7.881   7.948  0.0332 -0.1070  0.3229
16689SOL    HW251681   6.394   7.891   8.024 -0.1484 -0.0375  0.0056
16690SOL     OW51682   9.834   9.507   0.708  0.0334 -0.7295 -0.7780
16690SOL    HW151683   9.796   9.591   0.683  0.5922 -0.3808 -0.4844
16690SOL    HW251684   9.859   9.467   0.625 -1.1870 -1.0815 -0.9949
16691SOL     OW51685   0.178   0.937   9.032  0.0954  0.3943 -0.3549
16691SOL    HW151686   0.259   0.900   8.998 -0.4210 -0.1056 -1.0561
16691SOL    HW251687   0.109   0.903   8.975 -0.7361 -0.0057  0.8403
16692SOL     OW51688   0.109   1.213   4.094  0.4199  0.2400 -0.2448
16692SOL    HW151689   0.104   1.117   4.097  1.9102  0.0899 -1.2453
16692SOL    HW251690   0.139   1.237   4.182 -0.5092 -0.1572  0.1906
16693SOL     OW51691   0.631   5.678   4.134  0.7229  0.3444 -0.7880
16693SOL    HW151692   0.661   5.595   4.172 -1.0627 -0.1020 -0.2569
16693SOL    HW251693   0.693   5.743   4.167 -0.1833 -0.1696  2.2120
16694SOL     OW51694   3.226   3.351   7.876 -0.2221  0.1453  0.1859
16694SOL    HW151695   3.206   3.439   7.846  1.1290  0.3535 -0.2002
16694SOL    HW251696   3.278   3.313   7.805 -0.2656 -0.7320  0.6113
16695SOL     OW51697   8.311   8.962   1.754 -0.0911 -0.2206 -0.6544
16695SOL    HW151698   8.309   8.960   1.850  1.6108  0.5335 -0.5766
16695SOL    HW251699   8.274   8.878   1.728 -1.4796 -0.0471  0.6238
16696SOL     OW51700   5.885   2.960   5.448  0.2266 -0.2574  0.4412
16696SOL    HW151701   5.869   2.886   5.507  0.1155 -2.9277 -2.6053
16696SOL    HW251702   5.861   3.037   5.498 -1.0907 -2.3999  3.3859
16697SOL     OW51703   7.730   2.512   4.279  0.4477 -0.5903  0.3655
16697SOL    HW151704   7.824   2.519   4.295  0.4988  2.6693 -0.6392
16697SOL    HW251705   7.722   2.507   4.184 -0.3837 -0.6221  0.4297
16698SOL     OW51706   5.001   3.513   0.294  0.1241  1.0473 -0.3163
16698SOL    HW151707   5.084   3.471   0.271 -0.0223 -0.1905  1.2779
16698SOL    HW251708   4.935   3.465   0.244  0.1958  0.9252 -0.2939
16699SOL     OW51709   0.376   7.617   5.170 -0.2233  0.0634 -0.9340
16699SOL    HW151710   0.373   7.535   5.218  2.4757  0.5058  0.1626
16699SOL    HW251711   0.298   7.665   5.199 -1.9884 -2.0824 -1.7807
16700SOL     OW51712   0.208   1.313   4.337 -0.0583 -0.0786 -0.3796
16700SOL    HW151713   0.266   1.357   4.275  0.7544  0.4483  0.7100
16700SOL    HW251714   0.268   1.267   4.396 -0.6696  1.1975  1.3205
16701SOL     OW51715   6.291   0.847   1.471 -0.5704  0.0874 -0.0604
16701SOL    HW151716   6.224   0.914   1.458 -0.2465  0.3137 -0.5663
16701SOL    HW251717   6.295   0.800   1.387  0.7298  0.8270 -0.4338
16702SOL     OW51718   5.137   5.073   1.345  0.7057 -0.2062  0.0717
16702SOL    HW151719   5.193   5.061   1.421 -1.0075 -4.8617  0.9349
16702SOL    HW251720   5.181   5.025   1.275  0.1964  0.3666 -0.6554
16703SOL     OW51721   7.666   4.937   6.424  0.0715 -0.1189  0.0453
16703SOL    HW151722   7.575   4.921   6.402  0.2399 -0.2600 -0.5656
16703SOL    HW251723   7.701   4.851   6.448  0.3262 -0.2520 -0.7925
16704SOL     OW51724   6.071   0.137   2.738 -0.2693  1.0199  0.3601
16704SOL    HW151725   6.148   0.147   2.682  0.5934 -1.1763  1.0462
16704SOL    HW251726   6.090   0.191   2.814  0.6360  0.4570  0.5461
16705SOL     OW51727   0.508   3.617   3.132  0.3060  0.2136  0.2365
16705SOL    HW151728   0.533   3.651   3.046 -1.0051  2.4603  0.6556
16705SOL    HW251729   0.448   3.544   3.112  0.4674  0.3322 -0.7559
16706SOL     OW51730   6.977   0.297   7.151  0.3244  0.6220 -0.2780
16706SOL    HW151731   7.003   0.269   7.063 -1.0199  1.2148 -0.9045
16706SOL    HW251732   6.889   0.263   7.162  0.4686  0.5744  0.8514
16707SOL     OW51733   1.261   8.555   4.174 -0.0198 -0.6300 -0.1957
16707SOL    HW151734   1.241   8.623   4.110  0.3343 -0.2151  0.1320
16707SOL    HW251735   1.346   8.521   4.147 -0.1324 -0.8460 -0.2777
16708SOL     OW51736   8.479   7.462   5.654  0.2807 -0.0602  0.2684
16708SOL    HW151737   8.508   7.470   5.745  0.3994 -1.8112  0.4267
16708SOL    HW251738   8.386   7.485   5.656  0.4668  0.6904  0.6746
16709SOL     OW51739   6.517   3.120   6.984  0.2482  0.0019 -0.3907
16709SOL    HW151740   6.449   3.061   6.950  0.1354  0.4162 -0.9067
16709SOL    HW251741   6.478   3.207   6.978  1.4574  0.4770 -2.4666
16710SOL     OW51742   0.302   4.950   9.119  0.5181 -0.2147  0.6101
16710SOL    HW151743   0.350   5.008   9.059 -0.3335 -0.6679 -0.5566
16710SOL    HW251744   0.338   4.863   9.103  0.2491 -0.3470  0.7147
16711SOL     OW51745   0.579   5.206   4.032  0.5676 -0.7102 -0.0545
16711SOL    HW151746   0.515   5.239   3.970 -0.5685  0.5770  1.7006
16711SOL    HW251747   0.538   5.127   4.068 -1.0523  1.1169  2.4390
16712SOL     OW51748   5.699   4.400   2.415  0.3068  0.2258  0.2767
16712SOL    HW151749   5.701   4.495   2.404  0.5287  0.2121  0.1924
16712SOL    HW251750   5.694   4.365   2.326 -1.7466  0.1932  0.3633
16713SOL     OW51751   8.764   5.556   7.674 -0.1099 -0.4799 -0.2887
16713SOL    HW151752   8.811   5.506   7.607  0.7993  0.6620 -0.5338
16713SOL    HW251753   8.830   5.614   7.711 -0.9934  0.0834  0.4365
16714SOL     OW51754   6.020   7.051   1.404  0.0940 -0.4649 -0.0310
16714SOL    HW151755   6.041   7.123   1.344  1.2332 -0.7079  0.0562
16714SOL    HW251756   5.990   7.095   1.484 -0.0249 -0.1078 -0.2696
16715SOL     OW51757   5.252   4.439   3.257 -0.3846  0.2167  0.0714
16715SOL    HW151758   5.167   4.465   3.223  0.8666  1.7826 -2.0594
16715SOL    HW251759   5.295   4.521   3.280  0.1421 -0.6128  2.3473
16716SOL     OW51760   1.138   4.067   4.040 -0.1089  1.1306 -0.3051
16716SOL    HW151761   1.129   4.040   4.131 -0.8774  0.5139 -0.5519
16716SOL    HW251762   1.165   4.159   4.045 -0.9766  1.3582  0.5515
16717SOL     OW51763   3.238   4.751   0.675  0.1439 -0.6695 -0.5511
16717SOL    HW151764   3.324   4.782   0.703 -0.5091  0.4163  0.3719
16717SOL    HW251765   3.231   4.663   0.711  0.2514 -0.1648  0.7620
16718SOL     OW51766   9.078   2.761   0.771 -0.5042 -0.1607  0.8499
16718SOL    HW151767   9.157   2.809   0.749 -1.1123 -0.0489 -1.3382
16718SOL    HW251768   9.017   2.828   0.803 -0.9212  0.4228 -1.0028
16719SOL     OW51769   5.968   2.948   2.917  0.1528 -0.5145 -0.2999
16719SOL    HW151770   5.927   3.034   2.918  2.4586  0.7757 -3.0031
16719SOL    HW251771   6.001   2.936   3.006 -0.0179  1.5321  0.0806
16720SOL     OW51772   2.103   6.261   4.025 -0.1319 -0.2278  0.1081
16720SOL    HW151773   2.090   6.309   4.107 -1.9361  2.1678 -1.4457
16720SOL    HW251774   2.177   6.305   3.983 -1.9704  1.5570 -1.4542
16721SOL     OW51775   8.967   0.280   8.287  0.1029  0.4647 -0.2270
16721SOL    HW151776   9.014   0.198   8.276 -1.4933 -0.5478  0.1257
16721SOL    HW251777   8.968   0.297   8.381 -1.3217 -0.2743 -0.0548
16722SOL     OW51778   9.414   1.504   3.380 -0.1000 -0.0336  0.1284
16722SOL    HW151779   9.488   1.510   3.441 -0.7782  0.7016  0.9067
16722SOL    HW251780   9.397   1.410   3.373  0.4659 -0.1698  0.4924
16723SOL     OW51781   9.310   4.225   1.197  0.0388  0.3467 -0.2070
16723SOL    HW151782   9.246   4.243   1.266  0.3772  0.5670  0.0580
16723SOL    HW251783   9.394   4.247   1.237  0.3476 -0.6107 -0.3153
16724SOL     OW51784   7.292   2.730   6.622  0.5638 -0.1424 -0.2351
16724SOL    HW151785   7.225   2.798   6.619  0.5048 -0.2338 -1.1242
16724SOL    HW251786   7.373   2.777   6.642 -0.0041 -0.2333  2.7425
16725SOL     OW51787   5.569   7.127   4.287 -0.1295 -0.1289  0.2198
16725SOL    HW151788   5.592   7.208   4.242  0.6273 -0.2720  0.3387
16725SOL    HW251789   5.652   7.092   4.319 -0.1803 -1.8719 -1.3422
16726SOL     OW51790   3.356   3.548   3.885  0.6874 -0.4772 -0.0420
16726SOL    HW151791   3.409   3.474   3.857  1.4634  0.2951 -0.7051
16726SOL    HW251792   3.419   3.611   3.920  0.1773  0.2870 -0.4561
16727SOL     OW51793   9.506   8.522   7.966  0.0935  0.1993  0.0218
16727SOL    HW151794   9.436   8.584   7.986  1.5172  2.0339 -0.3722
16727SOL    HW251795   9.533   8.487   8.051  0.1433  1.1288  0.3977
16728SOL     OW51796   5.552   3.472   3.130  0.3522  0.1310  0.6031
16728SOL    HW151797   5.524   3.427   3.210  1.9534 -0.9065  0.6384
16728SOL    HW251798   5.473   3.478   3.076 -0.2590 -1.2632  1.2980
16729SOL     OW51799   2.243   2.580   3.927 -0.3930 -0.6115  0.2554
16729SOL    HW151800   2.246   2.632   4.007 -0.7854 -0.7646  0.3755
16729SOL    HW251801   2.208   2.495   3.955 -0.4585 -0.6916 -0.0622
16730SOL     OW51802   3.984   1.235   6.175  0.5172 -0.3468  0.9264
16730SOL    HW151803   3.915   1.236   6.109  1.8889  1.1755 -0.5824
16730SOL    HW251804   3.938   1.228   6.258 -1.3935 -0.1093 -0.0685
16731SOL     OW51805   6.505   4.654   1.526  0.2524 -0.8267 -0.4831
16731SOL    HW151806   6.517   4.662   1.431 -2.7328  0.2971 -0.8559
16731SOL    HW251807   6.538   4.737   1.561 -2.1737  0.4440 -1.0284
16732SOL     OW51808   5.175   3.302   7.688 -0.7789 -0.3210  0.3477
16732SOL    HW151809   5.167   3.298   7.783  0.5226 -1.2697  0.4573
16732SOL    HW251810   5.269   3.312   7.673 -0.9552 -0.3380 -0.8415
16733SOL     OW51811   5.181   4.914   0.464  0.2081 -0.1783  0.0203
16733SOL    HW151812   5.160   4.836   0.413  0.3610  0.0964 -0.4644
16733SOL    HW251813   5.193   4.882   0.553  0.7458 -0.7748 -0.2624
16734SOL     OW51814   6.119   6.480   2.557  0.1700  0.2319  0.0850
16734SOL    HW151815   6.095   6.387   2.555  2.3402 -0.4207 -2.8364
16734SOL    HW251816   6.213   6.480   2.576  0.2472  1.7992 -0.1739
16735SOL     OW51817   1.578   7.769   5.193  0.6894 -0.0075  1.1392
16735SOL    HW151818   1.544   7.685   5.223 -2.0666  0.9643  1.0298
16735SOL    HW251819   1.605   7.753   5.103  1.1012 -0.9745  1.4210
16736SOL     OW51820   1.126   6.180   3.174 -0.3120 -0.0805  0.4200
16736SOL    HW151821   1.090   6.269   3.169 -0.6395 -0.2151  0.3547
16736SOL    HW251822   1.076   6.131   3.108 -1.5051 -0.7824  1.7999
16737SOL     OW51823   1.007   9.451   2.390  0.8810  0.0338 -0.2146
16737SOL    HW151824   1.035   9.372   2.435 -1.1402 -0.0492  1.0516
16737SOL    HW251825   1.006   9.427   2.298 -0.1137 -1.6197  0.1742
16738SOL     OW51826   8.511   1.871   7.648 -0.3927 -0.6530 -0.3541
16738SOL    HW151827   8.568   1.795   7.655 -0.5874 -0.6508  2.1666
16738SOL    HW251828   8.427   1.836   7.619 -1.2215 -1.9008  3.1422
16739SOL     OW51829   0.141   6.157   7.213 -0.1516 -0.1180  0.0537
16739SOL    HW151830   0.142   6.211   7.292  0.8896  0.8372 -0.5865
16739SOL    HW251831   0.156   6.068   7.245 -0.0668  0.2128  0.9651
16740SOL     OW51832   5.514   8.432   9.173  0.4871  0.3108 -0.2058
16740SOL    HW151833   5.533   8.348   9.215  0.4662  0.1156 -0.5812
16740SOL    HW251834   5.600   8.470   9.157  0.4937  0.4246  0.0831
16741SOL     OW51835   3.779   6.565   3.187  0.0661  0.0474  0.3583
16741SOL    HW151836   3.853   6.539   3.132 -0.5279  0.4263 -0.6539
16741SOL    HW251837   3.819   6.610   3.261  0.8441  0.4957 -0.3190
16742SOL     OW51838   4.648   9.586   6.075 -0.8294  0.4330 -0.0134
16742SOL    HW151839   4.598   9.523   6.126  1.8798 -0.5491  1.6355
16742SOL    HW251840   4.701   9.532   6.016  0.7831  1.1790  0.7063
16743SOL     OW51841   8.186   7.963   9.707 -0.0399 -0.0812 -0.2827
16743SOL    HW151842   8.102   7.929   9.738 -0.4296  0.8895 -0.2567
16743SOL    HW251843   8.169   8.055   9.686  0.5644 -0.3307 -2.0383
16744SOL     OW51844   2.761   6.722   0.458  0.1641  0.0500 -0.5733
16744SOL    HW151845   2.822   6.648   0.451 -0.2281 -0.1518 -2.2612
16744SOL    HW251846   2.816   6.799   0.443  0.9018  0.3335  2.8091
16745SOL     OW51847   1.180   0.571   4.194  0.0189  1.6447  0.5586
16745SOL    HW151848   1.163   0.581   4.100 -1.0191  1.4107  0.7070
16745SOL    HW251849   1.100   0.530   4.228  1.5618 -1.2282  1.0211
16746SOL     OW51850   4.382   8.825   4.102  0.3537  0.2002  0.1486
16746SOL    HW151851   4.363   8.862   4.188  1.1620 -0.6466  0.7103
16746SOL    HW251852   4.296   8.819   4.059 -0.0227  0.8928  0.7818
16747SOL     OW51853   1.818   2.070   0.443 -0.3894 -0.2152 -0.1881
16747SOL    HW151854   1.782   2.010   0.377 -1.0414 -1.2977  1.1109
16747SOL    HW251855   1.800   2.027   0.527  3.5273 -0.6437  0.6210
16748SOL     OW51856   3.640   8.066   0.846  0.4507  0.2599 -0.2701
16748SOL    HW151857   3.733   8.053   0.831  0.7247 -0.4759  1.7587
16748SOL    HW251858   3.606   7.978   0.863 -0.5372  0.5694 -0.5355
16749SOL     OW51859   5.238   4.896   8.281 -0.0865  0.2461 -0.4559
16749SOL    HW151860   5.301   4.958   8.244  1.1177  0.0367  1.1390
16749SOL    HW251861   5.291   4.821   8.308 -1.1661 -0.3793 -0.0012
16750SOL     OW51862   6.306   1.074   6.333  0.1144  0.1694  0.2497
16750SOL    HW151863   6.305   0.980   6.315 -1.1296  0.4372 -1.2606
16750SOL    HW251864   6.261   1.083   6.417 -0.0554 -0.5651  0.2403
16751SOL     OW51865   5.495   5.664   5.243  0.0679 -0.7955 -0.9647
16751SOL    HW151866   5.521   5.618   5.163 -1.2210 -0.3473 -1.6730
16751SOL    HW251867   5.400   5.654   5.247 -0.0236  0.1934 -0.1242
16752SOL     OW51868   1.883   6.338   0.351  0.4890 -0.3435 -0.3224
16752SOL    HW151869   1.911   6.273   0.415 -3.0432 -0.9199  0.8422
16752SOL    HW251870   1.823   6.291   0.293 -2.7972  1.8157  0.9999
16753SOL     OW51871   3.669   1.085   5.048  0.5858 -0.4723 -0.1123
16753SOL    HW151872   3.604   1.130   5.102  2.0145  1.0869  0.3760
16753SOL    HW251873   3.677   0.998   5.088  1.1139  0.4133  1.7803
16754SOL     OW51874   6.927   3.828   6.720 -0.1353  0.2298 -0.6409
16754SOL    HW151875   6.972   3.862   6.798  0.7178  1.0844 -1.4816
16754SOL    HW251876   6.836   3.817   6.748  0.2084  0.2792  0.5511
16755SOL     OW51877   6.273   6.638   7.486  0.6362  0.3000 -0.5185
16755SOL    HW151878   6.256   6.725   7.450 -0.2479 -0.1266 -1.1811
16755SOL    HW251879   6.349   6.649   7.543  0.2827  1.5843 -0.2766
16756SOL     OW51880   8.741   0.278   4.864 -0.1044 -0.5480  1.0735
16756SOL    HW151881   8.755   0.290   4.770 -0.5704 -1.0452  0.9349
16756SOL    HW251882   8.700   0.192   4.871  1.4414 -1.2542  1.8752
16757SOL     OW51883   8.079   8.190   1.913 -0.1497  0.3748 -0.0334
16757SOL    HW151884   8.162   8.166   1.954 -0.2302 -0.2741 -0.2381
16757SOL    HW251885   8.070   8.283   1.930 -0.2879  0.0829  1.6333
16758SOL     OW51886   4.504   6.788   5.312  0.0203  0.7790 -0.0196
16758SOL    HW151887   4.550   6.857   5.361 -1.2815  1.5440  0.1675
16758SOL    HW251888   4.569   6.757   5.249  0.5073  2.5128 -0.4288
16759SOL     OW51889   7.543   6.649   5.546  0.1649 -0.4020 -0.3399
16759SOL    HW151890   7.515   6.727   5.498  2.7723  1.0794  0.3655
16759SOL    HW251891   7.475   6.635   5.612 -0.4302  1.2047 -0.5723
16760SOL     OW51892   8.009   6.476   5.539 -0.0889  0.7327 -0.1552
16760SOL    HW151893   8.000   6.399   5.482 -1.3295  0.8475 -0.1544
16760SOL    HW251894   7.966   6.450   5.621  2.0603  0.4091  0.9271
16761SOL     OW51895   0.889   4.280   5.335  0.0942 -0.8211  0.2916
16761SOL    HW151896   0.887   4.328   5.252  1.1925 -1.0791  0.1020
16761SOL    HW251897   0.816   4.316   5.385 -0.1937 -0.2147 -0.5420
16762SOL     OW51898   5.819   4.518   4.404  0.4932 -0.1232 -0.2298
16762SOL    HW151899   5.912   4.533   4.416  1.2946 -3.7625 -0.7787
16762SOL    HW251900   5.794   4.577   4.332  2.8414 -0.4211 -1.3659
16763SOL     OW51901   5.482   3.693   6.025 -0.4462 -0.0480  0.0979
16763SOL    HW151902   5.439   3.659   6.103 -3.3251  1.1478 -0.8498
16763SOL    HW251903   5.480   3.621   5.963 -0.8033 -0.0807  0.1487
16764SOL     OW51904   6.016   0.974   2.113  0.1531 -0.1350 -0.5758
16764SOL    HW151905   6.054   0.894   2.149 -0.6661  0.4313  1.6927
16764SOL    HW251906   6.089   1.017   2.069  2.0870  0.5431  2.9536
16765SOL     OW51907   8.462   1.028   9.596  0.5618 -0.6107  0.2461
16765SOL    HW151908   8.493   1.075   9.518 -1.3751  0.2395 -0.0627
16765SOL    HW251909   8.461   0.936   9.570  2.2678 -0.6309  0.1190
16766SOL     OW51910   8.952   7.954   2.584 -0.4492  0.2154  0.1123
16766SOL    HW151911   8.977   7.966   2.676  1.3606  1.6934 -0.4984
16766SOL    HW251912   9.021   7.899   2.548 -1.1717 -0.3832 -0.3621
16767SOL     OW51913   1.734   8.952   6.966  0.1743 -0.1615 -0.5434
16767SOL    HW151914   1.651   8.906   6.969  0.5966 -0.9152  0.0025
16767SOL    HW251915   1.799   8.883   6.947  0.9136  0.0605  1.0181
16768SOL     OW51916   4.936   7.352   8.979 -0.0528  0.7560  0.0720
16768SOL    HW151917   4.954   7.340   9.072  2.2980  1.2055 -0.2645
16768SOL    HW251918   4.999   7.418   8.950  0.8541 -0.9731 -2.2695
16769SOL     OW51919   3.317   4.530   4.219  0.0049  0.6630  0.5004
16769SOL    HW151920   3.223   4.546   4.213  0.5160  3.7760 -1.0850
16769SOL    HW251921   3.336   4.531   4.313 -1.4590  0.3250  0.8206
16770SOL     OW51922   0.873   8.626   3.176 -0.4978  0.1935 -0.1153
16770SOL    HW151923   0.795   8.679   3.159  0.2878  2.5572  2.7939
16770SOL    HW251924   0.936   8.655   3.110 -0.6804  1.6143  0.3035
16771SOL     OW51925   4.982   0.733   9.111  0.1254 -0.2751  0.1936
16771SOL    HW151926   5.061   0.713   9.161  0.7332 -0.6024 -0.8566
16771SOL    HW251927   4.942   0.806   9.158 -0.0834 -1.4523  1.9169
16772SOL     OW51928   8.474   5.286   7.611 -0.2360 -0.3676 -0.0443
16772SOL    HW151929   8.452   5.376   7.585  1.4527  0.5960  1.6359
16772SOL    HW251930   8.525   5.296   7.691 -1.4695 -2.9453  1.1720
16773SOL     OW51931   6.840   7.122   0.934  0.4982  0.1156  0.4286
16773SOL    HW151932   6.765   7.180   0.939  1.1460  1.0570 -0.4083
16773SOL    HW251933   6.862   7.102   1.025 -0.8363 -0.3032  0.6815
16774SOL     OW51934   7.275   5.637   3.840 -0.3583  0.5565  0.1794
16774SOL    HW151935   7.294   5.672   3.753 -3.5271  0.1878 -0.7800
16774SOL    HW251936   7.350   5.581   3.860 -0.1078 -0.3725 -2.8897
16775SOL     OW51937   5.641   2.512   5.260  0.3288  0.0320 -0.3109
16775SOL    HW151938   5.566   2.571   5.251  1.4439  1.6191  0.3019
16775SOL    HW251939   5.664   2.488   5.170 -0.5488  0.0037 -0.5319
16776SOL     OW51940   9.580   9.820   5.813 -0.8990  0.1329 -0.7218
16776SOL    HW151941   9.541   9.761   5.748 -0.8304 -0.6844 -0.0459
16776SOL    HW251942   9.611   9.761   5.882  1.5355  0.7426 -1.2111
16777SOL     OW51943   4.516   1.894   9.525 -0.0163 -0.0705 -0.0904
16777SOL    HW151944   4.562   1.843   9.592  0.2138 -0.9243 -0.8638
16777SOL    HW251945   4.575   1.891   9.449 -1.3048 -1.1677 -1.1009
16778SOL     OW51946   9.407   5.243   3.402 -0.4042  0.6155 -0.2735
16778SOL    HW151947   9.481   5.231   3.342  0.2857  1.1359  0.4435
16778SOL    HW251948   9.329   5.230   3.348  0.2147 -0.2346 -0.9800
16779SOL     OW51949   8.098   0.886   5.634 -0.0211 -0.7638 -0.1632
16779SOL    HW151950   8.132   0.797   5.626 -0.7710 -0.9970 -0.8743
16779SOL    HW251951   8.121   0.912   5.723 -0.3748 -1.9199  0.2952
16780SOL     OW51952   4.543   9.643   7.384 -0.0388  0.1404 -0.4207
16780SOL    HW151953   4.584   9.608   7.462  0.4313 -2.2371 -1.6345
16780SOL    HW251954   4.615   9.672   7.329 -0.2311 -0.2001 -0.8575
16781SOL     OW51955   9.258   1.007   3.302 -0.2436 -0.5879 -0.3258
16781SOL    HW151956   9.303   0.925   3.324  0.3391 -0.3466 -0.6248
16781SOL    HW251957   9.197   0.982   3.232 -1.3955 -1.1494  0.8172
16782SOL     OW51958   7.241   8.121   5.105 -0.1349 -0.5370  0.1761
16782SOL    HW151959   7.248   8.079   5.190 -0.5806  0.4442  0.7230
16782SOL    HW251960   7.168   8.076   5.062 -0.5353 -0.4047  0.7049
16783SOL     OW51961   6.744   2.037   1.255  0.1223  0.9633  0.1003
16783SOL    HW151962   6.698   1.955   1.235  2.3471  0.1198 -2.0532
16783SOL    HW251963   6.697   2.073   1.330 -2.5047 -0.9883 -0.4591
16784SOL     OW51964   2.513   4.155   9.617  0.4021  0.2991  0.1980
16784SOL    HW151965   2.489   4.153   9.524  0.2806 -0.0099  0.2373
16784SOL    HW251966   2.574   4.082   9.628  2.6133  1.9441 -0.2438
16785SOL     OW51967   4.961   7.638   8.907 -0.6760 -0.4912  0.1132
16785SOL    HW151968   4.930   7.695   8.977 -0.0200  0.5162 -0.3881
16785SOL    HW251969   4.885   7.625   8.850 -1.0401 -0.7959  0.6618
16786SOL     OW51970   0.758   9.369   7.817 -0.1678 -0.5656  0.2924
16786SOL    HW151971   0.734   9.447   7.868  1.7509 -1.9530  3.5632
16786SOL    HW251972   0.836   9.396   7.768 -1.5179  0.5134 -1.3915
16787SOL     OW51973   6.040   2.863   4.032  0.4929  0.0778  0.0605
16787SOL    HW151974   5.959   2.855   3.982 -0.4121 -0.0871  1.4838
16787SOL    HW251975   6.018   2.831   4.119  1.6734  1.4086  0.9120
16788SOL     OW51976   1.734   1.102   4.210  0.1349 -0.1193  0.1178
16788SOL    HW151977   1.783   1.135   4.134  0.3429 -2.2276 -0.7480
16788SOL    HW251978   1.655   1.155   4.213  0.1823  0.0895 -1.5324
16789SOL     OW51979   6.180   2.001   8.728  0.2981 -0.3255 -0.1176
16789SOL    HW151980   6.205   2.036   8.642 -0.4982 -1.5596 -0.8860
16789SOL    HW251981   6.206   1.909   8.724 -2.5598 -1.2192 -0.2773
16790SOL     OW51982   4.629   2.467   5.689 -0.2406  0.1221  0.6450
16790SOL    HW151983   4.561   2.426   5.636 -1.5567  0.8552  1.7091
16790SOL    HW251984   4.626   2.560   5.666  0.1395  0.2254  0.9846
16791SOL     OW51985   9.351   6.283   8.572  0.3782  0.0987 -0.3548
16791SOL    HW151986   9.302   6.354   8.613 -0.1311  0.2705 -1.2424
16791SOL    HW251987   9.306   6.268   8.489  1.0102 -0.6703 -0.5626
16792SOL     OW51988   7.534   3.863   3.626 -0.3155  0.7576  0.4878
16792SOL    HW151989   7.572   3.951   3.622 -1.4930  1.5450  3.6433
16792SOL    HW251990   7.590   3.814   3.686 -1.9837  0.7695  2.1650
16793SOL     OW51991   1.732   1.817   3.462 -0.3500 -0.0170 -0.1427
16793SOL    HW151992   1.646   1.801   3.499 -0.6272  2.0563  0.2592
16793SOL    HW251993   1.715   1.837   3.370 -0.3224  0.4066 -0.0601
16794SOL     OW51994   4.324   4.668   6.715 -0.8280 -0.0710  0.3564
16794SOL    HW151995   4.366   4.669   6.629  0.9380 -1.1195  1.1454
16794SOL    HW251996   4.397   4.661   6.777 -2.1306 -1.1112  1.8568
16795SOL     OW51997   6.185   7.218   5.026  0.4974 -0.2078 -0.1878
16795SOL    HW151998   6.218   7.298   5.066 -1.6094  0.2759  0.7058
16795SOL    HW251999   6.118   7.247   4.965 -0.7283 -1.2673  0.5891
16796SOL     OW52000   4.419   2.348   9.616  0.1100 -0.4122 -0.8373
16796SOL    HW152001   4.325   2.343   9.601  0.0580  0.6263 -0.9246
16796SOL    HW252002   4.431   2.321   9.707 -0.3968  0.4889 -0.4921
16797SOL     OW52003   9.012   0.365   2.595  0.4905  0.4024 -0.4012
16797SOL    HW152004   8.947   0.433   2.576  0.6455  0.5560 -0.3799
16797SOL    HW252005   8.980   0.288   2.547  0.5601  0.6188 -0.8006
16798SOL     OW52006   6.599   5.574   3.643  0.0743  0.0699  0.2149
16798SOL    HW152007   6.510   5.607   3.654  0.0596  0.2813 -0.4952
16798SOL    HW252008   6.589   5.490   3.599  0.3044  1.0550 -1.8269
16799SOL     OW52009   5.542   5.243   4.396  0.2815 -0.2955  0.1569
16799SOL    HW152010   5.552   5.168   4.337  2.5865 -0.9675  1.3131
16799SOL    HW252011   5.524   5.204   4.482  0.6465  0.5125  0.6132
16800SOL     OW52012   8.796   7.179   4.957 -0.4264  0.3378  0.4260
16800SOL    HW152013   8.884   7.142   4.958 -0.8888 -0.8990 -1.2665
16800SOL    HW252014   8.750   7.132   4.888 -1.5232  3.0289 -0.8389
16801SOL     OW52015   4.786   2.993   6.462  0.1645  0.1572  0.1981
16801SOL    HW152016   4.771   3.047   6.540  2.5336  1.8726 -0.4109
16801SOL    HW252017   4.798   2.905   6.497  1.4214  0.9133  1.8577
16802SOL     OW52018   5.645   6.401   7.638  0.3696  0.1011 -0.3188
16802SOL    HW152019   5.553   6.413   7.613  0.7925  1.4242 -1.3343
16802SOL    HW252020   5.641   6.353   7.720 -1.2307  0.0508 -0.3900
16803SOL     OW52021   4.500   8.122   1.606  0.0424 -0.5798  0.0295
16803SOL    HW152022   4.558   8.112   1.682  0.7447 -1.0719 -0.5571
16803SOL    HW252023   4.412   8.113   1.643  0.2510  1.3963  1.1188
16804SOL     OW52024   7.953   1.843   2.679  0.1692 -0.1152  0.3745
16804SOL    HW152025   7.949   1.865   2.586 -1.7497  1.1651  0.7083
16804SOL    HW252026   8.013   1.908   2.715  1.6532 -1.1866 -0.0706
16805SOL     OW52027   1.773   2.450   7.480 -1.0075 -0.2366  0.1897
16805SOL    HW152028   1.856   2.495   7.496 -1.0140  0.4980 -1.6438
16805SOL    HW252029   1.777   2.422   7.388 -2.6871 -0.3853  0.1197
16806SOL     OW52030   0.738   5.549   5.070 -0.1089  0.1855  0.3001
16806SOL    HW152031   0.833   5.547   5.078  0.0181 -0.7606 -1.1729
16806SOL    HW252032   0.719   5.498   4.992 -1.7264  1.7514 -0.4072
16807SOL     OW52033   0.415   2.800   4.573 -0.1102  0.6126  0.0565
16807SOL    HW152034   0.362   2.842   4.640 -0.3002  1.5840 -0.6705
16807SOL    HW252035   0.361   2.729   4.539  0.6872 -1.1092  2.1558
16808SOL     OW52036   9.652   7.586   5.001 -0.1052  0.9204 -0.1106
16808SOL    HW152037   9.682   7.529   4.930  0.0300 -0.8610  1.3087
16808SOL    HW252038   9.576   7.632   4.965 -2.9341 -3.2609 -0.1340
16809SOL     OW52039   0.569   7.144   9.737 -0.3369  0.3149 -0.2570
16809SOL    HW152040   0.538   7.216   9.791  0.9234  0.0306  0.8877
16809SOL    HW252041   0.635   7.183   9.680 -0.7015  0.3472 -0.6623
16810SOL     OW52042   7.083   4.576   6.546 -0.1017  0.2926  0.0462
16810SOL    HW152043   7.114   4.598   6.634 -1.3250  1.0876  0.2891
16810SOL    HW252044   7.073   4.660   6.502 -2.0508  0.0961  0.0373
16811SOL     OW52045   4.749   0.935   2.382 -0.2572 -0.5132  0.8292
16811SOL    HW152046   4.726   0.944   2.290  0.9460 -0.5421  0.5009
16811SOL    HW252047   4.799   0.853   2.387 -2.0056 -1.5984  1.8871
16812SOL     OW52048   3.088   7.942   0.828 -0.2172 -0.4290  0.1807
16812SOL    HW152049   3.149   7.910   0.762 -1.4273  0.8408 -1.6434
16812SOL    HW252050   3.101   8.037   0.829  0.4438 -0.4822  2.5254
16813SOL     OW52051   4.200   6.157   7.270 -0.0661 -0.2787 -0.6355
16813SOL    HW152052   4.127   6.215   7.292  0.0826 -0.3489  0.0514
16813SOL    HW252053   4.173   6.115   7.188  0.4920  1.8916 -1.9859
16814SOL     OW52054   6.064   0.303   0.639 -0.5727 -0.3516 -0.3322
16814SOL    HW152055   6.083   0.305   0.733 -1.1596  1.4458 -0.2147
16814SOL    HW252056   6.144   0.268   0.600 -0.4669 -1.5274  0.8518
16815SOL     OW52057   9.386   0.424   3.468  0.1422  0.9665  0.5706
16815SOL    HW152058   9.397   0.354   3.532  2.8130 -0.5182 -1.3176
16815SOL    HW252059   9.298   0.411   3.433  1.0258 -2.4780 -0.7389
16816SOL     OW52060   5.883   5.746   8.776  0.2044 -0.0067 -0.1201
16816SOL    HW152061   5.963   5.729   8.726 -0.5136 -0.1534 -1.2451
16816SOL    HW252062   5.913   5.797   8.851  1.0501  2.0553 -1.7642
16817SOL     OW52063   3.688   8.488   1.454 -0.4154 -0.5020 -0.5141
16817SOL    HW152064   3.697   8.580   1.479  1.7136 -1.1759  1.5841
16817SOL    HW252065   3.755   8.475   1.387 -1.7227 -0.2559 -1.9427
16818SOL     OW52066   5.982   0.968   6.387  0.4302 -0.0693  0.7267
16818SOL    HW152067   5.978   1.010   6.301  0.2258  1.1463  1.3103
16818SOL    HW252068   6.053   1.013   6.432 -0.4828  0.4021  1.7379
16819SOL     OW52069   0.960   3.356   2.629 -0.2304  0.2406  0.0763
16819SOL    HW152070   0.951   3.422   2.698 -0.5138  0.4269 -0.1352
16819SOL    HW252071   0.993   3.405   2.554 -0.6299  0.1789 -0.1401
16820SOL     OW52072   1.727   6.542   2.525 -0.7329 -0.6377  0.5777
16820SOL    HW152073   1.709   6.615   2.466 -1.3117 -0.1549  1.3378
16820SOL    HW252074   1.668   6.472   2.494 -0.7444 -0.5202  0.3342
16821SOL     OW52075   3.116   6.513   5.649 -0.0574 -0.1382 -0.0820
16821SOL    HW152076   3.038   6.567   5.655 -0.2032 -0.5168  2.0463
16821SOL    HW252077   3.122   6.490   5.556 -1.4662  1.3221 -0.5801
16822SOL     OW52078   5.628   4.519   8.223 -0.4960  0.3264  0.0764
16822SOL    HW152079   5.604   4.463   8.297 -0.9588  1.7314  1.0318
16822SOL    HW252080   5.702   4.571   8.255 -1.4457  1.7956  0.0317
16823SOL     OW52081   0.602   2.619   8.838 -0.2963  0.2340 -0.5073
16823SOL    HW152082   0.552   2.701   8.837 -0.0429  0.4559  1.2808
16823SOL    HW252083   0.535   2.551   8.842 -0.5479  0.2371 -3.2443
16824SOL     OW52084   6.901   0.767   3.627  0.5208 -0.2865  0.1441
16824SOL    HW152085   6.979   0.744   3.578  0.3208  0.9971 -0.8421
16824SOL    HW252086   6.840   0.802   3.561 -1.3505 -2.2683  0.6903
16825SOL     OW52087   7.461   3.229   8.816 -0.4380 -0.2763  0.1496
16825SOL    HW152088   7.446   3.235   8.721  1.3527  1.3004 -0.1069
16825SOL    HW252089   7.399   3.291   8.854  0.7290  1.2617 -0.3083
16826SOL     OW52090   4.579   1.579   8.231  0.6696  0.2269  0.0342
16826SOL    HW152091   4.640   1.648   8.206  1.1210 -0.2196 -0.1169
16826SOL    HW252092   4.526   1.618   8.301  0.7960  0.7822 -0.1750
16827SOL     OW52093   7.261   0.137   2.906 -0.4294 -0.5690 -0.1062
16827SOL    HW152094   7.181   0.126   2.855  0.3080 -1.7832 -1.0320
16827SOL    HW252095   7.301   0.050   2.908  0.8178 -0.0104  0.4337
16828SOL     OW52096   6.596   7.681   7.655  0.0292  0.3439  0.6480
16828SOL    HW152097   6.520   7.659   7.601  0.8294  2.4586 -1.4915
16828SOL    HW252098   6.671   7.671   7.596  1.5080 -1.5826  2.6603
16829SOL     OW52099   8.262   5.170   1.576  0.6463  0.0195 -0.0667
16829SOL    HW152100   8.178   5.207   1.549  0.8809  0.2681 -0.4677
16829SOL    HW252101   8.310   5.159   1.494  0.4878 -1.4145  0.0089
16830SOL     OW52102   3.947   9.423   9.128  0.2218 -0.1896  0.3441
16830SOL    HW152103   3.935   9.383   9.214 -1.7505 -1.3190 -0.3953
16830SOL    HW252104   3.955   9.349   9.068 -3.2658  0.3393 -1.0269
16831SOL     OW52105   3.290   8.191   1.457 -0.6730 -0.7324  0.6652
16831SOL    HW152106   3.341   8.132   1.402 -0.1847  0.5085 -0.2559
16831SOL    HW252107   3.264   8.263   1.399  0.5197  1.0351  2.1923
16832SOL     OW52108   4.467   7.544   3.475  0.2403 -0.6300  0.4171
16832SOL    HW152109   4.520   7.587   3.408 -0.3008 -0.0255  0.3702
16832SOL    HW252110   4.377   7.572   3.456 -0.0514 -1.3460  0.7186
16833SOL     OW52111   9.450   2.435   8.554  0.4770 -0.3828 -0.0642
16833SOL    HW152112   9.519   2.372   8.530 -1.3615 -2.3730 -0.4362
16833SOL    HW252113   9.462   2.449   8.648  3.0209  1.5141 -0.5445
16834SOL     OW52114   3.414   2.749   7.670  0.2518 -0.1356 -0.0871
16834SOL    HW152115   3.381   2.768   7.582  0.5612 -1.8933 -0.6225
16834SOL    HW252116   3.339   2.710   7.715 -0.5794  2.7088  1.2147
16835SOL     OW52117   5.086   2.285   4.010  0.0449  0.1428 -0.6987
16835SOL    HW152118   5.060   2.340   4.084 -2.3126 -2.2859  0.4520
16835SOL    HW252119   5.157   2.231   4.044 -1.3447 -1.2946  0.0333
16836SOL     OW52120   9.288   8.332   8.161 -0.1914 -0.1691 -0.4970
16836SOL    HW152121   9.292   8.248   8.115  1.5179 -1.5453  1.8960
16836SOL    HW252122   9.215   8.322   8.223 -0.1583  0.2213 -0.3931
16837SOL     OW52123   7.488   9.741   8.687  0.3291  0.2021  0.2901
16837SOL    HW152124   7.443   9.779   8.762 -1.7142  2.3672 -1.8372
16837SOL    HW252125   7.529   9.816   8.643  0.7591 -0.8485 -1.1932
16838SOL     OW52126   4.642   1.979   1.855 -0.5646 -0.3784  0.1554
16838SOL    HW152127   4.605   1.959   1.769  0.5285 -1.2068 -0.1462
16838SOL    HW252128   4.730   1.941   1.853 -0.3177  0.0590  1.4512
16839SOL     OW52129   8.079   3.422   4.850 -0.4416 -0.0507 -0.1620
16839SOL    HW152130   8.046   3.501   4.808 -2.8408 -0.1620  1.3300
16839SOL    HW252131   8.112   3.369   4.778 -0.5096  1.5015 -1.4006
16840SOL     OW52132   8.774   2.772   6.639  0.4168  0.3856 -0.2494
16840SOL    HW152133   8.809   2.686   6.659 -0.8577  0.0097  0.4783
16840SOL    HW252134   8.772   2.818   6.723  0.6366  0.9512 -0.5499
16841SOL     OW52135   1.610   9.402   4.778 -0.4904  0.1398 -0.2238
16841SOL    HW152136   1.601   9.326   4.720 -0.1927 -0.3318  0.3307
16841SOL    HW252137   1.584   9.369   4.864 -0.3182  0.6592  0.0304
16842SOL     OW52138   5.084   5.408   5.896 -0.4901 -0.6591 -0.1196
16842SOL    HW152139   5.168   5.443   5.926 -0.3528  0.1989 -1.4166
16842SOL    HW252140   5.104   5.319   5.866 -0.1656 -0.6662  0.1086
16843SOL     OW52141   1.309   2.893   2.910 -0.3789  0.1738 -0.6016
16843SOL    HW152142   1.287   2.980   2.877 -0.8806  0.3667  0.2290
16843SOL    HW252143   1.376   2.861   2.849 -1.3480  0.4790 -1.8781
16844SOL     OW52144   8.030   3.088   4.116  0.3240  0.6448  0.4340
16844SOL    HW152145   7.947   3.040   4.107 -0.3428  2.1408 -2.8187
16844SOL    HW252146   8.007   3.166   4.167  0.5504 -0.4739  2.3511
16845SOL     OW52147   3.525   0.136   4.944  0.3488 -0.4806 -0.0580
16845SOL    HW152148   3.614   0.140   4.981  0.1421  0.6792  0.3491
16845SOL    HW252149   3.502   0.043   4.949  1.6276 -0.8437 -0.3997
16846SOL     OW52150   4.335   7.337   0.298  0.5726  0.1530 -0.2613
16846SOL    HW152151   4.351   7.336   0.393 -1.8133 -1.5987  0.2142
16846SOL    HW252152   4.298   7.424   0.281  1.8008  0.7987  0.2226
16847SOL     OW52153   6.458   0.026   6.668  0.4832 -0.4195  0.4155
16847SOL    HW152154   6.516  -0.008   6.736  1.5980 -0.3501 -0.4518
16847SOL    HW252155   6.518   0.066   6.605 -0.3875 -1.6511 -1.2722
16848SOL     OW52156   0.621   2.927   7.760  0.8868 -0.5188  0.2676
16848SOL    HW152157   0.620   2.966   7.673 -0.8156  1.0605  0.9203
16848SOL    HW252158   0.674   2.848   7.751 -0.8056 -1.4711 -2.6664
16849SOL     OW52159   5.910   8.446   0.254 -0.6949 -0.3038 -0.4276
16849SOL    HW152160   5.817   8.469   0.261 -0.7232 -0.6684  0.6787
16849SOL    HW252161   5.943   8.499   0.182 -1.5607  0.5076 -0.2480
16850SOL     OW52162   9.757   9.336   7.549 -0.7991 -0.3342  0.0598
16850SOL    HW152163   9.769   9.364   7.459 -0.0228  0.2528  0.3350
16850SOL    HW252164   9.830   9.277   7.566 -1.2883 -0.9274  0.1152
16851SOL     OW52165   6.787   6.361   7.284  0.3328 -0.1990  0.2184
16851SOL    HW152166   6.818   6.339   7.196 -0.9420 -1.1841 -0.0245
16851SOL    HW252167   6.691   6.361   7.276  0.1921 -0.3671  1.6171
16852SOL     OW52168   6.280   4.163   5.628  0.0132  0.4500  0.0031
16852SOL    HW152169   6.247   4.227   5.691  1.7570  0.1748  1.2634
16852SOL    HW252170   6.273   4.079   5.673  0.2541  0.0989 -0.6012
16853SOL     OW52171   7.914   2.763   4.071 -0.4845 -0.4454  0.3430
16853SOL    HW152172   7.975   2.718   4.130 -0.4823  0.0410  0.7188
16853SOL    HW252173   7.840   2.702   4.063  0.9599 -2.0431 -1.8857
16854SOL     OW52174   3.747   5.804   8.358  0.4457 -0.4191 -0.0652
16854SOL    HW152175   3.796   5.753   8.423 -0.7617 -0.5643  0.7641
16854SOL    HW252176   3.761   5.895   8.384  0.3503 -0.4571  0.1228
16855SOL     OW52177   5.127   8.508   2.137  0.2380 -0.8660  0.2816
16855SOL    HW152178   5.133   8.563   2.059  0.2444 -2.5484 -0.9451
16855SOL    HW252179   5.215   8.511   2.176  0.5006 -0.8000 -0.3124
16856SOL     OW52180   8.720   7.178   9.819  0.7080  0.2943 -0.7348
16856SOL    HW152181   8.761   7.236   9.755  0.1560 -0.8138 -2.1553
16856SOL    HW252182   8.649   7.135   9.770 -0.1869 -0.0792  0.8156
16857SOL     OW52183   6.383   7.931   0.834 -0.3138 -0.4895 -0.0962
16857SOL    HW152184   6.456   7.930   0.772 -1.2831 -3.1851 -1.3397
16857SOL    HW252185   6.305   7.931   0.779 -1.3030  1.3532  1.2136
16858SOL     OW52186   1.355   0.024   2.544 -0.0420 -0.1214  0.6216
16858SOL    HW152187   1.402  -0.047   2.587  0.1648 -0.9188 -0.8468
16858SOL    HW252188   1.340  -0.008   2.455 -0.0811  1.6170 -0.0345
16859SOL     OW52189   2.029   5.551   3.858 -0.1219 -0.5285 -0.4845
16859SOL    HW152190   2.089   5.480   3.835  1.7720  1.3627 -1.8115
16859SOL    HW252191   2.077   5.604   3.921 -1.0189  0.1806 -0.3792
16860SOL     OW52192   0.696   6.806   3.115 -0.0734 -0.3199  0.0647
16860SOL    HW152193   0.769   6.861   3.143  1.3287 -2.0842  0.0656
16860SOL    HW252194   0.676   6.836   3.026 -0.3196  1.1180  0.5908
16861SOL     OW52195   6.694   2.760   4.823 -0.5989  0.2182 -0.0418
16861SOL    HW152196   6.728   2.696   4.760  1.7994  0.7037  0.6714
16861SOL    HW252197   6.599   2.759   4.808 -0.3132 -1.0521 -2.3348
16862SOL     OW52198   0.204   9.074   0.784 -0.0762 -0.4415  0.3509
16862SOL    HW152199   0.289   9.033   0.768 -0.1736 -0.2435 -0.6959
16862SOL    HW252200   0.184   9.121   0.704 -1.6694 -1.3260  0.1888
16863SOL     OW52201   6.334   8.756   5.638  0.2995 -0.4061  0.4658
16863SOL    HW152202   6.251   8.801   5.621  0.3376 -0.0480  1.1976
16863SOL    HW252203   6.323   8.669   5.599 -0.5775 -0.5135  0.9214
16864SOL     OW52204   0.512   7.537   0.181 -0.4026  0.2387 -0.0719
16864SOL    HW152205   0.601   7.545   0.146 -0.5790 -2.6884 -1.5421
16864SOL    HW252206   0.493   7.623   0.218  2.9041  1.0747  0.0461
16865SOL     OW52207   5.412   6.255   1.619 -0.1300  0.2339 -0.4379
16865SOL    HW152208   5.401   6.227   1.529  0.8814  2.2190 -1.2438
16865SOL    HW252209   5.484   6.318   1.616 -0.4255  0.7536  1.6656
16866SOL     OW52210   1.002   5.459   4.373  0.1447  0.2992 -0.1780
16866SOL    HW152211   1.072   5.424   4.318  0.7919  1.2329  0.0486
16866SOL    HW252212   1.042   5.469   4.460 -0.6534 -0.4329  0.2952
16867SOL     OW52213   7.828   1.811   4.953  0.1008  0.3903  0.2914
16867SOL    HW152214   7.767   1.848   4.889 -0.8809 -1.6605 -0.0546
16867SOL    HW252215   7.831   1.718   4.932  1.1605 -0.0440  2.1205
16868SOL     OW52216   9.211   7.737   5.777 -0.7510  0.1376 -0.2102
16868SOL    HW152217   9.271   7.668   5.807 -0.6941  0.0312 -0.5734
16868SOL    HW252218   9.254   7.774   5.700 -0.2312  1.3303  0.6198
16869SOL     OW52219   3.955   6.764   8.046 -0.0500  0.6423 -0.0952
16869SOL    HW152220   3.987   6.771   8.136  0.9112  0.8848 -0.4422
16869SOL    HW252221   4.034   6.765   7.993 -0.5603 -0.3486 -0.9039
16870SOL     OW52222   1.892   0.332   0.978 -0.0994  0.2600 -0.1707
16870SOL    HW152223   1.938   0.367   0.902  1.0552 -1.2333 -0.2047
16870SOL    HW252224   1.904   0.398   1.046 -0.9837  1.5204 -1.1985
16871SOL     OW52225   0.403   5.286   5.358 -0.0612  0.1299 -0.1871
16871SOL    HW152226   0.496   5.289   5.378 -0.0616  2.2847 -0.3152
16871SOL    HW252227   0.397   5.232   5.279  1.4024  1.9054 -1.5906
16872SOL     OW52228   7.611   9.830   4.290 -0.3237  0.3775 -0.1602
16872SOL    HW152229   7.667   9.762   4.327  1.1954  1.2471 -0.7781
16872SOL    HW252230   7.576   9.876   4.366  0.9623  0.7218  0.2506
16873SOL     OW52231   4.864   6.202   4.738  0.4380  0.0190 -0.0324
16873SOL    HW152232   4.822   6.218   4.654 -1.7970 -0.5273  0.9108
16873SOL    HW252233   4.940   6.260   4.739  0.9293 -0.4810 -2.6778
16874SOL     OW52234   5.047   3.939   6.171 -0.2156  0.9369 -0.6898
16874SOL    HW152235   4.953   3.920   6.176 -0.0846  0.1110 -1.0876
16874SOL    HW252236   5.085   3.891   6.244 -0.1069  1.3163 -0.4955
16875SOL     OW52237   0.354   9.189   2.405  0.1540 -0.3413  0.3559
16875SOL    HW152238   0.283   9.252   2.392  0.3682 -0.1582  0.0619
16875SOL    HW252239   0.428   9.243   2.435  0.4926 -0.3791 -0.4025
16876SOL     OW52240   5.205   3.322   4.352  0.1619  0.0614 -0.0057
16876SOL    HW152241   5.124   3.279   4.324  0.3568 -1.0069  0.9617
16876SOL    HW252242   5.273   3.282   4.300  0.2936 -0.5181  0.5981
16877SOL     OW52243   0.529   5.073   5.716 -0.1375  0.0456 -0.3108
16877SOL    HW152244   0.564   5.005   5.774  1.3991  1.2737  0.2542
16877SOL    HW252245   0.435   5.057   5.716 -0.0048 -1.0040  1.2008
16878SOL     OW52246   9.348   2.213   5.457 -0.3254 -0.2649 -0.1926
16878SOL    HW152247   9.441   2.228   5.441  0.6376 -3.0002  2.0635
16878SOL    HW252248   9.304   2.261   5.387  2.8391 -0.6884 -2.6994
16879SOL     OW52249   5.244   3.779   9.116 -0.1900 -0.2264 -0.3300
16879SOL    HW152250   5.260   3.717   9.187  0.2207 -0.7488 -0.8694
16879SOL    HW252251   5.170   3.743   9.068  0.5812 -0.7580 -1.1459
16880SOL     OW52252   8.412   1.478   4.899 -1.1591  0.2811  0.5533
16880SOL    HW152253   8.330   1.434   4.921 -1.8391  0.2608 -1.7680
16880SOL    HW252254   8.441   1.436   4.818 -0.5177  2.3856 -0.3804
16881SOL     OW52255   2.730   7.347   0.414 -0.6950 -0.0775 -0.0367
16881SOL    HW152256   2.670   7.274   0.427  0.1556 -0.4675  2.1437
16881SOL    HW252257   2.695   7.394   0.339 -2.5977 -1.3870 -0.0341
16882SOL     OW52258   6.757   4.206   4.079 -0.3009 -0.6642 -0.0450
16882SOL    HW152259   6.848   4.207   4.047 -0.6747 -1.1537 -1.1718
16882SOL    HW252260   6.752   4.128   4.134 -0.3875 -1.4112 -1.0886
16883SOL     OW52261   0.286   6.818   3.658  0.6506  0.1331  0.3569
16883SOL    HW152262   0.270   6.818   3.563  1.2389  1.7271  0.2276
16883SOL    HW252263   0.205   6.782   3.695 -0.4675  1.4637 -0.6500
16884SOL     OW52264   1.270   5.078   3.348 -0.5072  0.3689 -0.4916
16884SOL    HW152265   1.221   5.096   3.428 -2.3605 -0.8854 -1.2695
16884SOL    HW252266   1.307   4.991   3.362  1.9751  1.4499  0.2425
16885SOL     OW52267   5.440   0.094   6.714 -0.4416  0.5913 -0.0105
16885SOL    HW152268   5.523   0.053   6.737  0.5846  1.7178 -1.4756
16885SOL    HW252269   5.443   0.180   6.757 -0.3033  1.0891 -0.9759
16886SOL     OW52270   8.828   4.575   7.354 -0.4577  0.8870  0.0452
16886SOL    HW152271   8.866   4.523   7.425 -0.6919  1.3243  0.4962
16886SOL    HW252272   8.874   4.546   7.275  0.5662  1.1645  0.5268
16887SOL     OW52273   2.889   5.000   4.666  0.0120 -0.0612  0.1687
16887SOL    HW152274   2.978   4.970   4.689 -0.2824 -0.3338  0.9937
16887SOL    HW252275   2.833   4.957   4.730 -0.5827  1.1488  0.4713
16888SOL     OW52276   8.335   3.850   5.980  0.1621 -0.2397  0.5672
16888SOL    HW152277   8.402   3.816   5.921  0.1954 -0.1872  0.5736
16888SOL    HW252278   8.282   3.774   6.005 -0.8259 -0.0213 -0.7646
16889SOL     OW52279   7.861   2.180   3.894 -0.3523  0.1380  0.1446
16889SOL    HW152280   7.953   2.165   3.872 -0.8196 -0.5523 -1.4619
16889SOL    HW252281   7.824   2.223   3.817 -1.4925 -0.0512  0.5690
16890SOL     OW52282   9.583   1.914   7.856 -0.0380 -0.0818 -0.3526
16890SOL    HW152283   9.498   1.932   7.896  0.2334 -0.1285  0.2595
16890SOL    HW252284   9.610   1.830   7.893  0.5200  0.1949 -0.1267
16891SOL     OW52285   7.349   3.105   2.754 -0.1814  0.1843 -0.0969
16891SOL    HW152286   7.287   3.115   2.827 -1.0840 -3.3668 -0.1884
16891SOL    HW252287   7.390   3.191   2.746 -2.6353  1.7489  2.2176
16892SOL     OW52288   9.825   0.337   5.771  0.1976  0.0290 -0.3463
16892SOL    HW152289   9.916   0.362   5.786  0.0451  0.7164 -0.5184
16892SOL    HW252290   9.824   0.302   5.682  0.0546  1.2903 -0.8604
16893SOL     OW52291   6.280   7.999   8.424 -0.4186  0.0251 -0.2576
16893SOL    HW152292   6.189   7.977   8.446  0.3291 -3.0185  0.2309
16893SOL    HW252293   6.320   8.023   8.507 -0.8714  2.0746 -0.5763
16894SOL     OW52294   7.443   3.191   4.132 -0.5178 -0.1287 -0.1803
16894SOL    HW152295   7.430   3.098   4.152  0.1817 -0.0489  0.7307
16894SOL    HW252296   7.364   3.234   4.163 -0.0021 -0.1849  1.2963
16895SOL     OW52297   6.668   2.111   2.725 -0.1647 -0.1922 -0.2675
16895SOL    HW152298   6.600   2.159   2.771  1.5563  1.2354  0.9596
16895SOL    HW252299   6.691   2.166   2.651 -1.2956 -1.3736 -1.5617
16896SOL     OW52300   6.727   0.339   5.199  0.3493  0.4755  0.0228
16896SOL    HW152301   6.691   0.426   5.183  1.0484  0.8385  0.3805
16896SOL    HW252302   6.758   0.310   5.113  0.1089  0.5721 -0.0978
16897SOL     OW52303   4.026   3.433   4.921  0.0016  0.2902  0.4136
16897SOL    HW152304   3.937   3.456   4.948 -0.3684  0.9261 -1.2670
16897SOL    HW252305   4.020   3.412   4.828  1.4376 -0.6700  0.4997
16898SOL     OW52306   5.561   2.959   0.403  0.2767 -0.1672 -0.1670
16898SOL    HW152307   5.604   2.983   0.320  2.3675  1.4582  1.2898
16898SOL    HW252308   5.491   3.024   0.413  0.1994 -0.1935 -0.5085
16899SOL     OW52309   6.504   0.379   5.524  0.0278  0.3410  0.4837
16899SOL    HW152310   6.498   0.285   5.545 -1.7776  0.5023  0.8432
16899SOL    HW252311   6.502   0.422   5.610 -0.9970  0.7640  0.2545
16900SOL     OW52312   8.750   2.348   2.180 -0.1006  0.0842  0.2337
16900SOL    HW152313   8.675   2.405   2.166  0.5090  1.4200  1.9122
16900SOL    HW252314   8.788   2.336   2.093 -2.5792 -1.1970 -0.7564
16901SOL     OW52315   0.500   1.297   1.539  0.1211 -0.7652  0.5123
16901SOL    HW152316   0.455   1.252   1.467  0.9949  1.1637 -1.3374
16901SOL    HW252317   0.442   1.286   1.614 -1.9749 -0.9264 -1.0486
16902SOL     OW52318   2.133   0.146   4.486  0.0639 -0.5279 -0.2366
16902SOL    HW152319   2.114   0.125   4.578  0.7552  1.3212  0.3693
16902SOL    HW252320   2.084   0.227   4.470  2.1613  0.7493 -0.6006
16903SOL     OW52321   3.924   4.963   8.603  0.0099 -0.6650 -0.2266
16903SOL    HW152322   3.955   5.022   8.671  2.1512 -0.7884 -1.0351
16903SOL    HW252323   3.872   5.018   8.545 -2.1189 -0.6155  1.5822
16904SOL     OW52324   7.637   0.335   6.882  0.5320 -0.0459  0.4340
16904SOL    HW152325   7.711   0.364   6.936 -1.2287  0.7126  2.5930
16904SOL    HW252326   7.653   0.242   6.868  2.6596  0.3909 -0.5418
16905SOL     OW52327   5.882   5.206   5.516 -0.1535  0.1626  0.0271
16905SOL    HW152328   5.959   5.170   5.473 -1.2236 -0.4106 -1.4827
16905SOL    HW252329   5.893   5.184   5.609  1.9095  0.8901 -0.0028
16906SOL     OW52330   4.435   2.665   4.859  0.1489  0.3887 -0.1625
16906SOL    HW152331   4.473   2.583   4.830 -0.5322 -0.0545  0.1631
16906SOL    HW252332   4.481   2.686   4.941 -0.7403 -0.4997  0.6002
16907SOL     OW52333   6.851   6.860   7.553  0.1576 -0.1683 -0.1916
16907SOL    HW152334   6.793   6.876   7.628  1.4674 -3.2889  1.7278
16907SOL    HW252335   6.792   6.825   7.486 -0.5268 -1.9206  1.2009
16908SOL     OW52336   7.616   5.907   1.112 -0.1414 -0.7536 -0.3382
16908SOL    HW152337   7.561   5.957   1.051 -2.3746 -0.3988  1.8329
16908SOL    HW252338   7.555   5.873   1.177  1.7844 -3.3940  0.2562
16909SOL     OW52339   0.219   5.420   4.008  0.0156 -0.3950 -0.1928
16909SOL    HW152340   0.165   5.381   3.940 -0.4123 -0.6250  0.2668
16909SOL    HW252341   0.291   5.462   3.962  0.4498 -1.6761 -0.6999
16910SOL     OW52342   7.253   2.917   2.569  0.4033 -0.5840 -0.2239
16910SOL    HW152343   7.300   2.986   2.616  0.4055 -0.7459  0.0194
16910SOL    HW252344   7.170   2.909   2.617  0.4771 -0.8685 -0.1412
16911SOL     OW52345   9.211   0.141   2.691 -0.1964 -0.4845 -0.0363
16911SOL    HW152346   9.164   0.207   2.641 -0.9338  1.0397  2.4556
16911SOL    HW252347   9.177   0.058   2.659 -0.4529  0.3631 -2.1367
16912SOL     OW52348   6.697   4.645   6.179  0.7908  0.6082  0.2743
16912SOL    HW152349   6.703   4.713   6.247  0.3864  0.3923  0.5272
16912SOL    HW252350   6.613   4.603   6.194  1.7456 -1.1043  1.2348
16913SOL     OW52351   7.717   2.525   0.621  0.4775  0.9522  0.5348
16913SOL    HW152352   7.738   2.480   0.703  2.0444  1.7284  0.5889
16913SOL    HW252353   7.750   2.467   0.552  1.8899  1.6636  0.5821
16914SOL     OW52354   1.675   2.793   7.379 -0.2537  0.0343 -0.1800
16914SOL    HW152355   1.747   2.853   7.401 -0.8707  0.4615  0.7665
16914SOL    HW252356   1.608   2.811   7.445 -1.1017 -0.5925 -0.8423
16915SOL     OW52357   0.500   4.276   8.566  0.0869  0.3897  0.1646
16915SOL    HW152358   0.504   4.206   8.631  2.2976  0.1615 -0.1176
16915SOL    HW252359   0.446   4.344   8.607  0.2325 -0.3362  1.6269
16916SOL     OW52360   5.859   2.450   3.898 -0.0494 -0.0850  0.8424
16916SOL    HW152361   5.786   2.509   3.917  0.0658 -0.0615  1.2106
16916SOL    HW252362   5.932   2.483   3.950 -0.2273 -1.0610  1.7372
16917SOL     OW52363   6.843   7.835   4.760  0.1725 -0.8716  0.2897
16917SOL    HW152364   6.785   7.893   4.710  1.0658 -0.0548  0.1699
16917SOL    HW252365   6.824   7.748   4.727  1.0027 -0.3258 -1.8187
16918SOL     OW52366   5.614   5.925   8.203  0.3314 -0.2663  0.3584
16918SOL    HW152367   5.602   6.019   8.189 -1.8288 -0.5177  0.2901
16918SOL    HW252368   5.577   5.884   8.125  0.5622 -1.2069  0.7321
16919SOL     OW52369   8.548   1.518   7.826 -0.0014  0.5908  0.3324
16919SOL    HW152370   8.498   1.445   7.862 -0.2295  0.4759 -0.2206
16919SOL    HW252371   8.540   1.509   7.731 -1.4326  2.2647  0.2413
16920SOL     OW52372   4.709   0.583   5.876  0.3951 -0.3490  0.0841
16920SOL    HW152373   4.744   0.501   5.910  0.3733 -0.4079 -0.0359
16920SOL    HW252374   4.764   0.603   5.800 -0.4063 -0.9166 -0.6627
16921SOL     OW52375   5.773   1.490   6.267  0.0798  0.3667  0.4460
16921SOL    HW152376   5.779   1.547   6.191 -2.5183 -0.6642 -0.6400
16921SOL    HW252377   5.863   1.462   6.284  0.9752  2.1913 -0.9559
16922SOL     OW52378   6.596   7.307   0.539 -0.4332  0.1994  0.4552
16922SOL    HW152379   6.589   7.281   0.447  1.7489 -0.0333  0.3135
16922SOL    HW252380   6.520   7.365   0.553 -0.8071  0.2391 -1.4711
16923SOL     OW52381   7.752   8.306   5.353  0.8100  0.5834 -0.1151
16923SOL    HW152382   7.665   8.346   5.358 -0.0378 -0.8496 -2.1709
16923SOL    HW252383   7.769   8.274   5.442 -0.1365  2.0613  0.6399
16924SOL     OW52384   4.253   1.449   6.498 -0.6666 -0.3696  0.1136
16924SOL    HW152385   4.262   1.412   6.585  0.1363  1.1618  0.7305
16924SOL    HW252386   4.282   1.540   6.507 -1.3578  0.0777 -1.5659
16925SOL     OW52387   7.183   3.677   9.625  0.4790  0.3180  0.2560
16925SOL    HW152388   7.193   3.602   9.684 -0.4588 -1.2405 -1.4631
16925SOL    HW252389   7.106   3.723   9.657 -1.0606 -1.4922 -0.6749
16926SOL     OW52390   2.830   8.601   3.270  0.2927  0.0302 -0.5952
16926SOL    HW152391   2.746   8.569   3.238 -0.4510  0.7424  0.5837
16926SOL    HW252392   2.863   8.531   3.326 -0.2726  0.3631  0.1802
16927SOL     OW52393   0.626   4.560   6.965  0.2697 -0.5400  0.0815
16927SOL    HW152394   0.661   4.596   7.046 -0.1569 -0.7270  0.3528
16927SOL    HW252395   0.691   4.496   6.937  0.8806  0.2027 -0.2368
16928SOL     OW52396   7.421   3.471   6.749  0.1329 -0.3946 -0.0213
16928SOL    HW152397   7.433   3.427   6.833 -0.7976 -0.9714 -0.1717
16928SOL    HW252398   7.489   3.434   6.692  0.4785 -0.3337  0.3498
16929SOL     OW52399   7.029   3.489   6.308  0.0096  1.1015 -0.0932
16929SOL    HW152400   7.060   3.474   6.219  0.3206 -0.1124  0.2075
16929SOL    HW252401   7.106   3.473   6.364 -0.3808  1.0790  0.4485
16930SOL     OW52402   0.413   4.948   7.091 -0.3687 -0.3433  0.1429
16930SOL    HW152403   0.480   4.952   7.158  0.3984 -1.4261 -0.5185
16930SOL    HW252404   0.434   5.020   7.031  0.2678 -0.7338 -0.1091
16931SOL     OW52405   4.835   0.995   4.675  0.4438  0.2544 -0.1718
16931SOL    HW152406   4.829   0.978   4.581  0.6211  0.3798 -0.2044
16931SOL    HW252407   4.871   1.083   4.682  1.9060 -0.3428  0.0265
16932SOL     OW52408   4.395   3.147   9.621 -0.2204 -0.3133  0.5551
16932SOL    HW152409   4.442   3.198   9.555 -0.9906 -0.9298 -0.4997
16932SOL    HW252410   4.432   3.059   9.615 -1.5596 -0.8470 -0.3888
16933SOL     OW52411   3.605   8.326   0.721  0.0623 -0.0914 -0.3537
16933SOL    HW152412   3.622   8.253   0.781  0.8450  0.8690  0.6306
16933SOL    HW252413   3.517   8.356   0.745 -0.1066 -0.4652 -0.5006
16934SOL     OW52414   4.779   5.983   6.286  0.7737  0.6617 -0.2025
16934SOL    HW152415   4.853   5.942   6.329 -0.1884  0.8545  1.7327
16934SOL    HW252416   4.775   5.941   6.200  1.0158 -1.8667  0.9364
16935SOL     OW52417   6.353   8.524   1.001 -0.4073 -0.3006  0.3686
16935SOL    HW152418   6.338   8.435   0.971 -0.3970  0.5627 -2.4377
16935SOL    HW252419   6.269   8.568   0.989 -0.4382  0.0820  1.7980
16936SOL     OW52420   8.576   2.063   4.461  0.5460  0.8383  0.2206
16936SOL    HW152421   8.665   2.029   4.464  0.5234  0.6253 -1.0184
16936SOL    HW252422   8.577   2.139   4.519  0.8365 -0.6953  2.3421
16937SOL     OW52423   0.471   0.697   4.912 -0.3990 -0.0316  0.1812
16937SOL    HW152424   0.380   0.699   4.884 -0.3649 -2.1835 -0.2478
16937SOL    HW252425   0.479   0.616   4.963  1.1067  0.4694  0.8077
16938SOL     OW52426   3.338   8.549   4.454 -0.1633  0.6085 -0.7681
16938SOL    HW152427   3.398   8.559   4.528  2.2578 -1.1382 -2.3535
16938SOL    HW252428   3.254   8.528   4.494  0.6950  1.1629  1.5068
16939SOL     OW52429   3.231   5.266   0.568 -0.2480  0.7265  0.7629
16939SOL    HW152430   3.200   5.345   0.613  0.4373  1.7534 -0.4988
16939SOL    HW252431   3.179   5.261   0.488 -0.2900 -0.1182  0.8332
16940SOL     OW52432   5.336   3.978   8.931 -0.0508 -0.1537  0.2933
16940SOL    HW152433   5.338   4.062   8.976 -1.2345  0.8823 -1.4573
16940SOL    HW252434   5.312   3.915   8.999  0.0938  1.0449  1.4841
16941SOL     OW52435   8.306   9.653   7.489  0.4390 -0.4117 -0.1885
16941SOL    HW152436   8.224   9.686   7.525  0.4365  0.5099 -0.9887
16941SOL    HW252437   8.326   9.576   7.542 -0.2412  0.1191  0.8845
16942SOL     OW52438   2.573   6.159   8.178  0.0901  0.0856  0.2501
16942SOL    HW152439   2.487   6.184   8.147  0.2516  0.9712  0.5009
16942SOL    HW252440   2.599   6.086   8.121 -1.7894 -1.8110  1.6241
16943SOL     OW52441   9.014   3.464   4.782 -0.1867 -0.2203 -0.2750
16943SOL    HW152442   8.968   3.468   4.866  0.5521  2.8461  0.1102
16943SOL    HW252443   9.099   3.426   4.803  0.0618  0.6980  0.4388
16944SOL     OW52444   7.578   4.115   7.337 -0.5268 -0.0126  0.3004
16944SOL    HW152445   7.532   4.165   7.404  0.1582 -1.2666  1.7809
16944SOL    HW252446   7.513   4.052   7.306 -0.8069  0.4858 -0.1432
16945SOL     OW52447   9.408   3.654   1.906  0.0307  0.0674 -0.4665
16945SOL    HW152448   9.321   3.686   1.927  0.1132  0.8451 -1.2941
16945SOL    HW252449   9.407   3.640   1.812  0.4964 -0.8651 -0.3443
16946SOL     OW52450   5.838   0.859   2.914  0.3321 -0.0044  0.0155
16946SOL    HW152451   5.746   0.883   2.929  0.7357  0.9629  1.1252
16946SOL    HW252452   5.834   0.773   2.873 -1.1451  1.0753 -2.3079
16947SOL     OW52453   8.614   7.440   4.814  0.1220 -0.2035 -0.1703
16947SOL    HW152454   8.703   7.458   4.846 -0.1045 -0.2371  0.4754
16947SOL    HW252455   8.579   7.375   4.874 -0.9093  0.9584  0.5301
16948SOL     OW52456   8.886   2.279   3.033 -0.1659 -0.5236 -0.1527
16948SOL    HW152457   8.896   2.349   3.098  0.1385 -1.4486  0.8290
16948SOL    HW252458   8.802   2.238   3.055 -0.2582 -0.5793 -0.6096
16949SOL     OW52459   0.903   2.653   4.518  0.0983  0.4994 -0.0458
16949SOL    HW152460   0.890   2.637   4.612  1.4018 -1.5278 -0.1428
16949SOL    HW252461   0.815   2.645   4.481 -0.3232  0.5376  0.8943
16950SOL     OW52462   0.486   0.486   1.348 -0.1334 -0.3659  0.5323
16950SOL    HW152463   0.396   0.459   1.332 -0.2003  0.6342 -0.9973
16950SOL    HW252464   0.478   0.562   1.406 -0.2758 -0.3432  0.4840
16951SOL     OW52465   5.218   6.760   4.881  0.0135 -0.2383 -0.6071
16951SOL    HW152466   5.285   6.713   4.930 -0.6062 -0.8785 -0.3476
16951SOL    HW252467   5.235   6.853   4.899  0.6674 -0.4047 -0.3500
16952SOL     OW52468   3.709   6.899   3.264 -0.2186 -0.1139 -0.4986
16952SOL    HW152469   3.643   6.859   3.321  0.4577 -0.9962 -0.3063
16952SOL    HW252470   3.768   6.827   3.242  0.5571  0.6105 -0.8486
16953SOL     OW52471   1.333   0.939   5.597 -0.2684 -0.1264 -0.0333
16953SOL    HW152472   1.323   0.886   5.677 -1.1337  0.9112  0.5836
16953SOL    HW252473   1.416   0.985   5.609  0.2503 -0.9612 -0.3504
16954SOL     OW52474   5.076   0.844   2.723  0.3225  0.5998  0.1566
16954SOL    HW152475   5.109   0.819   2.810 -1.4825 -2.2698  0.1629
16954SOL    HW252476   4.981   0.833   2.729  0.0424  1.4041 -1.8997
16955SOL     OW52477   3.990   0.642   6.376  0.8809  0.6032 -0.0243
16955SOL    HW152478   4.024   0.564   6.331 -1.9456 -2.0040  1.9506
16955SOL    HW252479   3.938   0.687   6.309  1.7942  0.3243 -0.9582
16956SOL     OW52480   6.453   2.983   6.378 -0.3370 -0.1015  0.4268
16956SOL    HW152481   6.447   3.075   6.404 -0.8182  0.2691 -0.9092
16956SOL    HW252482   6.413   2.935   6.450  0.2023  0.7030  1.2811
16957SOL     OW52483   5.247   9.615   2.009 -0.3828 -0.5704  0.3431
16957SOL    HW152484   5.287   9.677   2.070 -0.3250  0.2651 -0.5267
16957SOL    HW252485   5.316   9.550   1.993  0.4519  0.5170 -0.6589
16958SOL     OW52486   6.150   5.409   6.425 -0.0784  0.8312 -0.0818
16958SOL    HW152487   6.157   5.437   6.516 -0.1206 -0.3498  0.3041
16958SOL    HW252488   6.059   5.381   6.415  0.3835 -0.8096  0.0694
16959SOL     OW52489   4.008   2.878   0.928  0.1890  0.5420 -0.1568
16959SOL    HW152490   3.929   2.832   0.901  1.1404 -0.8544 -0.7099
16959SOL    HW252491   4.068   2.867   0.855  0.9696  1.3974  0.3336
16960SOL     OW52492   1.561   6.812   3.042 -1.3745  0.2265  0.2221
16960SOL    HW152493   1.558   6.719   3.022 -0.0501  0.1880  0.1202
16960SOL    HW252494   1.494   6.851   2.986  0.1136 -0.2930 -2.0324
16961SOL     OW52495   1.324   1.471   8.918  0.0651 -0.4862 -0.0101
16961SOL    HW152496   1.272   1.520   8.982  1.5974 -0.2127  1.0839
16961SOL    HW252497   1.383   1.418   8.971  1.7910  0.1832 -1.1900
16962SOL     OW52498   1.325   3.321   2.192 -0.3880 -0.0207 -0.2428
16962SOL    HW152499   1.253   3.268   2.157 -0.3320 -0.5752  0.4510
16962SOL    HW252500   1.286   3.370   2.264 -0.1265 -0.1528 -0.0094
16963SOL     OW52501   4.199   3.772   2.296 -0.0582 -0.0171 -0.6558
16963SOL    HW152502   4.110   3.738   2.306  0.6364 -2.1085 -1.1151
16963SOL    HW252503   4.252   3.717   2.353  1.1928  0.0352 -1.7427
16964SOL     OW52504   5.556   0.616   6.647  0.0385 -1.1953  0.2457
16964SOL    HW152505   5.639   0.611   6.600 -1.0214  0.7585 -2.0711
16964SOL    HW252506   5.535   0.525   6.669  2.1595 -1.8512 -0.1930
16965SOL     OW52507   9.344   7.811   8.460  0.2522  0.6790 -0.3710
16965SOL    HW152508   9.438   7.821   8.443  0.4590  1.7673  1.2318
16965SOL    HW252509   9.340   7.767   8.545 -0.6961  0.6213 -0.4412
16966SOL     OW52510   7.644   1.328   5.574  0.3340 -0.0793  0.0342
16966SOL    HW152511   7.558   1.346   5.611  0.2645 -0.1435 -0.0936
16966SOL    HW252512   7.692   1.284   5.644 -0.3262 -1.6500 -0.4447
16967SOL     OW52513   5.024   6.714   2.283 -0.2893 -0.2484  0.1494
16967SOL    HW152514   4.933   6.683   2.282 -0.1937 -0.5994  1.2295
16967SOL    HW252515   5.076   6.637   2.306  0.2757 -0.0080 -0.2936
16968SOL     OW52516   3.297   2.099   5.157  0.2748  0.5671 -0.0745
16968SOL    HW152517   3.273   2.036   5.089 -0.0663  0.8307 -0.2054
16968SOL    HW252518   3.307   2.182   5.110 -1.1916  1.0188  0.3546
16969SOL     OW52519   1.486   0.552   5.860  0.3216 -0.8484 -0.1033
16969SOL    HW152520   1.576   0.527   5.884  2.0462  0.8858 -3.8244
16969SOL    HW252521   1.466   0.497   5.784 -0.4295  0.9979 -1.2962
16970SOL     OW52522   8.941   1.065   7.544  0.0948  0.6046  0.5306
16970SOL    HW152523   8.999   1.062   7.620  3.2724 -0.7912 -1.7580
16970SOL    HW252524   8.931   1.158   7.525  1.9092  0.8829  0.7967
16971SOL     OW52525   2.153   2.831   8.415 -0.5212 -0.4213  0.3659
16971SOL    HW152526   2.170   2.818   8.508 -2.0206 -0.0962  0.7124
16971SOL    HW252527   2.061   2.858   8.411 -0.0872  1.0213 -1.0862
16972SOL     OW52528   6.114   3.154   6.070  0.0838  0.4125 -0.9236
16972SOL    HW152529   6.189   3.095   6.075 -1.4366 -1.6358 -0.8227
16972SOL    HW252530   6.083   3.161   6.161  0.0165  1.0552 -0.9924
16973SOL     OW52531   2.962   5.081   4.257 -0.2068 -0.0502 -0.3468
16973SOL    HW152532   2.949   5.135   4.335 -0.3531 -1.0382  0.3301
16973SOL    HW252533   3.032   5.125   4.209  1.4804 -0.6221  1.4827
16974SOL     OW52534   1.332   7.290   4.362  0.5598 -0.0954  0.2328
16974SOL    HW152535   1.265   7.260   4.300  0.2476 -0.6993  0.8430
16974SOL    HW252536   1.412   7.297   4.310  0.0039  0.7379 -0.5311
16975SOL     OW52537   0.501   4.324   7.128  0.6471 -0.0332  0.6485
16975SOL    HW152538   0.478   4.323   7.220  0.1743 -0.6940  0.5323
16975SOL    HW252539   0.525   4.415   7.110  1.0674  0.0290  1.4929
16976SOL     OW52540   6.728   5.273   8.296  0.4321  0.5581  0.6568
16976SOL    HW152541   6.678   5.336   8.244 -0.1316 -0.5660 -0.2267
16976SOL    HW252542   6.665   5.240   8.361  0.9183  1.3938  1.5710
16977SOL     OW52543   3.668   3.374   9.815  0.2235  0.0005 -0.1855
16977SOL    HW152544   3.728   3.363   9.741 -0.1946 -0.8772 -0.4023
16977SOL    HW252545   3.724   3.375   9.892  0.5733 -0.1844 -0.4380
16978SOL     OW52546   5.228   5.094   1.885 -0.3395  0.2220  0.0324
16978SOL    HW152547   5.221   5.147   1.964  0.3956  0.2708  0.0703
16978SOL    HW252548   5.194   5.008   1.911 -0.6035  0.3904  0.2483
16979SOL     OW52549   7.186   4.193   9.171 -0.2856  0.0014  0.0673
16979SOL    HW152550   7.115   4.247   9.137  0.1708  1.1089  0.8076
16979SOL    HW252551   7.248   4.186   9.098 -0.7560 -0.2752 -0.3104
16980SOL     OW52552   2.226   5.343   8.978  0.4398 -0.5851  0.1771
16980SOL    HW152553   2.280   5.407   9.024 -0.7263  1.3705 -1.0388
16980SOL    HW252554   2.145   5.340   9.029 -0.2765  0.4511 -0.8714
16981SOL     OW52555   9.246   1.741   8.729 -0.1888  0.1789 -0.4932
16981SOL    HW152556   9.199   1.658   8.722  2.5303 -1.3451 -3.2856
16981SOL    HW252557   9.334   1.716   8.759  0.7586  1.9628 -1.5752
16982SOL     OW52558   9.392   7.308   1.610 -0.2308 -0.1972  0.0642
16982SOL    HW152559   9.446   7.368   1.558 -0.8401  0.0813 -0.2550
16982SOL    HW252560   9.453   7.270   1.673  1.0707 -2.3587 -2.3451
16983SOL     OW52561   7.459   2.129   2.893  0.5845 -0.7456 -0.5776
16983SOL    HW152562   7.408   2.207   2.871  1.2128 -0.3725 -0.7536
16983SOL    HW252563   7.532   2.130   2.832  2.2628  0.2152  1.3057
16984SOL     OW52564   4.389   7.175   1.834  0.7531  0.4339  0.0759
16984SOL    HW152565   4.481   7.154   1.818  0.7287  1.0117 -0.8444
16984SOL    HW252566   4.343   7.146   1.755  0.2642  0.9392  0.1673
16985SOL     OW52567   8.112   6.020   2.880 -0.0795 -0.1807  0.0859
16985SOL    HW152568   8.185   5.962   2.905  0.2487  0.0804 -0.2521
16985SOL    HW252569   8.152   6.107   2.875 -0.5383  0.0509  0.4463
16986SOL     OW52570   4.592   7.144   7.824  0.3576  0.2061 -0.0737
16986SOL    HW152571   4.656   7.212   7.844 -0.2434  0.2210  2.0286
16986SOL    HW252572   4.639   7.062   7.841  0.7721  0.0746 -1.6593
16987SOL     OW52573   7.776   2.651   3.643  0.0545 -0.2228 -0.2050
16987SOL    HW152574   7.839   2.721   3.625 -0.5005  0.2394 -0.3677
16987SOL    HW252575   7.691   2.694   3.645 -0.0036 -0.0847  4.0468
16988SOL     OW52576   5.143   3.522   7.330 -0.9303  0.7209  0.0625
16988SOL    HW152577   5.145   3.603   7.281 -3.4417 -0.2477 -1.8940
16988SOL    HW252578   5.139   3.549   7.422  0.2132  2.6983 -0.4224
16989SOL     OW52579   8.904   0.986   4.976  0.3491 -0.1094 -0.5209
16989SOL    HW152580   8.946   0.904   4.953 -0.0412 -0.1380 -1.1658
16989SOL    HW252581   8.881   1.025   4.891 -1.2997 -0.3013 -0.1869
16990SOL     OW52582   0.004   8.975   8.376  0.1755 -0.2194  0.4057
16990SOL    HW152583  -0.062   9.035   8.411  0.6626  0.1986  0.6294
16990SOL    HW252584  -0.046   8.910   8.326 -0.2934  1.2025 -1.0845
16991SOL     OW52585   1.300   0.442   0.992  0.6201 -0.0000  0.8143
16991SOL    HW152586   1.220   0.490   0.968  1.4573  1.0679  0.0494
16991SOL    HW252587   1.269   0.356   1.020 -0.7011 -0.0362 -0.6412
16992SOL     OW52588   3.829   9.718   0.861 -0.6195  0.5848 -0.3981
16992SOL    HW152589   3.774   9.680   0.793 -0.9555 -0.2776  0.3357
16992SOL    HW252590   3.770   9.735   0.934  0.0564 -0.3335  0.3918
16993SOL     OW52591   3.343   5.420   3.825  0.0761  0.3978  0.2505
16993SOL    HW152592   3.289   5.415   3.746  0.8632 -1.0185 -0.2294
16993SOL    HW252593   3.383   5.507   3.821 -1.4187  1.1142  0.1382
16994SOL     OW52594   4.161   0.129   8.484  0.3816  0.4370 -0.1783
16994SOL    HW152595   4.148   0.091   8.397 -0.5725  0.2331  0.0450
16994SOL    HW252596   4.255   0.119   8.500  0.4826  0.0051 -0.9611
16995SOL     OW52597   2.082   7.089   4.628 -0.2669  0.1852 -0.1216
16995SOL    HW152598   2.172   7.062   4.644  0.2127  2.0121  0.5831
16995SOL    HW252599   2.049   7.115   4.714 -1.7806 -1.2279 -0.2215
16996SOL     OW52600   4.782   9.737   4.087 -0.5603  0.2015  0.0709
16996SOL    HW152601   4.853   9.801   4.093 -0.2514  0.0747 -1.7521
16996SOL    HW252602   4.782   9.709   3.996 -0.6811 -2.4261  0.8110
16997SOL     OW52603   0.565   2.159   0.532 -0.3861 -0.2771 -0.0608
16997SOL    HW152604   0.525   2.229   0.480 -3.1055 -0.0392  2.1046
16997SOL    HW252605   0.536   2.078   0.490 -0.9074 -0.0858 -0.0725
16998SOL     OW52606   6.220   2.946   1.398 -0.1164  0.2624  0.3536
16998SOL    HW152607   6.235   2.861   1.439  2.2459 -0.1206 -1.1381
16998SOL    HW252608   6.195   2.925   1.308  1.0736  1.1102 -0.2022
16999SOL     OW52609   5.334   9.629   3.215 -0.6992  0.3372  0.3911
16999SOL    HW152610   5.416   9.637   3.264 -0.9438  0.3535  0.7955
16999SOL    HW252611   5.362   9.605   3.127 -0.2432  0.5795  0.4652
17000SOL     OW52612   3.066   3.420   5.648  0.2281 -0.1694  0.3706
17000SOL    HW152613   3.118   3.385   5.720 -1.1682 -1.3698  0.8597
17000SOL    HW252614   3.019   3.344   5.613  0.2084  0.5396 -1.2529
17001SOL     OW52615   5.584   1.182   5.764 -0.3982  0.2944 -0.1402
17001SOL    HW152616   5.577   1.118   5.693  0.7856  0.0839 -0.0885
17001SOL    HW252617   5.667   1.227   5.747 -1.1335  1.7478 -0.1070
17002SOL     OW52618   3.914   1.988   4.739 -0.6220  0.0319  0.2732
17002SOL    HW152619   3.888   2.075   4.769 -0.2398  0.1340  0.3074
17002SOL    HW252620   3.922   1.996   4.644 -2.0677 -0.3513  0.0838
17003SOL     OW52621   6.298   4.076   7.883  0.3742 -0.4215  0.1607
17003SOL    HW152622   6.313   3.994   7.836 -1.7296 -0.5558 -0.3831
17003SOL    HW252623   6.385   4.115   7.892  1.3073 -2.2715 -0.3579
17004SOL     OW52624   6.006   2.073   9.208  0.2743 -0.3078 -0.2782
17004SOL    HW152625   6.069   2.078   9.136  1.6325 -3.2419  0.5716
17004SOL    HW252626   6.019   2.155   9.256  2.3157 -0.1284 -1.0366
17005SOL     OW52627   8.053   8.977   7.770  0.2183  0.3840 -0.5444
17005SOL    HW152628   8.076   8.946   7.682  1.6055  1.7248 -0.6969
17005SOL    HW252629   8.136   8.985   7.816 -0.4453  0.2373  0.7271
17006SOL     OW52630   8.849   9.811   1.303 -0.0431 -0.0223  0.2316
17006SOL    HW152631   8.888   9.796   1.390 -1.3397 -1.4928  0.6043
17006SOL    HW252632   8.844   9.906   1.295  2.4441  0.2146  0.6611
17007SOL     OW52633   1.769   4.371   9.171  0.4520 -0.1480  0.6675
17007SOL    HW152634   1.863   4.358   9.165  0.8456  1.8266  1.8864
17007SOL    HW252635   1.738   4.367   9.081  2.0953  1.6806 -0.0327
17008SOL     OW52636   4.322   1.079   1.463  0.1336 -0.6209  0.1457
17008SOL    HW152637   4.339   0.999   1.514  0.3750 -1.9687 -1.9351
17008SOL    HW252638   4.260   1.051   1.395  0.5509  0.8599 -0.8852
17009SOL     OW52639   0.120   9.339   3.156  0.0888 -0.5257 -0.5210
17009SOL    HW152640   0.130   9.413   3.215 -1.7392 -0.0310 -0.7564
17009SOL    HW252641   0.088   9.267   3.211  1.9064 -1.2062 -0.2824
17010SOL     OW52642   2.500   8.219   8.633 -0.1272 -0.0144 -0.1856
17010SOL    HW152643   2.440   8.190   8.564 -0.5615 -1.4431  0.7310
17010SOL    HW252644   2.571   8.155   8.631  1.1953  1.4120 -0.9657
17011SOL     OW52645   8.895   5.628   6.561 -0.2255  0.3635  0.5401
17011SOL    HW152646   8.911   5.713   6.520  1.0550  0.3859  1.0539
17011SOL    HW252647   8.922   5.640   6.652  2.3896 -1.2463  0.0679
17012SOL     OW52648   6.693   7.869   0.261  0.7515  0.2044  0.1329
17012SOL    HW152649   6.771   7.891   0.210  0.8291 -1.9819 -0.7941
17012SOL    HW252650   6.620   7.901   0.207  0.9487  1.5214  0.6166
17013SOL     OW52651   2.120   3.557   2.059  0.5613 -0.0012 -0.0706
17013SOL    HW152652   2.024   3.562   2.056  0.5863  1.4906  0.9179
17013SOL    HW252653   2.145   3.617   2.129  2.2105 -0.6630 -0.0659
17014SOL     OW52654   8.577   6.638   8.138  0.7362  0.1477  0.7269
17014SOL    HW152655   8.559   6.702   8.206  1.1080 -0.9584  1.9078
17014SOL    HW252656   8.639   6.681   8.079 -0.5753  1.5766  0.3497
17015SOL     OW52657   5.645   7.307   1.497  0.1083 -0.1354  0.1047
17015SOL    HW152658   5.620   7.219   1.469  0.0630 -0.1130  0.0731
17015SOL    HW252659   5.601   7.319   1.581 -0.2559  0.0266 -0.1032
17016SOL     OW52660   6.220   1.789   6.758  0.0119 -0.3111  0.6526
17016SOL    HW152661   6.267   1.857   6.711  1.3768 -1.5959  0.0707
17016SOL    HW252662   6.253   1.793   6.847  0.5665 -0.6158  0.4635
17017SOL     OW52663   9.719   8.109   3.643 -0.5716 -0.1506 -0.2197
17017SOL    HW152664   9.685   8.084   3.728  0.1348  1.3937  0.5606
17017SOL    HW252665   9.664   8.183   3.616  0.9611  1.1988  0.2313
17018SOL     OW52666   5.279   8.816   7.869  0.0279 -0.0148 -0.3812
17018SOL    HW152667   5.280   8.732   7.824  1.6129 -0.0242 -0.4119
17018SOL    HW252668   5.327   8.801   7.950 -0.1811  0.7164 -0.1084
17019SOL     OW52669   9.603   5.239   6.949  0.1789 -0.0404 -1.1847
17019SOL    HW152670   9.689   5.278   6.933 -0.5075  1.4453 -1.4347
17019SOL    HW252671   9.541   5.304   6.915 -1.0911 -0.2888  0.5298
17020SOL     OW52672   7.004   4.844   7.325 -0.3542 -0.6963 -0.0689
17020SOL    HW152673   6.963   4.910   7.270  0.3526 -0.4824 -0.3529
17020SOL    HW252674   7.011   4.885   7.411 -1.0873 -0.8814  0.0844
17021SOL     OW52675   0.887   1.007   3.553  0.0517 -0.0622  0.3828
17021SOL    HW152676   0.829   0.984   3.626  1.2405 -0.1403  1.3253
17021SOL    HW252677   0.844   1.083   3.513 -0.5731  0.0543  1.2241
17022SOL     OW52678   2.076   7.373   8.882  0.2827 -0.5010 -0.2841
17022SOL    HW152679   2.129   7.434   8.933 -0.6895  0.7926 -0.7643
17022SOL    HW252680   2.128   7.292   8.879  1.3542  0.1125  0.8314
17023SOL     OW52681   5.802   3.326   6.333 -0.3023 -0.1331 -0.4254
17023SOL    HW152682   5.713   3.310   6.302 -0.6278 -0.9310  0.8329
17023SOL    HW252683   5.819   3.417   6.309 -2.4194  0.8744  1.4456
17024SOL     OW52684   3.142   5.697   4.894  0.2831 -0.0793  0.4939
17024SOL    HW152685   3.187   5.692   4.979 -0.8791  1.7348  1.2676
17024SOL    HW252686   3.171   5.780   4.856 -1.8844  0.8342  0.7409
17025SOL     OW52687   8.977   5.329   3.116  0.4686 -0.0157 -0.0228
17025SOL    HW152688   8.914   5.339   3.187 -1.1742  0.2225 -1.4427
17025SOL    HW252689   9.052   5.382   3.143 -0.0273 -0.0866  1.5975
17026SOL     OW52690   6.607   0.682   5.121 -0.3796  0.3267 -0.1998
17026SOL    HW152691   6.601   0.604   5.067 -1.7018  0.5096 -0.3534
17026SOL    HW252692   6.562   0.659   5.203  0.3713  0.5058  0.2747
17027SOL     OW52693   3.432   2.853   0.861  0.3902  0.2071  0.2633
17027SOL    HW152694   3.510   2.901   0.832 -0.6013  1.0920 -1.0255
17027SOL    HW252695   3.466   2.767   0.886  1.7285  0.4087 -0.6984
17028SOL     OW52696   9.800   6.098   6.447  0.7310  0.0838 -0.0668
17028SOL    HW152697   9.709   6.069   6.453  1.2352 -1.3419  1.4286
17028SOL    HW252698   9.816   6.148   6.527  1.4280 -0.2223 -0.0003
17029SOL     OW52699   9.128   0.432   3.331 -0.0510  0.4555 -0.3699
17029SOL    HW152700   9.045   0.387   3.314 -0.2882  0.4287  0.7893
17029SOL    HW252701   9.102   0.520   3.359  0.3880  1.1160 -1.9205
17030SOL     OW52702   6.020   7.282   3.240  0.3451  0.1546 -0.1977
17030SOL    HW152703   6.010   7.325   3.155 -0.3563  0.9157  0.2425
17030SOL    HW252704   5.941   7.308   3.288  0.9764  0.1691  0.8559
17031SOL     OW52705   7.126   5.134   1.364  0.2421  0.3564  0.0072
17031SOL    HW152706   7.183   5.188   1.419 -0.8568  1.2483  0.2988
17031SOL    HW252707   7.179   5.118   1.285  1.1500  0.5734  0.5533
17032SOL     OW52708   7.311   4.244   1.329 -0.1043  0.8853 -0.1215
17032SOL    HW152709   7.246   4.314   1.338  1.8832  2.6909  1.4537
17032SOL    HW252710   7.369   4.275   1.259 -1.2175 -1.0472 -2.0281
17033SOL     OW52711   6.101   9.381   4.660  0.4039  0.0269 -0.0259
17033SOL    HW152712   6.175   9.411   4.608 -2.0046  2.2958 -2.5201
17033SOL    HW252713   6.078   9.457   4.714 -1.9624  0.6076 -1.7051
17034SOL     OW52714   8.382   0.587   0.956  0.4134 -0.2187 -0.4600
17034SOL    HW152715   8.455   0.624   1.005 -0.4774  1.7410 -0.5293
17034SOL    HW252716   8.311   0.579   1.020  0.0217 -0.0299 -0.8628
17035SOL     OW52717   4.230   6.953   3.353 -0.3903  0.1927  0.0155
17035SOL    HW152718   4.244   6.908   3.436  2.2538 -1.3999 -1.1665
17035SOL    HW252719   4.317   6.966   3.317 -1.4357  0.9555 -2.4675
17036SOL     OW52720   4.812   4.307   1.063 -0.0728  0.0654 -0.5623
17036SOL    HW152721   4.749   4.242   1.031 -0.3897 -0.1036  0.3885
17036SOL    HW252722   4.875   4.256   1.114 -0.5276  0.5342  0.4962
17037SOL     OW52723   7.130   6.666   1.023 -0.3996 -0.4160  0.3472
17037SOL    HW152724   7.197   6.701   1.082 -0.5625  0.0892  0.2383
17037SOL    HW252725   7.153   6.573   1.013  0.0375 -0.3436  0.6416
17038SOL     OW52726   7.277   9.626   0.037  0.3578  0.0792  0.1842
17038SOL    HW152727   7.343   9.563   0.012  0.7663 -0.3429  2.1348
17038SOL    HW252728   7.302   9.707  -0.007  1.3172 -0.4479 -0.2577
17039SOL     OW52729   6.838   7.416   5.239  0.3363  0.2126 -0.1595
17039SOL    HW152730   6.931   7.398   5.253 -0.1243 -2.2577  0.2920
17039SOL    HW252731   6.832   7.446   5.148  1.5758  0.6272 -0.1145
17040SOL     OW52732   6.507   8.925   6.121  0.6250  0.5970 -0.2370
17040SOL    HW152733   6.494   8.886   6.035  0.1793  1.0265 -0.3675
17040SOL    HW252734   6.552   9.008   6.103  0.4885  0.7096 -0.0649
17041SOL     OW52735   2.878   6.855   7.053  0.2443 -0.2325 -0.5296
17041SOL    HW152736   2.972   6.852   7.066  0.4077 -1.0239 -1.7245
17041SOL    HW252737   2.862   6.939   7.009  0.2207  0.4507  0.7424
17042SOL     OW52738   2.857   5.325   5.744 -0.1293  0.5506 -0.4575
17042SOL    HW152739   2.867   5.280   5.660  1.9012 -1.0769  0.5703
17042SOL    HW252740   2.773   5.294   5.778  0.7006 -1.6927 -0.2897
17043SOL     OW52741   2.929   0.565   4.010 -0.0693  0.0619 -0.0714
17043SOL    HW152742   2.940   0.603   3.923 -0.0986 -1.2681 -0.6661
17043SOL    HW252743   2.992   0.494   4.014 -2.2772 -2.0623 -0.3009
17044SOL     OW52744   2.204   5.829   9.392  0.3512  0.9523 -0.4395
17044SOL    HW152745   2.277   5.783   9.350 -1.0248 -1.3949 -0.4301
17044SOL    HW252746   2.185   5.902   9.334  0.8845 -0.0673 -1.9637
17045SOL     OW52747   0.567   2.265   2.893 -0.1508 -0.2936  0.9878
17045SOL    HW152748   0.518   2.182   2.894  0.7312 -0.8331  2.0842
17045SOL    HW252749   0.501   2.332   2.876 -0.9231 -1.1954  0.3079
17046SOL     OW52750   8.403   8.144   0.353  0.3077 -0.2704  0.1077
17046SOL    HW152751   8.405   8.240   0.361 -1.5900 -0.0872 -0.9872
17046SOL    HW252752   8.375   8.128   0.263 -1.4491 -1.7914  0.8584
17047SOL     OW52753   1.928   6.155   8.312 -0.1000  0.2477 -0.4234
17047SOL    HW152754   1.983   6.077   8.327  1.6745  1.2229 -1.5175
17047SOL    HW252755   1.936   6.206   8.392  0.6612  0.4125 -0.6011
17048SOL     OW52756   4.651   1.903   9.159 -1.1434 -0.0395  0.1140
17048SOL    HW152757   4.574   1.861   9.197 -2.1132  0.6592 -1.0161
17048SOL    HW252758   4.677   1.845   9.088 -1.9780  0.7854 -0.9067
17049SOL     OW52759   9.426   8.454   4.148 -0.2918  0.3001 -0.0059
17049SOL    HW152760   9.416   8.453   4.243  0.3226 -0.8787  0.0663
17049SOL    HW252761   9.483   8.380   4.129  2.2234  2.3530 -1.0138
17050SOL     OW52762   1.639   8.187   3.356 -0.4221  0.1739  0.2655
17050SOL    HW152763   1.583   8.128   3.305 -1.4931  1.2128  0.1727
17050SOL    HW252764   1.672   8.250   3.292 -0.4664  0.5323  0.5909
17051SOL     OW52765   3.615   1.943   9.218 -0.2864 -0.4814 -0.6866
17051SOL    HW152766   3.574   1.908   9.298 -1.4174 -1.1251 -1.5213
17051SOL    HW252767   3.668   2.016   9.249 -0.2746 -1.0473  0.7257
17052SOL     OW52768   9.540   5.164   0.693  0.0990 -0.1909  0.5843
17052SOL    HW152769   9.486   5.201   0.623  0.6561 -0.8675 -0.2197
17052SOL    HW252770   9.582   5.240   0.733  0.6701  0.1226 -0.5724
17053SOL     OW52771   1.187   6.904   6.225 -0.7199 -0.2161  0.1191
17053SOL    HW152772   1.101   6.865   6.239 -0.7254 -1.1960 -2.1359
17053SOL    HW252773   1.177   6.995   6.253 -2.2798 -0.4998  0.5791
17054SOL     OW52774   1.142   2.530   2.382 -0.0978 -0.2680  0.1543
17054SOL    HW152775   1.084   2.522   2.458  1.6611 -2.9172  1.3679
17054SOL    HW252776   1.215   2.471   2.401  1.5079  0.6221 -2.6544
17055SOL     OW52777   9.391   4.906   9.237 -0.6485  0.5664  0.0303
17055SOL    HW152778   9.423   4.816   9.242  0.4077  0.9144 -0.3773
17055SOL    HW252779   9.369   4.929   9.328 -2.0952 -0.4969 -0.0035
17056SOL     OW52780   1.679   5.035   4.148  0.0144 -0.4509  0.0899
17056SOL    HW152781   1.589   5.018   4.177  0.5780 -0.2229  2.1811
17056SOL    HW252782   1.676   5.025   4.053 -2.0459 -1.2180  0.1733
17057SOL     OW52783   1.193   0.009   6.992  0.6283 -0.5673  0.0987
17057SOL    HW152784   1.184  -0.078   6.952  1.7021 -2.0633  2.8523
17057SOL    HW252785   1.267   0.048   6.946  0.2715 -1.1713 -1.0396
17058SOL     OW52786   5.404   4.638   2.536  0.0880  0.2318  0.2584
17058SOL    HW152787   5.344   4.710   2.556 -0.3298 -0.2372  0.7329
17058SOL    HW252788   5.350   4.559   2.543  0.9988 -0.2931  1.8733
17059SOL     OW52789   2.423   5.605   8.348 -0.2875  0.3083  0.6094
17059SOL    HW152790   2.436   5.695   8.315  2.1433 -0.7508 -1.7576
17059SOL    HW252791   2.484   5.598   8.422  1.5833 -0.0784 -0.8787
17060SOL     OW52792   4.234   3.974   5.754  0.4073 -0.0848 -0.1162
17060SOL    HW152793   4.167   3.956   5.688  1.3756 -1.4999 -0.7662
17060SOL    HW252794   4.262   4.064   5.736 -1.2990  0.5462  0.1934
17061SOL     OW52795   0.232   9.393   1.234 -0.3863  0.5444  0.5583
17061SOL    HW152796   0.171   9.324   1.209  0.4853 -0.5367  1.2880
17061SOL    HW252797   0.316   9.365   1.196  0.1927  0.6458  1.7156
17062SOL     OW52798   6.636   0.844   8.589 -0.1538  0.3999 -0.1982
17062SOL    HW152799   6.658   0.893   8.510  2.7349 -1.2176 -0.5140
17062SOL    HW252800   6.657   0.903   8.661 -0.9266  1.1639 -0.5800
17063SOL     OW52801   0.288   6.579   8.444 -0.1556  0.0513  0.6474
17063SOL    HW152802   0.304   6.486   8.462 -2.6769 -0.4841  0.4416
17063SOL    HW252803   0.263   6.616   8.529 -1.0216  0.1027  0.3726
17064SOL     OW52804   7.575   6.801   4.606 -0.2253 -0.1317 -0.0410
17064SOL    HW152805   7.618   6.875   4.648 -0.9580  0.6346 -0.6135
17064SOL    HW252806   7.508   6.840   4.550 -1.0303 -1.2450  0.0955
17065SOL     OW52807   8.886   8.834   1.203  0.5149  0.2149 -0.4737
17065SOL    HW152808   8.923   8.912   1.162  0.7984 -0.9299 -2.5240
17065SOL    HW252809   8.819   8.804   1.141 -0.0520 -0.8100  0.5918
17066SOL     OW52810   7.204   3.452   1.051 -0.4557  0.0199  0.5996
17066SOL    HW152811   7.133   3.508   1.021 -0.1471  0.2474  0.2843
17066SOL    HW252812   7.245   3.501   1.122  2.3828  2.1842 -2.2061
17067SOL     OW52813   6.775   3.284   0.472 -0.2722 -0.3279  0.1176
17067SOL    HW152814   6.870   3.293   0.481 -0.2776 -0.3005  0.1427
17067SOL    HW252815   6.755   3.325   0.388 -0.3918  0.5370  0.5600
17068SOL     OW52816   0.597   1.161   9.027  0.8875  0.2653  0.4688
17068SOL    HW152817   0.568   1.101   8.958  0.2426  1.5693 -0.4093
17068SOL    HW252818   0.660   1.219   8.984  0.2311  1.3041  0.8802
17069SOL     OW52819   7.228   8.453   8.620  0.2876 -0.3328  0.0426
17069SOL    HW152820   7.177   8.518   8.573 -0.4590  0.0631  1.3576
17069SOL    HW252821   7.287   8.504   8.675  0.9812 -0.7841 -0.2680
17070SOL     OW52822   0.875   4.008   3.990 -0.1084  0.0350 -0.0382
17070SOL    HW152823   0.837   4.039   3.908 -0.0834  2.6796  0.8556
17070SOL    HW252824   0.964   4.046   3.990 -0.8890  2.1068  2.1733
17071SOL     OW52825   7.882   4.961   4.099  0.3487  0.2585 -0.7615
17071SOL    HW152826   7.890   5.053   4.072  1.9679  0.3725  0.0145
17071SOL    HW252827   7.817   4.924   4.039  0.9320  1.4797 -2.2094
17072SOL     OW52828   3.137   5.826   4.212  0.1701 -0.6890 -0.3208
17072SOL    HW152829   3.113   5.791   4.298  0.0422 -2.0041 -0.8567
17072SOL    HW252830   3.233   5.826   4.211  0.1935  0.7271  0.3431
17073SOL     OW52831   9.389   7.978   0.490  0.3307 -0.1074 -0.3149
17073SOL    HW152832   9.395   8.066   0.527 -2.5565 -0.6067  1.6672
17073SOL    HW252833   9.302   7.974   0.451  0.1203 -2.2511  0.2257
17074SOL     OW52834   0.298   6.955   8.741  0.4491 -0.3728 -0.0947
17074SOL    HW152835   0.219   6.938   8.690  1.2917  0.0891 -1.6170
17074SOL    HW252836   0.344   6.871   8.743 -0.0916 -0.6694  0.8826
17075SOL     OW52837   2.859   3.734   7.721  0.4218 -0.0459  0.4513
17075SOL    HW152838   2.889   3.660   7.668 -0.8520  0.3087 -0.8050
17075SOL    HW252839   2.931   3.797   7.717  0.6924 -0.3849 -0.1154
17076SOL     OW52840   7.349   2.150   7.368 -0.4374  0.1098 -0.1233
17076SOL    HW152841   7.355   2.153   7.464 -2.0769 -1.7939  0.0816
17076SOL    HW252842   7.273   2.203   7.347 -1.3745 -1.2194 -0.1716
17077SOL     OW52843   2.195   9.633   3.196  0.8290  0.6845  0.7216
17077SOL    HW152844   2.254   9.667   3.263 -0.6891 -1.0533  3.0996
17077SOL    HW252845   2.241   9.557   3.160  2.0179  2.1172 -0.9248
17078SOL     OW52846   4.920   5.658   8.767  0.4732 -0.2734 -0.3084
17078SOL    HW152847   4.885   5.568   8.769 -0.2120 -0.0105 -0.2354
17078SOL    HW252848   4.971   5.661   8.687 -0.8101 -0.2641 -1.1643
17079SOL     OW52849   0.588   1.360   4.670  0.3771  0.4140  0.3172
17079SOL    HW152850   0.582   1.438   4.615 -1.0311  0.4751  0.5201
17079SOL    HW252851   0.632   1.390   4.749 -1.0298  1.2706  0.8116
17080SOL     OW52852   2.140   5.378   1.289  0.3678  0.4702  0.0311
17080SOL    HW152853   2.207   5.420   1.235 -1.5795  1.0864 -2.1104
17080SOL    HW252854   2.077   5.343   1.225 -1.8221  0.7371  1.9043
17081SOL     OW52855   6.072   6.824   0.412  0.0379 -0.5644  0.5630
17081SOL    HW152856   6.010   6.883   0.370 -2.0477 -1.4512  2.2227
17081SOL    HW252857   6.050   6.828   0.505 -0.1395 -3.7948  0.7828
17082SOL     OW52858   3.493   0.158   2.405  0.4573  0.2145  0.0534
17082SOL    HW152859   3.558   0.228   2.394  1.1727 -0.6826 -1.7594
17082SOL    HW252860   3.427   0.175   2.338  0.2109 -0.4072  0.1291
17083SOL     OW52861   5.595   0.547   8.841  0.3770  0.0567  0.7716
17083SOL    HW152862   5.600   0.637   8.874  0.3328 -0.5756  2.6394
17083SOL    HW252863   5.502   0.529   8.834  0.3863  0.3336 -0.1734
17084SOL     OW52864   9.636   7.772   2.748  0.6266 -0.1019  0.2289
17084SOL    HW152865   9.606   7.815   2.668 -2.1390  0.5321  1.4680
17084SOL    HW252866   9.682   7.694   2.717  0.0836  0.3745 -1.9763
17085SOL     OW52867   3.681   3.994   2.818 -0.3246 -0.4772 -0.0394
17085SOL    HW152868   3.627   4.009   2.895 -1.2604 -0.7783 -0.6199
17085SOL    HW252869   3.650   3.910   2.782  0.9186 -0.9511 -0.0669
17086SOL     OW52870   1.710   7.976   0.761  0.0243 -1.1993 -0.0394
17086SOL    HW152871   1.795   7.931   0.755  2.4262  2.6673  1.2369
17086SOL    HW252872   1.700   8.019   0.676 -0.4832 -1.3640 -0.0638
17087SOL     OW52873   4.687   5.791   8.757  0.4928  0.5430 -0.4525
17087SOL    HW152874   4.629   5.770   8.830 -0.4369  0.6140 -1.1443
17087SOL    HW252875   4.758   5.728   8.763  0.2414  0.3284  0.3099
17088SOL     OW52876   3.642   1.644   5.211 -0.2690 -0.1703  0.1262
17088SOL    HW152877   3.555   1.680   5.195 -0.6919 -1.2022  0.0095
17088SOL    HW252878   3.628   1.574   5.275  0.4011 -0.6145 -0.1907
17089SOL     OW52879   5.550   8.019   6.147 -0.1673  0.1795 -0.5581
17089SOL    HW152880   5.455   8.009   6.142 -0.4031  2.1902 -1.2211
17089SOL    HW252881   5.573   8.072   6.070  1.3695  0.4723  0.0474
17090SOL     OW52882   1.490   7.909   0.131 -0.3615  0.6281 -0.1772
17090SOL    HW152883   1.537   7.883   0.210 -0.2327  0.6720 -0.2399
17090SOL    HW252884   1.541   7.871   0.059 -0.9220 -0.1072 -0.2030
17091SOL     OW52885   9.306   8.934   7.140  0.2709  0.4096 -0.0998
17091SOL    HW152886   9.394   8.928   7.176  0.7371  1.0991 -1.0586
17091SOL    HW252887   9.305   8.873   7.066 -0.7284 -1.1270  1.1104
17092SOL     OW52888   1.909   2.426   2.819 -0.0856 -0.4235 -0.1373
17092SOL    HW152889   1.907   2.517   2.790  0.1643  0.6741  2.9538
17092SOL    HW252890   2.002   2.408   2.835 -0.0683 -1.4510 -1.2843
17093SOL     OW52891   8.496   8.071   3.308 -0.3117 -0.0785 -0.8205
17093SOL    HW152892   8.575   8.020   3.324  0.0376  0.7152  0.1196
17093SOL    HW252893   8.528   8.159   3.289 -0.9397  0.0189 -1.4805
17094SOL     OW52894   6.041   9.693   9.730 -0.2398 -0.1719 -0.2782
17094SOL    HW152895   6.085   9.778   9.730 -0.4025 -0.0850  0.3135
17094SOL    HW252896   5.949   9.713   9.746  0.0077 -0.5657  2.1462
17095SOL     OW52897   4.887   6.171   0.540  0.1160 -0.2435 -0.1906
17095SOL    HW152898   4.929   6.195   0.622  1.4633 -1.5468 -0.4731
17095SOL    HW252899   4.835   6.248   0.516 -0.3576  0.1227  1.8922
17096SOL     OW52900   9.052   8.258   0.761 -0.7349  0.5811 -0.1010
17096SOL    HW152901   9.053   8.277   0.668 -0.0654 -1.3652 -0.5317
17096SOL    HW252902   9.050   8.163   0.767  0.1332  0.6246  1.8614
17097SOL     OW52903   2.471   1.087   3.593  0.2427  0.1311 -0.0846
17097SOL    HW152904   2.507   1.008   3.635 -1.2246 -1.7692 -2.1875
17097SOL    HW252905   2.397   1.111   3.649  0.9779  0.3319  0.8311
17098SOL     OW52906   6.495   2.232   0.235 -0.2106  0.1043  0.2082
17098SOL    HW152907   6.456   2.320   0.237  0.1226  0.2665 -0.3048
17098SOL    HW252908   6.490   2.206   0.143  0.1233 -0.2243  0.2828
17099SOL     OW52909   3.435   8.236   4.104  0.4400 -0.6239  0.1325
17099SOL    HW152910   3.493   8.304   4.137  0.5515 -0.7116  0.1197
17099SOL    HW252911   3.390   8.276   4.030  1.9859 -1.1745 -1.1724
17100SOL     OW52912   9.162   1.658   4.684  0.6569  0.7221  0.1371
17100SOL    HW152913   9.198   1.745   4.670  0.3312  1.0264  1.0613
17100SOL    HW252914   9.091   1.650   4.619 -0.8817  2.1110  1.5417
17101SOL     OW52915   4.847   8.018   3.359  0.4167  0.2508  0.0208
17101SOL    HW152916   4.855   8.113   3.373  0.9216 -0.0146  1.7852
17101SOL    HW252917   4.802   8.010   3.275 -1.7246  2.1109  0.8724
17102SOL     OW52918   2.324   7.599   0.068 -0.6511  0.0536  0.1751
17102SOL    HW152919   2.344   7.693   0.063  1.4250 -0.0642  3.3017
17102SOL    HW252920   2.230   7.594   0.051 -0.6065  2.4991 -1.3430
17103SOL     OW52921   7.905   5.831   3.193 -0.1912  0.1325 -1.0392
17103SOL    HW152922   7.983   5.776   3.189  0.6664  1.2585 -0.4309
17103SOL    HW252923   7.839   5.778   3.239  0.0447 -1.0025 -1.9758
17104SOL     OW52924   1.986   0.683   6.425  0.6112  0.3760  0.3999
17104SOL    HW152925   1.966   0.675   6.518 -0.6836  1.8196  0.2914
17104SOL    HW252926   2.007   0.594   6.397  0.9130 -0.1019  2.0361
17105SOL     OW52927   0.731   3.658   5.082 -0.2038 -0.3530  0.1319
17105SOL    HW152928   0.689   3.612   5.155  0.4715 -1.9866 -0.4618
17105SOL    HW252929   0.819   3.620   5.077 -0.3612 -0.5531 -1.7710
17106SOL     OW52930   2.036   1.587   3.646 -0.1255 -0.1814  0.1208
17106SOL    HW152931   2.116   1.583   3.594 -0.2018 -0.7420  0.0457
17106SOL    HW252932   2.060   1.638   3.723 -0.0849  0.9150 -0.5958
17107SOL     OW52933   3.772   5.957   0.016 -0.4937 -1.1840  0.0830
17107SOL    HW152934   3.866   5.943   0.023 -0.0412  0.7881 -1.1222
17107SOL    HW252935   3.754   5.952  -0.078 -1.8040 -2.5274  0.3638
17108SOL     OW52936   2.874   2.775   7.685 -0.6220  0.1960 -0.0365
17108SOL    HW152937   2.963   2.798   7.660 -0.9203  0.0148 -1.3254
17108SOL    HW252938   2.818   2.830   7.630 -1.3145  0.0339  0.4786
17109SOL     OW52939   6.067   5.486   0.348 -0.3643 -0.4851 -0.1234
17109SOL    HW152940   6.081   5.550   0.278 -0.8555 -0.7544 -0.4789
17109SOL    HW252941   6.006   5.423   0.310 -2.1535  0.3848  1.1531
17110SOL     OW52942   3.104   3.719   4.385  0.7287 -0.1397  0.1254
17110SOL    HW152943   3.053   3.721   4.466  1.3600 -1.0975  0.5594
17110SOL    HW252944   3.181   3.774   4.405  0.0936  0.9628 -0.3885
17111SOL     OW52945   1.565   6.888   9.174 -0.4902 -0.3534  0.0421
17111SOL    HW152946   1.525   6.874   9.259  1.3069 -0.1486  0.9708
17111SOL    HW252947   1.659   6.892   9.192 -0.1777  2.0215 -1.6148
17112SOL     OW52948   6.315   6.581   1.775  0.6786  0.4960  0.0732
17112SOL    HW152949   6.406   6.579   1.745  0.8812 -1.7163  0.6246
17112SOL    HW252950   6.312   6.515   1.844 -1.4076  0.3521 -0.1147
17113SOL     OW52951   9.337   1.862   4.382 -0.1378 -0.2769 -0.3915
17113SOL    HW152952   9.432   1.859   4.372  0.0774 -2.4790  1.5270
17113SOL    HW252953   9.322   1.918   4.458 -0.1701 -1.6381  0.6487
17114SOL     OW52954   1.866   2.986   7.509 -0.1362  0.9952  0.0583
17114SOL    HW152955   1.950   2.988   7.462 -0.3600  0.5463 -0.3751
17114SOL    HW252956   1.886   2.941   7.591  0.4660  2.6177  0.8328
17115SOL     OW52957   9.642   9.811   9.357 -0.1446  0.4892  0.3663
17115SOL    HW152958   9.700   9.850   9.292  0.0488 -0.2017  0.1226
17115SOL    HW252959   9.661   9.718   9.354 -1.5117  0.1985  0.0306
17116SOL     OW52960   8.072   2.318   7.543 -0.9094 -0.4981 -0.5843
17116SOL    HW152961   8.133   2.261   7.496  0.6536  1.1315 -0.6332
17116SOL    HW252962   8.012   2.258   7.586  1.4880 -2.3018  0.5010
17117SOL     OW52963   5.736   0.869   2.196 -0.3803  0.1648  0.1451
17117SOL    HW152964   5.671   0.906   2.256 -0.7658 -0.4109  0.0894
17117SOL    HW252965   5.783   0.946   2.161 -0.3380  0.5208  0.9620
17118SOL     OW52966   7.352   1.306   3.767 -0.3740 -0.4578  0.3563
17118SOL    HW152967   7.411   1.232   3.774 -0.2825 -0.2515  2.2911
17118SOL    HW252968   7.343   1.321   3.673  2.3951 -0.6736 -0.0087
17119SOL     OW52969   4.900   9.454   7.805 -0.0891  0.2037 -0.3501
17119SOL    HW152970   4.896   9.491   7.893 -0.9961  1.2118 -0.7920
17119SOL    HW252971   4.949   9.519   7.754 -0.3771  0.0690 -0.8041
17120SOL     OW52972   1.055   7.287   8.259 -0.0619  0.6100  0.5338
17120SOL    HW152973   1.099   7.317   8.339 -0.3559  2.8416 -0.0587
17120SOL    HW252974   1.112   7.218   8.225  1.5231  1.4833  1.2655
17121SOL     OW52975   7.375   6.549   4.821 -0.3304 -0.1553  0.3687
17121SOL    HW152976   7.416   6.502   4.895 -2.0833  0.3693  1.7559
17121SOL    HW252977   7.284   6.517   4.821 -0.7942  1.1166 -0.4989
17122SOL     OW52978   4.292   4.662   0.607 -0.1390  0.2624 -0.6627
17122SOL    HW152979   4.340   4.708   0.675  0.9355  0.6036 -1.6107
17122SOL    HW252980   4.267   4.730   0.545 -0.1499 -0.1730 -1.1448
17123SOL     OW52981   5.197   6.868   3.450  0.7709 -0.1930  0.2684
17123SOL    HW152982   5.198   6.772   3.447  0.4916 -0.2337  1.0642
17123SOL    HW252983   5.106   6.891   3.432  0.9670 -0.0400 -0.5580
17124SOL     OW52984   3.648   8.014   9.690 -0.1716 -0.1170  0.2775
17124SOL    HW152985   3.618   7.947   9.629  3.0290  1.1953 -3.0905
17124SOL    HW252986   3.729   7.980   9.726 -0.6971  0.2438  1.8853
17125SOL     OW52987   2.062   5.299   5.945 -0.4969  0.1433 -0.0395
17125SOL    HW152988   2.036   5.389   5.927  2.1382  0.5111 -2.8852
17125SOL    HW252989   2.053   5.254   5.861 -0.5818 -1.9623  1.0249
17126SOL     OW52990   9.006   6.080   4.415 -0.2108 -0.0930  0.3221
17126SOL    HW152991   8.978   6.028   4.339  0.6823 -1.1437  0.6846
17126SOL    HW252992   8.950   6.158   4.413 -0.7272 -0.4753 -0.9617
17127SOL     OW52993   4.223   5.014   1.659 -0.2544 -0.4678  0.0691
17127SOL    HW152994   4.269   5.092   1.631 -2.4299  1.0818  0.5630
17127SOL    HW252995   4.280   4.941   1.633  1.7043  1.2414 -0.6347
17128SOL     OW52996   4.346   5.879   6.796 -0.0493  0.4642 -0.7002
17128SOL    HW152997   4.394   5.945   6.847  1.8474 -0.5963 -1.0125
17128SOL    HW252998   4.331   5.807   6.857  0.0216  0.2056 -0.9848
17129SOL     OW52999   0.274   2.857   3.737  0.3298  0.2943 -0.4550
17129SOL    HW153000   0.206   2.920   3.714  1.0327  0.8176 -1.1566
17129SOL    HW253001   0.347   2.911   3.766  0.4010 -0.2672  0.4334
17130SOL     OW53002   6.631   7.313   0.949 -0.0163 -0.9234 -0.1099
17130SOL    HW153003   6.538   7.291   0.945 -0.3654  0.1884 -4.8132
17130SOL    HW253004   6.635   7.393   1.002 -1.6545 -1.1693  0.4443
17131SOL     OW53005   7.735   9.711   7.268 -0.1952  0.5603  0.2030
17131SOL    HW153006   7.668   9.653   7.233  0.8529 -1.1629  0.9578
17131SOL    HW253007   7.718   9.714   7.362  1.8041 -1.3861  0.7050
17132SOL     OW53008   2.936   5.566   6.528 -0.0698 -0.7062 -0.5101
17132SOL    HW153009   2.885   5.591   6.605 -1.7948  0.1507 -1.8634
17132SOL    HW253010   2.882   5.501   6.483  1.6677 -2.4910 -0.1931
17133SOL     OW53011   4.354   2.968   3.385 -0.1327 -0.0984  0.0318
17133SOL    HW153012   4.383   3.042   3.439 -2.5435  0.4095  0.7457
17133SOL    HW253013   4.307   3.009   3.312 -0.3562 -0.8837 -0.2749
17134SOL     OW53014   2.630   1.363   7.125 -0.1394 -0.2601  0.2223
17134SOL    HW153015   2.692   1.349   7.196 -0.1184 -0.0745  0.2417
17134SOL    HW253016   2.628   1.280   7.078  1.3615  0.2108 -0.7587
17135SOL     OW53017   9.734   3.929   1.846 -0.0191  0.8534 -0.2911
17135SOL    HW153018   9.793   3.959   1.916  1.5204 -2.1689 -0.0886
17135SOL    HW253019   9.722   4.006   1.790  0.6160  2.7433  1.9916
17136SOL     OW53020   2.811   0.566   7.001  0.0368  0.1184 -0.7819
17136SOL    HW153021   2.885   0.610   6.959 -0.3969  1.7274  0.0954
17136SOL    HW253022   2.760   0.636   7.040  0.1512 -1.2392  2.0508
17137SOL     OW53023   1.883   7.114   5.195  0.0987  0.5094  0.4917
17137SOL    HW153024   1.799   7.159   5.190 -0.9649 -1.4233  0.0304
17137SOL    HW253025   1.862   7.021   5.183  2.3799  0.0329 -0.4366
17138SOL     OW53026   3.820   9.831   0.151 -0.0194  0.5956 -0.0030
17138SOL    HW153027   3.844   9.828   0.058  0.4758  0.8113  0.1123
17138SOL    HW253028   3.764   9.909   0.158  1.6355  1.8196  0.2405
17139SOL     OW53029   8.279   4.776   2.634 -0.3556  0.1017 -0.6470
17139SOL    HW153030   8.289   4.868   2.611 -2.4385  1.0501  1.8293
17139SOL    HW253031   8.332   4.765   2.713  0.2016 -0.9721 -1.1411
17140SOL     OW53032   9.624   5.144   3.233  0.1889 -0.3328  0.0542
17140SOL    HW153033   9.684   5.138   3.158 -1.2064 -0.6490 -1.0681
17140SOL    HW253034   9.655   5.077   3.294 -0.1267 -1.7791 -1.3335
17141SOL     OW53035   1.046   9.671   4.373  0.6521 -0.4746 -0.0387
17141SOL    HW153036   0.996   9.742   4.413  0.5926  0.0210 -0.9438
17141SOL    HW253037   0.992   9.643   4.298  1.0154 -0.9794 -0.1225
17142SOL     OW53038   0.598   0.271   1.137 -0.1915  0.2306  0.0286
17142SOL    HW153039   0.606   0.331   1.211  0.7293  0.7710 -0.4872
17142SOL    HW253040   0.504   0.254   1.130 -0.2000 -0.9372  2.1644
17143SOL     OW53041   7.119   7.876   4.027 -0.0462 -0.4544  0.0614
17143SOL    HW153042   7.180   7.807   4.002  1.4808  1.0278 -0.4968
17143SOL    HW253043   7.055   7.879   3.955 -0.1540 -1.2936  0.1159
17144SOL     OW53044   1.076   0.560   2.245  0.3613  0.6959  0.2857
17144SOL    HW153045   1.082   0.475   2.200  2.7139  1.1672 -0.4257
17144SOL    HW253046   1.018   0.612   2.190 -0.9895 -0.3684  0.6480
17145SOL     OW53047   5.446   6.752   3.040 -0.0209 -0.4938  0.0600
17145SOL    HW153048   5.445   6.838   3.082 -1.1760 -0.2394 -0.4578
17145SOL    HW253049   5.406   6.766   2.954 -2.3454 -1.9314  0.8054
17146SOL     OW53050   0.285   5.927   7.350  0.3978 -0.0346 -0.4008
17146SOL    HW153051   0.360   5.986   7.346  0.3404  0.1097  0.4879
17146SOL    HW253052   0.305   5.858   7.287  0.9336  0.3977 -0.7065
17147SOL     OW53053   5.593   3.434   9.605 -0.1179 -0.1929  0.1309
17147SOL    HW153054   5.509   3.438   9.650  0.0890  3.7112  0.5489
17147SOL    HW253055   5.571   3.442   9.512 -0.2494 -1.3386  0.0495
17148SOL     OW53056   3.511   3.005   7.703 -0.2779 -0.0806  0.3784
17148SOL    HW153057   3.525   3.014   7.797 -0.0496 -0.7153  0.4130
17148SOL    HW253058   3.484   2.914   7.692  0.6304 -0.2813 -0.2785
17149SOL     OW53059   8.226   9.258   5.628  0.0319 -0.0687  0.0086
17149SOL    HW153060   8.184   9.179   5.661 -0.5662 -0.1412 -0.8919
17149SOL    HW253061   8.157   9.324   5.630 -0.0888 -0.1454 -1.3469
17150SOL     OW53062   4.583   8.171   4.678 -0.0090 -0.2705 -0.2534
17150SOL    HW153063   4.677   8.175   4.691  0.4266 -0.6385 -2.7284
17150SOL    HW253064   4.570   8.191   4.585 -2.2869 -1.0310 -0.1859
17151SOL     OW53065   0.271   0.180   2.482 -0.0213 -1.0702 -0.0181
17151SOL    HW153066   0.298   0.170   2.390  0.0777  1.5755 -0.3396
17151SOL    HW253067   0.290   0.094   2.521 -0.1025 -2.2934 -2.4471
17152SOL     OW53068   4.339   7.393   1.598  0.0608 -0.8223 -0.1334
17152SOL    HW153069   4.376   7.434   1.520 -0.7972  1.7693  0.7215
17152SOL    HW253070   4.248   7.375   1.575 -0.1993 -0.0361  0.2208
17153SOL     OW53071   3.337   1.138   3.360 -0.1473 -0.7165 -0.5284
17153SOL    HW153072   3.402   1.199   3.396 -0.2146 -0.8553 -0.1700
17153SOL    HW253073   3.386   1.058   3.344 -0.4837 -1.2395  0.9267
17154SOL     OW53074   5.092   6.082   1.804  0.0077  0.6670 -0.6743
17154SOL    HW153075   5.054   6.025   1.871  2.5656 -0.8099 -0.3454
17154SOL    HW253076   5.109   6.024   1.730  1.8806  1.1149 -0.6501
17155SOL     OW53077   0.445   5.345   1.810 -0.5957 -0.1708 -0.1463
17155SOL    HW153078   0.420   5.316   1.722 -2.3594  1.0544 -0.0973
17155SOL    HW253079   0.457   5.263   1.859 -1.1250 -0.8616 -1.1343
17156SOL     OW53080   4.003   1.620   7.101  0.0427  0.2609 -0.3628
17156SOL    HW153081   4.093   1.646   7.123  0.7756 -1.1703 -1.4470
17156SOL    HW253082   3.992   1.536   7.145 -0.7713  0.4172 -0.2635
17157SOL     OW53083   2.305   0.368   1.630 -0.2138  0.2922  0.6408
17157SOL    HW153084   2.332   0.276   1.635 -0.4333  0.2670  1.5897
17157SOL    HW253085   2.368   0.409   1.571 -1.7047 -1.0167 -2.0282
17158SOL     OW53086   7.917   6.371   1.918  0.1066 -0.1553 -0.1196
17158SOL    HW153087   7.910   6.292   1.972  0.3571  0.3717  0.6997
17158SOL    HW253088   7.997   6.357   1.867  0.2396 -0.3571  0.1395
17159SOL     OW53089   0.958   3.425   7.035  0.3973  0.4638  0.4784
17159SOL    HW153090   1.052   3.441   7.032  0.0235  2.9634 -1.0007
17159SOL    HW253091   0.931   3.425   6.943 -0.8463 -2.1756  0.7391
17160SOL     OW53092   4.105   7.181   3.279 -0.0028  0.1964  0.5790
17160SOL    HW153093   4.178   7.215   3.227 -0.3190 -0.9278 -0.6763
17160SOL    HW253094   4.131   7.092   3.301 -0.2353  0.3863  1.6956
17161SOL     OW53095   0.998   0.935   4.966  0.1335  0.7004 -0.0358
17161SOL    HW153096   0.921   0.889   4.934 -1.7488  2.6338  1.4095
17161SOL    HW253097   1.012   0.901   5.055  1.2260  0.1054 -0.4096
17162SOL     OW53098   2.441   7.375   0.856 -0.0211 -0.1242  0.0200
17162SOL    HW153099   2.537   7.383   0.860 -0.0921  0.3171  1.4246
17162SOL    HW253100   2.427   7.297   0.802  1.1215 -0.1397 -0.3027
17163SOL     OW53101   5.130   5.439   2.499 -0.1520 -0.1255 -0.0806
17163SOL    HW153102   5.143   5.475   2.587  0.6098  1.5556 -0.8402
17163SOL    HW253103   5.117   5.516   2.443  1.1996 -1.0336 -1.7414
17164SOL     OW53104   3.191   5.629   5.662 -0.5834 -0.0705  0.2455
17164SOL    HW153105   3.276   5.634   5.618 -1.0291  2.2211 -0.4924
17164SOL    HW253106   3.128   5.620   5.590 -1.0523 -0.3137  0.6885
17165SOL     OW53107   5.930   3.719   1.969  0.4160 -0.3902  0.0867
17165SOL    HW153108   5.882   3.801   1.955  0.5015 -0.2016  0.8629
17165SOL    HW253109   6.012   3.746   2.011  1.2348 -0.7025 -1.2409
17166SOL     OW53110   0.425   8.622   2.816  0.4155  0.5810 -0.4247
17166SOL    HW153111   0.479   8.684   2.767 -2.2387  2.7784 -0.8139
17166SOL    HW253112   0.364   8.587   2.751  0.5226 -0.9054  0.2327
17167SOL     OW53113   9.273   7.028   0.842 -0.1326  0.2686 -0.1888
17167SOL    HW153114   9.201   7.012   0.781  0.3412 -0.0030 -0.6718
17167SOL    HW253115   9.274   7.123   0.853 -1.0066  0.2367  0.3620
17168SOL     OW53116   3.526   4.457   9.019 -0.3926  0.0881 -0.1602
17168SOL    HW153117   3.450   4.505   8.985  0.3762  1.5048  0.0555
17168SOL    HW253118   3.532   4.484   9.111  1.4710  1.5277 -0.6382
17169SOL     OW53119   3.720   0.268   8.668 -0.3595 -0.2483  0.0285
17169SOL    HW153120   3.764   0.278   8.584 -0.5774  1.1499  0.0557
17169SOL    HW253121   3.782   0.304   8.732 -0.7055 -0.1558  0.3150
17170SOL     OW53122   0.121   6.622   5.993  0.3191 -0.1793  0.4282
17170SOL    HW153123   0.053   6.565   5.958  0.1363 -0.3658  1.0871
17170SOL    HW253124   0.199   6.567   5.996 -0.2659 -0.9892  2.7768
17171SOL     OW53125   3.186   8.184   3.443 -0.0361  0.0942  0.4869
17171SOL    HW153126   3.253   8.194   3.376  0.4143 -0.0845  0.9086
17171SOL    HW253127   3.181   8.269   3.486 -0.3270  0.2100  0.2332
17172SOL     OW53128   9.058   8.717   3.531  0.1970 -0.0617 -0.1439
17172SOL    HW153129   9.066   8.717   3.435  0.3773 -0.1237 -0.1284
17172SOL    HW253130   9.041   8.626   3.553 -1.2328  0.1602 -0.2339
17173SOL     OW53131   8.099   5.966   6.870  0.4148 -0.7642  0.3302
17173SOL    HW153132   8.129   5.974   6.779  1.3012 -1.5457  0.5371
17173SOL    HW253133   8.156   5.899   6.908 -0.2866 -0.8201  1.3235
17174SOL     OW53134   6.735   8.673   4.727  0.2722  0.3637 -0.7882
17174SOL    HW153135   6.646   8.641   4.717  0.5663 -0.1097 -1.9863
17174SOL    HW253136   6.785   8.597   4.757  0.8155 -0.1663 -2.8898
17175SOL     OW53137   2.701   6.870   2.810 -0.3115  0.1069 -0.2223
17175SOL    HW153138   2.674   6.792   2.859  0.1540 -0.7509 -1.2819
17175SOL    HW253139   2.794   6.879   2.829 -0.5496  0.9507  0.6050
17176SOL     OW53140   2.188   8.458   4.616  0.7185 -0.4988 -0.2793
17176SOL    HW153141   2.200   8.363   4.629  2.3686 -0.4884 -1.3643
17176SOL    HW253142   2.224   8.474   4.529  0.0547  1.0824 -0.2906
17177SOL     OW53143   2.017   5.324   2.681 -0.2170  0.0709 -0.1132
17177SOL    HW153144   1.936   5.363   2.648  0.0908 -0.1445 -1.1507
17177SOL    HW253145   1.995   5.295   2.770 -0.9241  1.0873  0.0638
17178SOL     OW53146   1.200   6.099   7.189  0.0369  0.1932 -0.5859
17178SOL    HW153147   1.161   6.187   7.189 -0.1247  0.1389 -1.7421
17178SOL    HW253148   1.174   6.062   7.105 -1.5959 -1.7493  0.6953
17179SOL     OW53149   8.379   5.642   2.441 -0.2277 -0.2012  0.1085
17179SOL    HW153150   8.339   5.605   2.362 -0.2397 -0.7505  0.3673
17179SOL    HW253151   8.305   5.660   2.499 -0.2379  0.4198 -0.0925
17180SOL     OW53152   1.911   0.428   4.259 -0.6097 -0.4669 -0.1197
17180SOL    HW153153   1.942   0.403   4.172  0.9955 -1.8771  0.7961
17180SOL    HW253154   1.880   0.346   4.298 -1.2690  0.1370  0.6622
17181SOL     OW53155   4.406   5.279   2.806 -0.8630  0.6721  0.2620
17181SOL    HW153156   4.450   5.197   2.829  0.4562  1.2778 -0.0090
17181SOL    HW253157   4.358   5.259   2.726 -0.9563  0.0418  0.4697
17182SOL     OW53158   9.437   3.921   9.716 -0.5851  0.1836  0.4498
17182SOL    HW153159   9.520   3.948   9.754  1.1728 -1.3341 -2.0543
17182SOL    HW253160   9.394   3.870   9.785  0.2146  1.5149  1.9920
17183SOL     OW53161   8.860   2.464   5.193 -0.1704  0.3900 -0.4254
17183SOL    HW153162   8.889   2.554   5.185  1.3399 -0.1088 -0.9167
17183SOL    HW253163   8.901   2.418   5.119 -3.6116 -0.0814 -2.2183
17184SOL     OW53164   3.893   4.751   4.786  0.1452  0.3879 -0.1202
17184SOL    HW153165   3.800   4.735   4.773  0.1612  0.9485 -1.0067
17184SOL    HW253166   3.897   4.832   4.837  0.1437  0.3082  0.0055
17185SOL     OW53167   0.107   9.246   6.721 -0.2484 -0.3833 -0.2432
17185SOL    HW153168   0.191   9.274   6.758  0.0742 -1.8842  0.2478
17185SOL    HW253169   0.055   9.326   6.714  1.0998  0.5133 -0.2245
17186SOL     OW53170   2.859   9.584   6.215  0.5695  0.3364 -0.0303
17186SOL    HW153171   2.857   9.489   6.222  0.0415  0.4373  1.5252
17186SOL    HW253172   2.907   9.601   6.134 -2.7922 -1.3052 -2.5879
17187SOL     OW53173   0.863   5.077   7.676 -0.3733  0.3205  0.0172
17187SOL    HW153174   0.920   5.141   7.635 -3.0265  1.7671 -1.7225
17187SOL    HW253175   0.822   5.124   7.749  0.0679 -0.4574  0.7825
17188SOL     OW53176   1.173   5.548   2.049 -0.2417 -0.4028  0.3960
17188SOL    HW153177   1.118   5.541   1.971 -0.7366  2.7907  0.3297
17188SOL    HW253178   1.239   5.614   2.026  1.3497 -1.4459  1.7507
17189SOL     OW53179   2.682   3.082   1.840 -0.7323  0.7772 -0.7788
17189SOL    HW153180   2.771   3.061   1.868 -2.1046 -1.6129  2.4764
17189SOL    HW253181   2.679   3.177   1.837  1.3454  0.9830  1.2918
17190SOL     OW53182   8.614   8.495   9.743  0.1607  0.6613 -0.1336
17190SOL    HW153183   8.627   8.496   9.648  0.9766 -1.2856 -0.0967
17190SOL    HW253184   8.527   8.460   9.756  0.2491  0.4364 -0.1508
17191SOL     OW53185   4.604   3.294   8.811 -0.0372 -0.0997  0.0762
17191SOL    HW153186   4.617   3.376   8.763  1.1472  0.0973  0.6899
17191SOL    HW253187   4.520   3.305   8.855  0.6055  1.2779  1.0439
17192SOL     OW53188   3.169   4.201   7.273  0.0118 -0.8149  0.0681
17192SOL    HW153189   3.116   4.125   7.297  1.6457 -1.7755  0.7754
17192SOL    HW253190   3.239   4.166   7.219 -0.1483  0.4733 -1.0467
17193SOL     OW53191   5.944   4.345   9.525  0.5440 -0.1332 -0.3274
17193SOL    HW153192   5.974   4.269   9.475  0.4598 -0.0235 -0.5493
17193SOL    HW253193   5.905   4.309   9.604  0.0054 -0.3556 -0.6864
17194SOL     OW53194   6.759   6.548   5.620 -0.5188 -0.0503 -0.0851
17194SOL    HW153195   6.778   6.633   5.659 -1.2838  0.3451 -0.5222
17194SOL    HW253196   6.805   6.549   5.536  0.2707 -0.4732  0.3365
17195SOL     OW53197   4.216   8.945   5.772  0.2056 -0.4120  0.0760
17195SOL    HW153198   4.204   8.851   5.788 -0.5423 -0.2494  0.5211
17195SOL    HW253199   4.236   8.982   5.858  3.9934 -0.6236 -0.5678
17196SOL     OW53200   5.724   3.448   7.181 -0.1715  0.6118 -0.0505
17196SOL    HW153201   5.753   3.539   7.171  0.4216  0.6536  1.6404
17196SOL    HW253202   5.645   3.442   7.127  0.6402  1.6819 -1.4257
17197SOL     OW53203   6.709   2.557   6.211 -0.0144  0.0430 -0.1294
17197SOL    HW153204   6.627   2.583   6.252 -0.1846 -1.0938  0.2649
17197SOL    HW253205   6.715   2.463   6.224  1.5767  0.1599  0.2607
17198SOL     OW53206   0.397   1.200   9.607  0.0547  0.5217  0.3325
17198SOL    HW153207   0.489   1.208   9.582 -0.1946  2.5330 -0.1416
17198SOL    HW253208   0.365   1.290   9.606 -2.5291 -0.2941 -1.8804
17199SOL     OW53209   9.292   8.218   7.749 -0.3886  0.0230  0.5766
17199SOL    HW153210   9.248   8.284   7.803  0.7412  0.1376  1.3951
17199SOL    HW253211   9.350   8.269   7.692  0.3194 -0.2388  1.0544
17200SOL     OW53212   3.541   9.511   2.742 -0.2860  0.6375  0.3401
17200SOL    HW153213   3.578   9.440   2.793 -3.2337 -0.0688  1.7149
17200SOL    HW253214   3.451   9.520   2.774 -0.5132  4.0317 -0.7894
17201SOL     OW53215   1.944   9.717   0.807  0.0914 -0.0198  0.1776
17201SOL    HW153216   2.019   9.658   0.804  0.5844  0.4756  1.8415
17201SOL    HW253217   1.981   9.804   0.793 -0.4506  0.0497 -0.9136
17202SOL     OW53218   5.057   6.326   6.497 -0.4467  0.1645  0.1633
17202SOL    HW153219   5.071   6.337   6.403 -1.2326 -0.2899 -0.0136
17202SOL    HW253220   5.106   6.397   6.537  0.2622  0.1014 -0.5664
17203SOL     OW53221   7.970   1.784   6.133  0.2571  0.0105 -0.3835
17203SOL    HW153222   8.018   1.812   6.211  1.2586 -0.2607 -0.8827
17203SOL    HW253223   7.989   1.691   6.125 -0.7146 -0.1941 -0.3498
17204SOL     OW53224   5.344   9.099   3.782 -0.1855 -0.0234 -0.1351
17204SOL    HW153225   5.257   9.140   3.786 -0.8348 -0.6137 -3.7985
17204SOL    HW253226   5.326   9.006   3.771  0.8580 -0.1137 -1.2820
17205SOL     OW53227   0.724   2.891   2.408 -0.3197 -0.2068 -0.5380
17205SOL    HW153228   0.695   2.861   2.321 -0.5869 -0.8872 -0.2231
17205SOL    HW253229   0.814   2.860   2.415 -0.5390 -0.7978 -0.2824
17206SOL     OW53230   6.044   2.334   3.205  0.1687 -0.3965 -0.0732
17206SOL    HW153231   6.055   2.263   3.142  1.3329  1.8160 -2.5323
17206SOL    HW253232   5.950   2.350   3.207 -0.2204 -2.4191  1.1391
17207SOL     OW53233   7.828   7.586   7.996  0.1256  1.1675  0.0650
17207SOL    HW153234   7.789   7.504   8.028  1.2643  0.1841 -0.9574
17207SOL    HW253235   7.892   7.610   8.063  1.4524 -0.0921 -0.6766
17208SOL     OW53236   6.208   1.140   5.351 -0.0535  0.1057  0.1520
17208SOL    HW153237   6.264   1.199   5.301 -1.0731 -0.4427 -1.7227
17208SOL    HW253238   6.268   1.090   5.405  0.9418  1.9065  0.8051
17209SOL     OW53239   0.939   4.652   6.184 -0.0285  0.3173  0.1716
17209SOL    HW153240   0.997   4.588   6.143 -1.8926 -1.0233 -0.5017
17209SOL    HW253241   0.899   4.605   6.258  0.7912  1.6682  1.5269
17210SOL     OW53242   0.883   0.555   3.449  0.1362  0.1685  0.1174
17210SOL    HW153243   0.802   0.599   3.424  0.4994  0.0178 -1.4456
17210SOL    HW253244   0.949   0.624   3.449  0.6117 -0.2122 -1.8630
17211SOL     OW53245   8.367   7.357   4.154 -0.5015  0.0879  0.0998
17211SOL    HW153246   8.319   7.287   4.111 -1.1215  0.9201 -0.6086
17211SOL    HW253247   8.314   7.379   4.232 -2.1801  2.0135 -1.4580
17212SOL     OW53248   6.224   4.418   2.634 -0.4340 -0.3120 -0.3226
17212SOL    HW153249   6.289   4.356   2.601  0.3547 -1.3163  2.8191
17212SOL    HW253250   6.144   4.367   2.642 -0.1532 -0.5895  0.9166
17213SOL     OW53251   8.578   4.044   3.476 -0.3151  0.2949 -0.4745
17213SOL    HW153252   8.504   4.006   3.427  1.2401 -2.5867 -0.7907
17213SOL    HW253253   8.554   4.136   3.487 -4.6972 -0.7511  0.8316
17214SOL     OW53254   2.419   5.242   6.567 -0.6078 -0.3181  0.1732
17214SOL    HW153255   2.465   5.201   6.494 -0.4055  1.1384 -0.5506
17214SOL    HW253256   2.488   5.284   6.618 -1.1130  3.8802 -2.1709
17215SOL     OW53257   9.127   3.791   2.199  0.5572  0.2843 -0.0782
17215SOL    HW153258   9.124   3.879   2.161  1.0352  0.1238 -0.4975
17215SOL    HW253259   9.056   3.744   2.156  0.1553  0.5231  0.3105
17216SOL     OW53260   8.925   4.053   9.615 -0.3544  0.2407  0.1720
17216SOL    HW153261   8.897   3.968   9.647  0.2681 -0.2678 -0.5982
17216SOL    HW253262   9.014   4.064   9.649 -1.0866  1.4463  1.8552
17217SOL     OW53263   8.854   7.549   1.148  0.1282 -0.4191  0.1664
17217SOL    HW153264   8.800   7.599   1.087 -1.0741  0.6853  2.0061
17217SOL    HW253265   8.821   7.575   1.235  2.1112 -1.4774  1.3030
17218SOL     OW53266   6.335   9.548   4.082 -0.0436 -0.4686 -0.6485
17218SOL    HW153267   6.395   9.556   4.156  1.4488  0.2851 -1.9014
17218SOL    HW253268   6.376   9.485   4.023 -1.5577 -1.6029 -0.5799
17219SOL     OW53269   0.425   1.163   8.205 -0.2393 -0.5443 -0.4127
17219SOL    HW153270   0.347   1.216   8.226 -0.9047 -1.7766  0.3521
17219SOL    HW253271   0.401   1.074   8.231  1.0768 -1.1264 -1.1076
17220SOL     OW53272   4.935   3.251   4.342  0.2326  0.0523  0.4557
17220SOL    HW153273   4.890   3.269   4.260  1.5857  2.1505  0.0920
17220SOL    HW253274   4.877   3.190   4.388 -0.9483 -0.5401 -1.6794
17221SOL     OW53275   9.338   1.037   7.134  0.1929  0.4104  0.2251
17221SOL    HW153276   9.333   1.076   7.046 -0.1320 -0.2487 -0.0587
17221SOL    HW253277   9.421   0.990   7.134  0.1871  0.4003  0.2610
17222SOL     OW53278   3.464   5.346   8.579  1.1237  0.2987 -0.2738
17222SOL    HW153279   3.472   5.440   8.566  0.4020  0.5179  0.7573
17222SOL    HW253280   3.554   5.314   8.581  1.3851  1.0252 -0.2660
17223SOL     OW53281   6.676   6.156   9.274  0.1226  0.2956  0.1719
17223SOL    HW153282   6.583   6.179   9.276 -0.3016 -1.3358  0.6247
17223SOL    HW253283   6.677   6.064   9.246  1.6449  0.4679 -0.3974
17224SOL     OW53284   6.907   1.313   1.496  0.4640 -0.2119  0.6562
17224SOL    HW153285   6.822   1.355   1.509 -0.1078 -0.9931 -0.3876
17224SOL    HW253286   6.886   1.229   1.457  1.8414  0.6829 -2.2610
17225SOL     OW53287   2.723   5.196   7.861 -0.0433  0.4926  0.0828
17225SOL    HW153288   2.698   5.138   7.933 -0.8035  0.2466 -0.3761
17225SOL    HW253289   2.679   5.279   7.882  0.1443  0.5716  0.1637
17226SOL     OW53290   0.185   7.496   4.832  0.3816 -0.5699 -0.4848
17226SOL    HW153291   0.273   7.513   4.868 -0.0165  2.1980 -0.5741
17226SOL    HW253292   0.200   7.432   4.763  2.0356 -1.5516  0.6903
17227SOL     OW53293   7.094   6.435   4.815  0.7779 -0.6806  0.2226
17227SOL    HW153294   7.000   6.430   4.802  0.8816 -0.3838 -0.7713
17227SOL    HW253295   7.121   6.344   4.831  0.6203 -1.1911 -1.9601
17228SOL     OW53296   0.215   2.631   4.532  0.5449 -0.6074 -0.2118
17228SOL    HW153297   0.125   2.603   4.515  0.7013 -1.2432 -0.0063
17228SOL    HW253298   0.260   2.616   4.449  0.4411 -0.1676 -0.3549
17229SOL     OW53299   6.692   3.285   2.709 -0.4766  0.4349 -0.4413
17229SOL    HW153300   6.750   3.274   2.784  0.8994  0.3942 -1.4821
17229SOL    HW253301   6.604   3.273   2.745  0.1349  0.6272  1.1919
17230SOL     OW53302   7.934   3.990   4.512 -0.1370  0.5934  0.4602
17230SOL    HW153303   8.003   3.925   4.504 -0.5336  0.0228  1.5054
17230SOL    HW253304   7.892   3.992   4.426  1.0591  0.8376 -0.1419
17231SOL     OW53305   7.706   5.536   8.572  0.8752 -0.1012  0.1785
17231SOL    HW153306   7.799   5.544   8.551  0.8050  0.5096  0.0922
17231SOL    HW253307   7.660   5.563   8.492  0.6186 -0.3746  0.2286
17232SOL     OW53308   5.874   8.962   4.331 -0.5645  0.0757  0.3445
17232SOL    HW153309   5.895   9.054   4.351 -0.2490  0.9188 -3.1461
17232SOL    HW253310   5.805   8.967   4.265 -3.1435 -2.4029  2.6011
17233SOL     OW53311   3.155   8.346   2.186 -0.3025 -0.3054  0.4278
17233SOL    HW153312   3.130   8.389   2.104 -1.4048 -0.4133  0.6986
17233SOL    HW253313   3.112   8.397   2.254  1.3654  0.3522  1.0325
17234SOL     OW53314   0.093   7.938   3.524  0.3638 -0.0381 -0.3213
17234SOL    HW153315   0.155   7.918   3.595 -0.0244 -1.0308 -0.2567
17234SOL    HW253316   0.011   7.959   3.569 -0.1748 -1.6949 -0.4921
17235SOL     OW53317   8.435   9.763   1.491  0.0031  0.0660 -0.2029
17235SOL    HW153318   8.506   9.703   1.468  0.2983  0.1607  0.4380
17235SOL    HW253319   8.479   9.844   1.516 -0.3279  0.1169  0.2265
17236SOL     OW53320   7.931   0.976   6.327 -0.1090  0.0396 -0.1459
17236SOL    HW153321   7.981   0.898   6.351  0.6334  0.5157 -0.1231
17236SOL    HW253322   7.987   1.022   6.264  0.5493  1.7609  1.5951
17237SOL     OW53323   8.885   3.205   8.487  0.0029  0.3445  1.0995
17237SOL    HW153324   8.961   3.250   8.451  1.0427 -0.8269  1.7669
17237SOL    HW253325   8.877   3.125   8.434  0.2073 -0.3075  2.0382
17238SOL     OW53326   7.039   6.773   2.012 -0.0129  0.0426 -0.6942
17238SOL    HW153327   7.112   6.773   2.074 -0.5483  2.2608 -0.0012
17238SOL    HW253328   6.963   6.753   2.065 -0.3201  0.7999 -0.8444
17239SOL     OW53329   2.299   1.767   0.000 -0.2965  0.6717 -0.3974
17239SOL    HW153330   2.276   1.750   0.092 -1.4529  1.6871 -0.4608
17239SOL    HW253331   2.233   1.720  -0.050 -0.5769  1.3442 -0.6672
17240SOL     OW53332   1.514   0.207   7.345  0.0231 -0.1315  0.0509
17240SOL    HW153333   1.575   0.267   7.388 -0.1143  0.9310 -1.1522
17240SOL    HW253334   1.505   0.134   7.405  4.3543 -1.5805 -0.7334
17241SOL     OW53335   5.839   2.894   4.697  0.7258 -0.0201 -0.4472
17241SOL    HW153336   5.911   2.909   4.759  0.8282  1.4637 -0.8800
17241SOL    HW253337   5.786   2.826   4.738  3.0247 -2.1093 -0.6864
17242SOL     OW53338   5.970   3.112   6.781  0.2336 -0.2841  0.3418
17242SOL    HW153339   5.982   3.077   6.869  1.1539  0.2869  0.4549
17242SOL    HW253340   5.879   3.142   6.780  0.4789  0.5741  1.4295
17243SOL     OW53341   6.975   4.804   3.891 -0.3799  0.2174  0.1076
17243SOL    HW153342   6.920   4.881   3.909 -0.1576  0.4027  0.0008
17243SOL    HW253343   6.918   4.745   3.842  0.0920  1.2430 -1.7608
17244SOL     OW53344   7.820   2.807   7.118 -0.3250  0.3934 -0.4423
17244SOL    HW153345   7.836   2.721   7.081 -0.3346 -0.4207  1.3506
17244SOL    HW253346   7.907   2.846   7.126  0.0680 -0.7568  1.6625
17245SOL     OW53347   8.851   9.009   3.494 -0.5047 -0.6002  0.6881
17245SOL    HW153348   8.934   9.045   3.525 -1.4504  1.9679  0.4850
17245SOL    HW253349   8.816   8.960   3.569  0.9634 -1.4078  0.8920
17246SOL     OW53350   0.487   1.682   1.348 -0.1337  0.5085  0.4897
17246SOL    HW153351   0.492   1.738   1.271 -0.6049 -1.4338 -1.0541
17246SOL    HW253352   0.525   1.733   1.418  0.3742  2.3406 -1.0457
17247SOL     OW53353   5.155   4.613   9.714 -0.3480  0.2598 -0.1557
17247SOL    HW153354   5.190   4.670   9.645 -2.2153 -0.8846 -2.1828
17247SOL    HW253355   5.233   4.579   9.758  0.9016  1.6531 -1.1866
17248SOL     OW53356   3.974   9.012   8.346  0.2234  0.6326 -0.4439
17248SOL    HW153357   3.914   8.938   8.337  1.0125  0.1241 -1.7631
17248SOL    HW253358   3.921   9.089   8.326  0.0304  0.1828 -1.7268
17249SOL     OW53359   4.932   5.579   3.577 -0.0875  0.2524  0.3867
17249SOL    HW153360   5.004   5.532   3.619  0.7180  0.7433 -0.4154
17249SOL    HW253361   4.871   5.510   3.550  1.1204 -0.3841 -0.8674
17250SOL     OW53362   9.348   3.764   0.053 -0.3592 -0.0367  0.6937
17250SOL    HW153363   9.384   3.676   0.061 -0.8759 -0.3625 -0.4126
17250SOL    HW253364   9.262   3.759   0.094 -1.1439 -0.5391 -0.9515
17251SOL     OW53365   3.658   8.186   2.618 -0.1295  0.2115  0.2324
17251SOL    HW153366   3.639   8.244   2.544 -1.1930 -1.4348 -0.8579
17251SOL    HW253367   3.705   8.241   2.680 -0.0505  1.9125 -1.2483
17252SOL     OW53368   6.531   3.040   0.117 -0.4163 -0.4380 -0.0004
17252SOL    HW153369   6.622   3.012   0.126  0.0196  0.9816  0.3057
17252SOL    HW253370   6.532   3.098   0.041 -1.1983 -0.8797 -0.3598
17253SOL     OW53371   6.171   3.959   9.582  0.6023  0.2089 -0.1272
17253SOL    HW153372   6.126   3.902   9.644 -1.8508  1.3054 -0.7752
17253SOL    HW253373   6.190   4.039   9.631 -1.1061  0.9734 -0.5997
17254SOL     OW53374   6.779   2.390   1.741  0.0813  0.0474 -0.1067
17254SOL    HW153375   6.725   2.313   1.755 -0.4784  0.4362 -0.0735
17254SOL    HW253376   6.868   2.357   1.733 -0.2537 -0.6697 -0.9366
17255SOL     OW53377   9.727   6.915   9.741 -0.2851  0.1742  0.0647
17255SOL    HW153378   9.640   6.904   9.780  0.2802  0.2399  1.4161
17255SOL    HW253379   9.751   7.005   9.762  0.6126 -0.2274  0.8079
17256SOL     OW53380   6.148   2.369   0.347 -0.0795 -0.2020 -0.5585
17256SOL    HW153381   6.107   2.435   0.403  1.2338  1.4172 -1.4267
17256SOL    HW253382   6.215   2.329   0.402 -1.2102 -1.2090  0.1287
17257SOL     OW53383   1.670   8.422   2.357  0.1935  0.4372  0.4104
17257SOL    HW153384   1.641   8.514   2.354  0.9969  0.6756 -0.7244
17257SOL    HW253385   1.761   8.426   2.384 -0.0391 -0.1143  1.3163
17258SOL     OW53386   6.084   5.020   0.761 -0.4924 -0.7366  0.0002
17258SOL    HW153387   6.136   5.070   0.824 -2.3918  1.8443 -0.3165
17258SOL    HW253388   6.038   4.955   0.814  0.7560 -1.0729  0.6991
17259SOL     OW53389   5.870   3.083   5.715 -0.7336  0.0641  0.0301
17259SOL    HW153390   5.948   3.035   5.743 -2.0486 -1.3061  1.5511
17259SOL    HW253391   5.855   3.147   5.785 -0.7501  0.6327 -0.4804
17260SOL     OW53392   4.783   7.346   4.085 -0.0896 -0.1876  0.2432
17260SOL    HW153393   4.847   7.353   4.014  0.9302  0.1788  1.1714
17260SOL    HW253394   4.798   7.424   4.139 -2.0793  0.5121 -0.1001
17261SOL     OW53395   7.588   7.555   9.715  0.0707  0.0311 -0.2705
17261SOL    HW153396   7.650   7.578   9.785 -0.5663 -0.6150  0.5378
17261SOL    HW253397   7.520   7.622   9.721 -0.8657 -0.9754  0.8980
17262SOL     OW53398   4.070   9.818   1.012  0.5587 -0.6887 -0.0889
17262SOL    HW153399   4.064   9.913   1.022  3.9618 -0.2511 -1.0764
17262SOL    HW253400   3.994   9.795   0.958 -0.7586  1.3009  0.7884
17263SOL     OW53401   8.963   3.577   3.509 -0.1085 -0.6326  0.3332
17263SOL    HW153402   8.993   3.494   3.546  0.1046 -1.5219 -1.6568
17263SOL    HW253403   8.955   3.559   3.415 -0.8665  1.3785 -0.0353
17264SOL     OW53404   3.635   3.558   4.302  0.0195  0.4276 -0.2473
17264SOL    HW153405   3.641   3.586   4.210  0.6642  0.1446 -0.2967
17264SOL    HW253406   3.564   3.494   4.303 -1.0862  1.6089 -0.2411
17265SOL     OW53407   0.777   7.192   2.279  0.0548  0.3006  0.0428
17265SOL    HW153408   0.719   7.117   2.275 -2.2687  2.0298 -3.1639
17265SOL    HW253409   0.861   7.159   2.249 -0.8948 -1.0574 -1.2659
17266SOL     OW53410   4.258   9.722   4.266 -0.2938  0.5568  0.0781
17266SOL    HW153411   4.284   9.739   4.175 -1.1492 -2.1239 -0.7563
17266SOL    HW253412   4.163   9.712   4.262 -0.2090 -0.8322  1.0033
17267SOL     OW53413   2.197   7.085   7.571  0.4356 -0.8190  0.5303
17267SOL    HW153414   2.241   7.169   7.562  2.8990 -2.0949 -0.3372
17267SOL    HW253415   2.133   7.084   7.499 -0.9073  0.9622  1.6282
17268SOL     OW53416   3.693   6.689   9.643  0.4057  0.2980  0.1917
17268SOL    HW153417   3.698   6.609   9.591  2.4421  0.3793  0.1752
17268SOL    HW253418   3.607   6.726   9.621 -0.1780 -1.3657 -0.5336
17269SOL     OW53419   5.248   7.959   7.011 -0.2606  0.0887  0.4299
17269SOL    HW153420   5.192   7.883   7.024  0.1959 -0.0075  2.0191
17269SOL    HW253421   5.264   7.993   7.099 -0.1798  1.8383 -0.2127
17270SOL     OW53422   3.834   1.222   2.254  0.9149 -0.1641  0.0209
17270SOL    HW153423   3.824   1.227   2.159 -0.4446  0.6956  0.1792
17270SOL    HW253424   3.826   1.129   2.274 -3.1630 -0.0611 -0.3727
17271SOL     OW53425   8.583   2.875   8.074 -0.1008 -0.1162  0.3900
17271SOL    HW153426   8.566   2.781   8.087 -0.6275 -0.3688 -1.7256
17271SOL    HW253427   8.640   2.878   7.997 -3.0697  1.3769 -1.9512
17272SOL     OW53428   6.416   7.207   7.235 -0.0652 -0.4194  0.8841
17272SOL    HW153429   6.385   7.250   7.156  0.5808 -0.6336  0.5105
17272SOL    HW253430   6.450   7.277   7.290  0.7260 -0.4156  0.3974
17273SOL     OW53431   0.823   2.170   9.358 -0.8344  0.1951 -0.4280
17273SOL    HW153432   0.818   2.092   9.413 -1.2622  0.2253 -0.4205
17273SOL    HW253433   0.732   2.197   9.346 -0.6964  0.6366 -0.5129
17274SOL     OW53434   8.131   5.450   8.399 -0.3215 -0.3335  0.7114
17274SOL    HW153435   8.212   5.413   8.435  0.0950  0.2481  0.4000
17274SOL    HW253436   8.066   5.382   8.411 -0.0920 -0.3432  2.1403
17275SOL     OW53437   4.776   6.670   9.127 -0.3969 -0.4193 -0.4539
17275SOL    HW153438   4.837   6.615   9.077  0.8282  0.7446 -0.2950
17275SOL    HW253439   4.805   6.760   9.111 -0.5812  0.0504  1.5287
17276SOL     OW53440   6.012   1.755   5.982 -0.1731  0.3198  0.0590
17276SOL    HW153441   5.966   1.771   5.900 -2.7242  1.1368  1.5117
17276SOL    HW253442   5.950   1.703   6.034  1.4062 -0.2926  1.4039
17277SOL     OW53443   3.624   3.369   3.947 -0.2972  0.1003  0.1081
17277SOL    HW153444   3.618   3.439   4.012  0.9264  0.4643 -0.1457
17277SOL    HW253445   3.636   3.289   3.999  0.3536  0.3481  0.3487
17278SOL     OW53446   1.836   3.710   0.349 -0.0754 -0.5210  0.1158
17278SOL    HW153447   1.843   3.626   0.394  1.7236 -0.7598 -0.5315
17278SOL    HW253448   1.896   3.768   0.396 -0.5404  0.1191 -0.0621
17279SOL     OW53449   7.806   4.177   5.218  0.1700  0.1861 -0.9957
17279SOL    HW153450   7.789   4.186   5.125  0.6821  0.4853 -1.0607
17279SOL    HW253451   7.719   4.178   5.258 -0.0350  0.3523 -1.4428
17280SOL     OW53452   1.145   4.325   8.456 -0.0227 -0.4195  0.4024
17280SOL    HW153453   1.218   4.370   8.413 -0.5111 -0.0478 -0.0496
17280SOL    HW253454   1.067   4.364   8.418 -0.4695 -1.5374  0.1202
17281SOL     OW53455   5.715   7.447   8.077  0.0309 -0.1996  0.4162
17281SOL    HW153456   5.658   7.522   8.060  1.0483  0.6851  0.7703
17281SOL    HW253457   5.751   7.425   7.991 -0.3964 -0.4009  0.2844
17282SOL     OW53458   1.466   6.867   9.419  0.3236 -0.2364  0.2815
17282SOL    HW153459   1.484   6.941   9.477  3.0600 -0.0778 -0.6448
17282SOL    HW253460   1.520   6.796   9.454  0.2148 -0.8303 -0.7285
17283SOL     OW53461   6.708   3.098   1.560 -0.0259 -0.0745  0.5182
17283SOL    HW153462   6.793   3.082   1.601  0.0931  1.7189  1.0707
17283SOL    HW253463   6.720   3.070   1.469  1.2135  0.2580  0.5497
17284SOL     OW53464   0.007   3.453   6.107 -0.0621  0.6612 -0.9040
17284SOL    HW153465   0.071   3.524   6.095  0.2645  1.3000  3.0485
17284SOL    HW253466  -0.071   3.497   6.140 -0.9561 -0.5562 -1.3350
17285SOL     OW53467   9.470   8.515   9.554  0.6211 -0.3448  0.3602
17285SOL    HW153468   9.552   8.488   9.512  0.6517 -0.5894  0.5725
17285SOL    HW253469   9.403   8.489   9.491  0.7540  0.7099 -0.2406
17286SOL     OW53470   6.235   6.011   9.161  0.3457 -0.6518  0.6276
17286SOL    HW153471   6.283   5.938   9.122  0.3444 -0.0420 -0.5392
17286SOL    HW253472   6.143   5.996   9.138  0.3210 -0.3825  0.5429
17287SOL     OW53473   3.135   3.056   8.393 -0.5050  0.1826 -0.6088
17287SOL    HW153474   3.099   3.055   8.304 -0.9617  0.3338 -0.4284
17287SOL    HW253475   3.115   3.144   8.426  0.9207  0.6149 -0.8647
17288SOL     OW53476   5.485   4.588   5.626 -0.1497  0.0077  0.0814
17288SOL    HW153477   5.441   4.542   5.698  0.5908  0.6353  0.9693
17288SOL    HW253478   5.555   4.529   5.599  1.4016  0.9304  1.8567
17289SOL     OW53479   3.664   4.148   4.167  0.5645  0.5529  0.1652
17289SOL    HW153480   3.623   4.228   4.135 -0.4754  0.3468  0.9066
17289SOL    HW253481   3.721   4.119   4.096 -1.5365  0.1669 -1.4720
17290SOL     OW53482   5.223   8.676   8.644  0.0678 -0.0539  0.4575
17290SOL    HW153483   5.147   8.731   8.622 -0.0195 -0.4262 -0.1828
17290SOL    HW253484   5.194   8.626   8.720 -0.3099 -0.1440  0.2589
17291SOL     OW53485   2.410   4.353   3.189 -0.0326 -0.4224 -0.4346
17291SOL    HW153486   2.319   4.326   3.194 -0.5020  1.2532  0.5650
17291SOL    HW253487   2.454   4.300   3.256 -0.7616  0.5241  0.8388
17292SOL     OW53488   7.089   7.765   0.507  0.3345 -0.3123 -0.1528
17292SOL    HW153489   7.093   7.728   0.595 -0.3736 -0.2986 -0.1096
17292SOL    HW253490   6.995   7.771   0.488  0.4812 -0.9152 -1.1531
17293SOL     OW53491   5.371   3.496   6.410 -0.0911 -0.2844 -0.5039
17293SOL    HW153492   5.428   3.426   6.379 -0.2489 -0.7451  0.2241
17293SOL    HW253493   5.408   3.522   6.494 -1.2657 -0.9756  0.2445
17294SOL     OW53494   2.638   5.219   4.669 -0.0378 -0.3378 -0.0037
17294SOL    HW153495   2.605   5.144   4.718 -2.0809  0.4694 -0.0577
17294SOL    HW253496   2.570   5.237   4.603  0.3747  1.5728  0.0376
17295SOL     OW53497   1.550   0.612   4.250  0.0016  0.2850 -0.5426
17295SOL    HW153498   1.603   0.692   4.249  0.9777 -0.2868  1.3103
17295SOL    HW253499   1.534   0.593   4.157  0.5469  2.0934 -1.0435
17296SOL     OW53500   9.799   2.904   4.592  0.4454 -0.3662 -0.1929
17296SOL    HW153501   9.878   2.903   4.537 -0.2475  1.0403 -1.2711
17296SOL    HW253502   9.744   2.973   4.554 -0.3361  0.2538  1.9074
17297SOL     OW53503   2.081   5.626   2.288  0.5280 -0.5286  0.2113
17297SOL    HW153504   2.093   5.538   2.324 -0.9308 -0.7433  0.2483
17297SOL    HW253505   2.149   5.679   2.330  3.2891 -2.1590 -1.8781
17298SOL     OW53506   9.020   5.126   8.321  0.0230  0.3432  0.2395
17298SOL    HW153507   9.037   5.095   8.410  0.9349 -1.4319 -0.4983
17298SOL    HW253508   8.926   5.143   8.319 -0.3795 -1.5061  1.0396
17299SOL     OW53509   5.749   0.916   7.157 -0.7080 -0.0205 -0.2375
17299SOL    HW153510   5.809   0.974   7.202 -0.5554  0.1756 -0.6919
17299SOL    HW253511   5.787   0.829   7.168 -1.9480 -0.3419  2.1494
17300SOL     OW53512   3.499   0.751   2.084 -0.3875 -0.2718  0.0303
17300SOL    HW153513   3.589   0.765   2.053  0.2586  2.1767  2.6263
17300SOL    HW253514   3.445   0.805   2.026  0.3754  1.4678  0.8599
17301SOL     OW53515   7.442   6.903   1.009  0.5644  0.0241  0.6722
17301SOL    HW153516   7.376   6.936   0.948  1.3769 -2.1909 -1.5536
17301SOL    HW253517   7.491   6.981   1.035 -1.7399  1.4760  1.0064
17302SOL     OW53518   1.818   6.002   9.252  0.2955  0.3331 -0.2541
17302SOL    HW153519   1.793   5.919   9.210  0.5248  0.3406 -0.4066
17302SOL    HW253520   1.870   5.976   9.328 -0.8817  0.2825  0.5710
17303SOL     OW53521   5.649   5.040   4.586 -0.7384  0.3386 -0.0992
17303SOL    HW153522   5.559   5.017   4.609 -0.4544 -0.3012  0.3730
17303SOL    HW253523   5.687   5.071   4.668  0.6464 -3.0789  0.7198
17304SOL     OW53524   1.856   8.217   2.152  0.2143 -0.5111  0.0762
17304SOL    HW153525   1.864   8.126   2.182 -0.9669 -0.3240  1.0319
17304SOL    HW253526   1.923   8.264   2.202  1.8104 -1.0533 -1.4560
17305SOL     OW53527   5.824   8.292   5.181 -0.0336 -0.2594 -0.5542
17305SOL    HW153528   5.814   8.199   5.202  1.2812 -0.1288  0.8463
17305SOL    HW253529   5.918   8.307   5.185 -0.1220  0.9202 -1.8937
17306SOL     OW53530   5.928   1.121   9.553 -0.3528 -0.3780  0.6142
17306SOL    HW153531   5.906   1.138   9.645 -2.0185  1.0792  0.0171
17306SOL    HW253532   6.018   1.152   9.544 -0.4729  0.3190  1.5693
17307SOL     OW53533   1.299   6.827   0.001  0.0959  0.5902 -0.4012
17307SOL    HW153534   1.308   6.779   0.083 -2.6926  2.4846  1.1682
17307SOL    HW253535   1.375   6.884  -0.002 -0.5795  1.7206  1.8449
17308SOL     OW53536   7.639   4.596   0.954  0.2744  0.5157  0.4184
17308SOL    HW153537   7.579   4.536   0.998  0.4446 -0.6988 -0.9267
17308SOL    HW253538   7.721   4.546   0.946  0.7850  1.3579  0.3225
17309SOL     OW53539   2.441   5.242   1.054 -0.2172 -0.2291 -0.4002
17309SOL    HW153540   2.535   5.256   1.062 -0.4142 -0.0543  4.7462
17309SOL    HW253541   2.430   5.147   1.062 -0.4764 -0.0842  1.4356
17310SOL     OW53542   7.161   1.892   4.813 -0.0741  0.3412 -0.6872
17310SOL    HW153543   7.231   1.957   4.814 -0.3661  0.6638  0.3477
17310SOL    HW253544   7.120   1.899   4.900 -1.0150 -0.2421 -1.0606
17311SOL     OW53545   4.856   0.655   5.381  0.2495  0.6883 -0.4097
17311SOL    HW153546   4.855   0.712   5.303  1.2165  0.7094 -0.4080
17311SOL    HW253547   4.891   0.572   5.350  0.4820  0.6418 -0.0247
17312SOL     OW53548   2.367   7.102   7.915 -0.6118  0.2808 -0.3142
17312SOL    HW153549   2.405   7.145   7.838 -0.6182 -0.6706 -0.8529
17312SOL    HW253550   2.336   7.017   7.884 -1.4270  0.2369  0.5420
17313SOL     OW53551   1.382   2.673   7.402 -0.0806 -0.5330 -0.2052
17313SOL    HW153552   1.384   2.760   7.441 -0.9769 -0.6392  0.0845
17313SOL    HW253553   1.436   2.620   7.460 -0.2002 -0.3541  0.0705
17314SOL     OW53554   9.198   1.586   3.898  0.3291  0.3294 -0.1410
17314SOL    HW153555   9.239   1.558   3.816  0.2159  2.4345 -0.9820
17314SOL    HW253556   9.267   1.635   3.943  0.7331 -1.6989  1.5890
17315SOL     OW53557   3.833   8.499   0.098 -0.8609  0.3176 -0.0385
17315SOL    HW153558   3.803   8.570   0.154  0.3458  1.5332 -0.8473
17315SOL    HW253559   3.770   8.429   0.111 -2.4870  1.7737  0.2974
17316SOL     OW53560   9.275   2.335   2.293 -0.0850  0.0110  0.2998
17316SOL    HW153561   9.330   2.400   2.249 -1.0142 -0.4189 -1.5523
17316SOL    HW253562   9.314   2.326   2.380  1.1602  1.6772 -0.0445
17317SOL     OW53563   0.348   4.642   8.211 -0.4591 -0.0756 -0.5186
17317SOL    HW153564   0.430   4.608   8.247 -0.6712  0.3584  0.4019
17317SOL    HW253565   0.286   4.569   8.218 -0.8598  0.4015  1.2688
17318SOL     OW53566   0.842   7.429   1.003  0.4215 -0.1716  0.0299
17318SOL    HW153567   0.862   7.482   1.081 -1.4619  1.6358 -0.6118
17318SOL    HW253568   0.915   7.445   0.944  1.3000 -0.6319  0.9672
17319SOL     OW53569   7.914   2.797   6.755  0.2100  0.3388  0.2658
17319SOL    HW153570   7.863   2.755   6.685  0.1261  0.2515  0.3774
17319SOL    HW253571   7.992   2.830   6.712 -0.3098  1.1843 -0.0641
17320SOL     OW53572   7.217   0.956   0.676  0.6816  0.1236 -0.3231
17320SOL    HW153573   7.201   0.898   0.750 -0.2446 -1.0578 -1.3921
17320SOL    HW253574   7.283   1.017   0.707  0.4043 -0.4039  1.4260
17321SOL     OW53575   0.464   5.082   6.373 -0.5342  0.1658  0.2822
17321SOL    HW153576   0.462   5.177   6.378  0.1138  0.2792 -1.1183
17321SOL    HW253577   0.508   5.055   6.454 -0.0176  1.1108  0.3344
17322SOL     OW53578   5.666   5.397   3.362 -0.4328 -0.2604 -0.4591
17322SOL    HW153579   5.755   5.367   3.342 -0.8573 -1.1269 -1.1325
17322SOL    HW253580   5.669   5.423   3.454  0.8082  0.8376 -0.7887
17323SOL     OW53581   0.778   8.818   9.767 -0.2886 -0.2400  0.5512
17323SOL    HW153582   0.689   8.810   9.799  0.0393  0.1072  1.5834
17323SOL    HW253583   0.780   8.902   9.721 -0.5156 -0.2992  0.4338
17324SOL     OW53584   0.442   9.549   3.467  0.2744 -0.5158  0.0906
17324SOL    HW153585   0.513   9.518   3.523  0.1381 -1.5380 -0.2793
17324SOL    HW253586   0.375   9.482   3.474  0.2966 -0.7364 -1.3647
17325SOL     OW53587   5.926   7.047   8.977 -0.0308 -0.1151  0.4565
17325SOL    HW153588   5.870   7.120   9.006  0.2640 -0.4114  1.8770
17325SOL    HW253589   6.014   7.073   9.003  0.5305  0.2946 -1.6688
17326SOL     OW53590   6.726   6.707   4.749  0.8619 -0.3407  0.0668
17326SOL    HW153591   6.667   6.761   4.801  0.9339 -0.8545  0.6893
17326SOL    HW253592   6.679   6.692   4.667  0.9417  0.8651 -0.2237
17327SOL     OW53593   1.431   0.867   3.091 -0.3521 -1.0750  0.1424
17327SOL    HW153594   1.403   0.806   3.022  0.0745 -1.8993  0.6846
17327SOL    HW253595   1.514   0.831   3.122  0.2187  0.1332  0.0576
17328SOL     OW53596   5.652   7.583   0.461  0.2361  0.4383  0.5555
17328SOL    HW153597   5.620   7.673   0.471 -0.4713  0.2792 -0.1571
17328SOL    HW253598   5.746   7.589   0.475  0.3710  1.4998 -0.6435
17329SOL     OW53599   8.280   9.543   4.223 -0.0051  0.0816 -0.4740
17329SOL    HW153600   8.231   9.466   4.193  0.0317  0.1668 -0.7563
17329SOL    HW253601   8.235   9.616   4.182  0.9519  0.0939 -1.5244
17330SOL     OW53602   0.978   9.819   9.488  0.6392 -0.6841  0.1565
17330SOL    HW153603   1.008   9.909   9.478  3.3573 -1.3295  1.5419
17330SOL    HW253604   0.893   9.817   9.443  0.5100  2.5049  0.0036
17331SOL     OW53605   0.443   7.716   6.105  0.1801  0.3351  0.0059
17331SOL    HW153606   0.349   7.696   6.113  0.0303  1.3050  0.9928
17331SOL    HW253607   0.481   7.685   6.187  0.0218  3.3873  1.3570
17332SOL     OW53608   8.759   0.978   4.039 -0.0642  0.3146 -0.1120
17332SOL    HW153609   8.688   0.971   3.975  0.5211 -0.2957 -0.7121
17332SOL    HW253610   8.734   0.920   4.111  0.1127 -0.3877 -0.6088
17333SOL     OW53611   5.213   4.064   0.198  0.1972  0.6580 -0.2793
17333SOL    HW153612   5.142   4.078   0.135  0.7719 -2.3201 -1.7935
17333SOL    HW253613   5.193   3.979   0.238  1.1025  1.3895  1.8916
17334SOL     OW53614   7.389   9.345   3.835  0.3663 -0.3414  0.2069
17334SOL    HW153615   7.390   9.405   3.910  0.5852  0.5266 -0.4660
17334SOL    HW253616   7.304   9.301   3.840  0.2195 -0.0053  0.7445
17335SOL     OW53617   3.721   6.704   7.685  0.3774  0.0336 -0.1710
17335SOL    HW153618   3.784   6.760   7.730  0.1328 -0.4535  0.8094
17335SOL    HW253619   3.666   6.668   7.755 -0.0008 -0.7640 -0.8543
17336SOL     OW53620   4.761   4.402   4.123  0.5334 -0.1344  0.1492
17336SOL    HW153621   4.779   4.312   4.148  0.8472 -0.4650 -1.1812
17336SOL    HW253622   4.676   4.399   4.079 -1.4185  0.8876  3.4641
17337SOL     OW53623   2.795   0.815   9.503 -0.5211 -0.3391  0.3498
17337SOL    HW153624   2.808   0.732   9.457  0.7514 -0.6965  1.2863
17337SOL    HW253625   2.884   0.847   9.520 -0.9902  0.8302  0.6899
17338SOL     OW53626   3.454   1.706   3.988  0.0127  0.3781  0.4774
17338SOL    HW153627   3.521   1.677   3.927  1.4783  2.3034  1.0602
17338SOL    HW253628   3.502   1.730   4.068 -1.6475 -0.3610  1.7660
17339SOL     OW53629   8.791   4.646   6.890  0.0787 -0.0909 -0.5033
17339SOL    HW153630   8.777   4.606   6.804  2.0063 -0.6779 -0.6080
17339SOL    HW253631   8.714   4.623   6.941 -1.3130  0.6508 -2.1848
17340SOL     OW53632   0.734   2.703   4.272 -0.6419 -0.4048  0.3580
17340SOL    HW153633   0.745   2.786   4.226 -2.0901 -1.2207 -1.5662
17340SOL    HW253634   0.682   2.725   4.350  1.0471  0.8358  1.2006
17341SOL     OW53635   3.282   7.883   6.314  0.1291 -0.6859 -0.2504
17341SOL    HW153636   3.367   7.914   6.346 -0.1751 -1.2655  1.2341
17341SOL    HW253637   3.302   7.806   6.261  0.8208  1.4466 -3.2944
17342SOL     OW53638   5.872   9.037   2.126  0.0644  0.4174  0.5872
17342SOL    HW153639   5.821   8.956   2.134 -1.7946  1.4394 -0.2748
17342SOL    HW253640   5.821   9.092   2.066  2.1254  1.6034 -0.1749
17343SOL     OW53641   1.711   0.006   6.306 -0.7547 -0.3481  0.3664
17343SOL    HW153642   1.754  -0.047   6.239 -1.5272 -0.9893  0.3657
17343SOL    HW253643   1.728  -0.040   6.388 -0.2076  0.1835  0.5539
17344SOL     OW53644   2.714   9.044   7.425  0.0236 -0.5027 -0.2116
17344SOL    HW153645   2.779   9.114   7.428  2.6781 -2.8156 -0.0650
17344SOL    HW253646   2.756   8.970   7.468 -2.4543 -2.4008 -0.8168
17345SOL     OW53647   9.539   3.388   4.442 -0.8054 -0.5298  0.3776
17345SOL    HW153648   9.553   3.314   4.500  0.5630 -1.3375 -0.9150
17345SOL    HW253649   9.461   3.432   4.477 -1.2904 -2.2096  1.5107
17346SOL     OW53650   0.563   9.625   2.404  0.0272  0.1483  0.2003
17346SOL    HW153651   0.628   9.563   2.438 -1.6473 -0.5610  2.3012
17346SOL    HW253652   0.614   9.705   2.387  1.3886 -0.1508  2.4168
17347SOL     OW53653   6.973   3.008   3.977 -0.0722 -0.5522 -0.0651
17347SOL    HW153654   6.887   2.993   3.938  0.7679 -0.1151 -2.2692
17347SOL    HW253655   6.987   2.933   4.035 -2.5215  0.1442  1.5666
17348SOL     OW53656   1.603   6.240   8.801  0.0229 -0.0718  0.2206
17348SOL    HW153657   1.536   6.171   8.803 -0.3938  0.3245  0.2192
17348SOL    HW253658   1.589   6.289   8.882  1.2428 -0.8290  0.9273
17349SOL     OW53659   8.996   3.440   6.026  0.0395  0.6355 -0.1865
17349SOL    HW153660   8.934   3.435   6.099  0.3113 -0.6310 -0.0142
17349SOL    HW253661   8.963   3.511   5.971 -0.9351  0.7105  0.4715
17350SOL     OW53662   8.109   2.146   3.843 -0.3863  0.4040 -0.1103
17350SOL    HW153663   8.113   2.171   3.751 -1.4161  1.5700  0.1314
17350SOL    HW253664   8.200   2.148   3.873  0.0561 -0.8490 -1.3000
17351SOL     OW53665   3.565   4.021   7.377  0.0505  0.2583 -0.1620
17351SOL    HW153666   3.589   4.071   7.300  1.3044  0.7096  0.4920
17351SOL    HW253667   3.484   4.063   7.408  1.7133  2.7941  1.0881
17352SOL     OW53668   8.192   3.871   5.720 -0.0699 -0.4202 -1.0284
17352SOL    HW153669   8.224   3.944   5.773  0.9531 -0.8041 -1.1063
17352SOL    HW253670   8.167   3.911   5.637 -0.6027  0.0107 -0.6672
17353SOL     OW53671   4.688   6.207   3.710 -0.5293 -0.6102 -0.5315
17353SOL    HW153672   4.738   6.168   3.781  0.1104 -1.7254 -1.5728
17353SOL    HW253673   4.753   6.247   3.653 -0.9269 -0.8384 -1.1598
17354SOL     OW53674   8.665   7.997   3.968 -0.3327  0.9949 -0.2119
17354SOL    HW153675   8.743   8.024   3.920 -0.1206  1.0250  0.1390
17354SOL    HW253676   8.649   7.907   3.942 -0.7520  1.2922 -1.0173
17355SOL     OW53677   6.199   3.469   2.239  0.6023  0.6004  0.1316
17355SOL    HW153678   6.187   3.416   2.317 -1.4083  1.3190  0.3583
17355SOL    HW253679   6.114   3.470   2.196  1.4071  1.0282 -1.5710
17356SOL     OW53680   4.830   3.823   1.589  0.8976 -0.0076  0.2663
17356SOL    HW153681   4.835   3.768   1.511 -1.7363  0.3813 -0.2710
17356SOL    HW253682   4.921   3.839   1.613  1.7702 -2.1619 -1.2637
17357SOL     OW53683   9.020   5.204   1.659  0.6649 -0.2460  0.2459
17357SOL    HW153684   8.939   5.205   1.710  0.7885 -0.1862  0.4416
17357SOL    HW253685   9.053   5.294   1.665  1.8202 -0.7317  1.9001
17358SOL     OW53686   3.126   4.853   5.596 -0.2595  0.0096  0.6770
17358SOL    HW153687   3.214   4.837   5.562 -0.7176 -0.2419 -0.4651
17358SOL    HW253688   3.138   4.915   5.667  0.6680  1.6246 -0.7971
17359SOL     OW53689   0.394   6.710   4.884 -0.4551  0.7820 -0.5316
17359SOL    HW153690   0.394   6.696   4.789  0.8372 -1.4841 -0.2737
17359SOL    HW253691   0.420   6.801   4.895  1.8050  0.4627 -2.3516
17360SOL     OW53692   9.589   5.559   7.301  0.0630 -0.1715  0.0244
17360SOL    HW153693   9.598   5.616   7.224 -2.8393 -1.2334 -1.2515
17360SOL    HW253694   9.558   5.617   7.370  1.9500  0.6537  0.2356
17361SOL     OW53695   5.443   3.206   2.774  0.1170  0.1291  0.2578
17361SOL    HW153696   5.492   3.124   2.769  2.1205  1.2163  0.9111
17361SOL    HW253697   5.365   3.185   2.825  1.0062 -1.1966  1.1065
17362SOL     OW53698   1.662   8.028   4.750 -0.2722 -0.3038  0.5056
17362SOL    HW153699   1.592   8.090   4.727  0.7384  1.1139  1.1299
17362SOL    HW253700   1.715   8.074   4.815  1.2251 -1.3658  0.0944
17363SOL     OW53701   6.677   9.429   9.695  0.3174 -0.3614 -0.0179
17363SOL    HW153702   6.755   9.434   9.750  1.6236  0.5722 -1.8389
17363SOL    HW253703   6.647   9.519   9.686 -1.3220 -0.7523  1.0463
17364SOL     OW53704   8.902   1.023   7.978 -0.3271 -0.4706  0.1088
17364SOL    HW153705   8.857   0.945   8.012 -0.0601 -0.1503  1.2263
17364SOL    HW253706   8.834   1.090   7.976 -0.7635 -0.9258 -1.6399
17365SOL     OW53707   1.789   1.745   4.823 -0.0740 -0.1835 -0.5361
17365SOL    HW153708   1.758   1.738   4.733 -2.5303 -1.0124  0.2813
17365SOL    HW253709   1.792   1.655   4.855  0.5258  0.1161  0.2892
17366SOL     OW53710   1.944   2.428   9.644 -0.1938 -0.5265  0.8224
17366SOL    HW153711   2.032   2.433   9.681 -0.5870 -1.0979  1.8719
17366SOL    HW253712   1.898   2.504   9.679  0.0426  0.1303 -0.2293
17367SOL     OW53713   0.691   6.786   1.702  1.0188  0.2867 -0.3270
17367SOL    HW153714   0.644   6.870   1.707 -0.1617 -0.3803  0.0541
17367SOL    HW253715   0.774   6.803   1.747  0.2385  0.8910  0.9376
17368SOL     OW53716   3.142   1.653   2.313 -0.2658  0.5510 -0.1204
17368SOL    HW153717   3.139   1.694   2.227  2.3194 -1.1639 -1.1455
17368SOL    HW253718   3.210   1.702   2.361  0.6071 -0.4929 -0.2511
17369SOL     OW53719   0.715   4.097   6.052  0.3161 -0.0102  0.6168
17369SOL    HW153720   0.634   4.138   6.082  0.5056  0.6854  0.1848
17369SOL    HW253721   0.687   4.016   6.010 -0.1490  0.1824  0.5571
17370SOL     OW53722   3.368   0.690   3.084 -0.0035 -0.9087 -0.1900
17370SOL    HW153723   3.298   0.673   3.022 -1.1027 -1.1612  1.0682
17370SOL    HW253724   3.386   0.605   3.123 -0.7891 -0.4451  1.2852
17371SOL     OW53725   2.730   7.137   3.434 -0.2127 -0.2589  0.0069
17371SOL    HW153726   2.710   7.057   3.385  2.6903  0.5110 -2.7018
17371SOL    HW253727   2.813   7.119   3.478  1.1511  1.5925 -1.6706
17372SOL     OW53728   2.028   6.000   1.835 -0.1069 -0.1839 -0.0227
17372SOL    HW153729   1.943   5.975   1.799 -1.4581  0.1267  2.6593
17372SOL    HW253730   2.072   5.917   1.853 -0.2883 -0.3773 -0.4807
17373SOL     OW53731   3.689   8.769   6.274  0.0682 -0.8154 -0.4447
17373SOL    HW153732   3.689   8.813   6.359 -1.2450  2.3394 -1.8903
17373SOL    HW253733   3.771   8.719   6.273  0.7307  0.0332  2.1722
17374SOL     OW53734   7.837   5.420   6.672  0.0523  0.2327  0.2699
17374SOL    HW153735   7.887   5.340   6.685  0.8164  0.7167  0.3890
17374SOL    HW253736   7.759   5.393   6.624 -0.5880 -0.8696  1.8602
17375SOL     OW53737   8.577   1.110   4.943  0.5139  0.8256 -0.4506
17375SOL    HW153738   8.573   1.045   5.013  0.6559  0.5996 -0.6512
17375SOL    HW253739   8.542   1.065   4.866 -2.3378  1.9336  0.1049
17376SOL     OW53740   6.121   9.566   0.269  0.0115  0.1834 -0.3274
17376SOL    HW153741   6.035   9.604   0.251  0.4038  1.0287 -0.4425
17376SOL    HW253742   6.182   9.639   0.263  0.9629 -0.6692 -1.8627
17377SOL     OW53743   4.037   6.604   1.013  0.0532  0.5032  0.4072
17377SOL    HW153744   4.084   6.634   1.091  0.9469  1.0609 -0.3238
17377SOL    HW253745   4.046   6.509   1.014  1.1625  0.5929  0.3222
17378SOL     OW53746   6.762   1.037   0.942 -0.3828  0.2106 -0.5220
17378SOL    HW153747   6.697   0.997   0.999  1.1076 -0.7832  0.5880
17378SOL    HW253748   6.746   0.998   0.856 -2.1090  1.0652 -0.6167
17379SOL     OW53749   8.818   7.679   4.186 -0.1239 -0.8502 -0.7696
17379SOL    HW153750   8.865   7.603   4.220  0.4479 -0.3758 -0.4608
17379SOL    HW253751   8.733   7.646   4.160 -0.4760 -1.3031  0.8379
17380SOL     OW53752   9.261   8.243   5.692  0.5308 -0.2510  0.0056
17380SOL    HW153753   9.304   8.200   5.618 -1.7515 -0.0454 -1.5677
17380SOL    HW253754   9.194   8.180   5.720  0.4353  0.2655  0.9657
17381SOL     OW53755   9.274   3.890   7.596  0.6383 -0.3684  0.5871
17381SOL    HW153756   9.360   3.913   7.561  0.0625  1.2497  0.1267
17381SOL    HW253757   9.259   3.954   7.666 -0.9849  0.6815 -0.6344
17382SOL     OW53758   9.421   1.482   0.321  0.2682 -0.0272  0.1094
17382SOL    HW153759   9.423   1.475   0.417 -1.7435 -2.4157  0.0743
17382SOL    HW253760   9.331   1.505   0.300  0.6478  0.3210 -1.2495
17383SOL     OW53761   2.185   6.567   4.961 -0.3318  0.0958  0.3228
17383SOL    HW153762   2.215   6.515   4.887 -1.3600 -0.6574  0.3989
17383SOL    HW253763   2.132   6.637   4.922 -2.2576 -1.2546  0.3669
17384SOL     OW53764   1.760   6.193   7.614 -0.2844 -0.5882 -0.1176
17384SOL    HW153765   1.834   6.132   7.609 -0.7977 -1.3230  0.7938
17384SOL    HW253766   1.797   6.274   7.647  0.1220 -0.9470  0.3136
17385SOL     OW53767   7.722   4.164   4.951  0.2116  0.0186 -0.0091
17385SOL    HW153768   7.639   4.168   4.904 -0.0873 -1.4085  0.3336
17385SOL    HW253769   7.780   4.115   4.892  1.1177  1.7997 -0.6481
17386SOL     OW53770   8.099   0.158   1.678 -0.0903 -0.1515 -0.2258
17386SOL    HW153771   8.133   0.131   1.593  0.7117 -0.2045  0.1074
17386SOL    HW253772   8.053   0.240   1.661  2.0788  1.1119 -0.3192
17387SOL     OW53773   6.370   2.620   8.434  0.3216  0.5177  0.8527
17387SOL    HW153774   6.330   2.690   8.381 -1.5320 -1.5885 -0.7394
17387SOL    HW253775   6.461   2.617   8.405  0.1427  1.5221  0.1202
17388SOL     OW53776   5.472   7.682   2.616  0.2660 -0.0782  0.4517
17388SOL    HW153777   5.479   7.595   2.655 -1.0631 -0.6377 -0.5077
17388SOL    HW253778   5.387   7.715   2.645  0.7857  0.9600  0.8750
17389SOL     OW53779   7.480   1.278   3.534  0.0019  0.1303  0.2776
17389SOL    HW153780   7.557   1.313   3.579  0.2744 -0.9264  0.6613
17389SOL    HW253781   7.445   1.352   3.485  0.7230  0.8580  0.8407
17390SOL     OW53782   4.995   2.862   8.159  0.4145  0.3247 -0.0857
17390SOL    HW153783   5.030   2.774   8.147  0.0931  0.2172 -0.2504
17390SOL    HW253784   4.954   2.883   8.075 -1.9045 -0.4532  0.7608
17391SOL     OW53785   8.394   5.717   3.753  0.3193 -0.0008  0.5962
17391SOL    HW153786   8.345   5.636   3.738  1.5752 -0.6075 -0.3783
17391SOL    HW253787   8.417   5.713   3.846  1.4347 -1.4123  0.3004
17392SOL     OW53788   9.021   8.603   6.727  0.2723 -0.2171 -0.4837
17392SOL    HW153789   8.931   8.631   6.741  0.8553  1.6091 -0.1050
17392SOL    HW253790   9.074   8.675   6.761  1.9383 -2.1658  1.3433
17393SOL     OW53791   3.499   5.498   6.207  0.7188  0.1953 -0.0950
17393SOL    HW153792   3.458   5.472   6.290  1.0467  0.6101  0.1952
17393SOL    HW253793   3.450   5.575   6.179  0.2645 -0.2546 -0.5581
17394SOL     OW53794   0.821   7.836   9.440  0.4933  0.2538  0.1755
17394SOL    HW153795   0.770   7.755   9.453 -0.7570  0.8635 -0.6906
17394SOL    HW253796   0.795   7.867   9.353  1.2077  1.4162  0.3515
17395SOL     OW53797   2.660   1.452   4.347  0.5355  0.1445  0.2127
17395SOL    HW153798   2.628   1.465   4.436  1.3575 -0.9043  0.6842
17395SOL    HW253799   2.659   1.357   4.334  3.0155  0.0665  0.1246
17396SOL     OW53800   1.694   6.916   1.805  0.3275 -0.1145  0.4440
17396SOL    HW153801   1.677   6.842   1.863 -0.2891 -1.0184 -0.8327
17396SOL    HW253802   1.754   6.882   1.739  1.2299  0.9670  0.6744
17397SOL     OW53803   1.803   3.481   7.069  0.6115  0.2103 -0.1212
17397SOL    HW153804   1.857   3.421   7.017 -0.0706 -0.2183 -0.3355
17397SOL    HW253805   1.746   3.425   7.120 -0.0232  0.6762 -0.3036
17398SOL     OW53806   2.752   2.665   6.305  0.2999  0.5625 -0.6427
17398SOL    HW153807   2.836   2.710   6.298  1.2422 -1.2413 -1.7024
17398SOL    HW253808   2.702   2.717   6.369  3.3572 -0.0308  2.5099
17399SOL     OW53809   4.688   4.412   5.898 -0.1585  0.5691  0.1617
17399SOL    HW153810   4.744   4.485   5.873  1.1315 -0.4797 -0.1594
17399SOL    HW253811   4.657   4.375   5.816  0.3887 -0.1033  0.2384
17400SOL     OW53812   2.379   1.011   8.312  0.2775 -0.0201  0.0688
17400SOL    HW153813   2.292   0.991   8.277 -1.3177  2.4499  2.2630
17400SOL    HW253814   2.433   0.935   8.287 -2.0341 -0.9218 -2.7365
17401SOL     OW53815   2.858   5.385   1.241  0.7176 -1.0873  0.3584
17401SOL    HW153816   2.800   5.397   1.316  0.3350 -1.7632  0.1803
17401SOL    HW253817   2.943   5.362   1.280  0.3942 -1.9356  0.5872
17402SOL     OW53818   5.980   5.955   1.002 -0.0688  0.2586  1.0338
17402SOL    HW153819   5.957   5.887   1.065  0.2130 -0.2993  0.5440
17402SOL    HW253820   5.990   5.908   0.919 -0.1129  0.9351  0.6395
17403SOL     OW53821   1.069   1.556   2.957  0.1552 -0.3393  0.7841
17403SOL    HW153822   1.073   1.547   2.862  1.4035  1.4808  0.6020
17403SOL    HW253823   1.073   1.651   2.972 -0.6142 -0.5648  2.6355
17404SOL     OW53824   4.399   5.430   2.020  0.4704 -0.3716 -0.1720
17404SOL    HW153825   4.348   5.495   2.068  0.5520  0.5659 -1.3156
17404SOL    HW253826   4.467   5.402   2.082 -0.7552 -0.8500  1.0011
17405SOL     OW53827   2.515   1.095   5.309 -0.1666 -0.5486 -0.0379
17405SOL    HW153828   2.464   1.093   5.228 -1.1750  0.5863  0.5483
17405SOL    HW253829   2.581   1.163   5.293  0.1093 -0.8403 -0.1640
17406SOL     OW53830   6.009   6.901   3.263 -0.1405  0.2925  0.1087
17406SOL    HW153831   6.005   6.928   3.355 -0.9122  1.0259 -0.1315
17406SOL    HW253832   6.081   6.952   3.226  1.5233 -1.4736  0.7532
17407SOL     OW53833   5.384   5.712   5.637 -0.1321  0.5178  0.0212
17407SOL    HW153834   5.441   5.671   5.572  0.3487 -0.0906  0.7949
17407SOL    HW253835   5.312   5.650   5.648  1.1018 -0.7019  1.9263
17408SOL     OW53836   9.571   2.564   3.558 -0.0052 -0.1738 -0.1413
17408SOL    HW153837   9.663   2.590   3.548 -0.0603 -0.1686 -0.6919
17408SOL    HW253838   9.565   2.528   3.646  0.1176  1.4723  0.5677
17409SOL     OW53839   3.397   0.244   8.923  0.5290  0.3651  0.6769
17409SOL    HW153840   3.446   0.218   8.845 -0.8844 -1.9100  0.4479
17409SOL    HW253841   3.442   0.200   8.995 -0.3930 -0.7161  0.6189
17410SOL     OW53842   2.320   3.193   3.206  0.0165 -0.3456 -0.1242
17410SOL    HW153843   2.314   3.215   3.298 -1.4073  0.0382 -0.2830
17410SOL    HW253844   2.414   3.184   3.189  0.3164  0.0701  1.2295
17411SOL     OW53845   0.713   7.528   6.892 -0.6242  0.4045 -0.5664
17411SOL    HW153846   0.659   7.502   6.817 -0.0431 -1.2765 -0.4418
17411SOL    HW253847   0.668   7.605   6.928 -2.2320 -0.1852 -1.2112
17412SOL     OW53848   1.693   2.069   2.277 -0.0678  0.0618 -0.9788
17412SOL    HW153849   1.779   2.027   2.282 -0.4542 -0.6172  0.6387
17412SOL    HW253850   1.646   2.019   2.210  0.0801 -0.9643 -0.3389
17413SOL     OW53851   1.585   7.504   4.034  0.3948  0.3430 -0.0781
17413SOL    HW153852   1.497   7.541   4.026  0.4688  0.6731  0.5745
17413SOL    HW253853   1.591   7.442   3.962 -1.2898 -1.5698  1.3320
17414SOL     OW53854   9.222   3.082   4.903 -0.3757  0.1879  0.6576
17414SOL    HW153855   9.131   3.067   4.929 -0.4082 -0.2909  0.2742
17414SOL    HW253856   9.272   3.067   4.984 -0.3826 -2.2925  0.2597
17415SOL     OW53857   6.328   2.368   9.274  0.4215 -0.6671 -0.6857
17415SOL    HW153858   6.235   2.347   9.265 -0.2038  0.8759  1.3587
17415SOL    HW253859   6.370   2.284   9.290 -1.0227 -1.1415  0.9145
17416SOL     OW53860   0.778   1.422   2.661 -0.0428 -0.3353 -0.1740
17416SOL    HW153861   0.835   1.484   2.705 -0.0560  0.4063 -1.1772
17416SOL    HW253862   0.721   1.389   2.730  1.1453 -0.5960  0.7140
17417SOL     OW53863   7.990   2.340   5.326  0.0127 -0.2323 -0.2921
17417SOL    HW153864   7.958   2.250   5.339  0.6580 -0.8937 -2.8671
17417SOL    HW253865   8.081   2.330   5.299 -0.2376  1.1214 -1.7458
17418SOL     OW53866   5.251   8.128   9.549 -0.2849  0.1302  0.7183
17418SOL    HW153867   5.291   8.050   9.510 -1.2693 -0.8068  1.5211
17418SOL    HW253868   5.286   8.201   9.497  1.2070 -0.7673  0.3978
17419SOL     OW53869   4.326   3.065   4.768  0.4990 -0.0805 -0.1414
17419SOL    HW153870   4.338   3.000   4.698 -0.1535  0.7862 -1.0896
17419SOL    HW253871   4.233   3.085   4.766  0.9022  1.9537 -0.8827
17420SOL     OW53872   5.701   4.319   1.055  0.1330 -0.2931 -0.1902
17420SOL    HW153873   5.700   4.227   1.083  1.4019 -0.0573  0.7069
17420SOL    HW253874   5.763   4.361   1.114  0.1670  0.9896 -1.1054
17421SOL     OW53875   3.983   7.424   6.851  0.4871  0.4113 -0.2660
17421SOL    HW153876   4.023   7.454   6.932 -0.7925  0.5427  0.3336
17421SOL    HW253877   4.046   7.361   6.815  0.8968  0.0660  1.0053
17422SOL     OW53878   9.143   3.670   9.197 -0.0863 -0.3001 -0.3205
17422SOL    HW153879   9.185   3.686   9.112  1.9542  0.1571  0.6957
17422SOL    HW253880   9.073   3.734   9.202  0.1957  0.1204 -1.3803
17423SOL     OW53881   2.306   8.210   4.648  0.0757 -0.2173  0.0243
17423SOL    HW153882   2.317   8.164   4.564 -0.9957  0.1499 -0.3361
17423SOL    HW253883   2.298   8.139   4.712  5.2268 -0.6536  0.6074
17424SOL     OW53884   3.269   7.868   8.336 -0.2040 -0.4442  0.3220
17424SOL    HW153885   3.329   7.810   8.290 -0.6366 -1.4157  0.9503
17424SOL    HW253886   3.185   7.823   8.333 -1.2906  1.5325 -1.7733
17425SOL     OW53887   2.881   0.880   9.205 -0.5094  0.5193  0.0121
17425SOL    HW153888   2.803   0.889   9.261 -0.5892  2.4888 -0.3465
17425SOL    HW253889   2.861   0.805   9.149 -1.2581 -0.2839  1.2910
17426SOL     OW53890   7.039   9.269   5.100  0.3656  0.2107 -0.7305
17426SOL    HW153891   7.116   9.283   5.045  0.1407  0.0150 -1.0984
17426SOL    HW253892   6.980   9.217   5.046  0.2684 -0.2465 -0.1905
17427SOL     OW53893   5.988   2.955   4.904  0.3150 -0.6169  0.1840
17427SOL    HW153894   5.978   3.045   4.872  0.6574 -0.6582 -0.0446
17427SOL    HW253895   5.951   2.957   4.992  0.9564 -0.0865  0.4475
17428SOL     OW53896   1.985   2.653   2.707  0.6018  0.3990  0.3950
17428SOL    HW153897   2.063   2.668   2.654  0.0349  0.2167 -0.5192
17428SOL    HW253898   1.928   2.728   2.686  0.6036  0.6344  1.2012
17429SOL     OW53899   9.772   5.265   9.706 -0.4706 -0.2777  1.2478
17429SOL    HW153900   9.862   5.231   9.712 -0.4304 -0.0591  2.0620
17429SOL    HW253901   9.756   5.305   9.792 -0.2355  2.4584  0.1439
17430SOL     OW53902   7.962   6.219   1.549 -0.1132 -0.4005 -0.5343
17430SOL    HW153903   7.997   6.140   1.508  1.3857  0.0017 -0.1340
17430SOL    HW253904   7.938   6.191   1.637  0.6925 -0.3810 -0.2930
17431SOL     OW53905   3.926   5.673   3.571  0.6328  0.7781  0.2407
17431SOL    HW153906   3.951   5.610   3.639 -0.3017 -0.1449 -0.2422
17431SOL    HW253907   3.962   5.636   3.491 -0.4859  0.4995 -0.1487
17432SOL     OW53908   3.862   6.647   1.244 -0.3730  0.1423  0.0871
17432SOL    HW153909   3.918   6.573   1.269 -0.8336 -0.5117 -0.7840
17432SOL    HW253910   3.911   6.691   1.174  0.0266  0.8365  0.7897
17433SOL     OW53911   0.091   0.836   7.312 -0.2383 -0.0552  0.2848
17433SOL    HW153912   0.065   0.917   7.358  1.7211  1.5199 -1.1840
17433SOL    HW253913   0.034   0.833   7.236 -1.1147 -0.7339  0.9559
17434SOL     OW53914   3.027   4.587   6.545  0.1731  0.0085 -0.3380
17434SOL    HW153915   3.034   4.560   6.637  0.7267 -0.9144 -0.6452
17434SOL    HW253916   3.060   4.513   6.495 -0.9493  0.1486 -1.3367
17435SOL     OW53917   3.887   6.159   7.193 -0.4500 -0.1640  0.5119
17435SOL    HW153918   3.863   6.067   7.180  0.5221 -0.3282 -0.1944
17435SOL    HW253919   3.888   6.197   7.105 -3.7243  1.3227  0.9695
17436SOL     OW53920   2.775   4.539   5.536  0.0322  0.0772  0.2579
17436SOL    HW153921   2.846   4.578   5.484  2.5902 -0.4775  3.0386
17436SOL    HW253922   2.817   4.466   5.581 -2.4618 -0.5059  1.7689
17437SOL     OW53923   8.034   1.533   6.096  0.4302  0.0706  0.2581
17437SOL    HW153924   7.944   1.501   6.097 -0.1889  1.6774 -0.7615
17437SOL    HW253925   8.087   1.456   6.116 -1.1818 -0.8237  1.2512
17438SOL     OW53926   3.232   7.474   6.630  0.3026 -0.0765  0.0381
17438SOL    HW153927   3.229   7.386   6.592 -0.3689  0.5237 -1.3544
17438SOL    HW253928   3.249   7.531   6.555  0.5901  0.9958  0.9092
17439SOL     OW53929   8.220   5.461   9.437  0.1020  0.0287 -0.5370
17439SOL    HW153930   8.254   5.418   9.516  1.4010  1.9270 -0.0072
17439SOL    HW253931   8.132   5.490   9.461  0.3227  0.2035  0.0678
17440SOL     OW53932   4.938   0.724   2.373 -0.2772  0.1070  0.5172
17440SOL    HW153933   4.947   0.645   2.321 -0.1793  1.6824 -2.0348
17440SOL    HW253934   4.942   0.694   2.464 -1.9838 -2.9955 -0.2971
17441SOL     OW53935   8.832   6.552   3.653 -0.1810 -0.1155  0.0477
17441SOL    HW153936   8.845   6.557   3.558 -1.7341 -1.1199 -0.2695
17441SOL    HW253937   8.738   6.568   3.665  0.1047  0.6933  1.5040
17442SOL     OW53938   3.169   4.173   0.783  0.1318  0.2147  0.0293
17442SOL    HW153939   3.186   4.107   0.850 -0.7595 -0.6920 -0.6198
17442SOL    HW253940   3.182   4.257   0.828 -0.4606 -0.3707  1.3416
17443SOL     OW53941   5.958   3.788   2.282 -0.6141  0.0605 -0.4426
17443SOL    HW153942   6.027   3.730   2.250  0.0947 -0.7017  2.2175
17443SOL    HW253943   5.876   3.740   2.265 -0.2957 -0.2259 -1.2124
17444SOL     OW53944   9.225   4.355   0.748  0.3109  0.4827  0.5902
17444SOL    HW153945   9.169   4.295   0.796  1.4691 -1.6964 -0.5907
17444SOL    HW253946   9.281   4.395   0.814 -0.5084  0.2876  1.4094
17445SOL     OW53947   2.586   4.108   7.244  0.0018  0.4545  0.1416
17445SOL    HW153948   2.573   4.169   7.171 -0.7457  1.0471  0.7592
17445SOL    HW253949   2.521   4.040   7.231  1.2284 -0.5840 -0.8874
17446SOL     OW53950   6.372   1.859   9.024  0.7135  0.2490 -0.0040
17446SOL    HW153951   6.331   1.792   9.078 -0.2333  0.6521 -0.2054
17446SOL    HW253952   6.312   1.933   9.027  0.5443  0.2349 -1.7247
17447SOL     OW53953   0.084   7.991   8.852  0.6456 -0.1014  0.0696
17447SOL    HW153954   0.040   7.960   8.932 -2.1905  3.2506  0.0909
17447SOL    HW253955   0.015   7.990   8.786  2.2533 -0.3369 -1.6682
17448SOL     OW53956   0.736   2.345   3.757  0.8303  0.0153 -0.3057
17448SOL    HW153957   0.733   2.431   3.715 -0.8952  0.0693 -0.1316
17448SOL    HW253958   0.771   2.362   3.844 -0.4681  0.7250  0.0948
17449SOL     OW53959   5.289   0.050   9.216  0.0362  0.2363  0.1987
17449SOL    HW153960   5.360   0.096   9.171 -0.8820  0.7369 -0.7877
17449SOL    HW253961   5.252   0.115   9.276  2.0210 -0.7652  2.6841
17450SOL     OW53962   2.494   6.049   9.327 -0.3494 -0.2641  0.2378
17450SOL    HW153963   2.567   6.021   9.273 -0.0296 -1.2666  1.1541
17450SOL    HW253964   2.467   5.970   9.374 -1.5832  0.2431  0.4233
17451SOL     OW53965   1.879   6.805   0.761 -0.2092  0.5619  0.3069
17451SOL    HW153966   1.940   6.768   0.826 -1.1771 -0.0061  0.9259
17451SOL    HW253967   1.816   6.734   0.745 -0.5224  1.0275 -0.5566
17452SOL     OW53968   2.899   9.434   3.493  0.8283  0.3598  0.4141
17452SOL    HW153969   2.846   9.441   3.573  1.0002  0.0184  0.5634
17452SOL    HW253970   2.932   9.522   3.478  0.0040  0.6305  0.1655
17453SOL     OW53971   5.976   9.292   7.375  1.0222  0.1394  0.4304
17453SOL    HW153972   6.013   9.378   7.357 -0.7316  0.6417 -0.9759
17453SOL    HW253973   6.048   9.231   7.361  1.7405  1.2061 -0.6449
17454SOL     OW53974   1.763   5.998   0.861  0.1138  0.2561  0.2926
17454SOL    HW153975   1.771   5.942   0.784 -1.4773  2.0058 -1.2327
17454SOL    HW253976   1.787   6.086   0.831  0.6057  0.8047  2.1153
17455SOL     OW53977   0.369   5.832   8.217  0.3318 -0.4220  0.1988
17455SOL    HW153978   0.373   5.750   8.168 -3.1299 -0.2498 -0.6666
17455SOL    HW253979   0.334   5.895   8.154 -2.4313  0.2749  2.2462
17456SOL     OW53980   2.836   7.195   7.690 -0.2133  0.1062 -0.5676
17456SOL    HW153981   2.820   7.183   7.784 -0.1988 -1.8037 -0.7830
17456SOL    HW253982   2.753   7.173   7.649  0.2747 -0.7728 -1.1066
17457SOL     OW53983   2.985   7.613   9.415 -0.4774  0.7070 -0.5405
17457SOL    HW153984   2.897   7.624   9.451 -0.2498  0.1642  0.2021
17457SOL    HW253985   3.043   7.647   9.483 -0.1299  1.9541 -1.4097
17458SOL     OW53986   8.871   4.756   4.972 -0.1314 -0.0755  0.4116
17458SOL    HW153987   8.930   4.831   4.978 -0.2773 -0.0406  1.6841
17458SOL    HW253988   8.783   4.795   4.972 -0.1946 -0.2181  0.4848
17459SOL     OW53989   7.537   7.985   2.862  0.5736  0.2557 -0.1636
17459SOL    HW153990   7.505   7.967   2.774  0.2507 -1.7222  0.3254
17459SOL    HW253991   7.632   7.981   2.854  0.5770 -3.4783  0.1618
17460SOL     OW53992   7.401   7.672   4.815  0.0714  0.4525  0.1780
17460SOL    HW153993   7.347   7.595   4.835 -0.5389  0.9183  0.3397
17460SOL    HW253994   7.371   7.701   4.729  1.0434 -0.1139 -0.3770
17461SOL     OW53995   4.343   8.871   8.208 -0.3033 -0.1750  0.6142
17461SOL    HW153996   4.291   8.873   8.288  0.0620 -2.2473  0.9688
17461SOL    HW253997   4.280   8.891   8.138 -2.0268 -3.7525  0.8995
17462SOL     OW53998   0.889   6.979   7.039 -0.6737 -0.2117 -0.2917
17462SOL    HW153999   0.855   7.059   7.080 -0.2990 -0.1322 -0.1375
17462SOL    HW254000   0.810   6.932   7.009 -0.9231 -0.0485  0.1064
17463SOL     OW54001   6.268   2.918   0.938 -0.1720 -0.4014 -0.4640
17463SOL    HW154002   6.243   2.962   0.857 -3.8548 -0.0663  0.6948
17463SOL    HW254003   6.315   2.840   0.908 -0.8284  0.0399 -2.9128
17464SOL     OW54004   6.323   8.972   2.346  0.2773  0.4941  0.5397
17464SOL    HW154005   6.319   8.950   2.253  1.8891  1.4533  0.2140
17464SOL    HW254006   6.397   8.922   2.379 -1.2607 -1.1498  1.7496
17465SOL     OW54007   1.998   0.896   9.843 -0.0888  0.4744 -0.0448
17465SOL    HW154008   1.919   0.937   9.878 -1.6015 -1.8287 -0.5459
17465SOL    HW254009   2.003   0.812   9.889  2.2613  0.6838  0.1701
17466SOL     OW54010   7.775   9.504   9.431  0.2727 -0.4230 -0.3386
17466SOL    HW154011   7.797   9.587   9.388  1.2755 -0.5031 -0.0079
17466SOL    HW254012   7.719   9.459   9.368 -2.3132  1.4839  0.4445
17467SOL     OW54013   3.553   0.288   9.803  0.6474  0.1021 -0.2114
17467SOL    HW154014   3.497   0.216   9.773  0.1359 -0.1956  1.3884
17467SOL    HW254015   3.492   0.358   9.824  0.9419  0.0925  0.6914
17468SOL     OW54016   0.604   7.432   6.167  0.4109 -0.4607  0.0723
17468SOL    HW154017   0.649   7.516   6.177 -0.1988 -0.1485  0.2383
17468SOL    HW254018   0.594   7.421   6.072 -1.8881  0.9662  0.0741
17469SOL     OW54019   2.803   4.721   6.795 -0.2035 -0.3420 -0.5121
17469SOL    HW154020   2.844   4.777   6.729 -0.7030  0.5812 -0.0673
17469SOL    HW254021   2.872   4.660   6.822  1.6469  2.4531  1.7217
17470SOL     OW54022   0.280   6.756   4.290  0.1810 -0.0673  0.3043
17470SOL    HW154023   0.278   6.817   4.216  2.6726  0.9689  0.9842
17470SOL    HW254024   0.239   6.677   4.256  0.0585  0.8051 -1.7687
17471SOL     OW54025   5.669   9.524   8.245  0.4150 -0.4418 -0.4894
17471SOL    HW154026   5.583   9.489   8.269  1.0832 -1.6028  0.3180
17471SOL    HW254027   5.731   9.457   8.274  1.6673  0.8021 -0.1803
17472SOL     OW54028   4.197   1.820   9.379  0.4904  0.2065  0.4198
17472SOL    HW154029   4.114   1.832   9.426 -0.3249 -1.8687 -0.3591
17472SOL    HW254030   4.180   1.856   9.292  1.0183  1.3642  0.7768
17473SOL     OW54031   6.314   6.420   1.431  0.5186  0.1577 -0.3479
17473SOL    HW154032   6.369   6.345   1.452 -1.6248 -2.2631 -2.6510
17473SOL    HW254033   6.311   6.421   1.335 -1.6300  1.5533 -0.3325
17474SOL     OW54034   4.213   9.839   0.221  0.2494  0.1130 -0.4266
17474SOL    HW154035   4.238   9.754   0.185  0.3011 -0.2142  0.3642
17474SOL    HW254036   4.117   9.839   0.219  0.2365 -0.2231  0.1629
17475SOL     OW54037   8.688   4.181   6.298  0.3656  0.2117 -0.0818
17475SOL    HW154038   8.645   4.240   6.236 -0.1248 -0.1376 -0.0774
17475SOL    HW254039   8.702   4.100   6.248 -0.4391 -0.2249  0.3933
17476SOL     OW54040   8.083   2.041   9.152  0.1633 -0.0338  0.3000
17476SOL    HW154041   8.117   2.130   9.165  2.0433 -0.2351 -2.3312
17476SOL    HW254042   8.110   1.993   9.230  0.0397  1.4313  1.2821
17477SOL     OW54043   6.023   0.373   1.391 -0.4309  0.9173 -0.3307
17477SOL    HW154044   5.944   0.374   1.444 -0.4691 -0.0607 -0.3431
17477SOL    HW254045   6.000   0.420   1.311 -2.0228 -1.8732 -1.6785
17478SOL     OW54046   6.410   4.969   4.543 -0.3791 -0.5650  0.6330
17478SOL    HW154047   6.478   4.958   4.477 -0.5646 -1.6461  0.6069
17478SOL    HW254048   6.456   4.959   4.626 -0.2092  0.4492  0.6795
17479SOL     OW54049   8.971   3.821   2.924 -0.0056 -0.4223  0.0004
17479SOL    HW154050   8.990   3.844   3.015 -0.2184  0.0696 -0.0717
17479SOL    HW254051   9.009   3.892   2.873 -1.9737  0.6080 -0.1461
17480SOL     OW54052   5.633   7.921   4.059  0.3995 -0.1577 -0.0720
17480SOL    HW154053   5.676   7.985   4.116  0.5945 -0.2413 -0.1239
17480SOL    HW254054   5.632   7.840   4.110  1.9977 -0.6587 -0.7599
17481SOL     OW54055   9.002   4.279   2.298 -0.1875 -0.4188  0.0052
17481SOL    HW154056   8.937   4.344   2.273  0.7833  0.0603 -1.3704
17481SOL    HW254057   9.054   4.322   2.365 -2.0547 -1.2846  2.1438
17482SOL     OW54058   8.192   3.577   7.471  0.2918 -0.2819 -0.4220
17482SOL    HW154059   8.250   3.517   7.518 -1.1428 -1.8096 -0.4937
17482SOL    HW254060   8.223   3.575   7.380 -0.1855 -1.5465 -0.5784
17483SOL     OW54061   0.454   1.703   2.711  0.1199 -0.4760  0.8090
17483SOL    HW154062   0.492   1.659   2.786  0.4988 -2.1700 -0.3236
17483SOL    HW254063   0.504   1.671   2.636 -2.0169 -1.0327 -0.4738
17484SOL     OW54064   4.695   9.367   1.201 -0.5166  0.3163 -0.0303
17484SOL    HW154065   4.611   9.324   1.190 -0.5920  0.7461 -1.3101
17484SOL    HW254066   4.750   9.331   1.131  0.9443 -1.2398  1.7888
17485SOL     OW54067   7.429   2.699   5.122  0.5900  0.1640  0.1484
17485SOL    HW154068   7.444   2.609   5.150  2.7585  0.2429 -0.5968
17485SOL    HW254069   7.354   2.728   5.174 -0.1275 -2.0345  0.4363
17486SOL     OW54070   1.040   6.610   3.589 -0.2263  0.5603 -0.1084
17486SOL    HW154071   1.007   6.666   3.518  0.5228  0.6831 -0.3752
17486SOL    HW254072   1.075   6.672   3.653 -2.2182  0.5284  1.0933
17487SOL     OW54073   4.908   6.646   2.638 -0.5481  0.5593 -0.1994
17487SOL    HW154074   4.947   6.598   2.564  0.0383 -0.4876  0.7560
17487SOL    HW254075   4.815   6.648   2.619 -0.4515 -0.0576 -0.7745
17488SOL     OW54076   0.041   7.072   3.532 -0.4618 -0.0850 -0.5318
17488SOL    HW154077  -0.004   6.989   3.518 -0.7047  0.3130 -2.3738
17488SOL    HW254078   0.134   7.052   3.521 -0.4222 -0.3211  0.1948
17489SOL     OW54079   3.185   9.261   7.741 -0.1583  0.3904 -0.6448
17489SOL    HW154080   3.108   9.317   7.745 -0.5546 -0.0040 -2.0570
17489SOL    HW254081   3.150   9.172   7.734  0.4603 -0.0571  1.3492
17490SOL     OW54082   5.265   8.767   0.881 -0.5236 -0.9531  0.0446
17490SOL    HW154083   5.235   8.742   0.969 -2.0061  1.4362  0.3217
17490SOL    HW254084   5.360   8.769   0.888 -0.6173 -0.5105  1.6997
17491SOL     OW54085   1.429   4.078   8.579 -0.6336  0.2616 -0.5666
17491SOL    HW154086   1.385   4.068   8.664 -0.3970 -0.5132 -0.5252
17491SOL    HW254087   1.377   4.025   8.519  0.6878 -1.3816 -0.3375
17492SOL     OW54088   0.675   6.602   5.447 -0.1826 -0.7186 -0.1331
17492SOL    HW154089   0.705   6.546   5.519  0.6035 -0.6532 -0.4069
17492SOL    HW254090   0.632   6.675   5.491 -0.8818 -1.3337  0.2360
17493SOL     OW54091   6.246   1.193   0.508 -0.5882  0.5501 -0.1243
17493SOL    HW154092   6.155   1.210   0.531 -0.2171  0.8096  1.2344
17493SOL    HW254093   6.292   1.191   0.592  0.9510  2.0661 -0.8673
17494SOL     OW54094   0.066   5.802   5.316 -0.0360  0.3576 -0.0649
17494SOL    HW154095   0.062   5.855   5.236 -1.4288 -1.1747 -1.0631
17494SOL    HW254096   0.159   5.784   5.328  0.1641  0.2620 -1.5820
17495SOL     OW54097   5.148   8.500   9.531  0.1608 -0.4213  0.6579
17495SOL    HW154098   5.237   8.475   9.558  0.1728 -0.2223  0.8090
17495SOL    HW254099   5.145   8.595   9.544 -0.1670 -0.4660  0.9304
17496SOL     OW54100   9.313   2.284   1.970 -0.0136  0.0123  0.5066
17496SOL    HW154101   9.292   2.235   1.891 -0.6242  1.3524 -0.1841
17496SOL    HW254102   9.330   2.216   2.036 -0.1854 -1.1191 -0.5796
17497SOL     OW54103   3.549   6.538   7.550  0.4449  0.1734  0.3465
17497SOL    HW154104   3.595   6.607   7.597  4.0181  0.3871 -3.0154
17497SOL    HW254105   3.541   6.571   7.460 -0.9977 -2.3720 -0.5659
17498SOL     OW54106   4.675   3.432   3.463  0.0644 -0.0170 -0.0425
17498SOL    HW154107   4.742   3.385   3.413  1.7075  1.1416  0.9958
17498SOL    HW254108   4.647   3.503   3.405  0.0196 -0.2625 -0.3243
17499SOL     OW54109   3.643   6.521   4.059 -0.3380  0.6604  0.0052
17499SOL    HW154110   3.596   6.598   4.028 -0.7617  0.1136 -0.7322
17499SOL    HW254111   3.667   6.543   4.149 -1.2398  1.2873  0.1094
17500SOL     OW54112   0.377   4.989   0.755  0.7293 -0.7546 -0.2109
17500SOL    HW154113   0.380   5.083   0.771  2.1643 -0.5587 -1.4492
17500SOL    HW254114   0.284   4.971   0.739  0.2752  0.2279  1.0834
17501SOL     OW54115   8.580   2.409   9.392  0.0865 -0.3854  0.1223
17501SOL    HW154116   8.596   2.323   9.354 -1.0438 -0.6960  0.3097
17501SOL    HW254117   8.525   2.454   9.328  0.1741 -0.0275  0.2943
17502SOL     OW54118   5.257   5.153   4.557  0.0329 -0.2276 -0.0192
17502SOL    HW154119   5.284   5.231   4.604  1.3514 -0.1572 -0.8484
17502SOL    HW254120   5.316   5.084   4.588 -1.3302 -1.0014  0.9562
17503SOL     OW54121   7.793   9.734   6.373 -0.3447  0.7436  0.6468
17503SOL    HW154122   7.720   9.788   6.400 -1.5153  0.1486 -1.1424
17503SOL    HW254123   7.824   9.774   6.291  0.7353  0.4418  0.8801
17504SOL     OW54124   1.146   5.228   1.258  0.0137 -0.3727 -0.1635
17504SOL    HW154125   1.187   5.255   1.176 -3.7381  1.5331 -1.6107
17504SOL    HW254126   1.180   5.290   1.323  0.1652  0.5297 -1.0822
17505SOL     OW54127   4.365   0.440   5.106 -0.0081  0.1051  0.2947
17505SOL    HW154128   4.437   0.447   5.169  0.6677 -0.8458 -0.3494
17505SOL    HW254129   4.328   0.354   5.122 -0.4574  0.2494  0.0382
17506SOL     OW54130   3.759   4.255   6.953  0.5409  0.6400  0.1660
17506SOL    HW154131   3.828   4.189   6.961 -2.3734 -2.6631  0.3512
17506SOL    HW254132   3.710   4.229   6.876 -1.2313  2.1322  0.7277
17507SOL     OW54133   2.755   3.712   9.580  0.3058 -0.2946  0.4760
17507SOL    HW154134   2.789   3.626   9.605  1.7819  0.1880  0.2402
17507SOL    HW254135   2.761   3.713   9.484  0.9421  0.2981  0.5096
17508SOL     OW54136   3.050   3.328   1.137  0.2844 -0.3933 -0.1751
17508SOL    HW154137   3.099   3.270   1.079  2.5192  0.5879  0.6131
17508SOL    HW254138   3.046   3.281   1.220  1.6870  0.3372  0.3297
17509SOL     OW54139   5.276   2.822   0.259 -0.1340  0.0879  0.0970
17509SOL    HW154140   5.261   2.900   0.313  1.4828  0.3070  0.2706
17509SOL    HW254141   5.204   2.823   0.195 -0.5474  1.3158  0.5548
17510SOL     OW54142   0.811   1.930   8.836  0.2055  0.5726 -0.4752
17510SOL    HW154143   0.786   1.932   8.744 -1.7185  1.6748  0.0081
17510SOL    HW254144   0.840   2.020   8.855  1.0570  0.2313 -0.1079
17511SOL     OW54145   9.711   1.522   3.260 -0.2787 -0.0769 -0.4987
17511SOL    HW154146   9.620   1.490   3.257  0.0040 -0.9317 -0.1995
17511SOL    HW254147   9.759   1.454   3.307  0.5730  0.2459 -0.8834
17512SOL     OW54148   2.372   0.230   7.136  0.6540 -0.8628 -0.1247
17512SOL    HW154149   2.444   0.257   7.079  0.5205  0.9364  0.4976
17512SOL    HW254150   2.397   0.262   7.223 -0.8123 -0.3412  0.1299
17513SOL     OW54151   8.447   3.229   6.576 -0.1398 -0.2782 -0.0394
17513SOL    HW154152   8.475   3.164   6.641 -0.4923 -0.0345  0.3636
17513SOL    HW254153   8.352   3.215   6.568  0.1785 -1.7457 -2.1010
17514SOL     OW54154   4.179   6.590   6.244  0.3013  0.0873  0.1087
17514SOL    HW154155   4.084   6.601   6.235  0.4550  1.2427 -0.3581
17514SOL    HW254156   4.194   6.588   6.338 -0.1877  0.0109  0.1866
17515SOL     OW54157   0.160   7.740   1.752  0.4845 -0.0463 -0.1119
17515SOL    HW154158   0.113   7.699   1.825 -0.1941  0.1045 -0.4509
17515SOL    HW254159   0.090   7.767   1.692  1.1062 -2.1960 -1.9003
17516SOL     OW54160   7.772   5.773   5.921 -0.2756  0.5373 -0.0776
17516SOL    HW154161   7.837   5.833   5.956 -0.4438 -0.4012  1.9975
17516SOL    HW254162   7.823   5.712   5.867  0.3673  0.6423  0.3953
17517SOL     OW54163   2.004   4.668   7.799  0.0023  0.1151 -0.0252
17517SOL    HW154164   2.094   4.659   7.829  0.2882  1.0934 -0.5515
17517SOL    HW254165   1.967   4.737   7.855 -1.1528 -1.8195  1.7650
17518SOL     OW54166   5.207   8.385   8.829  0.1851 -0.3702 -0.2748
17518SOL    HW154167   5.206   8.392   8.924  0.1080 -1.1130 -0.2178
17518SOL    HW254168   5.300   8.395   8.805  0.0567  1.0672 -0.2330
17519SOL     OW54169   8.596   1.678   3.736  0.1515  1.0216 -0.1842
17519SOL    HW154170   8.540   1.603   3.754  0.3889  0.1076 -2.8867
17519SOL    HW254171   8.639   1.658   3.653  4.7770  1.4917  1.7365
17520SOL     OW54172   9.755   2.604   6.171 -0.3796  0.1257 -0.3262
17520SOL    HW154173   9.683   2.635   6.225 -1.5127 -0.8282 -1.2252
17520SOL    HW254174   9.831   2.657   6.198  0.0004 -2.2903  4.3905
17521SOL     OW54175   3.030   6.549   0.350  0.4590  0.3693 -0.2833
17521SOL    HW154176   3.013   6.569   0.442  0.8037  2.9100 -0.7127
17521SOL    HW254177   3.118   6.511   0.350 -0.0503 -0.8709  0.5391
17522SOL     OW54178   2.046   1.202   8.262  0.4585 -0.0845 -0.7613
17522SOL    HW154179   2.031   1.123   8.211  1.5661 -1.0339  0.2993
17522SOL    HW254180   2.108   1.253   8.210  1.4138 -0.9451 -0.5077
17523SOL     OW54181   9.485   3.123   1.578  0.2733  0.2639 -0.3728
17523SOL    HW154182   9.469   3.196   1.637 -0.0130  0.1722 -0.3370
17523SOL    HW254183   9.445   3.150   1.495 -0.4838 -0.1600 -0.1528
17524SOL     OW54184   3.994   0.505   7.888  0.8440 -0.2090  0.0406
17524SOL    HW154185   3.943   0.450   7.829  0.1978 -0.9247  1.2203
17524SOL    HW254186   4.022   0.579   7.835 -2.4854  0.8778 -0.3821
17525SOL     OW54187   9.225   2.132   1.014  0.4995 -0.3574 -0.1815
17525SOL    HW154188   9.214   2.217   0.971  0.1105 -0.9707 -1.3440
17525SOL    HW254189   9.319   2.115   1.011  0.4105 -0.6790 -1.3748
17526SOL     OW54190   3.099   6.313   2.851 -0.1866 -0.2464 -0.0589
17526SOL    HW154191   3.103   6.340   2.943  3.2982  0.0177 -0.1681
17526SOL    HW254192   3.082   6.219   2.855  1.1051 -0.4591  0.9286
17527SOL     OW54193   1.757   7.202   8.219  0.0551 -0.4022 -0.1169
17527SOL    HW154194   1.796   7.191   8.306 -1.5732  1.7370  0.9943
17527SOL    HW254195   1.781   7.291   8.193 -0.6376 -0.5283 -1.2647
17528SOL     OW54196   1.902   9.838   8.372 -0.1809  0.2878  0.1108
17528SOL    HW154197   1.996   9.840   8.354  0.4083  0.9616  2.7392
17528SOL    HW254198   1.891   9.769   8.437 -1.6066 -0.1248 -0.5342
17529SOL     OW54199   8.051   7.213   4.715 -0.1445 -0.4000  0.5381
17529SOL    HW154200   8.045   7.206   4.811  1.0396 -2.7983  0.5200
17529SOL    HW254201   8.134   7.259   4.700  0.8589 -2.0978  0.7004
17530SOL     OW54202   8.668   7.860   6.962  0.2238  0.2871  0.2140
17530SOL    HW154203   8.760   7.887   6.958  0.3833 -0.3432 -0.5508
17530SOL    HW254204   8.636   7.898   7.044  0.8908  1.3683 -0.0024
17531SOL     OW54205   5.193   2.828   8.952 -0.0533 -0.1830  0.2792
17531SOL    HW154206   5.163   2.782   8.874  0.2543  2.2399 -1.3949
17531SOL    HW254207   5.119   2.882   8.978  0.0193 -0.5939  1.3917
17532SOL     OW54208   0.511   2.101   3.418  0.2445 -0.1531  0.0939
17532SOL    HW154209   0.460   2.166   3.369  2.0465  0.5069 -0.9891
17532SOL    HW254210   0.515   2.025   3.360  1.8578  0.4101 -0.6030
17533SOL     OW54211   4.647   4.841   3.799 -0.7717  0.0337  0.2026
17533SOL    HW154212   4.657   4.924   3.752 -0.2735 -1.5574 -2.7334
17533SOL    HW254213   4.552   4.831   3.810 -0.8371  0.9274  0.5623
17534SOL     OW54214   2.249   1.818   2.354 -0.7638 -0.1306  0.0698
17534SOL    HW154215   2.175   1.773   2.314  0.0517 -1.3350 -0.1433
17534SOL    HW254216   2.324   1.793   2.300 -0.2211  1.2284  0.1572
17535SOL     OW54217   4.033   5.344   5.839  0.0855 -0.0388  0.0441
17535SOL    HW154218   4.000   5.392   5.915  0.9317 -0.6487  0.8160
17535SOL    HW254219   4.068   5.412   5.781  0.8433  0.3207  0.9060
17536SOL     OW54220   9.679   7.987   6.405 -0.6686 -0.5165 -0.3236
17536SOL    HW154221   9.758   7.951   6.447  1.4450  2.4838 -1.3849
17536SOL    HW254222   9.678   8.079   6.430 -3.5677 -0.3084 -0.8658
17537SOL     OW54223   9.423   0.917   4.174 -0.1322 -0.2017 -0.0322
17537SOL    HW154224   9.450   0.952   4.089  1.1253  0.7568  0.7374
17537SOL    HW254225   9.367   0.842   4.152  0.8271 -0.4700 -1.7059
17538SOL     OW54226   0.061   5.458   2.779 -0.1810  0.7828 -0.4250
17538SOL    HW154227  -0.029   5.430   2.793 -0.3160  1.1779 -0.4828
17538SOL    HW254228   0.079   5.517   2.852 -0.4352  1.7871 -1.1529
17539SOL     OW54229   9.677   3.784   8.714  0.7698 -0.1722 -0.4966
17539SOL    HW154230   9.671   3.689   8.703  1.8960 -0.2418 -0.6243
17539SOL    HW254231   9.769   3.800   8.739  0.1151  0.6932  1.6008
17540SOL     OW54232   4.845   1.180   6.395  0.3170  0.3758 -0.5200
17540SOL    HW154233   4.845   1.192   6.490  0.5576  1.1741 -0.6127
17540SOL    HW254234   4.858   1.268   6.360  0.0405  0.1133 -1.2980
17541SOL     OW54235   1.189   5.439   4.188  0.7080  0.2746  0.7212
17541SOL    HW154236   1.161   5.456   4.098  1.7074 -0.1228  0.3220
17541SOL    HW254237   1.280   5.469   4.192  0.7497  0.0820  1.5342
17542SOL     OW54238   1.477   1.134   1.828 -0.5243  0.2206 -0.1256
17542SOL    HW154239   1.474   1.194   1.753 -1.1535  0.1198 -0.1877
17542SOL    HW254240   1.559   1.154   1.872  0.9367 -1.1872 -2.0686
17543SOL     OW54241   0.665   0.772   6.510 -0.4062 -0.7547  0.2199
17543SOL    HW154242   0.598   0.837   6.530  0.9779  2.1998 -3.5255
17543SOL    HW254243   0.747   0.812   6.537  0.5866 -0.3200 -3.0533
17544SOL     OW54244   7.773   7.046   4.016  0.0453  0.6715  0.5796
17544SOL    HW154245   7.770   7.039   4.111 -0.6476 -1.5048  0.4435
17544SOL    HW254246   7.811   6.963   3.987 -0.4840  0.9734 -1.0851
17545SOL     OW54247   4.573   8.344   8.367  0.7370  0.2749  0.0478
17545SOL    HW154248   4.599   8.259   8.402 -0.5827 -0.3008 -0.2911
17545SOL    HW254249   4.489   8.363   8.410 -0.2611  0.1725 -1.7600
17546SOL     OW54250   4.482   4.648   5.273 -0.0952 -0.6321 -0.4275
17546SOL    HW154251   4.401   4.615   5.311  0.9253 -2.7042  0.0707
17546SOL    HW254252   4.454   4.698   5.197 -1.9425  0.4697  0.8790
17547SOL     OW54253   6.060   0.600   6.733 -0.1311  0.4555  0.5318
17547SOL    HW154254   5.981   0.644   6.702  0.7176  0.3223 -2.0880
17547SOL    HW254255   6.129   0.667   6.728  0.5970 -0.3346 -0.7464
17548SOL     OW54256   7.134   7.435   6.781  0.7406 -0.3269 -0.0256
17548SOL    HW154257   7.205   7.427   6.717  1.4132  0.5118  0.5845
17548SOL    HW254258   7.174   7.410   6.865 -0.3225 -2.1245 -0.0175
17549SOL     OW54259   7.735   5.838   1.360  0.0037 -0.9066 -0.4204
17549SOL    HW154260   7.782   5.821   1.279 -1.5500 -0.0916 -1.5358
17549SOL    HW254261   7.653   5.789   1.352 -1.3479  1.2264 -0.5702
17550SOL     OW54262   2.358   9.803   3.343  0.1463 -0.6192 -0.0844
17550SOL    HW154263   2.357   9.761   3.429  0.3225  0.7378  0.6044
17550SOL    HW254264   2.449   9.797   3.314  0.6667  1.2120  1.0241
17551SOL     OW54265   8.339   8.463   6.700 -0.5971  0.5557  0.7458
17551SOL    HW154266   8.411   8.400   6.714 -0.7483  0.4154  0.8961
17551SOL    HW254267   8.319   8.455   6.607 -0.1110  0.9287  0.6015
17552SOL     OW54268   2.033   1.414   6.345 -0.3840  0.6760 -0.4366
17552SOL    HW154269   1.963   1.419   6.279 -0.1098 -1.3209 -0.9461
17552SOL    HW254270   2.106   1.374   6.299  0.2865  0.5076  0.7386
17553SOL     OW54271   4.434   8.732   1.455  0.3393 -0.4388  0.2175
17553SOL    HW154272   4.469   8.670   1.519 -0.8266  0.1262  1.4519
17553SOL    HW254273   4.372   8.680   1.403  0.3977 -0.6226  0.3307
17554SOL     OW54274   1.936   8.555   4.620 -0.8932 -0.1488  0.0311
17554SOL    HW154275   2.028   8.527   4.618 -0.9223 -0.2419 -0.0109
17554SOL    HW254276   1.901   8.529   4.535 -0.8703  0.1914 -0.0823
17555SOL     OW54277   2.033   5.487   5.512 -0.5650 -0.4426 -0.1913
17555SOL    HW154278   1.957   5.522   5.466 -0.1855  0.2898 -0.2797
17555SOL    HW254279   2.026   5.392   5.502 -2.5477 -0.5476  1.4921
17556SOL     OW54280   2.731   3.538   3.701 -0.6661  0.3854  0.1901
17556SOL    HW154281   2.667   3.609   3.691  1.5871  2.2729 -2.9524
17556SOL    HW254282   2.812   3.583   3.726  1.0359 -0.8095 -2.6691
17557SOL     OW54283   8.689   6.725   1.214  0.3552 -0.3165  0.3715
17557SOL    HW154284   8.659   6.638   1.240 -0.5865 -0.3478 -0.7136
17557SOL    HW254285   8.615   6.761   1.165  0.5646  1.2752  1.1643
17558SOL     OW54286   0.152   6.777   5.779  0.7330 -0.3785 -0.1630
17558SOL    HW154287   0.161   6.730   5.862 -0.1908  0.5374  0.4838
17558SOL    HW254288   0.166   6.869   5.802  1.9026 -0.2481 -1.2918
17559SOL     OW54289   3.504   6.644   7.289 -0.3500  0.6294  0.2069
17559SOL    HW154290   3.492   6.730   7.329  3.2133  0.3827  2.1548
17559SOL    HW254291   3.590   6.648   7.247 -0.6291 -1.6173 -0.7222
17560SOL     OW54292   5.853   0.688   4.683 -0.4185  0.1742  0.2616
17560SOL    HW154293   5.928   0.632   4.705 -0.8863 -0.7254 -0.3448
17560SOL    HW254294   5.850   0.686   4.587 -1.5451 -0.2781  0.2909
17561SOL     OW54295   9.816   4.857   2.829 -0.1802 -0.0106 -0.1868
17561SOL    HW154296   9.895   4.806   2.814 -0.4750 -0.0028 -1.9935
17561SOL    HW254297   9.745   4.803   2.794 -0.5783  1.2854 -1.4811
17562SOL     OW54298   1.407   3.315   6.387 -0.4738  0.3095  0.2084
17562SOL    HW154299   1.494   3.326   6.349 -1.3166  0.7488 -1.6641
17562SOL    HW254300   1.402   3.384   6.453 -0.2583  1.8586 -1.3333
17563SOL     OW54301   3.118   2.945   3.440 -0.1804 -0.0342 -0.1966
17563SOL    HW154302   3.089   2.956   3.531 -0.4202  0.5002 -0.3301
17563SOL    HW254303   3.052   2.992   3.389 -0.0409 -0.3261 -0.6463
17564SOL     OW54304   8.435   0.315   4.353 -0.2186  0.2774  0.0705
17564SOL    HW154305   8.347   0.340   4.381 -0.1110  0.7523 -0.0172
17564SOL    HW254306   8.482   0.296   4.434 -0.8582 -1.5539  0.0623
17565SOL     OW54307   2.850   6.600   1.395 -0.7440  0.1639  0.4597
17565SOL    HW154308   2.837   6.692   1.372 -2.2809 -0.2594 -0.4876
17565SOL    HW254309   2.883   6.559   1.315  0.7970  0.0223  1.1260
17566SOL     OW54310   9.153   1.524   1.460 -0.0780 -0.3842  0.1221
17566SOL    HW154311   9.245   1.495   1.456  0.8954  2.1683  1.2956
17566SOL    HW254312   9.125   1.530   1.369  0.3614 -2.7069 -0.2131
17567SOL     OW54313   1.501   8.439   7.701 -0.1466  0.5559 -0.9819
17567SOL    HW154314   1.468   8.359   7.659  0.1985 -0.1781  0.1130
17567SOL    HW254315   1.434   8.505   7.681 -0.3783  0.0444 -2.0095
17568SOL     OW54316   9.594   0.004   1.164  0.0912  0.2879 -0.4265
17568SOL    HW154317   9.501  -0.000   1.187  0.0341  2.2500 -0.1299
17568SOL    HW254318   9.608  -0.073   1.109 -1.4635 -0.5875  0.3219
17569SOL     OW54319   1.869   4.475   9.523  0.0696  0.2712  0.0829
17569SOL    HW154320   1.871   4.540   9.452 -2.7983 -0.7001 -1.0105
17569SOL    HW254321   1.925   4.404   9.492 -0.6690  0.1265 -0.9944
17570SOL     OW54322   8.682   2.249   7.044 -0.3218 -0.6061  0.0791
17570SOL    HW154323   8.699   2.256   6.950  0.1310 -1.3674  0.0937
17570SOL    HW254324   8.598   2.202   7.049  0.0640 -1.3216  0.0502
17571SOL     OW54325   0.935   4.910   0.603  0.2842 -0.0517  0.1090
17571SOL    HW154326   0.897   4.886   0.519  1.0364  1.3317 -0.6654
17571SOL    HW254327   0.963   4.827   0.642 -0.2312 -0.7197 -0.9285
17572SOL     OW54328   5.650   3.020   3.547  0.7670 -0.0060 -0.1329
17572SOL    HW154329   5.638   2.945   3.489  1.8360 -0.6292  0.4133
17572SOL    HW254330   5.745   3.032   3.551  0.6139  1.4863 -0.3338
17573SOL     OW54331   5.367   8.274   1.985 -0.1502 -0.1321  0.2872
17573SOL    HW154332   5.311   8.265   1.908 -0.9242  0.2591  0.7877
17573SOL    HW254333   5.427   8.200   1.980  1.3177  1.0994 -1.8893
17574SOL     OW54334   0.060   8.242   5.824 -0.1089  0.1338 -0.6994
17574SOL    HW154335   0.144   8.197   5.822 -0.4441 -0.4911 -0.6811
17574SOL    HW254336   0.014   8.204   5.898 -0.3167  0.6429 -0.5649
17575SOL     OW54337   8.429   7.542   0.215 -0.0811  0.1397  0.1622
17575SOL    HW154338   8.407   7.542   0.122 -0.7937 -1.9373  0.2943
17575SOL    HW254339   8.366   7.482   0.255  2.9860 -2.6523  1.2594
17576SOL     OW54340   4.883   6.785   5.707 -1.0243  0.3986  0.4210
17576SOL    HW154341   4.941   6.844   5.659 -0.4128 -0.3334  0.2413
17576SOL    HW254342   4.851   6.838   5.781  0.9438  0.4390  1.3104
17577SOL     OW54343   9.533   6.727   4.473  0.2081 -0.6480 -0.2713
17577SOL    HW154344   9.534   6.758   4.563  2.2595 -3.2696  0.7574
17577SOL    HW254345   9.470   6.656   4.472  0.4106 -0.8308 -0.8344
17578SOL     OW54346   3.339   5.369   7.164 -0.4356 -0.0904  0.2524
17578SOL    HW154347   3.401   5.306   7.202  0.3770 -0.0029 -0.8912
17578SOL    HW254348   3.255   5.345   7.201 -0.0619 -1.5496  0.2070
17579SOL     OW54349   6.449   2.696   0.899  0.1316 -0.5282 -0.3988
17579SOL    HW154350   6.472   2.689   0.991  1.4609 -0.4549 -0.7010
17579SOL    HW254351   6.476   2.612   0.860  0.2784 -0.2764 -0.8546
17580SOL     OW54352   2.798   8.737   3.771 -0.2675  0.1704 -0.4994
17580SOL    HW154353   2.799   8.806   3.837 -0.2373 -1.1548  0.9655
17580SOL    HW254354   2.831   8.778   3.691 -1.2559  2.0857  0.0314
17581SOL     OW54355   3.611   4.089   8.264 -0.1857  0.0672 -0.4030
17581SOL    HW154356   3.658   4.066   8.344  1.5785  1.6697 -0.9169
17581SOL    HW254357   3.535   4.138   8.295  0.6490  0.9562  0.3020
17582SOL     OW54358   1.751   9.138   4.904  0.8176  0.3515  0.4712
17582SOL    HW154359   1.699   9.121   4.826  1.3754 -0.6405  0.3048
17582SOL    HW254360   1.729   9.067   4.964  1.1056  0.5818  0.8581
17583SOL     OW54361   0.861   8.009   8.609  0.4954 -0.3209 -0.9837
17583SOL    HW154362   0.766   8.014   8.619  0.2979 -0.4744 -2.4593
17583SOL    HW254363   0.896   8.061   8.681 -0.7282  0.2440 -0.7669
17584SOL     OW54364   5.994   8.814   5.191 -0.3939  0.0467 -0.3014
17584SOL    HW154365   5.960   8.903   5.185  1.0850  0.7638  1.0373
17584SOL    HW254366   5.959   8.780   5.273  0.8274  0.2609  0.3399
17585SOL     OW54367   2.493   0.454   2.764 -0.4321 -0.2450 -0.0988
17585SOL    HW154368   2.470   0.527   2.822 -0.0091  0.2729 -0.5807
17585SOL    HW254369   2.568   0.413   2.806 -1.8853 -1.6651  1.2434
17586SOL     OW54370   4.315   6.279   4.958 -1.0258 -0.3031 -0.0066
17586SOL    HW154371   4.375   6.206   4.943 -1.4180 -0.5939 -0.1894
17586SOL    HW254372   4.235   6.254   4.910 -0.8619  0.6315 -0.7868
17587SOL     OW54373   3.970   9.593   2.107 -0.2808 -0.0590  0.3128
17587SOL    HW154374   3.945   9.501   2.096 -0.1948 -0.3672  2.2545
17587SOL    HW254375   4.006   9.619   2.023  1.4126 -2.3658  0.2403
17588SOL     OW54376   2.257   8.648   9.205  0.1642  0.2453  0.3629
17588SOL    HW154377   2.293   8.642   9.294 -0.3221  2.0605  0.7174
17588SOL    HW254378   2.330   8.624   9.148  1.3071  1.6823  1.1614
17589SOL     OW54379   8.067   8.491   3.553 -0.5353  0.3081 -0.7432
17589SOL    HW154380   8.115   8.569   3.582  0.5124 -0.4765 -0.2871
17589SOL    HW254381   8.113   8.464   3.473  0.7097 -1.2310  0.4290
17590SOL     OW54382   6.901   2.352   0.695  0.0070  0.1231 -0.0359
17590SOL    HW154383   6.979   2.398   0.664 -1.6418  0.6679 -4.0076
17590SOL    HW254384   6.833   2.419   0.697 -1.1132 -0.9759 -0.0343
17591SOL     OW54385   4.186   2.609   8.794 -0.1582 -0.1053 -0.3722
17591SOL    HW154386   4.096   2.635   8.811 -0.6620 -0.3877 -2.3795
17591SOL    HW254387   4.207   2.647   8.709  1.6515 -0.0019  0.0687
17592SOL     OW54388   5.027   7.161   3.632 -0.5740 -0.3663  0.3485
17592SOL    HW154389   5.105   7.114   3.603 -0.3154  0.3951 -0.2218
17592SOL    HW254390   4.957   7.127   3.577 -0.0571  1.1775 -1.3548
17593SOL     OW54391   5.896   1.877   8.012  0.0148 -0.1482  0.6080
17593SOL    HW154392   5.827   1.920   7.963 -0.5274 -1.7836 -0.1185
17593SOL    HW254393   5.965   1.860   7.948 -0.1531 -1.1287  0.6648
17594SOL     OW54394   6.749   9.316   8.329  0.4366 -0.2968 -0.1304
17594SOL    HW154395   6.692   9.239   8.323 -0.6362  0.2972  1.5222
17594SOL    HW254396   6.817   9.301   8.263  0.2980 -2.6829  0.1618
17595SOL     OW54397   4.116   4.446   5.018  0.2725  0.1250 -0.7082
17595SOL    HW154398   4.184   4.434   4.952 -0.7144 -3.1218 -1.2999
17595SOL    HW254399   4.149   4.401   5.096 -0.5630 -0.2483 -0.5552
17596SOL     OW54400   6.909   0.966   1.166  0.7190  0.1988  0.7216
17596SOL    HW154401   6.876   0.992   1.080  0.2135  0.2678  0.9319
17596SOL    HW254402   6.946   0.879   1.152 -0.4719 -0.3256  0.6800
17597SOL     OW54403   9.092   1.752   5.587  0.4103 -0.2777 -0.1498
17597SOL    HW154404   9.122   1.794   5.668  0.7468 -1.1236  0.1789
17597SOL    HW254405   9.015   1.801   5.561  2.9362  3.1330 -1.9654
17598SOL     OW54406   6.669   4.920   8.986 -0.2187 -0.0591 -0.5583
17598SOL    HW154407   6.718   4.961   9.058 -1.4563  0.8701 -0.2036
17598SOL    HW254408   6.671   4.985   8.916 -2.3378  0.7563  0.0615
17599SOL     OW54409   3.222   9.603   3.395  0.0986  0.4147 -0.6698
17599SOL    HW154410   3.225   9.529   3.456  1.4307 -0.1877 -1.4298
17599SOL    HW254411   3.237   9.680   3.450  2.4736 -0.2058 -0.3300
17600SOL     OW54412   4.880   3.620   7.552 -0.2779 -0.1552  0.3805
17600SOL    HW154413   4.908   3.528   7.549 -0.8144 -0.3191  0.2818
17600SOL    HW254414   4.784   3.615   7.553 -0.3018  0.3808  1.1579
17601SOL     OW54415   0.932   1.279   5.940  0.4649 -0.0103  0.0041
17601SOL    HW154416   0.888   1.300   5.858 -0.4588 -0.8176  0.2622
17601SOL    HW254417   0.926   1.359   5.992 -0.2714  0.0487 -0.1622
17602SOL     OW54418   8.073   5.685   1.331 -0.2679 -0.2969  0.5106
17602SOL    HW154419   8.157   5.706   1.291 -0.3639  0.2972  0.6139
17602SOL    HW254420   8.075   5.590   1.342  2.0743 -0.0432  4.1283
17603SOL     OW54421   8.242   9.138   0.555  0.0082 -0.1745  0.1649
17603SOL    HW154422   8.240   9.119   0.649 -1.9096 -1.5967 -0.0991
17603SOL    HW254423   8.150   9.155   0.532  0.4210  0.0360 -1.4608
17604SOL     OW54424   2.371   9.759   0.179 -0.0422 -0.0724 -0.2069
17604SOL    HW154425   2.382   9.770   0.273  1.9380 -3.6667  0.1605
17604SOL    HW254426   2.434   9.820   0.140  2.1477 -1.4041  1.0438
17605SOL     OW54427   8.649   8.135   2.688 -0.3974  0.0917 -0.1113
17605SOL    HW154428   8.645   8.218   2.641  1.1786  0.4983  0.4017
17605SOL    HW254429   8.743   8.114   2.691 -0.7388 -1.6005 -0.0394
17606SOL     OW54430   1.401   5.803   1.779 -0.4008 -0.1721  0.3196
17606SOL    HW154431   1.483   5.802   1.828  0.2684 -0.7662 -0.7615
17606SOL    HW254432   1.339   5.847   1.836  0.5298 -0.2138  1.3917
17607SOL     OW54433   7.114   8.282   0.039 -0.2156  0.3886  0.1959
17607SOL    HW154434   7.136   8.262  -0.052 -1.1475 -0.3600  0.1224
17607SOL    HW254435   7.152   8.210   0.089 -2.3453 -0.9118  0.0694
17608SOL     OW54436   7.521   8.653   0.445  0.0482 -0.1901 -0.8960
17608SOL    HW154437   7.442   8.629   0.396  0.0514 -1.3530 -0.3740
17608SOL    HW254438   7.538   8.577   0.500  1.8327 -0.1735 -1.3751
17609SOL     OW54439   0.341   8.548   7.106  0.0079 -0.1668  0.2302
17609SOL    HW154440   0.330   8.509   7.019  0.2034 -1.4405  0.7470
17609SOL    HW254441   0.434   8.534   7.127 -0.6752 -2.9942  2.0021
17610SOL     OW54442   7.290   9.009   1.739  0.2732  0.5318  1.3777
17610SOL    HW154443   7.209   8.962   1.722  0.6673  0.3309 -0.0479
17610SOL    HW254444   7.267   9.069   1.811 -1.0641  0.3309  1.1553
17611SOL     OW54445   1.654   6.696   0.007 -0.3401  0.4108 -0.3198
17611SOL    HW154446   1.591   6.624   0.013 -2.4436  2.2418  1.4585
17611SOL    HW254447   1.715   6.680   0.079 -1.0360  0.5696  0.3213
17612SOL     OW54448   8.137   8.580   0.951 -0.4068  0.3204 -0.5526
17612SOL    HW154449   8.132   8.560   1.045 -1.4088 -1.1021 -0.8768
17612SOL    HW254450   8.129   8.676   0.947  0.8007  0.5314  0.8593
17613SOL     OW54451   7.270   4.730   1.858  0.0058 -0.5784  0.2209
17613SOL    HW154452   7.244   4.762   1.945  2.3557 -0.2647  0.8779
17613SOL    HW254453   7.250   4.637   1.860 -0.7604 -0.4108  0.7709
17614SOL     OW54454   8.730   4.904   9.604 -0.0315 -0.1979  0.3093
17614SOL    HW154455   8.662   4.928   9.541 -1.3151 -1.0715  1.3151
17614SOL    HW254456   8.812   4.930   9.562 -0.9031 -0.0411 -1.3704
17615SOL     OW54457   3.398   3.726   2.408  0.3045  0.2271  0.5112
17615SOL    HW154458   3.356   3.781   2.342  2.1980  0.5761 -0.4842
17615SOL    HW254459   3.488   3.759   2.413  0.9719 -1.5640  1.2831
17616SOL     OW54460   7.364   7.746   6.839  0.5776  0.6835 -0.0548
17616SOL    HW154461   7.441   7.709   6.796  2.3729  2.4020  1.4408
17616SOL    HW254462   7.290   7.718   6.786  2.4371  0.9397 -2.9907
17617SOL     OW54463   3.131   8.085   6.395  0.5831  0.3113 -0.0812
17617SOL    HW154464   3.183   8.008   6.374 -0.5049 -0.2491 -0.8854
17617SOL    HW254465   3.155   8.149   6.327 -0.9485 -0.5430 -1.5116
17618SOL     OW54466   8.811   2.350   7.280 -0.3010 -0.5623  0.5479
17618SOL    HW154467   8.872   2.292   7.326  2.5799  0.3120 -1.8213
17618SOL    HW254468   8.759   2.292   7.225  1.8632 -1.1383 -1.0511
17619SOL     OW54469   4.462   3.545   4.881 -0.6062 -0.4800 -0.0496
17619SOL    HW154470   4.551   3.544   4.844  0.0045 -1.3575  1.3636
17619SOL    HW254471   4.406   3.526   4.806 -0.0761  3.8915 -1.8638
17620SOL     OW54472   4.310   1.432   7.228 -0.0635 -0.5231  0.2576
17620SOL    HW154473   4.352   1.441   7.314  0.0511 -1.1133  0.2645
17620SOL    HW254474   4.261   1.514   7.217 -3.1084 -1.8282  2.5085
17621SOL     OW54475   5.166   0.776   6.814  0.0309  0.3494 -0.4195
17621SOL    HW154476   5.255   0.775   6.849 -0.2659 -0.7710  0.3716
17621SOL    HW254477   5.163   0.853   6.758  1.4352  0.5196 -0.2981
17622SOL     OW54478   4.195   0.166   1.554  0.6655  0.2571  0.2661
17622SOL    HW154479   4.181   0.155   1.460 -1.8353  1.0390  0.4813
17622SOL    HW254480   4.265   0.231   1.560 -0.2857  1.4810 -1.0952
17623SOL     OW54481   3.282   7.310   6.911 -0.2711  0.1075 -0.7618
17623SOL    HW154482   3.200   7.345   6.945  0.5181  1.7064 -0.3817
17623SOL    HW254483   3.256   7.241   6.851 -1.9410  1.3769 -1.5824
17624SOL     OW54484   1.782   1.768   5.138 -0.0066  0.2505 -0.1347
17624SOL    HW154485   1.765   1.761   5.044 -2.1437 -1.1934  0.2842
17624SOL    HW254486   1.869   1.807   5.144  0.4286 -0.1588 -2.7028
17625SOL     OW54487   4.083   2.467   5.765 -0.3796  0.0045 -0.3178
17625SOL    HW154488   4.054   2.376   5.774 -0.4064  0.0493  0.0722
17625SOL    HW254489   4.071   2.505   5.852 -0.0912  0.2999 -0.4027
17626SOL     OW54490   1.871   9.068   3.557 -0.4733 -0.0306 -0.1673
17626SOL    HW154491   1.783   9.105   3.562 -0.7806 -0.8876  2.7303
17626SOL    HW254492   1.892   9.043   3.647  2.1105 -1.3387 -1.0154
17627SOL     OW54493   6.268   1.325   8.442 -0.1985 -0.3865 -0.2787
17627SOL    HW154494   6.354   1.368   8.444 -0.1337 -0.5404  1.3580
17627SOL    HW254495   6.218   1.374   8.377  0.9771 -0.0207 -0.9412
17628SOL     OW54496   3.935   0.144   1.976 -0.2687  0.0773 -0.0348
17628SOL    HW154497   3.926   0.201   2.053  0.1237 -0.6442  0.5639
17628SOL    HW254498   3.850   0.099   1.969 -0.2263 -0.0296  0.1253
17629SOL     OW54499   5.379   9.725   2.375  0.0279  0.0357 -0.6268
17629SOL    HW154500   5.366   9.783   2.300 -0.4377  0.8219  0.0472
17629SOL    HW254501   5.468   9.692   2.364  1.2186  2.6974  0.1671
17630SOL     OW54502   2.433   0.710   7.563 -0.0693 -0.0103  0.4344
17630SOL    HW154503   2.435   0.700   7.467  0.3916  1.2484  0.2824
17630SOL    HW254504   2.522   0.737   7.585 -0.2393 -0.0666  1.1857
17631SOL     OW54505   5.720   7.187   9.764  0.4987  0.3501 -0.3259
17631SOL    HW154506   5.694   7.277   9.781  2.3919  0.6889  1.2386
17631SOL    HW254507   5.816   7.189   9.766  0.5974 -1.7645  0.2657
17632SOL     OW54508   6.082   2.559   5.986  0.0262 -0.5073  0.2468
17632SOL    HW154509   6.012   2.624   5.988  1.0764  0.6619 -0.0287
17632SOL    HW254510   6.038   2.476   6.009 -1.5986  0.0297 -0.7313
17633SOL     OW54511   6.726   7.567   1.940  0.3334 -0.6259  0.2606
17633SOL    HW154512   6.697   7.510   2.012  0.2831 -1.7117 -0.5778
17633SOL    HW254513   6.780   7.509   1.885  0.2631  0.1406 -0.6324
17634SOL     OW54514   6.363   6.741   2.414 -0.0202  0.4451  0.4851
17634SOL    HW154515   6.284   6.767   2.462 -0.7922 -1.8608  0.5442
17634SOL    HW254516   6.428   6.725   2.483  0.7183  2.7731  0.4199
17635SOL     OW54517   8.308   2.555   4.817 -0.1209 -0.0465 -0.4232
17635SOL    HW154518   8.222   2.528   4.786 -0.8017  0.7343  0.7286
17635SOL    HW254519   8.369   2.517   4.754 -1.3551  0.2138 -1.8202
17636SOL     OW54520   7.209   0.768   1.803  0.2576 -0.2863  0.3733
17636SOL    HW154521   7.201   0.857   1.836 -1.2216 -0.3433  0.2172
17636SOL    HW254522   7.189   0.774   1.709  1.1640 -0.6343  0.1440
17637SOL     OW54523   1.874   0.736   5.649  0.5809  0.2977 -0.3153
17637SOL    HW154524   1.784   0.768   5.659  1.2324  2.0874  0.1110
17637SOL    HW254525   1.928   0.800   5.695  2.0407 -1.0852 -0.0074
17638SOL     OW54526   9.114   7.341   2.507 -0.2926 -0.1697 -0.1439
17638SOL    HW154527   9.137   7.400   2.579 -1.1281  0.1954 -0.1756
17638SOL    HW254528   9.109   7.255   2.549  1.0995 -0.2744 -0.1310
17639SOL     OW54529   0.058   6.000   5.513 -0.6022 -0.0126 -0.0369
17639SOL    HW154530   0.053   5.938   5.440 -0.0133 -0.0888 -0.0171
17639SOL    HW254531   0.140   6.048   5.498 -0.0339 -0.6240  1.0452
17640SOL     OW54532   4.781   9.404   5.921 -0.3380  0.2238 -0.5266
17640SOL    HW154533   4.729   9.325   5.909 -0.7404  0.5299 -0.8288
17640SOL    HW254534   4.768   9.454   5.840 -0.7088  0.9564 -0.0209
17641SOL     OW54535   0.041   7.959   4.966  0.0068  0.4818 -0.5751
17641SOL    HW154536   0.115   7.906   4.995  0.9740  1.0525 -1.8714
17641SOL    HW254537   0.066   7.990   4.879 -0.4066  3.1788  0.1490
17642SOL     OW54538   0.234   5.664   2.126  0.1726 -0.0042  0.4991
17642SOL    HW154539   0.153   5.709   2.101 -0.0016 -0.4343  0.2786
17642SOL    HW254540   0.239   5.589   2.066  1.8323  1.1997 -0.9542
17643SOL     OW54541   9.699   0.571   0.711 -0.4174  0.0171 -0.0922
17643SOL    HW154542   9.630   0.634   0.730 -0.5352 -0.5695  1.5890
17643SOL    HW254543   9.781   0.620   0.723 -0.5017 -0.2320  1.6372
17644SOL     OW54544   0.129   2.780   6.096 -0.0988 -0.2304  0.0543
17644SOL    HW154545   0.063   2.840   6.061 -0.6919 -1.6299 -1.3499
17644SOL    HW254546   0.212   2.824   6.081 -0.5372  0.3764 -0.6851
17645SOL     OW54547   8.929   8.320   5.633  0.0569  0.0152  0.0388
17645SOL    HW154548   8.955   8.412   5.637  0.5029 -0.0075 -1.5836
17645SOL    HW254549   8.860   8.318   5.566 -0.4815 -0.7277  0.5959
17646SOL     OW54550   3.246   1.617   5.366  0.1928 -0.2112  0.2054
17646SOL    HW154551   3.156   1.593   5.345  0.2955 -1.8753  1.4600
17646SOL    HW254552   3.239   1.667   5.448  0.1813  2.4282 -1.3006
17647SOL     OW54553   6.514   2.393   3.518  0.7875 -0.2029 -0.1049
17647SOL    HW154554   6.477   2.388   3.430  0.3679  0.3137  0.0374
17647SOL    HW254555   6.609   2.396   3.504  0.7268 -0.2050 -0.5316
17648SOL     OW54556   4.034   9.377   4.656  0.6070  0.2783  0.0903
17648SOL    HW154557   3.952   9.347   4.695  0.0669  0.3003 -0.9881
17648SOL    HW254558   4.055   9.458   4.703 -1.9293  2.3087 -1.9454
17649SOL     OW54559   7.671   0.943   5.841  0.1571  0.2033 -0.0682
17649SOL    HW154560   7.661   0.944   5.937  2.5072 -0.2538  0.2463
17649SOL    HW254561   7.682   0.850   5.819  1.4995  0.4505 -0.5157
17650SOL     OW54562   0.154   5.875   9.135 -0.1214  0.1256  0.1193
17650SOL    HW154563   0.108   5.819   9.072 -0.0914 -0.2185  0.4001
17650SOL    HW254564   0.244   5.877   9.104 -0.0902 -0.1066  0.1961
17651SOL     OW54565   9.115   2.168   7.757  0.9701 -0.4622 -0.1734
17651SOL    HW154566   9.023   2.143   7.755  0.1063  2.4295 -0.4723
17651SOL    HW254567   9.137   2.172   7.850  0.3309  0.3136 -0.0475
17652SOL     OW54568   0.705   9.606   0.658 -0.1463  0.1819  0.1421
17652SOL    HW154569   0.685   9.555   0.579 -0.4640  0.0302  0.3182
17652SOL    HW254570   0.656   9.688   0.646 -2.4678 -0.9318  1.4334
17653SOL     OW54571   9.740   6.599   5.271 -0.7593  0.6237 -0.0976
17653SOL    HW154572   9.708   6.651   5.344  1.2021  0.8824  0.6305
17653SOL    HW254573   9.775   6.519   5.311  3.5382  2.2128 -0.1670
17654SOL     OW54574   5.667   6.779   7.254 -0.4034  0.2233  0.2518
17654SOL    HW154575   5.735   6.810   7.314  0.3020  0.8224 -0.7973
17654SOL    HW254576   5.647   6.691   7.282  0.2006  0.3524  1.1140
17655SOL     OW54577   8.595   1.544   0.881  0.1295  0.4029  0.8369
17655SOL    HW154578   8.556   1.578   0.961  0.2533  0.1955  0.9863
17655SOL    HW254579   8.525   1.549   0.816  0.3819  1.7492  0.6284
17656SOL     OW54580   1.036   4.830   5.609  0.0477  0.2460 -0.1294
17656SOL    HW154581   1.084   4.877   5.677  0.2766  0.3092 -0.3336
17656SOL    HW254582   0.982   4.896   5.566 -1.2097 -0.0395  0.9307
17657SOL     OW54583   1.192   7.272   5.156  0.4568  0.0897  0.2522
17657SOL    HW154584   1.185   7.199   5.217  1.8327 -0.4470 -0.2082
17657SOL    HW254585   1.223   7.234   5.075  0.9602  1.1480 -0.0728
17658SOL     OW54586   9.489   6.050   9.559 -0.0777  0.3600  0.4322
17658SOL    HW154587   9.532   5.985   9.503  0.5924 -0.0465  1.3788
17658SOL    HW254588   9.562   6.097   9.600 -0.5618  1.2868  0.2526
17659SOL     OW54589   7.541   7.341   0.813 -0.0784 -0.3571 -0.3804
17659SOL    HW154590   7.525   7.247   0.820 -2.1916 -0.0911 -0.7927
17659SOL    HW254591   7.573   7.353   0.723  2.1013 -0.8473  0.2683
17660SOL     OW54592   6.355   1.919   7.732 -0.3116  0.2826 -0.3275
17660SOL    HW154593   6.439   1.936   7.689  0.5749  0.8659  1.5334
17660SOL    HW254594   6.290   1.932   7.662  1.0929  0.2836 -1.6999
17661SOL     OW54595   1.193   8.357   3.602 -0.0704 -0.3438  0.0070
17661SOL    HW154596   1.155   8.335   3.517  0.6391  0.4083 -0.5183
17661SOL    HW254597   1.245   8.280   3.625 -1.3085 -1.1017  0.4123
17662SOL     OW54598   3.338   2.101   9.468  0.2386 -0.3423  0.2885
17662SOL    HW154599   3.263   2.048   9.441  0.3422 -0.0282 -0.6445
17662SOL    HW254600   3.370   2.058   9.548 -0.6631 -0.7278  0.4554
17663SOL     OW54601   3.731   0.194   5.460 -0.5810 -0.2425  0.0207
17663SOL    HW154602   3.653   0.139   5.458 -1.5647  1.1170 -0.3841
17663SOL    HW254603   3.802   0.136   5.435 -1.5580 -1.3568 -0.2425
17664SOL     OW54604   1.098   6.245   6.639 -0.4770 -0.0207  0.2279
17664SOL    HW154605   1.079   6.293   6.558  1.3154 -2.0741 -1.5476
17664SOL    HW254606   1.188   6.270   6.661 -1.1354  0.9644  2.0128
17665SOL     OW54607   1.238   4.074   7.820  0.7308 -0.1480 -0.2404
17665SOL    HW154608   1.195   4.084   7.735 -0.4462  0.6420  0.4209
17665SOL    HW254609   1.189   4.003   7.863  0.1532  0.6564  0.4605
17666SOL     OW54610   0.750   9.642   4.172  0.2942 -0.3467 -0.5259
17666SOL    HW154611   0.778   9.723   4.130 -0.8122 -0.1122 -0.8447
17666SOL    HW254612   0.681   9.608   4.115  0.6604 -1.4570 -0.3299
17667SOL     OW54613   0.715   1.470   1.081 -0.3811  0.2603 -0.2165
17667SOL    HW154614   0.646   1.453   1.017 -0.1396 -0.3081 -0.3307
17667SOL    HW254615   0.674   1.454   1.166 -0.9701  1.9201 -0.1623
17668SOL     OW54616   6.832   8.787   2.564  0.2749  0.3751  0.0092
17668SOL    HW154617   6.860   8.867   2.519 -0.1008  0.7057  0.3557
17668SOL    HW254618   6.768   8.817   2.629  0.7772 -0.0998  0.7393
17669SOL     OW54619   2.583   0.379   4.897 -0.1263  0.0303  0.3442
17669SOL    HW154620   2.658   0.390   4.955 -0.4586  1.8240  0.4898
17669SOL    HW254621   2.602   0.299   4.849  1.9072  0.4587  0.3422
17670SOL     OW54622   2.078   9.365   2.770  0.0449 -0.3694  0.1918
17670SOL    HW154623   2.067   9.357   2.864 -0.0415  0.7291  0.2897
17670SOL    HW254624   2.089   9.459   2.755  0.2768 -0.5504 -0.8678
17671SOL     OW54625   9.462   5.693   0.903  0.3604  0.4377 -0.1565
17671SOL    HW154626   9.387   5.638   0.880  0.3648  0.5341 -0.4031
17671SOL    HW254627   9.423   5.773   0.940  0.3183  0.7528 -0.8592
17672SOL     OW54628   2.413   9.362   1.287 -0.2227  0.0968 -0.2270
17672SOL    HW154629   2.380   9.328   1.203  0.6784 -0.3994 -0.3966
17672SOL    HW254630   2.365   9.444   1.300 -0.5818  0.0397 -1.0906
17673SOL     OW54631   2.989   3.399   4.861  0.4337  0.3100 -0.0030
17673SOL    HW154632   2.965   3.367   4.774 -2.4076 -0.4258  0.9210
17673SOL    HW254633   3.025   3.323   4.905  0.8646  0.4003 -0.1988
17674SOL     OW54634   3.076   0.050   8.713  0.1899  0.6270  0.1127
17674SOL    HW154635   3.088  -0.010   8.639  0.6674 -0.1329  0.7855
17674SOL    HW254636   3.134   0.124   8.693  2.1394 -0.6374  0.8228
17675SOL     OW54637   1.668   8.682   0.250 -0.0575  0.0956 -0.5548
17675SOL    HW154638   1.662   8.644   0.162  0.1115  0.9774 -0.9635
17675SOL    HW254639   1.701   8.771   0.235 -0.5348  0.4346  0.3611
17676SOL     OW54640   7.822   0.183   2.889  0.3066  0.3244 -0.1156
17676SOL    HW154641   7.802   0.225   2.805  0.8927  2.9456  0.9418
17676SOL    HW254642   7.759   0.111   2.895 -1.1727  1.3721 -1.8735
17677SOL     OW54643   7.452   2.709   3.695  0.3322  0.1059 -0.2874
17677SOL    HW154644   7.362   2.737   3.711  0.3316 -0.5515  1.0465
17677SOL    HW254645   7.455   2.687   3.602 -0.9426 -0.0646 -0.3026
17678SOL     OW54646   1.633   0.204   9.649 -0.2810  0.4286  0.4296
17678SOL    HW154647   1.614   0.129   9.593  0.7738  0.0742  0.5266
17678SOL    HW254648   1.710   0.178   9.700  0.5937  1.8619 -0.1001
17679SOL     OW54649   7.682   5.655   3.651  0.1157  0.6315  0.3909
17679SOL    HW154650   7.651   5.726   3.708  0.4917  1.5842 -0.5520
17679SOL    HW254651   7.773   5.678   3.633  0.2918 -0.1972  0.2066
17680SOL     OW54652   3.959   2.048   9.311 -0.6874  0.9312  0.4081
17680SOL    HW154653   4.054   2.043   9.304 -0.8916 -1.5957 -2.8260
17680SOL    HW254654   3.941   2.034   9.404  2.0393  0.1325  0.9027
17681SOL     OW54655   8.418   1.153   8.551 -0.1854  0.4599  0.0025
17681SOL    HW154656   8.437   1.229   8.496  0.1971 -0.4165 -1.1015
17681SOL    HW254657   8.407   1.080   8.490  0.7914 -0.6606  1.1024
17682SOL     OW54658   3.145   1.530   0.214 -0.0971  0.1812  0.7749
17682SOL    HW154659   3.129   1.564   0.302 -1.2949 -0.9491  1.0243
17682SOL    HW254660   3.183   1.444   0.227 -0.2561  0.0136  0.1810
17683SOL     OW54661   3.509   3.934   7.845  0.1159 -0.2231 -0.6179
17683SOL    HW154662   3.507   3.946   7.750 -0.3541 -2.1632 -0.8893
17683SOL    HW254663   3.514   3.840   7.857 -0.3506 -0.0382  1.3023
17684SOL     OW54664   4.507   4.339   9.380 -0.6389 -0.0779  0.2550
17684SOL    HW154665   4.437   4.378   9.433 -0.5534  0.3180  0.0788
17684SOL    HW254666   4.463   4.273   9.327 -0.7859 -0.2212  0.5516
17685SOL     OW54667   3.539   3.883   1.211 -0.2739  0.0005 -0.2805
17685SOL    HW154668   3.445   3.890   1.225 -0.3142  1.1163 -1.0024
17685SOL    HW254669   3.549   3.870   1.117  0.2929  0.0060 -0.2269
17686SOL     OW54670   8.997   3.946   0.437  0.1965  0.5397 -0.1228
17686SOL    HW154671   8.938   3.934   0.363 -1.0813 -0.6632  1.0272
17686SOL    HW254672   8.985   4.038   0.463 -1.8991  0.1311  0.6065
17687SOL     OW54673   7.525   9.538   7.267  1.0096 -0.5335  0.1393
17687SOL    HW154674   7.562   9.560   7.352  1.0240  1.0519 -0.2350
17687SOL    HW254675   7.438   9.503   7.287  0.6993  0.5494  0.7914
17688SOL     OW54676   0.991   0.637   8.466  0.7050 -0.3517  0.2137
17688SOL    HW154677   1.014   0.644   8.558 -1.6285  1.1529  0.7642
17688SOL    HW254678   0.953   0.550   8.457  1.0853 -0.5604  0.6260
17689SOL     OW54679   4.128   3.276   6.026  0.5468 -0.0673  0.0821
17689SOL    HW154680   4.224   3.274   6.027  0.5338 -1.1070  0.2618
17689SOL    HW254681   4.103   3.296   6.116  0.5893 -0.7854  0.2587
17690SOL     OW54682   6.727   2.550   5.815  0.0809 -0.4293  0.2238
17690SOL    HW154683   6.755   2.608   5.886  3.1248  1.5446 -2.2886
17690SOL    HW254684   6.796   2.484   5.810 -0.4062 -0.8976 -0.5400
17691SOL     OW54685   4.996   5.645   4.996 -0.0425 -0.2152 -0.9270
17691SOL    HW154686   5.001   5.708   4.924  2.1232  0.5097 -0.2240
17691SOL    HW254687   4.931   5.683   5.055 -0.6570  0.0126 -1.7255
17692SOL     OW54688   5.938   3.042   0.294  0.2782  0.3927 -0.4485
17692SOL    HW154689   5.842   3.042   0.292  0.2467  0.0189  0.5579
17692SOL    HW254690   5.964   3.030   0.202 -0.6430 -0.2933 -0.6356
17693SOL     OW54691   8.804   6.123   7.466 -0.1977 -0.1305 -0.2245
17693SOL    HW154692   8.831   6.071   7.390 -4.1516 -1.7505 -0.7970
17693SOL    HW254693   8.708   6.117   7.466 -0.5311  2.0720  3.3932
17694SOL     OW54694   5.015   3.070   4.802 -0.2186 -0.3417 -0.7121
17694SOL    HW154695   5.060   3.100   4.881  0.2201 -1.6171 -0.4673
17694SOL    HW254696   5.081   3.079   4.733 -0.0387 -0.8655 -0.6117
17695SOL     OW54697   8.578   0.001   6.925  0.0105 -0.0393  0.0797
17695SOL    HW154698   8.498  -0.030   6.967 -0.5091  0.3269 -0.6312
17695SOL    HW254699   8.560   0.092   6.902  0.6750  0.0843  0.0115
17696SOL     OW54700   3.390   5.386   9.229  0.5740 -0.0771 -0.0172
17696SOL    HW154701   3.454   5.377   9.159  1.5087  0.8143  0.7003
17696SOL    HW254702   3.392   5.301   9.275  1.8470  0.2189  0.4976
17697SOL     OW54703   2.539   9.698   2.611  0.3834  0.0995  0.0983
17697SOL    HW154704   2.470   9.760   2.587 -0.0310 -0.6291 -0.6329
17697SOL    HW254705   2.619   9.735   2.574  0.6205  1.5014  1.8502
17698SOL     OW54706   8.686   0.227   3.445  0.2094  0.2912 -0.4477
17698SOL    HW154707   8.702   0.134   3.426 -1.1081 -0.0833  0.1669
17698SOL    HW254708   8.710   0.237   3.537  2.1501  1.0291 -0.9875
17699SOL     OW54709   0.965   8.109   6.231  0.4790 -0.1207  0.7277
17699SOL    HW154710   0.967   8.204   6.235  2.5393  0.0099 -1.3084
17699SOL    HW254711   1.053   8.084   6.204 -0.3277 -2.5456  0.0716
17700SOL     OW54712   0.064   0.179   6.573  0.4024  0.1631 -0.7200
17700SOL    HW154713   0.080   0.197   6.480 -1.7563  1.2019 -0.9347
17700SOL    HW254714   0.094   0.257   6.618 -1.7090  1.1150 -0.9015
17701SOL     OW54715   7.719   5.903   6.356  0.2184  0.0181 -0.4690
17701SOL    HW154716   7.704   5.996   6.367  0.8754  0.0144  0.5512
17701SOL    HW254717   7.813   5.892   6.369 -0.2137 -1.1423  2.2848
17702SOL     OW54718   9.665   6.187   7.564  0.4954  0.0994  0.3928
17702SOL    HW154719   9.580   6.223   7.588  0.0073 -0.7786 -0.0158
17702SOL    HW254720   9.672   6.203   7.470  1.5258  1.6881  0.6980
17703SOL     OW54721   9.691   2.341   2.798 -0.2911  0.1813  0.2276
17703SOL    HW154722   9.735   2.259   2.776  0.1146  0.3892  0.2514
17703SOL    HW254723   9.621   2.315   2.859 -0.0985 -0.1324  0.3192
17704SOL     OW54724   0.701   4.779   1.814  0.4247 -0.2203  0.1714
17704SOL    HW154725   0.730   4.693   1.785 -1.5277 -0.6487 -0.6737
17704SOL    HW254726   0.676   4.824   1.733 -1.5628 -0.0379  0.8372
17705SOL     OW54727   7.952   1.053   5.105 -0.3802  0.2592  0.4632
17705SOL    HW154728   7.918   1.057   5.016 -0.2181  0.2734  0.4019
17705SOL    HW254729   7.876   1.070   5.161 -0.3356  0.9988  0.3101
17706SOL     OW54730   5.352   6.422   8.469  0.3574 -0.2170 -0.4839
17706SOL    HW154731   5.437   6.383   8.447  1.1525  1.0007  0.2563
17706SOL    HW254732   5.297   6.405   8.392  1.1485 -1.3463 -0.8306
17707SOL     OW54733   8.717   4.413   3.592  0.1311  0.3861  0.0096
17707SOL    HW154734   8.734   4.363   3.513 -0.1295 -0.0305  0.2124
17707SOL    HW254735   8.642   4.468   3.571 -0.5783 -0.4576  0.2783
17708SOL     OW54736   3.997   2.929   2.756  0.0003 -0.3751 -0.3630
17708SOL    HW154737   3.959   2.984   2.687  0.2763  2.0612  1.2845
17708SOL    HW254738   4.062   2.875   2.711 -3.3820 -2.7819 -2.8418
17709SOL     OW54739   7.040   8.926   7.846  0.1539 -0.2836 -0.2829
17709SOL    HW154740   7.086   8.870   7.783 -0.9599  1.7190 -3.1177
17709SOL    HW254741   7.107   8.986   7.878  0.6086 -0.8912 -0.0870
17710SOL     OW54742   9.609   9.524   5.428 -0.0276  0.4785 -0.5289
17710SOL    HW154743   9.652   9.583   5.367  1.0989  0.0175 -0.1970
17710SOL    HW254744   9.574   9.581   5.497 -2.4710  1.1501 -2.2122
17711SOL     OW54745   7.961   2.932   2.277 -0.3337  0.5808  0.4624
17711SOL    HW154746   8.051   2.906   2.256 -0.5109  0.4995 -0.2499
17711SOL    HW254747   7.947   2.901   2.366 -0.1729 -0.8379  0.0245
17712SOL     OW54748   0.144   6.288   4.043 -0.0152  0.3422 -0.0837
17712SOL    HW154749   0.061   6.284   3.996  0.3989  0.4578 -0.8534
17712SOL    HW254750   0.209   6.259   3.978  0.5006 -0.0915  0.6112
17713SOL     OW54751   5.170   4.538   8.108 -0.1626 -0.1397 -0.5213
17713SOL    HW154752   5.167   4.497   8.021  1.8786 -1.1468 -0.1664
17713SOL    HW254753   5.215   4.474   8.163 -0.7415  0.8104  1.1175
17714SOL     OW54754   2.757   6.031   0.362 -0.0525  0.8434  0.1032
17714SOL    HW154755   2.792   6.093   0.426  0.6545  1.0522 -0.4783
17714SOL    HW254756   2.687   6.079   0.317 -1.3617  0.3253  1.4764
17715SOL     OW54757   1.357   5.759   8.650  0.2407  0.2941 -0.1601
17715SOL    HW154758   1.332   5.743   8.559 -0.4916  0.7384 -0.0480
17715SOL    HW254759   1.450   5.738   8.654  0.0234 -0.8860 -0.7342
17716SOL     OW54760   3.064   0.055   1.184 -0.1578  0.1680 -0.6135
17716SOL    HW154761   3.115   0.091   1.112 -0.9308  0.4194 -1.0377
17716SOL    HW254762   3.069  -0.039   1.173 -0.9259  0.2211 -1.4565
17717SOL     OW54763   7.906   8.816   1.030  0.3500 -0.1808  0.2218
17717SOL    HW154764   7.853   8.876   0.977  0.7322 -1.2616 -1.4836
17717SOL    HW254765   7.988   8.863   1.046  0.9708 -0.4730 -1.7904
17718SOL     OW54766   5.644   3.857   9.820  0.3390 -0.1030  0.5817
17718SOL    HW154767   5.645   3.834   9.913  1.7367 -0.2750  0.5475
17718SOL    HW254768   5.685   3.782   9.777 -2.3077 -1.0652 -0.4693
17719SOL     OW54769   1.762   5.101   1.065 -0.3760  1.0155 -0.0789
17719SOL    HW154770   1.776   5.093   0.971 -0.8648 -0.3463 -0.0507
17719SOL    HW254771   1.814   5.178   1.091  1.3945  0.2058 -1.1050
17720SOL     OW54772   1.378   2.524   8.233  0.1245  0.0919  0.5836
17720SOL    HW154773   1.354   2.585   8.303  2.2248  0.4768  1.0248
17720SOL    HW254774   1.304   2.527   8.172 -0.7771  1.4065  1.6920
17721SOL     OW54775   7.798   5.272   1.209  0.0369  0.1658  0.0734
17721SOL    HW154776   7.717   5.318   1.188  1.2107  2.9850  1.2165
17721SOL    HW254777   7.772   5.208   1.276 -1.4524 -0.0245 -0.6429
17722SOL     OW54778   7.148   7.090   2.802  0.1718  0.7719  0.3444
17722SOL    HW154779   7.189   7.087   2.715  1.4246 -0.5768  0.9447
17722SOL    HW254780   7.198   7.157   2.849 -0.6439  1.6562 -0.0005
17723SOL     OW54781   1.830   1.692   5.620  0.3049 -0.2530 -0.0644
17723SOL    HW154782   1.755   1.682   5.562  0.5860  2.4813 -1.0555
17723SOL    HW254783   1.800   1.752   5.689  1.7392  1.7240 -1.0378
17724SOL     OW54784   9.273   0.420   4.685  0.0772 -0.1940  0.2671
17724SOL    HW154785   9.203   0.373   4.640  0.6810 -1.0979  0.2308
17724SOL    HW254786   9.324   0.460   4.614 -1.4833  2.1729  0.3478
17725SOL     OW54787   8.182   6.687   9.006  0.3572  0.4372 -0.1598
17725SOL    HW154788   8.249   6.680   9.074 -0.0340 -1.6526  0.0947
17725SOL    HW254789   8.151   6.777   9.011  2.4124  1.1535  0.4087
17726SOL     OW54790   6.426   0.555   1.766  0.6435 -0.1939 -0.5633
17726SOL    HW154791   6.469   0.595   1.842  2.3371 -0.5684 -1.2603
17726SOL    HW254792   6.484   0.482   1.743 -0.7987 -1.2003 -1.1336
17727SOL     OW54793   8.847   1.686   0.843  0.0874  0.0895  0.0448
17727SOL    HW154794   8.826   1.714   0.754  0.7222 -1.9101 -0.7898
17727SOL    HW254795   8.765   1.648   0.876  0.2858 -0.6598 -0.3113
17728SOL     OW54796   1.084   0.184   2.985 -0.4636 -0.6242  0.2081
17728SOL    HW154797   1.162   0.177   2.930  0.1192  1.9388  0.5655
17728SOL    HW254798   1.106   0.136   3.065  0.7830  0.0804  0.3100
17729SOL     OW54799   3.172   8.207   5.276 -0.3566 -0.8829  0.2342
17729SOL    HW154800   3.136   8.234   5.192 -0.5726 -1.6281  0.0857
17729SOL    HW254801   3.123   8.258   5.340 -0.5885 -0.7346 -0.0598
17730SOL     OW54802   7.564   0.902   1.070  0.1267  0.1630 -0.6452
17730SOL    HW154803   7.503   0.975   1.066  1.1490  1.1839  1.0621
17730SOL    HW254804   7.532   0.848   1.141 -0.7919 -1.2773 -2.0880
17731SOL     OW54805   6.443   1.996   8.339 -0.3756  0.5257  0.2425
17731SOL    HW154806   6.517   1.936   8.337 -1.3900 -0.9407  2.5957
17731SOL    HW254807   6.375   1.954   8.286 -1.3658 -0.9806  2.5140
17732SOL     OW54808   1.503   3.301   2.748 -0.1764  0.1603  0.2667
17732SOL    HW154809   1.535   3.252   2.824  1.3569  3.3352  1.8406
17732SOL    HW254810   1.557   3.269   2.675  1.3199  0.0287  1.3801
17733SOL     OW54811   0.503   3.356   7.338  0.0979  0.3054  0.4941
17733SOL    HW154812   0.513   3.288   7.272  1.8809  0.3881  0.6292
17733SOL    HW254813   0.411   3.381   7.334  0.2119  0.5243 -2.1539
17734SOL     OW54814   1.404   0.765   3.602  0.1992 -0.1842  0.4947
17734SOL    HW154815   1.467   0.695   3.581 -0.6138 -0.8045  0.0470
17734SOL    HW254816   1.441   0.843   3.561  0.9234 -0.4360  0.6552
17735SOL     OW54817   8.540   5.668   5.015  0.1353  0.0137  0.3988
17735SOL    HW154818   8.582   5.597   5.063 -1.6139 -1.2073  0.2255
17735SOL    HW254819   8.466   5.693   5.070 -0.0821  0.7488 -0.2191
17736SOL     OW54820   5.238   4.673   5.929  0.2714  0.0124  0.1224
17736SOL    HW154821   5.217   4.707   5.842  1.2897 -0.8244 -0.4631
17736SOL    HW254822   5.242   4.751   5.985  0.3952  0.6350 -0.7378
17737SOL     OW54823   4.071   2.655   8.089  0.3646 -0.0316  0.1354
17737SOL    HW154824   3.992   2.693   8.051  0.1791  1.9020  2.2332
17737SOL    HW254825   4.143   2.698   8.043  0.2791 -1.9111 -1.8893
17738SOL     OW54826   1.472   1.317   9.065 -0.3358  0.4802 -0.2602
17738SOL    HW154827   1.562   1.313   9.031 -0.1370 -3.5727  0.2869
17738SOL    HW254828   1.478   1.274   9.151 -2.8425 -0.2864 -0.4125
17739SOL     OW54829   6.248   8.369   4.455 -0.1841  0.3196  0.8686
17739SOL    HW154830   6.184   8.429   4.493  0.3367  1.9089 -0.6392
17739SOL    HW254831   6.306   8.347   4.528 -0.3955  1.6803  1.4832
17740SOL     OW54832   1.701   4.736   2.154  0.0155  0.6049  0.2289
17740SOL    HW154833   1.708   4.769   2.064 -2.7926  3.3321  0.8435
17740SOL    HW254834   1.788   4.701   2.173  0.9907  0.7999 -3.1974
17741SOL     OW54835   1.601   4.918   2.398 -0.2085 -0.0305 -0.1819
17741SOL    HW154836   1.622   4.844   2.342 -1.9885 -0.9883  0.3615
17741SOL    HW254837   1.566   4.984   2.339  0.7541  0.1494 -0.5738
17742SOL     OW54838   0.813   5.920   4.216 -0.1543  0.3583  0.2023
17742SOL    HW154839   0.905   5.925   4.191 -0.7318 -0.2761 -2.4467
17742SOL    HW254840   0.797   5.998   4.268  1.6244  1.0985 -0.2915
17743SOL     OW54841   6.352   6.226   7.879 -0.3450  0.2618 -0.5488
17743SOL    HW154842   6.381   6.313   7.907  0.0433 -0.1183  0.2699
17743SOL    HW254843   6.427   6.170   7.896 -0.7669 -0.3245 -0.6110
17744SOL     OW54844   6.239   7.022   6.209  0.7136  0.3056  0.0556
17744SOL    HW154845   6.312   7.077   6.180  1.6558 -1.2428 -0.6886
17744SOL    HW254846   6.169   7.042   6.147  1.4655 -0.2167 -1.0012
17745SOL     OW54847   2.789   0.034   5.941 -0.1959 -0.1621 -0.1779
17745SOL    HW154848   2.733  -0.029   5.986  1.9110 -2.5213 -0.6489
17745SOL    HW254849   2.831  -0.017   5.872  0.9476  2.0000 -1.1575
17746SOL     OW54850   5.775   6.165   5.037  0.2623  0.5885 -0.3428
17746SOL    HW154851   5.768   6.223   5.113  0.3536  0.2123 -0.0444
17746SOL    HW254852   5.790   6.078   5.074  1.2830  0.5465 -0.8200
17747SOL     OW54853   3.344   7.621   6.827  0.1263  0.3924  0.7188
17747SOL    HW154854   3.434   7.640   6.801 -0.2981  0.9697 -0.4255
17747SOL    HW254855   3.324   7.536   6.787  0.0021  0.5073  0.5339
17748SOL     OW54856   1.844   7.251   1.847  1.0856  0.1806 -0.2038
17748SOL    HW154857   1.849   7.300   1.765  1.2109  1.2412  0.4209
17748SOL    HW254858   1.802   7.312   1.909  1.4032 -0.4354  0.6361
17749SOL     OW54859   3.762   0.499   5.087 -0.2315  0.2361 -0.6189
17749SOL    HW154860   3.793   0.509   5.177 -1.4819 -0.2255 -0.1074
17749SOL    HW254861   3.806   0.421   5.054 -1.6407 -1.0997  0.4946
17750SOL     OW54862   9.250   1.018   5.447 -0.8035  0.2475  0.3040
17750SOL    HW154863   9.297   1.071   5.511  1.3650  0.5950 -1.4588
17750SOL    HW254864   9.234   1.077   5.374 -1.0610 -0.7307 -0.4486
17751SOL     OW54865   3.266   7.804   0.986 -0.2941 -0.3714  0.1935
17751SOL    HW154866   3.200   7.864   0.951 -0.9713 -1.1934  0.0539
17751SOL    HW254867   3.349   7.838   0.950 -0.9164 -0.9617 -1.9527
17752SOL     OW54868   4.959   8.628   6.780 -0.0430  0.1530 -0.5440
17752SOL    HW154869   4.894   8.587   6.837  0.5497  0.2489  0.2192
17752SOL    HW254870   4.966   8.569   6.705 -1.2746  0.3347 -0.8174
17753SOL     OW54871   3.375   4.640   3.781 -0.5440 -0.8833 -0.0683
17753SOL    HW154872   3.448   4.597   3.737  0.2532 -0.0336  0.3903
17753SOL    HW254873   3.364   4.589   3.862 -0.4121 -0.9755 -0.1069
17754SOL     OW54874   8.981   6.418   9.395 -0.2274 -0.3608 -0.4837
17754SOL    HW154875   9.033   6.417   9.315  1.0626  1.3480  0.2583
17754SOL    HW254876   9.001   6.502   9.436 -1.8029 -0.6565  1.0298
17755SOL     OW54877   6.243   7.492   3.690 -0.2644  0.1134 -0.1351
17755SOL    HW154878   6.243   7.507   3.785 -0.1263 -0.5031 -0.0339
17755SOL    HW254879   6.151   7.501   3.664 -0.2172  0.9373 -0.0584
17756SOL     OW54880   8.443   6.016   6.454 -0.1102  0.6525  0.3165
17756SOL    HW154881   8.406   6.039   6.369  0.2967 -0.6731 -0.2592
17756SOL    HW254882   8.462   5.922   6.447 -1.9872  0.0003  2.5761
17757SOL     OW54883   4.067   6.091   2.481  0.1804  0.5443 -0.5320
17757SOL    HW154884   4.075   6.120   2.390  0.7574 -1.9340 -1.3685
17757SOL    HW254885   4.147   6.040   2.497 -0.3776  0.1018  1.0117
17758SOL     OW54886   4.968   7.543   5.860 -0.7562  0.7801 -0.0602
17758SOL    HW154887   5.005   7.517   5.775  0.3829  0.8638  0.3918
17758SOL    HW254888   4.881   7.503   5.861 -0.2809 -0.3428 -0.7215
17759SOL     OW54889   1.649   6.385   6.882 -0.1296  0.0805  0.0564
17759SOL    HW154890   1.563   6.356   6.914  0.1063  0.4473  1.0765
17759SOL    HW254891   1.664   6.468   6.927 -0.3939  1.3961 -2.1272
17760SOL     OW54892   4.035   6.997   9.480 -0.0291  0.4260  0.1029
17760SOL    HW154893   3.961   7.036   9.433  0.4860  0.9487 -0.2929
17760SOL    HW254894   3.999   6.975   9.566 -0.0339  3.1979  0.9336
17761SOL     OW54895   8.170   4.283   9.689  0.2960 -0.5411 -0.1150
17761SOL    HW154896   8.147   4.274   9.782 -1.0999 -1.5145 -0.5197
17761SOL    HW254897   8.133   4.367   9.663  1.1246 -0.0328  0.3160
17762SOL     OW54898   0.459   1.137   1.333  0.1316 -0.0020 -0.1279
17762SOL    HW154899   0.397   1.162   1.264  1.4372  0.8542 -1.0456
17762SOL    HW254900   0.492   1.052   1.307  0.7128  0.3739 -0.6499
17763SOL     OW54901   2.990   9.379   1.659 -0.2753  0.6067  0.2263
17763SOL    HW154902   3.028   9.337   1.582 -1.0333  0.2388  0.0410
17763SOL    HW254903   2.945   9.307   1.705  1.0539  0.5969  1.5846
17764SOL     OW54904   8.787   4.163   4.470  0.2708 -0.5159  0.0424
17764SOL    HW154905   8.695   4.138   4.457  0.5125 -1.1538 -0.5480
17764SOL    HW254906   8.788   4.211   4.552 -0.9030  1.1671 -0.8593
17765SOL     OW54907   1.945   6.475   2.647  0.3267 -0.1455  0.2448
17765SOL    HW154908   1.867   6.520   2.616  0.5294  0.6940  0.8994
17765SOL    HW254909   1.941   6.388   2.608 -0.2259  0.3476 -0.8253
17766SOL     OW54910   0.162   5.824   7.073 -0.0649  0.3679 -0.3882
17766SOL    HW154911   0.098   5.795   7.138 -1.1309  0.4516 -1.3704
17766SOL    HW254912   0.245   5.787   7.103 -0.3641  1.0926  1.4572
17767SOL     OW54913   5.602   8.318   3.550  0.1962 -0.4842  0.1610
17767SOL    HW154914   5.537   8.249   3.534  0.8003 -1.3019  1.1265
17767SOL    HW254915   5.550   8.393   3.579 -0.4727 -0.5065 -0.9176
17768SOL     OW54916   6.223   1.591   4.833 -0.9096  0.0497  0.3331
17768SOL    HW154917   6.180   1.664   4.877 -1.5416 -0.5953  0.7984
17768SOL    HW254918   6.193   1.598   4.742  0.0907  1.1480  0.0527
17769SOL     OW54919   4.980   7.467   9.493  0.1357 -0.3725  0.1168
17769SOL    HW154920   4.929   7.545   9.470  0.3156 -0.3725 -0.2957
17769SOL    HW254921   5.068   7.486   9.463  0.7375  0.2015  2.0904
17770SOL     OW54922   0.696   4.478   4.338 -0.4088  0.2745 -0.3466
17770SOL    HW154923   0.662   4.455   4.424 -0.8794 -0.2917 -0.6796
17770SOL    HW254924   0.782   4.517   4.356  1.8012 -4.1793  0.1303
17771SOL     OW54925   6.670   7.008   4.141 -0.3681 -0.3196  0.0565
17771SOL    HW154926   6.630   7.095   4.148 -1.9357 -1.0773  1.1061
17771SOL    HW254927   6.740   7.008   4.206  1.4214  0.9990 -1.7468
17772SOL     OW54928   0.240   5.838   4.659  0.5850 -0.0614 -0.0182
17772SOL    HW154929   0.319   5.843   4.712  1.3934  0.3970 -1.2446
17772SOL    HW254930   0.257   5.893   4.583 -0.4960 -0.8093 -0.8419
17773SOL     OW54931   7.028   7.076   1.638  0.1546 -0.0240  0.3452
17773SOL    HW154932   7.058   7.102   1.551  1.5804 -1.0514  0.4884
17773SOL    HW254933   6.933   7.088   1.636  0.3283  1.3787 -0.8451
17774SOL     OW54934   7.267   3.939   0.640  0.0026  0.5190 -0.1354
17774SOL    HW154935   7.299   3.937   0.550  4.1266 -0.9480  1.0972
17774SOL    HW254936   7.304   3.860   0.680 -1.0771  1.4653  3.0219
17775SOL     OW54937   2.590   5.185   0.288 -0.1486  0.5829 -0.3336
17775SOL    HW154938   2.559   5.226   0.207 -0.0987 -0.8105 -1.0902
17775SOL    HW254939   2.673   5.145   0.264  1.0741  2.1687  1.0437
17776SOL     OW54940   0.204   2.524   3.170 -0.2436  0.6707 -0.3961
17776SOL    HW154941   0.109   2.538   3.170 -0.4046 -0.2591  0.5634
17776SOL    HW254942   0.227   2.522   3.263  0.3650 -1.2525 -0.5507
17777SOL     OW54943   6.177   7.177   9.088 -0.1773 -0.0032 -0.1536
17777SOL    HW154944   6.268   7.184   9.117  0.6492 -1.6760 -2.0516
17777SOL    HW254945   6.179   7.209   8.997 -1.4146 -0.3853 -0.3293
17778SOL     OW54946   5.546   6.992   0.832 -0.0692 -0.3180 -0.7555
17778SOL    HW154947   5.552   6.903   0.798 -0.7067 -1.0490  0.8958
17778SOL    HW254948   5.541   6.981   0.927 -0.1634  1.4877 -0.5054
17779SOL     OW54949   0.005   1.119   9.101  0.0978 -0.3035  0.3802
17779SOL    HW154950  -0.013   1.120   9.007  0.5893  1.6223  0.2752
17779SOL    HW254951   0.090   1.077   9.108  0.8008  0.9729 -0.2096
17780SOL     OW54952   6.970   5.782   0.421  0.3647  0.2410  0.1210
17780SOL    HW154953   6.898   5.731   0.458  0.6202 -0.4189 -0.2891
17780SOL    HW254954   7.023   5.807   0.496  0.6847 -0.7834  0.2477
17781SOL     OW54955   4.120   9.020   2.942 -0.1292 -0.7573 -0.1085
17781SOL    HW154956   4.143   9.018   3.035  0.5092 -1.8506 -0.2715
17781SOL    HW254957   4.175   9.089   2.905  1.4622 -1.9414 -0.0930
17782SOL     OW54958   3.848   8.172   4.030  0.1704  0.2828  0.7474
17782SOL    HW154959   3.915   8.111   4.060  1.8979  1.3082 -0.8234
17782SOL    HW254960   3.822   8.138   3.944  1.7035  2.0745 -0.4900
17783SOL     OW54961   4.595   8.680   1.164  0.0902 -0.2600  0.2536
17783SOL    HW154962   4.642   8.661   1.083 -0.4900 -0.1676 -0.1097
17783SOL    HW254963   4.522   8.618   1.164 -1.2125  1.1927 -0.4153
17784SOL     OW54964   4.111   1.045   4.224  0.3522 -0.7785 -0.1740
17784SOL    HW154965   4.038   1.107   4.222  1.5083  0.6562 -1.8961
17784SOL    HW254966   4.091   0.982   4.154  0.2150 -1.0587  0.1184
17785SOL     OW54967   2.224   5.563   7.851  0.0633 -0.0672  0.2425
17785SOL    HW154968   2.254   5.581   7.940  3.2919 -1.4531 -0.4168
17785SOL    HW254969   2.190   5.646   7.819  0.7933  0.9871  2.0754
17786SOL     OW54970   7.438   3.913   2.252  0.3573 -0.3834  0.1220
17786SOL    HW154971   7.388   3.937   2.329 -0.8889 -2.5750  0.0779
17786SOL    HW254972   7.379   3.858   2.200  1.0169  1.3012 -2.6145
17787SOL     OW54973   6.482   7.759   2.169  0.5070 -0.4994 -0.3560
17787SOL    HW154974   6.576   7.759   2.184  0.5534  0.0965 -0.5985
17787SOL    HW254975   6.472   7.798   2.082  0.0070 -0.0475 -0.1023
17788SOL     OW54976   8.007   8.735   9.031  0.2875 -0.3962  0.4400
17788SOL    HW154977   7.942   8.805   9.033  1.8054  1.1635 -0.7109
17788SOL    HW254978   8.065   8.759   8.959  0.7779 -2.9928 -0.1290
17789SOL     OW54979   0.373   6.433   4.403 -0.1808  0.3324  0.2176
17789SOL    HW154980   0.299   6.459   4.348 -0.2161 -0.0707  0.0721
17789SOL    HW254981   0.364   6.338   4.412  0.0796  0.3384  0.5499
17790SOL     OW54982   6.477   2.157   2.458  0.2111  0.4430 -0.7930
17790SOL    HW154983   6.432   2.135   2.377 -0.4206  0.8630 -0.5654
17790SOL    HW254984   6.515   2.243   2.443  0.0353  0.5515 -0.6221
17791SOL     OW54985   2.208   1.774   7.875 -0.3451 -0.2521 -0.4630
17791SOL    HW154986   2.268   1.725   7.930 -1.0422  0.4655  1.0053
17791SOL    HW254987   2.137   1.713   7.856  0.3150 -0.7704 -1.3132
17792SOL     OW54988   4.117   7.524   2.031 -0.1195 -0.0051  0.3111
17792SOL    HW154989   4.063   7.446   2.048 -0.0555  0.1407  1.2515
17792SOL    HW254990   4.204   7.501   2.064 -0.0574  0.4032  0.4419
17793SOL     OW54991   9.336   6.210   8.985 -0.0004  0.3254  0.1370
17793SOL    HW154992   9.425   6.179   8.969 -0.5401 -0.9137 -0.6912
17793SOL    HW254993   9.344   6.272   9.057  1.2083 -1.6010  1.7855
17794SOL     OW54994   8.873   7.733   0.511  0.1653  0.8973  0.2088
17794SOL    HW154995   8.792   7.683   0.502  1.7635 -1.9200  0.3507
17794SOL    HW254996   8.880   7.782   0.429 -0.9103 -0.0217 -0.4586
17795SOL     OW54997   3.353   0.357   4.932  0.6726 -0.1519  0.6897
17795SOL    HW154998   3.405   0.438   4.935  2.2630 -1.0700 -0.5289
17795SOL    HW254999   3.418   0.287   4.935 -0.6480 -1.3947  1.1548
17796SOL     OW55000   7.871   0.549   3.152  0.4208  0.3146 -0.1757
17796SOL    HW155001   7.805   0.559   3.220  0.7201 -0.4373  0.2378
17796SOL    HW255002   7.917   0.633   3.150 -0.1947  0.6589 -0.1023
17797SOL     OW55003   1.436   9.155   7.083  0.3433 -0.2649  0.2773
17797SOL    HW155004   1.445   9.184   6.992  0.8904 -1.4119 -0.0640
17797SOL    HW255005   1.342   9.145   7.096  0.1039  1.7731  0.4848
17798SOL     OW55006   3.614   6.405   1.983 -0.1078  0.2450 -0.2397
17798SOL    HW155007   3.587   6.443   2.067  0.3668 -2.7522  1.3965
17798SOL    HW255008   3.571   6.320   1.980  0.1219  0.1157 -2.9758
17799SOL     OW55009   4.183   9.493   5.327  0.1795 -0.1916 -0.0378
17799SOL    HW155010   4.248   9.562   5.335 -0.1294  0.3053 -1.5645
17799SOL    HW255011   4.182   9.471   5.233 -1.0900 -0.9268  0.1216
17800SOL     OW55012   7.936   2.336   8.610  0.0911  0.2957 -0.4381
17800SOL    HW155013   7.886   2.261   8.577 -1.5770  0.9584  0.5210
17800SOL    HW255014   7.985   2.301   8.685 -0.2092  0.0350 -0.3635
17801SOL     OW55015   7.479   2.549   0.756 -0.3716  0.0351  0.1283
17801SOL    HW155016   7.427   2.478   0.717  0.0618  0.5436 -1.4749
17801SOL    HW255017   7.557   2.554   0.700 -0.1810  1.4630  0.4857
17802SOL     OW55018   4.528   2.610   8.303 -0.4635 -0.6020 -0.2728
17802SOL    HW155019   4.530   2.618   8.398 -0.6676  0.1341 -0.3186
17802SOL    HW255020   4.600   2.666   8.274 -0.9956 -0.0640 -0.5822
17803SOL     OW55021   0.058   4.160   5.255 -0.0615  0.5216 -0.1520
17803SOL    HW155022  -0.034   4.150   5.235 -0.2256 -0.5075  0.9885
17803SOL    HW255023   0.098   4.187   5.173 -1.6546  2.9694 -0.2185
17804SOL     OW55024   1.276   0.408   7.996  0.2705  0.3402 -0.3425
17804SOL    HW155025   1.264   0.314   7.987  2.9312 -0.3836  1.9704
17804SOL    HW255026   1.202   0.437   8.049  0.5628 -0.9535  0.8442
17805SOL     OW55027   4.899   8.606   2.273  0.0572 -0.4280 -0.2424
17805SOL    HW155028   4.953   8.553   2.215  0.0190  0.3193 -0.9932
17805SOL    HW255029   4.953   8.683   2.292  0.1105 -0.7114  0.8176
17806SOL     OW55030   8.667   2.576   4.343 -0.2374 -0.4911 -0.0731
17806SOL    HW155031   8.677   2.662   4.384 -3.5827 -1.0894  2.5006
17806SOL    HW255032   8.742   2.525   4.375 -0.8353  0.1322  2.5883
17807SOL     OW55033   7.618   2.302   7.093  0.1391 -0.2087  0.0616
17807SOL    HW155034   7.640   2.292   7.000 -0.1611  0.5805 -0.1020
17807SOL    HW255035   7.532   2.261   7.102 -0.0823  0.2034 -0.1335
17808SOL     OW55036   5.671   6.222   1.099 -0.6550  0.1349  0.2351
17808SOL    HW155037   5.602   6.266   1.051 -0.9845  0.6216  1.1335
17808SOL    HW255038   5.703   6.154   1.039 -1.0518  0.7177 -0.6530
17809SOL     OW55039   6.210   0.888   5.162 -0.1582 -0.0397  0.2190
17809SOL    HW155040   6.171   0.960   5.210 -2.0139 -1.3542  0.7767
17809SOL    HW255041   6.185   0.903   5.071 -0.1072  0.2802  0.2563
17810SOL     OW55042   0.746   2.643   8.605  0.2783 -0.2202 -0.4063
17810SOL    HW155043   0.737   2.664   8.698  1.2265 -2.8036  0.3632
17810SOL    HW255044   0.682   2.574   8.591 -0.2621  0.5431 -1.8626
17811SOL     OW55045   9.595   8.791   8.753  0.3107  0.1627 -0.8778
17811SOL    HW155046   9.607   8.721   8.688  0.3245 -1.1809  0.4970
17811SOL    HW255047   9.684   8.821   8.771  0.7329 -1.8430  0.9239
17812SOL     OW55048   1.344   2.240   9.585 -0.1735 -0.2558 -0.5639
17812SOL    HW155049   1.429   2.263   9.622 -0.9673  2.0097  0.0034
17812SOL    HW255050   1.364   2.180   9.514  2.0172  1.1820 -1.2447
17813SOL     OW55051   0.715   9.657   2.034 -0.0371 -0.0053 -0.1041
17813SOL    HW155052   0.636   9.686   2.079 -0.5761 -1.2607 -0.1769
17813SOL    HW255053   0.787   9.697   2.083 -0.7114  3.3836 -1.6393
17814SOL     OW55054   6.146   3.758   5.604  0.5030  0.1010 -0.1908
17814SOL    HW155055   6.240   3.760   5.586  0.6567 -3.2357 -0.3057
17814SOL    HW255056   6.135   3.691   5.671 -1.9133 -0.7164 -1.2843
17815SOL     OW55057   3.737   8.664   4.803  0.8430  0.6763  0.2120
17815SOL    HW155058   3.682   8.700   4.733  2.0257  1.6313 -0.2461
17815SOL    HW255059   3.826   8.683   4.776  1.3543  0.4690  1.6809
17816SOL     OW55060   5.369   4.224   9.106 -0.0886 -0.8957 -0.3759
17816SOL    HW155061   5.355   4.173   9.185  2.4625  1.1837  1.6433
17816SOL    HW255062   5.287   4.272   9.092 -0.4505 -1.0000  1.2743
17817SOL     OW55063   1.117   4.988   4.366  0.1586  0.1320  0.0040
17817SOL    HW155064   1.038   5.032   4.398 -0.5456  0.5233 -2.0828
17817SOL    HW255065   1.189   5.033   4.409 -0.7203 -0.2046  1.9389
17818SOL     OW55066   1.856   0.780   0.354  0.2690 -0.1866 -0.6166
17818SOL    HW155067   1.817   0.698   0.382 -1.1293 -0.0859 -2.1172
17818SOL    HW255068   1.886   0.764   0.265 -0.1084  0.9250 -0.9682
17819SOL     OW55069   3.790   1.369   1.887  0.7542  0.4200  0.2665
17819SOL    HW155070   3.728   1.307   1.926  0.5896  1.0363  1.0176
17819SOL    HW255071   3.871   1.355   1.937  0.5282  1.2505  0.8895
17820SOL     OW55072   6.128   5.713   0.200  0.1208 -0.2322 -0.1642
17820SOL    HW155073   6.040   5.691   0.168 -1.4094  1.5506  2.3795
17820SOL    HW255074   6.130   5.808   0.200  0.7366 -0.1294  2.7941
17821SOL     OW55075   4.456   8.414   0.640  0.3013  0.1591  0.4084
17821SOL    HW155076   4.440   8.423   0.734  1.0209 -0.7837  0.6436
17821SOL    HW255077   4.406   8.337   0.614 -1.2356  1.3590 -0.3553
17822SOL     OW55078   1.272   0.287   1.618 -0.0413 -0.0497  0.1118
17822SOL    HW155079   1.358   0.264   1.583  0.6306 -1.2733  2.3620
17822SOL    HW255080   1.290   0.354   1.684 -0.7682 -0.3780  0.6575
17823SOL     OW55081   3.888   2.900   6.062 -0.4358  0.0689 -0.0759
17823SOL    HW155082   3.839   2.828   6.103 -1.5014  1.1337  0.5923
17823SOL    HW255083   3.952   2.926   6.129 -0.4656  0.1551 -0.0815
17824SOL     OW55084   6.744   2.053   2.987  0.4198  0.0377  0.2826
17824SOL    HW155085   6.734   2.074   2.894  2.5224 -2.3885 -0.6328
17824SOL    HW255086   6.801   2.122   3.021  1.2053 -0.0617 -0.7608
17825SOL     OW55087   7.938   1.890   3.860 -0.6630 -0.2881 -0.1091
17825SOL    HW155088   7.966   1.958   3.922 -0.2631  0.5441 -1.1790
17825SOL    HW255089   7.928   1.811   3.914 -0.6263  0.4881  1.0645
17826SOL     OW55090   4.003   8.839   6.057  0.6757 -0.0442 -0.0198
17826SOL    HW155091   4.061   8.768   6.029 -0.6188 -0.4020 -1.9694
17826SOL    HW255092   3.986   8.821   6.149  0.9232 -1.8925 -0.2938
17827SOL     OW55093   2.878   3.628   2.858 -0.5254  0.1245  0.1606
17827SOL    HW155094   2.888   3.587   2.944  0.9179  0.9078  0.3936
17827SOL    HW255095   2.825   3.706   2.875  0.1415  0.5242  0.4258
17828SOL     OW55096   4.621   8.195   3.176 -0.0255 -0.3459 -0.5527
17828SOL    HW155097   4.625   8.100   3.164  0.7515 -0.3241 -0.5446
17828SOL    HW255098   4.537   8.211   3.218 -0.3094 -0.9971 -0.8586
17829SOL     OW55099   7.532   1.493   3.847  0.4138  0.4283  0.3508
17829SOL    HW155100   7.489   1.578   3.851 -0.0674  0.1467  1.9100
17829SOL    HW255101   7.463   1.433   3.817  0.9786  0.6816 -1.6035
17830SOL     OW55102   0.888   2.259   7.978 -0.4308  0.2767  0.1036
17830SOL    HW155103   0.946   2.327   8.013 -0.0744 -0.2640  0.5799
17830SOL    HW255104   0.947   2.191   7.946 -0.7547 -1.0316  2.0747
17831SOL     OW55105   0.538   9.127   0.615 -0.2400  0.0828  0.6347
17831SOL    HW155106   0.613   9.086   0.660  0.0365 -1.5244 -1.1664
17831SOL    HW255107   0.478   9.055   0.598 -0.4710  0.6603 -1.2442
17832SOL     OW55108   9.687   4.911   9.242  0.9917  0.4871  0.2160
17832SOL    HW155109   9.680   4.956   9.326 -1.8959 -0.0128  0.3430
17832SOL    HW255110   9.605   4.930   9.197  1.5863 -0.9554 -1.6244
17833SOL     OW55111   9.229   3.480   6.198 -0.1783 -0.2376  0.1229
17833SOL    HW155112   9.280   3.502   6.119  0.2965  0.1349  0.5276
17833SOL    HW255113   9.142   3.514   6.181 -0.3886 -1.1294 -0.7024
17834SOL     OW55114   7.034   1.831   9.759  0.1750 -0.2929 -0.4135
17834SOL    HW155115   7.048   1.918   9.721  2.0148 -0.4354 -0.1784
17834SOL    HW255116   7.109   1.819   9.818 -1.0214 -1.2925  0.9691
17835SOL     OW55117   1.163   2.638   3.894  0.2620  0.7713 -0.3025
17835SOL    HW155118   1.107   2.587   3.835 -1.3722  1.4500  0.6043
17835SOL    HW255119   1.245   2.647   3.846 -1.0489  1.4407 -2.5966
17836SOL     OW55120   8.524   4.401   3.264  0.3310  0.3568 -0.3576
17836SOL    HW155121   8.536   4.488   3.303  0.3432  1.1526 -2.0611
17836SOL    HW255122   8.600   4.351   3.293  0.4161  0.9610  0.5007
17837SOL     OW55123   5.399   0.301   9.598 -0.5547  0.1556  0.0697
17837SOL    HW155124   5.457   0.232   9.564 -0.8788  0.7215 -1.7147
17837SOL    HW255125   5.456   0.376   9.611 -0.4540 -0.0234  0.7409
17838SOL     OW55126   0.278   4.995   8.720 -0.4358 -0.6037  0.4773
17838SOL    HW155127   0.275   5.063   8.788  0.8387 -0.7893  0.7466
17838SOL    HW255128   0.187   4.979   8.698 -0.7880  0.7714  0.8362
17839SOL     OW55129   3.399   5.925   8.912 -0.4597  0.3801 -0.3026
17839SOL    HW155130   3.439   5.839   8.903 -0.7527  0.3006 -0.8519
17839SOL    HW255131   3.347   5.918   8.993  0.2668  0.3479  0.1722
17840SOL     OW55132   8.437   2.176   5.021  0.1373  0.5897  0.5761
17840SOL    HW155133   8.492   2.254   5.014  1.3322 -0.3607 -1.3019
17840SOL    HW255134   8.367   2.191   4.957  0.7625 -0.1342 -0.3092
17841SOL     OW55135   0.414   2.716   3.551  0.0420 -0.7835  0.1315
17841SOL    HW155136   0.354   2.747   3.618  0.3425  0.9555 -0.3597
17841SOL    HW255137   0.443   2.795   3.505  2.7929 -1.5157  0.4049
17842SOL     OW55138   0.293   1.542   3.355  0.3161  0.5072  0.0827
17842SOL    HW155139   0.280   1.515   3.264  0.1589  1.2055 -0.1023
17842SOL    HW255140   0.208   1.526   3.397  0.8477 -1.4640  0.5549
17843SOL     OW55141   4.974   2.148   2.467 -0.2093 -0.1371 -0.1590
17843SOL    HW155142   4.995   2.210   2.537  0.6712 -0.6920  0.0920
17843SOL    HW255143   4.975   2.063   2.510  0.8300 -0.5362 -0.9362
17844SOL     OW55144   9.605   9.584   7.886  0.4916 -0.0045 -0.1044
17844SOL    HW155145   9.684   9.562   7.936  1.1833  3.4611  0.6007
17844SOL    HW255146   9.638   9.614   7.802 -0.2259 -0.2684 -0.4843
17845SOL     OW55147   0.922   7.268   0.702  0.3140  0.4048  0.4932
17845SOL    HW155148   0.859   7.329   0.663  0.3462  0.9932  1.3182
17845SOL    HW255149   0.875   7.186   0.710  0.2433  0.3298 -0.5710
17846SOL     OW55150   2.954   4.707   5.435 -0.5684  0.1533  0.3316
17846SOL    HW155151   3.023   4.760   5.475 -0.2420 -1.2392  1.6943
17846SOL    HW255152   2.899   4.770   5.389  0.5873  1.5001  0.7237
17847SOL     OW55153   6.558   3.415   6.014 -0.2836  0.1205  0.5902
17847SOL    HW155154   6.475   3.374   6.041 -0.2350  0.3342  1.0769
17847SOL    HW255155   6.539   3.508   6.016 -0.8049  0.1210 -1.8430
17848SOL     OW55156   2.189   8.610   6.129 -0.2825 -0.3563  0.3220
17848SOL    HW155157   2.263   8.670   6.140 -0.2632 -0.4178  0.5202
17848SOL    HW255158   2.164   8.621   6.037  1.3461 -1.8714 -0.3792
17849SOL     OW55159   6.551   9.393   8.100  0.0588  0.5027 -0.3555
17849SOL    HW155160   6.554   9.309   8.146  1.2658  0.8024  0.1671
17849SOL    HW255161   6.637   9.432   8.118 -0.1003  1.3925 -1.4410
17850SOL     OW55162   0.562   9.187   1.697  0.4737 -0.2908  0.3220
17850SOL    HW155163   0.580   9.129   1.623 -0.4235  0.5040 -0.5609
17850SOL    HW255164   0.587   9.137   1.774  1.7683 -1.0190 -0.5390
17851SOL     OW55165   5.702   5.923   2.351  0.1008  0.1466 -0.4770
17851SOL    HW155166   5.713   6.018   2.358  0.7645  0.0703 -0.3444
17851SOL    HW255167   5.627   5.903   2.407  0.9701  0.4044  0.8172
17852SOL     OW55168   4.898   9.825   2.256  0.1627  0.2165  0.2159
17852SOL    HW155169   4.916   9.737   2.288  0.0873  0.0377 -0.2322
17852SOL    HW255170   4.957   9.881   2.307  0.9963 -0.2107 -0.2635
17853SOL     OW55171   3.208   1.780   0.132  0.1267 -0.0886  0.6064
17853SOL    HW155172   3.294   1.802   0.097  0.4210 -1.3016  0.5354
17853SOL    HW255173   3.208   1.685   0.138 -0.7850 -0.0364  1.7055
17854SOL     OW55174   5.468   9.456   9.821  0.2125  0.1727 -0.5006
17854SOL    HW155175   5.384   9.414   9.802 -0.3202  0.8223  0.3336
17854SOL    HW255176   5.526   9.383   9.841 -0.6389 -0.2277  0.6891
17855SOL     OW55177   8.496   6.131   2.818 -0.4063 -0.3748  0.1516
17855SOL    HW155178   8.419   6.104   2.868  0.7322 -2.4253  0.9389
17855SOL    HW255179   8.565   6.139   2.884  0.5742 -0.8567 -0.7889
17856SOL     OW55180   0.626   7.540   2.902  0.2809 -0.5501  0.0745
17856SOL    HW155181   0.598   7.622   2.941  0.1872 -1.0540  1.1006
17856SOL    HW255182   0.545   7.496   2.876  0.3731  0.2651 -1.7809
17857SOL     OW55183   9.540   1.038   5.684  0.0369  0.0786 -0.0660
17857SOL    HW155184   9.581   1.088   5.755  1.6352 -0.0933 -0.8199
17857SOL    HW255185   9.575   0.950   5.693  0.7108  0.1897 -1.3879
17858SOL     OW55186   6.362   7.126   2.549 -0.1994  0.1360 -0.1756
17858SOL    HW155187   6.381   7.220   2.544 -0.7528  0.2790  0.3077
17858SOL    HW255188   6.266   7.122   2.557 -0.2450 -0.5000 -0.9112
17859SOL     OW55189   3.113   2.466   2.603 -0.0895 -0.4902 -0.1147
17859SOL    HW155190   3.156   2.546   2.632  0.7905 -1.0891  0.2686
17859SOL    HW255191   3.023   2.474   2.635  0.1494  0.0793  0.4273
17860SOL     OW55192   1.835   4.696   5.128 -0.3534 -0.4766 -0.3484
17860SOL    HW155193   1.854   4.602   5.130  1.0905 -0.2610 -1.6111
17860SOL    HW255194   1.809   4.713   5.038  1.3291  0.6361 -0.6635
17861SOL     OW55195   2.983   4.356   1.840 -0.3878  1.0427 -0.3507
17861SOL    HW155196   2.935   4.273   1.832  2.0250 -0.4572 -0.4023
17861SOL    HW255197   3.050   4.352   1.771  1.2369  1.9385  1.0865
17862SOL     OW55198   6.098   5.131   3.036  0.1253 -0.0248 -0.5616
17862SOL    HW155199   6.070   5.040   3.027  0.7417 -0.2129 -0.6554
17862SOL    HW255200   6.076   5.171   2.952 -0.4811  0.0115 -0.3907
17863SOL     OW55201   5.107   0.969   4.807 -0.9453  0.2404 -0.2163
17863SOL    HW155202   5.151   0.950   4.724  1.7365  1.4889  0.7733
17863SOL    HW255203   5.178   0.965   4.872 -2.3518  2.2576  1.5748
17864SOL     OW55204   9.685   4.222   6.523 -0.5911  0.7728  0.2681
17864SOL    HW155205   9.766   4.174   6.506  1.7494  3.9941  1.3574
17864SOL    HW255206   9.669   4.272   6.444 -2.7010 -1.1639 -0.6465
17865SOL     OW55207   9.756   5.420   4.235  0.6867 -0.0116  0.1021
17865SOL    HW155208   9.822   5.356   4.261 -0.9748 -1.4409  1.0850
17865SOL    HW255209   9.672   5.375   4.250 -0.5253  1.8371 -0.7329
17866SOL     OW55210   0.471   0.803   2.014 -0.5345  0.7091 -0.8355
17866SOL    HW155211   0.554   0.775   1.975 -0.4288  0.8995 -0.7457
17866SOL    HW255212   0.493   0.880   2.066 -0.3596 -0.4997  0.9883
17867SOL     OW55213   8.480   4.786   7.034 -0.3167 -0.0174  0.0413
17867SOL    HW155214   8.544   4.827   7.091 -0.0889  0.0566 -0.2643
17867SOL    HW255215   8.406   4.767   7.091 -0.6682  1.3498  0.0707
17868SOL     OW55216   7.978   8.767   1.480 -0.0612 -0.3186  0.4048
17868SOL    HW155217   8.062   8.788   1.440  0.8251 -1.2838  1.6729
17868SOL    HW255218   7.924   8.735   1.408  1.5923 -2.3565 -0.0192
17869SOL     OW55219   0.948   6.108   8.637 -0.5310  0.7852  0.6745
17869SOL    HW155220   0.892   6.053   8.582  1.2152  0.6409 -1.0774
17869SOL    HW255221   0.909   6.196   8.630 -1.0380  0.5288  0.1696
17870SOL     OW55222   3.217   8.668   9.366  0.7503 -0.1543  0.8805
17870SOL    HW155223   3.158   8.635   9.434  1.2551 -2.6745  0.1924
17870SOL    HW255224   3.304   8.640   9.393  1.0635 -0.4605 -0.3741
17871SOL     OW55225   8.880   5.955   1.272  0.0556 -0.2464  0.0997
17871SOL    HW155226   8.789   5.974   1.250  0.0550 -0.8280 -0.4105
17871SOL    HW255227   8.931   6.008   1.211  0.0551 -1.8830 -1.3945
17872SOL     OW55228   9.302   1.103   6.866  0.6042 -0.8228 -0.2048
17872SOL    HW155229   9.212   1.118   6.837 -0.2495 -0.6392  2.2877
17872SOL    HW255230   9.340   1.045   6.799 -1.7595 -1.9505 -0.6694
17873SOL     OW55231   2.170   4.851   1.899 -0.4245  0.4836  0.0322
17873SOL    HW155232   2.241   4.889   1.847 -0.6045 -0.1239 -0.6727
17873SOL    HW255233   2.201   4.856   1.990 -0.3926  2.1827 -0.0455
17874SOL     OW55234   6.123   6.943   4.852  0.1974 -0.0514 -0.3678
17874SOL    HW155235   6.162   7.015   4.802  0.2705  0.2420  0.1061
17874SOL    HW255236   6.193   6.915   4.911  1.0121 -2.1078 -2.1549
17875SOL     OW55237   3.539   7.389   6.907  0.0921  0.0749  0.4442
17875SOL    HW155238   3.444   7.379   6.896  0.0497  0.0143  0.8431
17875SOL    HW255239   3.567   7.441   6.832 -0.1893 -0.2788  0.0892
17876SOL     OW55240   9.336   0.422   9.112 -0.3763 -0.5207 -0.0408
17876SOL    HW155241   9.356   0.516   9.110 -0.2366 -0.5593 -0.6273
17876SOL    HW255242   9.392   0.384   9.044  0.2583 -1.1727  0.8220
17877SOL     OW55243   1.667   8.353   8.652 -0.0098 -0.0567  0.2995
17877SOL    HW155244   1.601   8.406   8.696 -0.4865 -0.1210 -0.3289
17877SOL    HW255245   1.737   8.415   8.630 -0.1646  0.1427  0.3675
17878SOL     OW55246   3.310   3.341   3.412 -0.5363 -0.3332  0.3395
17878SOL    HW155247   3.334   3.294   3.492 -1.7232  1.0493  1.5660
17878SOL    HW255248   3.355   3.425   3.418 -0.5822 -0.2413 -0.4799
17879SOL     OW55249   9.797   2.483   4.112  0.2142 -0.0847 -0.1412
17879SOL    HW155250   9.705   2.461   4.130  0.3891 -1.1023 -0.4030
17879SOL    HW255251   9.833   2.402   4.075  1.0790  0.4777 -0.5400
17880SOL     OW55252   3.860   5.647   9.441 -0.6142 -0.5437 -0.3672
17880SOL    HW155253   3.768   5.641   9.418 -0.6823 -2.3713  0.2483
17880SOL    HW255254   3.861   5.692   9.525 -0.8087  0.7042 -1.0045
17881SOL     OW55255   5.794   1.650   0.996  0.1045  0.1069 -0.0747
17881SOL    HW155256   5.799   1.744   0.976 -0.6769  0.2154  0.2366
17881SOL    HW255257   5.809   1.646   1.091  3.0600 -0.3440 -0.4524
17882SOL     OW55258   9.781   7.121   9.493 -0.0701  0.5081 -0.5636
17882SOL    HW155259   9.772   7.064   9.417  1.0855  0.2516 -0.5297
17882SOL    HW255260   9.749   7.069   9.566  2.9598 -1.0201 -0.1662
17883SOL     OW55261   5.783   0.226   0.940 -0.0244 -0.3891 -0.2335
17883SOL    HW155262   5.749   0.180   1.016  1.9776  0.4714  1.2524
17883SOL    HW255263   5.827   0.158   0.888 -2.9569 -1.3337 -1.7009
17884SOL     OW55264   2.609   9.778   1.283  0.0727 -0.3271  0.4614
17884SOL    HW155265   2.540   9.728   1.240 -1.3305  1.6720  0.2887
17884SOL    HW255266   2.684   9.769   1.223 -0.6527 -0.8261 -0.4073
17885SOL     OW55267   2.073   8.860   9.710 -0.2063 -0.0492 -0.3576
17885SOL    HW155268   2.133   8.849   9.783 -0.2652 -1.5811 -0.5108
17885SOL    HW255269   2.119   8.917   9.648 -0.1602  1.2728  0.8372
17886SOL     OW55270   8.398   0.975   9.123 -0.0117 -0.8818  0.3094
17886SOL    HW155271   8.431   0.964   9.034  1.9737 -1.0262  1.0200
17886SOL    HW255272   8.472   0.952   9.180 -0.6711  0.8611  1.9923
17887SOL     OW55273   4.381   3.846   3.951  0.2737  0.3369  0.1331
17887SOL    HW155274   4.305   3.849   3.892  0.2665 -2.2606 -0.1311
17887SOL    HW255275   4.455   3.867   3.895 -0.0419  0.8238 -0.1084
17888SOL     OW55276   6.351   6.426   9.213 -0.7005  0.5515 -0.0555
17888SOL    HW155277   6.279   6.407   9.274  1.5788 -1.9515  2.0924
17888SOL    HW255278   6.417   6.470   9.267 -0.5110  2.8506 -1.9909
17889SOL     OW55279   6.687   8.903   9.184  0.1358  0.2948  0.0618
17889SOL    HW155280   6.639   8.970   9.136 -2.2414 -2.4989 -1.7611
17889SOL    HW255281   6.772   8.898   9.140  0.1948  1.7074 -0.0376
17890SOL     OW55282   3.547   1.439   0.809 -0.6986  0.7010  0.1230
17890SOL    HW155283   3.623   1.475   0.855  0.0613 -2.1136  1.2714
17890SOL    HW255284   3.515   1.511   0.755  1.7161  2.4970  0.9320
17891SOL     OW55285   4.911   8.085   2.484 -0.2601 -0.1454 -0.1136
17891SOL    HW155286   4.902   8.048   2.396 -0.1993  0.4893 -0.3953
17891SOL    HW255287   4.938   8.176   2.469 -1.5216  0.3656  0.5156
17892SOL     OW55288   9.437   6.030   2.931  0.6027 -0.3546 -0.2745
17892SOL    HW155289   9.462   6.097   2.994  0.9960 -0.0652 -0.7307
17892SOL    HW255290   9.503   6.036   2.862  0.6413 -1.2020 -0.3265
17893SOL     OW55291   6.233   2.166   8.205  0.4775  0.0086 -0.1921
17893SOL    HW155292   6.309   2.143   8.152  0.4505  0.7073 -0.5334
17893SOL    HW255293   6.186   2.231   8.154  0.8981  1.3275  1.0407
17894SOL     OW55294   9.047   7.551   7.277 -0.4714 -0.3353  0.5317
17894SOL    HW155295   9.006   7.544   7.191 -2.2922  0.3206  1.2903
17894SOL    HW255296   8.975   7.540   7.339  0.7458 -0.5104  1.9772
17895SOL     OW55297   6.101   2.711   4.243 -0.0923 -0.0347 -0.1199
17895SOL    HW155298   6.128   2.670   4.325  0.2231  0.4038 -0.0049
17895SOL    HW255299   6.181   2.717   4.192  0.2758  2.1896  0.6089
17896SOL     OW55300   2.667   3.340   0.880 -0.0946  0.1971  0.0976
17896SOL    HW155301   2.727   3.300   0.943 -0.7676  0.1553  0.7321
17896SOL    HW255302   2.594   3.372   0.934 -0.8859 -0.2112 -0.7026
17897SOL     OW55303   8.999   6.474   3.425  0.1051  0.2155 -0.0218
17897SOL    HW155304   8.992   6.397   3.369  0.2067  1.3343 -1.6389
17897SOL    HW255305   9.042   6.443   3.505  2.2497 -0.9516 -1.5410
17898SOL     OW55306   1.373   1.427   6.326  0.4332 -0.4793  0.2830
17898SOL    HW155307   1.330   1.380   6.397 -0.6347 -1.0288 -0.7028
17898SOL    HW255308   1.398   1.359   6.264  0.1251  0.1134 -0.5049
17899SOL     OW55309   3.863   7.633   5.608 -0.2214  0.6037  0.4789
17899SOL    HW155310   3.866   7.560   5.546  0.0029  0.6346  0.4521
17899SOL    HW255311   3.841   7.593   5.692 -1.1466  0.6382  0.2648
17900SOL     OW55312   0.884   7.385   3.847 -0.4251  0.6436  0.0809
17900SOL    HW155313   0.814   7.322   3.831  0.3175  0.1345 -1.3023
17900SOL    HW255314   0.865   7.457   3.787  1.3344 -0.4158 -1.8506
17901SOL     OW55315   4.451   7.325   5.967 -0.3831 -0.1332 -0.1118
17901SOL    HW155316   4.416   7.239   5.945  1.0548 -1.0697  1.0413
17901SOL    HW255317   4.376   7.373   6.001 -1.4416 -0.5201 -1.7805
17902SOL     OW55318   8.142   5.128   3.617  0.3273 -0.0302  0.0402
17902SOL    HW155319   8.073   5.079   3.571  0.1533 -1.0524  1.3274
17902SOL    HW255320   8.104   5.147   3.703  2.1069 -1.8142  1.2928
17903SOL     OW55321   1.353   0.332   4.117 -0.3290  0.6086 -0.1474
17903SOL    HW155322   1.317   0.333   4.029 -1.4954  2.2160  0.3119
17903SOL    HW255323   1.355   0.423   4.144  0.6443  0.2166  1.2575
17904SOL     OW55324   6.850   5.160   6.866  0.2757  0.1863  0.0758
17904SOL    HW155325   6.938   5.198   6.868  0.9208 -1.1379 -1.0276
17904SOL    HW255326   6.854   5.087   6.928 -0.5745  1.0985  1.2536
17905SOL     OW55327   7.697   8.117   0.920 -0.1136 -0.6428 -0.8205
17905SOL    HW155328   7.628   8.170   0.881  1.2844 -0.0242 -2.5832
17905SOL    HW255329   7.687   8.031   0.881  0.1254 -0.5444 -1.1017
17906SOL     OW55330   2.524   3.824   8.689  0.3016  0.0887 -0.0458
17906SOL    HW155331   2.530   3.751   8.751 -0.5475  0.8701  0.9780
17906SOL    HW255332   2.555   3.787   8.606  1.6679 -0.9179  0.8757
17907SOL     OW55333   3.892   8.229   5.261  0.3824 -0.0034  0.3388
17907SOL    HW155334   3.926   8.182   5.185 -1.4198 -0.5708 -0.1613
17907SOL    HW255335   3.950   8.204   5.333 -0.0841 -2.4422 -0.0681
17908SOL     OW55336   6.036   2.498   7.743 -0.6437 -0.3539 -0.0867
17908SOL    HW155337   6.028   2.441   7.667 -0.4552 -0.3087 -0.1419
17908SOL    HW255338   6.121   2.474   7.781 -0.4489  0.0648 -0.2541
17909SOL     OW55339   9.595   8.159   5.025 -0.9506  0.1918 -0.6038
17909SOL    HW155340   9.643   8.236   5.053 -0.6219 -0.1214 -0.3054
17909SOL    HW255341   9.513   8.162   5.075 -0.2292 -0.5435  0.6644
17910SOL     OW55342   3.022   2.717   6.233  0.3451 -0.1370 -0.1588
17910SOL    HW155343   3.075   2.778   6.182 -0.4206 -1.0372 -2.1493
17910SOL    HW255344   3.064   2.714   6.319  1.2801  1.9970 -0.4786
17911SOL     OW55345   2.402   4.217   1.635  0.2091 -0.6020 -0.4199
17911SOL    HW155346   2.396   4.181   1.546  0.3833 -1.6442 -0.0269
17911SOL    HW255347   2.349   4.296   1.632 -1.2225 -1.5406 -1.0059
17912SOL     OW55348   3.361   4.709   8.166 -0.2186 -0.0190  0.2783
17912SOL    HW155349   3.389   4.795   8.133  2.2101 -0.5687  0.7244
17912SOL    HW255350   3.386   4.710   8.259 -1.8447 -0.5756  0.7608
17913SOL     OW55351   0.722   5.412   2.541  0.2962 -0.0874 -0.2303
17913SOL    HW155352   0.715   5.351   2.468  0.2178 -0.0596 -0.2463
17913SOL    HW255353   0.747   5.358   2.616  0.0635 -0.1655 -0.2078
17914SOL     OW55354   0.226   6.985   4.112  0.0112 -0.2528 -0.1656
17914SOL    HW155355   0.209   7.034   4.193  1.6578 -1.5391  1.0090
17914SOL    HW255356   0.258   7.051   4.051  0.8426  0.3926  0.9337
17915SOL     OW55357   9.369   3.491   8.428  0.0704  0.5429  0.0328
17915SOL    HW155358   9.409   3.418   8.476 -0.6224  0.5120  0.5848
17915SOL    HW255359   9.437   3.519   8.367 -0.0919 -1.4366 -1.1468
17916SOL     OW55360   5.596   3.988   1.313 -0.6940  0.3589 -0.3617
17916SOL    HW155361   5.627   4.026   1.232  0.5979  0.0373 -0.0306
17916SOL    HW255362   5.662   3.923   1.337 -1.2142  0.2129  0.7679
17917SOL     OW55363   2.597   0.002   8.865 -0.3315  0.4749 -0.0819
17917SOL    HW155364   2.612   0.025   8.774 -0.1137 -0.7641 -0.3808
17917SOL    HW255365   2.526   0.060   8.894  0.2410  1.5298 -0.7457
17918SOL     OW55366   1.872   7.370   1.590  0.2582  0.6337  0.0565
17918SOL    HW155367   1.803   7.431   1.615  0.2319  0.3855  0.6067
17918SOL    HW255368   1.918   7.414   1.518 -0.3132  0.9077 -0.1513
17919SOL     OW55369   7.329   4.091   8.684  0.1591  0.0815  0.4866
17919SOL    HW155370   7.368   4.004   8.677 -0.4229 -0.0567 -1.8770
17919SOL    HW255371   7.391   4.148   8.637 -1.3591  0.2082 -1.4797
17920SOL     OW55372   3.977   8.284   3.055  0.0731 -1.0825  0.2693
17920SOL    HW155373   3.896   8.330   3.078 -0.0501 -0.1120 -1.8685
17920SOL    HW255374   4.046   8.348   3.070  0.3819 -1.6376  1.2978
17921SOL     OW55375   8.085   0.627   7.821 -0.3034 -0.2757 -0.4222
17921SOL    HW155376   8.118   0.561   7.882  0.5592  0.8101  0.3272
17921SOL    HW255377   7.992   0.633   7.839 -0.1529 -0.3700  0.4063
17922SOL     OW55378   4.248   6.613   3.262 -0.0610  0.1552  0.4042
17922SOL    HW155379   4.328   6.565   3.239  0.0821  0.5276  0.1159
17922SOL    HW255380   4.263   6.641   3.353  0.4497  0.8391  0.1203
17923SOL     OW55381   1.975   3.786   2.773  0.3320  0.0577  0.0919
17923SOL    HW155382   2.032   3.832   2.835  0.5970 -1.1803  0.7960
17923SOL    HW255383   1.990   3.693   2.790 -2.7698 -0.3877  1.1960
17924SOL     OW55384   6.311   9.131   7.919  0.3221  0.2391 -0.0751
17924SOL    HW155385   6.330   9.077   7.996  0.0543 -1.7208 -1.3239
17924SOL    HW255386   6.381   9.195   7.916  1.4392 -0.9088  0.7072
17925SOL     OW55387   5.186   7.393   8.291 -0.1634  0.0726 -0.6548
17925SOL    HW155388   5.243   7.388   8.214 -0.3120  1.4211 -0.8838
17925SOL    HW255389   5.242   7.368   8.364  0.1950 -0.4675 -1.1050
17926SOL     OW55390   1.351   3.352   7.268  0.0869  0.0596  0.9043
17926SOL    HW155391   1.428   3.396   7.231 -0.5427 -0.0526 -0.6242
17926SOL    HW255392   1.373   3.259   7.267 -0.2062 -0.0104  0.0674
17927SOL     OW55393   8.071   2.308   8.824  0.0674 -0.0238 -0.4069
17927SOL    HW155394   8.080   2.402   8.839 -0.3861 -0.1456  0.6865
17927SOL    HW255395   8.147   2.270   8.868 -1.5314 -0.4229  2.2223
17928SOL     OW55396   6.601   5.581   1.329 -0.0596  0.5635  0.3561
17928SOL    HW155397   6.632   5.633   1.255  0.3899 -1.0475 -0.6421
17928SOL    HW255398   6.511   5.558   1.306  0.3862 -0.7261 -0.1702
17929SOL     OW55399   4.877   2.179   9.418 -0.0213  0.0713 -0.9432
17929SOL    HW155400   4.871   2.231   9.338 -0.7146  0.7236 -0.4824
17929SOL    HW255401   4.787   2.164   9.444  0.1968 -0.2093 -0.3293
17930SOL     OW55402   2.959   3.440   8.785 -0.4488 -0.0160 -0.8086
17930SOL    HW155403   2.971   3.383   8.709  2.2031 -1.6303  0.6430
17930SOL    HW255404   2.885   3.402   8.833 -0.2629 -0.7784 -1.1111
17931SOL     OW55405   9.425   7.261   6.294 -0.1076 -0.0206 -0.0893
17931SOL    HW155406   9.399   7.352   6.281  1.9678  0.7881  0.8701
17931SOL    HW255407   9.404   7.242   6.386 -0.5079 -0.5179 -0.2757
17932SOL     OW55408   9.294   4.400   4.451 -0.8911  0.0149 -0.0893
17932SOL    HW155409   9.339   4.357   4.524 -2.9282 -0.4110  0.9990
17932SOL    HW255410   9.291   4.333   4.382  1.2094  0.4818 -0.6916
17933SOL     OW55411   1.333   1.434   5.837  0.2131 -0.0833  0.1591
17933SOL    HW155412   1.347   1.528   5.850  0.4031 -0.3376  2.0948
17933SOL    HW255413   1.397   1.392   5.896  0.6701 -1.4523 -1.2484
17934SOL     OW55414   2.510   9.216   0.782 -0.0879  0.1805  0.4642
17934SOL    HW155415   2.475   9.133   0.815  1.2711 -0.9444 -0.7661
17934SOL    HW255416   2.602   9.215   0.807  0.5260  0.1516 -1.6119
17935SOL     OW55417   2.762   1.539   5.165 -0.1981 -0.0484  0.5548
17935SOL    HW155418   2.832   1.595   5.132 -0.2178 -0.0570  0.4984
17935SOL    HW255419   2.705   1.598   5.215  0.0772 -0.1176  0.9568
17936SOL     OW55420   7.833   0.219   6.176  0.0706 -0.0433  1.0546
17936SOL    HW155421   7.883   0.267   6.111  0.4730  0.2563  1.5760
17936SOL    HW255422   7.869   0.131   6.174  0.3434  0.0668  1.1434
17937SOL     OW55423   0.371   7.199   4.734  0.0570 -0.0571  0.0794
17937SOL    HW155424   0.398   7.213   4.825 -0.6349  2.1469  0.0217
17937SOL    HW255425   0.411   7.116   4.709  0.8671 -0.3534  2.1635
17938SOL     OW55426   9.619   1.164   7.028 -0.3433  0.6103  0.3272
17938SOL    HW155427   9.627   1.095   6.962  2.5096 -2.1944  3.2494
17938SOL    HW255428   9.683   1.231   7.001  0.6268 -0.3887  0.0780
17939SOL     OW55429   6.634   7.837   3.183 -0.3972  0.1227  0.0063
17939SOL    HW155430   6.693   7.912   3.170  0.9283 -0.5921  1.5547
17939SOL    HW255431   6.627   7.828   3.278  0.2463 -2.2707 -0.0981
17940SOL     OW55432   1.291   5.247   2.774  0.2978  0.1801 -0.3482
17940SOL    HW155433   1.273   5.245   2.868 -0.2688  1.4204 -0.4101
17940SOL    HW255434   1.255   5.164   2.742 -2.6060  1.1639  0.0462
17941SOL     OW55435   9.138   0.458   8.750 -0.4915  0.5938  0.0183
17941SOL    HW155436   9.086   0.435   8.673  0.7470 -0.3205 -0.5675
17941SOL    HW255437   9.189   0.535   8.724 -1.3942  1.4049  0.5486
17942SOL     OW55438   0.805   1.775   8.231  0.5094  1.0500  0.4625
17942SOL    HW155439   0.868   1.741   8.167 -0.7610 -0.7240  0.0727
17942SOL    HW255440   0.740   1.705   8.240 -1.0772  2.5541  1.3026
17943SOL     OW55441   3.036   2.701   7.344  0.3624  0.3782  0.0803
17943SOL    HW155442   2.967   2.645   7.378 -0.5924  1.6096  0.2042
17943SOL    HW255443   3.105   2.640   7.318 -1.8258 -1.1553 -2.6482
17944SOL     OW55444   8.024   8.396   2.619 -0.0838 -0.6361  0.3933
17944SOL    HW155445   7.972   8.455   2.675  0.2815 -0.0695  0.1469
17944SOL    HW255446   8.024   8.313   2.666  1.1281  0.1129  1.8045
17945SOL     OW55447   6.976   1.864   3.904 -0.0017  0.7187 -0.5083
17945SOL    HW155448   6.893   1.817   3.889 -0.1200  0.4115  0.9583
17945SOL    HW255449   7.038   1.822   3.845 -0.4042 -0.4939 -0.1001
17946SOL     OW55450   2.204   0.036   6.541  0.4177 -0.5004  0.6021
17946SOL    HW155451   2.109   0.046   6.552  0.7117  1.5233  1.5815
17946SOL    HW255452   2.232  -0.011   6.620  0.6796  2.1523  2.1833
17947SOL     OW55453   9.285   9.167   7.859  0.2089  0.4653 -0.4044
17947SOL    HW155454   9.293   9.127   7.772  1.4792  2.0207 -1.0470
17947SOL    HW255455   9.324   9.253   7.850 -1.4397  1.4566  1.2324
17948SOL     OW55456   8.970   4.479   5.105 -0.7508 -0.6862 -0.3890
17948SOL    HW155457   8.955   4.567   5.071 -1.0593 -1.2409 -1.7520
17948SOL    HW255458   8.883   4.446   5.125 -0.6513 -0.7607 -0.0722
17949SOL     OW55459   7.124   7.900   1.029  0.2291  0.1693  0.0718
17949SOL    HW155460   7.056   7.922   0.965 -0.2199 -0.1393  0.4375
17949SOL    HW255461   7.204   7.937   0.992 -0.2381  1.0961 -0.0639
17950SOL     OW55462   4.003   6.950   1.543 -0.6607  0.5336 -0.2140
17950SOL    HW155463   4.058   6.917   1.472  0.1334  0.8560  0.2330
17950SOL    HW255464   3.918   6.910   1.528  0.3296 -2.0903  0.5164
17951SOL     OW55465   8.695   5.143   8.738 -0.2190  0.1738 -0.2829
17951SOL    HW155466   8.715   5.064   8.689  2.4127  0.5051  0.1172
17951SOL    HW255467   8.708   5.214   8.676 -2.7442  0.3772 -0.6944
17952SOL     OW55468   7.136   8.852   7.187  0.0241  0.4161 -0.4869
17952SOL    HW155469   7.192   8.881   7.116 -1.0575  1.1708 -1.0604
17952SOL    HW255470   7.149   8.757   7.191  2.7335  0.7495  0.6549
17953SOL     OW55471   0.032   5.813   0.044 -0.4158 -0.3398 -0.0500
17953SOL    HW155472   0.081   5.731   0.049 -0.4973 -0.3292  1.8596
17953SOL    HW255473   0.068   5.866   0.115 -2.2024  0.2209  0.4839
17954SOL     OW55474   3.256   6.106   6.897 -0.2576 -0.3428  0.2445
17954SOL    HW155475   3.303   6.154   6.965 -0.3892 -2.6441  2.0467
17954SOL    HW255476   3.324   6.077   6.836  0.2224 -0.5944  0.8964
17955SOL     OW55477   6.575   1.578   6.276 -0.3236 -0.2798  0.1211
17955SOL    HW155478   6.646   1.513   6.270 -1.0402 -0.9652 -1.7962
17955SOL    HW255479   6.591   1.638   6.204 -1.5708 -0.3476 -0.2407
17956SOL     OW55480   5.708   4.086   1.787  0.7238 -0.4466 -0.6937
17956SOL    HW155481   5.800   4.114   1.782  0.4409  0.5457 -0.5151
17956SOL    HW255482   5.665   4.152   1.841  0.4075 -2.2649  1.4672
17957SOL     OW55483   8.630   2.699   1.926 -0.6161 -0.2473 -0.7824
17957SOL    HW155484   8.596   2.633   1.987 -0.8651 -1.5216 -2.2147
17957SOL    HW255485   8.722   2.675   1.914 -0.2572  0.7076 -0.0466
17958SOL     OW55486   1.383   5.703   7.190 -0.6113  0.4889  0.1381
17958SOL    HW155487   1.390   5.742   7.103 -1.1596 -0.9498 -0.5873
17958SOL    HW255488   1.471   5.714   7.227 -0.5560  1.7274 -0.3128
17959SOL     OW55489   6.964   7.044   9.027 -0.1609 -0.2399  0.0305
17959SOL    HW155490   6.927   6.957   9.046 -0.2660 -0.2597 -0.2669
17959SOL    HW255491   7.058   7.028   9.020 -0.1364 -0.2592  0.3880
17960SOL     OW55492   4.525   7.270   6.561 -0.8190 -0.4858  0.0627
17960SOL    HW155493   4.608   7.278   6.608 -0.2751 -0.9749 -0.7871
17960SOL    HW255494   4.523   7.345   6.503 -0.7003 -0.7743 -0.3189
17961SOL     OW55495   4.442   7.720   9.686 -0.2692  0.2118 -0.0565
17961SOL    HW155496   4.523   7.679   9.656 -0.7528 -0.3658 -0.5952
17961SOL    HW255497   4.440   7.805   9.642 -0.2056  0.0157 -0.4371
17962SOL     OW55498   6.769   7.812   5.045 -0.1846 -0.3795 -0.7500
17962SOL    HW155499   6.811   7.737   5.086  3.4893  2.2771  0.9703
17962SOL    HW255500   6.808   7.817   4.958  0.4246  0.1007 -0.4575
17963SOL     OW55501   5.816   5.874   3.655  0.0492  0.5097  0.0317
17963SOL    HW155502   5.818   5.933   3.731 -0.0693  0.7824 -0.1732
17963SOL    HW255503   5.767   5.797   3.686  3.0050 -0.9840  1.3517
17964SOL     OW55504   9.721   3.224   4.781 -0.0124 -0.2506  0.4614
17964SOL    HW155505   9.778   3.200   4.855 -0.5686 -0.3884  0.8524
17964SOL    HW255506   9.781   3.234   4.707  0.4023 -1.5029  0.5974
17965SOL     OW55507   0.572   7.892   8.124  0.6132 -0.1865  0.3693
17965SOL    HW155508   0.663   7.911   8.146  0.6381  0.9627 -0.5924
17965SOL    HW255509   0.564   7.797   8.129  1.4015 -0.1873  2.1592
17966SOL     OW55510   2.035   4.246   6.476 -0.1097  0.0719 -0.5249
17966SOL    HW155511   1.974   4.173   6.480 -0.2454  0.2200  0.5480
17966SOL    HW255512   2.111   4.212   6.429 -1.0998 -0.0338 -2.1199
17967SOL     OW55513   9.035   7.467   8.132  0.5388 -0.1463 -0.2152
17967SOL    HW155514   8.950   7.444   8.095  0.8185 -2.2755  0.3624
17967SOL    HW255515   9.025   7.558   8.159 -1.1130  0.0670 -1.3484
17968SOL     OW55516   5.591   0.456   3.579  0.3895  0.6132 -0.0136
17968SOL    HW155517   5.591   0.368   3.541  0.2851  0.5099  0.2226
17968SOL    HW255518   5.510   0.497   3.546  0.5023  0.6676 -0.2267
17969SOL     OW55519   6.741   5.298   6.012  0.2020  0.6617  0.1479
17969SOL    HW155520   6.675   5.346   6.064 -0.1054 -0.0736  0.4493
17969SOL    HW255521   6.705   5.210   6.003  0.2357  0.7810 -1.3659
17970SOL     OW55522   0.389   8.740   5.077  0.9231 -0.2647 -0.2962
17970SOL    HW155523   0.373   8.665   5.019  1.4409 -1.1309  0.6535
17970SOL    HW255524   0.391   8.815   5.018  1.0373 -1.0712 -1.3551
17971SOL     OW55525   4.194   6.040   0.191 -0.1825  0.1537  0.2069
17971SOL    HW155526   4.219   6.090   0.114  2.2869 -1.1009  0.0621
17971SOL    HW255527   4.176   5.952   0.158  0.1551 -0.2102  0.9495
17972SOL     OW55528   8.261   1.154   0.943  0.1220  0.0407 -0.8508
17972SOL    HW155529   8.294   1.183   1.028  2.2378  0.2785 -1.6910
17972SOL    HW255530   8.292   1.064   0.935 -0.1765 -0.0222 -1.3104
17973SOL     OW55531   7.423   8.400   0.319  0.1606 -0.3017 -0.0805
17973SOL    HW155532   7.498   8.352   0.353  0.8568  0.2564 -0.7709
17973SOL    HW255533   7.427   8.387   0.224 -0.4198  0.0168 -0.1544
17974SOL     OW55534   1.434   3.248   6.037 -0.7282  0.0170  0.2701
17974SOL    HW155535   1.365   3.182   6.040 -1.6066  0.9398  0.9004
17974SOL    HW255536   1.507   3.208   6.086 -0.2372 -1.5461 -1.6034
17975SOL     OW55537   5.364   2.028   1.918 -0.3624 -0.4810  0.4792
17975SOL    HW155538   5.391   2.091   1.851 -1.5938  2.2240  2.3483
17975SOL    HW255539   5.271   2.013   1.901 -1.1443  1.5945  2.4598
17976SOL     OW55540   7.352   3.199   5.768 -0.3763  0.2311 -0.4572
17976SOL    HW155541   7.331   3.167   5.680 -0.0194  1.1373 -0.8808
17976SOL    HW255542   7.282   3.164   5.823 -0.4907 -0.5119 -1.0644
17977SOL     OW55543   0.689   6.771   8.853 -0.0875 -0.5175  0.2827
17977SOL    HW155544   0.693   6.682   8.817  0.4702 -0.1028 -0.7107
17977SOL    HW255545   0.616   6.812   8.807 -1.0194 -0.7671  1.4965
17978SOL     OW55546   2.444   7.666   1.078 -0.5435  0.2339  0.2922
17978SOL    HW155547   2.452   7.594   1.140  1.4762  0.1522 -0.0132
17978SOL    HW255548   2.532   7.703   1.071 -1.2684  1.9577 -0.5042
17979SOL     OW55549   6.558   9.595   1.863  0.4799 -0.8470 -0.2933
17979SOL    HW155550   6.589   9.635   1.782  0.1955  0.0168  0.0111
17979SOL    HW255551   6.624   9.528   1.884  0.3571 -1.3552 -1.4265
17980SOL     OW55552   9.436   2.831   2.370  0.0370 -0.1437 -0.2050
17980SOL    HW155553   9.465   2.744   2.397 -0.4588 -0.0706  0.6330
17980SOL    HW255554   9.417   2.823   2.277  0.0317 -0.9243 -0.1397
17981SOL     OW55555   3.361   8.505   8.954 -0.4067  0.4534 -0.3543
17981SOL    HW155556   3.339   8.575   8.892 -3.1348 -1.5408 -1.8918
17981SOL    HW255557   3.373   8.428   8.899 -2.7922 -1.3973  1.4692
17982SOL     OW55558   5.018   7.224   7.272 -0.6786  0.0807  0.5475
17982SOL    HW155559   4.994   7.140   7.310  0.1205 -0.6663 -0.5253
17982SOL    HW255560   4.948   7.243   7.210 -0.0776 -0.6208 -0.3873
17983SOL     OW55561   2.124   4.787   0.641  0.0262  0.2761  0.5179
17983SOL    HW155562   2.069   4.848   0.689  0.5211  0.9362  0.2775
17983SOL    HW255563   2.100   4.801   0.549  0.7090  0.7057  0.3960
17984SOL     OW55564   5.493   4.338   2.591 -0.1722 -0.1713 -0.2265
17984SOL    HW155565   5.549   4.354   2.514  1.6618 -0.1942  1.0245
17984SOL    HW255566   5.488   4.243   2.597  2.2837 -0.3038  1.3396
17985SOL     OW55567   5.969   7.578   8.188  0.1487  0.7204 -0.3283
17985SOL    HW155568   5.886   7.532   8.173 -0.1768  0.8319  0.9698
17985SOL    HW255569   6.032   7.531   8.133 -0.2969 -0.9350  0.4803
17986SOL     OW55570   6.143   7.400   6.113 -0.0568  0.2483  0.2909
17986SOL    HW155571   6.066   7.362   6.156 -0.8111  1.8755  0.4590
17986SOL    HW255572   6.145   7.358   6.027 -0.7305 -0.3033  0.5248
17987SOL     OW55573   5.232   7.683   2.787  0.0742 -0.0128 -0.3333
17987SOL    HW155574   5.200   7.612   2.842  1.7670 -0.2814  0.3664
17987SOL    HW255575   5.287   7.736   2.844  1.2710  0.1348 -1.5659
17988SOL     OW55576   0.584   7.171   3.533 -0.7375 -0.1823  0.5795
17988SOL    HW155577   0.519   7.216   3.480 -0.2398 -0.4602 -0.2880
17988SOL    HW255578   0.533   7.126   3.601 -1.3104  0.8979  0.8916
17989SOL     OW55579   4.356   4.438   5.492  0.1743  0.2200  0.7801
17989SOL    HW155580   4.359   4.534   5.491 -0.4426  0.2719  1.8431
17989SOL    HW255581   4.275   4.418   5.540 -0.2052 -0.8382 -0.2649
17990SOL     OW55582   9.818   7.771   3.965  0.0658 -0.8287 -0.0894
17990SOL    HW155583   9.897   7.719   3.981  0.6966  0.3008  0.5988
17990SOL    HW255584   9.851   7.859   3.947 -0.9092 -0.8711 -2.4318
17991SOL     OW55585   7.067   9.550   8.194 -0.1871 -0.2370  0.1800
17991SOL    HW155586   7.094   9.475   8.141 -1.1949  0.6324 -1.6747
17991SOL    HW255587   7.074   9.519   8.285  0.3802 -2.2183 -0.4759
17992SOL     OW55588   7.239   6.622   3.979  0.3050 -0.0025  0.0278
17992SOL    HW155589   7.179   6.550   3.999  2.6325 -2.1128  0.0007
17992SOL    HW255590   7.256   6.613   3.885  0.9332  0.3015  0.1066
17993SOL     OW55591   3.797   5.069   9.625 -0.1585 -0.0729  0.2407
17993SOL    HW155592   3.714   5.021   9.627 -0.8753  1.1225  1.6460
17993SOL    HW255593   3.852   5.025   9.690 -0.6703  0.6954  1.2314
17994SOL     OW55594   4.559   3.863   6.520 -0.2507  0.0836  0.4502
17994SOL    HW155595   4.472   3.864   6.479  0.4708 -0.0284 -1.1958
17994SOL    HW255596   4.600   3.784   6.484  1.4264  1.4836 -0.8625
17995SOL     OW55597   9.016   4.762   3.067 -0.4148  0.5160 -0.2701
17995SOL    HW155598   8.960   4.720   3.132  1.3453  1.6750  2.1710
17995SOL    HW255599   8.968   4.840   3.041 -0.8294  0.4306  0.2273
17996SOL     OW55600   0.674   7.458   2.603 -0.9670 -0.8107 -0.1274
17996SOL    HW155601   0.695   7.495   2.689  1.4137 -0.6554 -0.6902
17996SOL    HW255602   0.614   7.386   2.622 -0.3264 -0.9266  1.6970
17997SOL     OW55603   0.508   3.731   4.894  0.4548  0.0900 -0.4872
17997SOL    HW155604   0.462   3.646   4.897 -0.3438  0.5079 -0.5556
17997SOL    HW255605   0.476   3.772   4.814 -2.0204  2.0095  1.3424
17998SOL     OW55606   7.289   6.402   9.588  0.0464  0.3961 -0.1257
17998SOL    HW155607   7.336   6.437   9.512 -1.3432 -0.1551 -1.3034
17998SOL    HW255608   7.274   6.478   9.644  0.9812  0.8425 -0.4665
17999SOL     OW55609   7.853   9.749   4.926  0.5273 -0.0420 -0.8878
17999SOL    HW155610   7.946   9.771   4.922  0.6304 -0.1664  0.5228
17999SOL    HW255611   7.809   9.827   4.891  1.1021  0.4923 -0.4432
18000SOL     OW55612   2.482   3.838   6.665  0.3392 -0.3791  0.2512
18000SOL    HW155613   2.551   3.806   6.607 -0.1158 -0.4312 -0.2766
18000SOL    HW255614   2.432   3.760   6.690  1.5140 -0.6002  2.0804
18001SOL     OW55615   1.326   3.926   3.489  0.0400  0.0210  0.3015
18001SOL    HW155616   1.254   3.908   3.549  0.2475  0.1972  0.6062
18001SOL    HW255617   1.337   4.021   3.494  0.4369 -0.0308  0.4239
18002SOL     OW55618   6.668   1.464   0.114 -0.3358  0.2872 -0.0438
18002SOL    HW155619   6.754   1.471   0.074 -0.0047  1.4925  0.8169
18002SOL    HW255620   6.657   1.370   0.131  0.7904  0.1114 -0.2072
18003SOL     OW55621   4.893   5.352   1.100 -0.5621  0.5772 -0.0258
18003SOL    HW155622   4.986   5.343   1.080 -0.7468 -0.9086 -0.3737
18003SOL    HW255623   4.852   5.378   1.018 -0.3321  2.4203  0.4065
18004SOL     OW55624   9.124   6.044   6.467  0.7290 -0.0648  0.3154
18004SOL    HW155625   9.098   6.128   6.429  1.2844  0.3411  0.8178
18004SOL    HW255626   9.101   6.052   6.560  1.4474 -0.1829  0.5098
18005SOL     OW55627   4.696   7.126   5.309 -0.0426  0.4677 -0.7349
18005SOL    HW155628   4.624   7.105   5.250 -1.9317  0.1737  1.5072
18005SOL    HW255629   4.716   7.044   5.354  0.0257  1.0454  0.3424
18006SOL     OW55630   0.750   6.772   2.582  0.6556 -0.1702  0.1651
18006SOL    HW155631   0.740   6.730   2.497  0.6382  0.6361 -0.2444
18006SOL    HW255632   0.782   6.703   2.640 -0.4162 -1.0158 -0.2095
18007SOL     OW55633   5.342   4.193   9.798  0.2740 -0.4295  0.1072
18007SOL    HW155634   5.395   4.145   9.861 -0.0434  0.6904  1.2594
18007SOL    HW255635   5.254   4.195   9.837 -0.1454 -0.4842 -0.7960
18008SOL     OW55636   0.019   0.521   1.304  0.3875 -0.0113  0.2197
18008SOL    HW155637  -0.049   0.541   1.239  2.1030 -1.6483 -2.2781
18008SOL    HW255638  -0.024   0.460   1.365 -1.0877  0.9948  0.2476
18009SOL     OW55639   8.661   4.671   8.114  0.3083  0.1940 -0.4492
18009SOL    HW155640   8.743   4.630   8.139  0.1176  0.0661 -0.0192
18009SOL    HW255641   8.682   4.764   8.105  0.1111  0.4633  1.5131
18010SOL     OW55642   7.474   2.631   3.452  0.2431  0.6756  0.7229
18010SOL    HW155643   7.542   2.569   3.424 -1.6361 -1.0993 -0.2352
18010SOL    HW255644   7.397   2.576   3.469 -1.8210  2.8015 -1.0256
18011SOL     OW55645   1.846   7.730   0.173  0.0017 -0.5974  0.3287
18011SOL    HW155646   1.752   7.726   0.158 -0.1126  1.7138  0.0754
18011SOL    HW255647   1.854   7.759   0.264  0.4327  0.5611 -0.0713
18012SOL     OW55648   0.439   8.257   0.416  0.7243  0.6495  0.1932
18012SOL    HW155649   0.474   8.185   0.469  2.7513  1.4335 -0.0165
18012SOL    HW255650   0.429   8.330   0.476  0.7304  0.8285 -0.0192
18013SOL     OW55651   6.118   6.576   7.171 -0.0800 -0.3988 -0.4149
18013SOL    HW155652   6.071   6.499   7.142 -0.7136 -0.2362  0.1566
18013SOL    HW255653   6.198   6.542   7.210 -1.6403 -1.0426  2.4931
18014SOL     OW55654   7.859   2.007   8.981  0.5144 -0.6475  0.0681
18014SOL    HW155655   7.937   1.989   9.033 -1.5705 -1.0254  3.3564
18014SOL    HW255656   7.850   2.103   8.984  0.9543 -0.5838 -0.5180
18015SOL     OW55657   2.502   3.455   4.465 -0.0540 -0.3020 -0.1688
18015SOL    HW155658   2.509   3.398   4.388  1.0562 -3.8689  2.2951
18015SOL    HW255659   2.449   3.405   4.527  1.0666  1.2834  2.2548
18016SOL     OW55660   8.729   7.611   6.854  0.0371  0.1945 -0.7244
18016SOL    HW155661   8.688   7.691   6.886  2.9265  0.7032  2.2158
18016SOL    HW255662   8.665   7.573   6.794 -2.6387  3.1935 -0.0008
18017SOL     OW55663   6.458   1.924   1.389  0.3546 -0.8402  0.4395
18017SOL    HW155664   6.498   1.889   1.310  0.5650  0.3628  0.0039
18017SOL    HW255665   6.428   2.012   1.365 -0.6835 -0.9163  1.3448
18018SOL     OW55666   4.375   6.594   7.663 -0.8374  0.5797 -0.3559
18018SOL    HW155667   4.371   6.499   7.659 -0.7902  0.4621  1.4904
18018SOL    HW255668   4.454   6.617   7.616 -0.0627 -0.4274  0.4120
18019SOL     OW55669   6.543   9.545   5.055 -0.2410  0.0822 -0.0374
18019SOL    HW155670   6.615   9.518   4.998  1.2676 -0.5170  2.0551
18019SOL    HW255671   6.523   9.468   5.107 -1.8599  0.4951  0.0013
18020SOL     OW55672   9.221   7.203   7.088 -0.0198  0.2626  0.1543
18020SOL    HW155673   9.241   7.140   7.018 -0.5005  0.9952 -0.6564
18020SOL    HW255674   9.279   7.277   7.070 -1.7706  1.4565 -0.8888
18021SOL     OW55675   8.824   1.281   5.498 -0.1467  0.0935  0.3975
18021SOL    HW155676   8.898   1.303   5.442  0.2505 -1.1627  0.3992
18021SOL    HW255677   8.753   1.261   5.437 -0.6572  1.7843  0.4004
18022SOL     OW55678   4.724   6.675   1.028 -0.0014 -0.1986  0.0420
18022SOL    HW155679   4.789   6.719   1.083 -0.6420  1.4674 -0.4801
18022SOL    HW255680   4.754   6.584   1.023  2.6102  0.6260 -0.6788
18023SOL     OW55681   9.747   3.907   7.929  0.6987  0.7552 -0.1184
18023SOL    HW155682   9.669   3.955   7.956 -0.3400 -1.0918  0.3619
18023SOL    HW255683   9.819   3.968   7.944 -0.7248  3.0181 -1.8428
18024SOL     OW55684   5.445   0.435   0.202 -0.2963 -0.9780 -0.3568
18024SOL    HW155685   5.368   0.490   0.191 -0.1861 -0.8273 -0.3848
18024SOL    HW255686   5.468   0.444   0.295  0.6378  0.2653 -0.6765
18025SOL     OW55687   1.194   8.304   0.026  0.2422  0.3692  0.2962
18025SOL    HW155688   1.224   8.234   0.084 -1.6533 -1.1451 -0.4296
18025SOL    HW255689   1.124   8.347   0.074 -0.8965 -0.4720 -0.5403
18026SOL     OW55690   3.746   1.602   8.706  0.4966  0.0296 -0.0125
18026SOL    HW155691   3.655   1.574   8.700  0.3071  0.7091 -0.4524
18026SOL    HW255692   3.757   1.663   8.633  1.0010  0.7953  0.6861
18027SOL     OW55693   8.615   8.606   7.173 -0.1755  0.4140  0.1557
18027SOL    HW155694   8.668   8.612   7.253  0.1917 -2.0361  0.1641
18027SOL    HW255695   8.559   8.530   7.187  1.2732 -1.3029 -2.6737
18028SOL     OW55696   0.127   9.613   6.959 -0.2728 -0.0673 -0.5232
18028SOL    HW155697   0.165   9.676   6.898  0.0900 -0.3127 -0.5522
18028SOL    HW255698   0.078   9.552   6.904 -0.3670  0.0077 -0.5228
18029SOL     OW55699   7.405   5.289   8.113  0.1902 -0.2989  0.1550
18029SOL    HW155700   7.357   5.240   8.046 -2.2843  2.0615  0.0159
18029SOL    HW255701   7.458   5.351   8.064 -1.0097  0.8821  0.2732
18030SOL     OW55702   6.129   6.791   2.831 -0.2394  0.0928 -0.0003
18030SOL    HW155703   6.126   6.885   2.850  1.0350  0.5819 -2.0058
18030SOL    HW255704   6.037   6.766   2.823 -0.6956  0.7121  2.3490
18031SOL     OW55705   8.675   9.261   1.170 -0.4591  0.0961 -0.4085
18031SOL    HW155706   8.695   9.221   1.255  1.3108  0.2015 -0.7300
18031SOL    HW255707   8.583   9.286   1.176  0.0584  1.8204  2.2058
18032SOL     OW55708   7.876   8.299   7.937  0.1092 -0.4127  0.0039
18032SOL    HW155709   7.860   8.388   7.968  1.8486 -0.9060  2.7394
18032SOL    HW255710   7.800   8.249   7.967 -0.0377 -0.1784  0.0249
18033SOL     OW55711   7.878   0.704   7.242  0.8022  0.0108 -0.9263
18033SOL    HW155712   7.805   0.688   7.302  0.1226  0.9816 -1.4648
18033SOL    HW255713   7.922   0.619   7.236  0.7384 -0.1892  0.7182
18034SOL     OW55714   6.775   5.544   0.748  1.2006  0.1761  0.3933
18034SOL    HW155715   6.787   5.458   0.709  2.0864  0.1638  0.6591
18034SOL    HW255716   6.758   5.602   0.674  0.5834 -0.2227  0.2160
18035SOL     OW55717   8.736   7.304   6.609  0.5019  0.1119 -0.0087
18035SOL    HW155718   8.697   7.220   6.583  1.5034 -1.0373  1.9594
18035SOL    HW255719   8.788   7.331   6.533 -1.7851  0.2625 -1.6118
18036SOL     OW55720   3.285   1.607   4.498  0.6795  0.2087 -0.4450
18036SOL    HW155721   3.368   1.563   4.480  0.1723 -1.6634  1.3523
18036SOL    HW255722   3.309   1.693   4.532  1.8993 -0.2976  0.0182
18037SOL     OW55723   5.766   6.719   7.002 -0.2683 -0.4084  0.4514
18037SOL    HW155724   5.732   6.642   6.956 -0.5421 -0.1422  0.2041
18037SOL    HW255725   5.726   6.714   7.089 -1.2283  0.0911  0.0485
18038SOL     OW55726   3.949   8.558   8.881  0.8353  0.4431 -0.2692
18038SOL    HW155727   3.869   8.597   8.918  0.9478 -1.3055  2.0226
18038SOL    HW255728   3.962   8.605   8.798 -2.0024  1.4520 -0.2605
18039SOL     OW55729   6.281   5.664   8.243  0.5752 -0.0311  0.0534
18039SOL    HW155730   6.346   5.732   8.224  0.4831  0.3734  1.0871
18039SOL    HW255731   6.198   5.702   8.216  0.4542  0.5057  1.1226
18040SOL     OW55732   9.717   0.780   8.193 -0.0033 -0.7129  0.2164
18040SOL    HW155733   9.732   0.726   8.116 -0.7380  1.5419 -1.6352
18040SOL    HW255734   9.625   0.805   8.188  0.5325  1.5076  0.3855
18041SOL     OW55735   1.615   1.119   8.856  0.0378 -0.7647 -0.3976
18041SOL    HW155736   1.543   1.141   8.914  0.9083  0.3751  0.3019
18041SOL    HW255737   1.658   1.045   8.898 -1.4359 -2.3154 -1.4801
18042SOL     OW55738   3.931   0.823   7.881 -0.0308 -0.2379 -0.8354
18042SOL    HW155739   3.985   0.783   7.813  1.5711 -0.0718  0.2836
18042SOL    HW255740   3.994   0.860   7.944 -1.4460  1.4337 -0.3050
18043SOL     OW55741   2.628   3.882   7.475  0.1862 -0.0535 -0.4532
18043SOL    HW155742   2.614   3.807   7.534 -1.4915  0.1261 -0.5796
18043SOL    HW255743   2.554   3.940   7.492  1.2592  1.4347 -0.6288
18044SOL     OW55744   9.622   3.296   9.287 -0.0163  0.3024 -0.2989
18044SOL    HW155745   9.632   3.229   9.354  1.1900  0.8649  0.1064
18044SOL    HW255746   9.634   3.249   9.204 -0.0240 -0.1177 -0.0623
18045SOL     OW55747   9.817   0.640   3.119  0.1408 -0.0943 -0.2214
18045SOL    HW155748   9.878   0.608   3.052  0.7526 -0.4057  0.4730
18045SOL    HW255749   9.772   0.561   3.149  0.0755  0.0023 -0.0657
18046SOL     OW55750   1.012   6.301   7.169  0.0779 -0.5996  0.1381
18046SOL    HW155751   0.997   6.334   7.258 -1.0109  0.4936 -0.4156
18046SOL    HW255752   0.950   6.229   7.160  0.9713 -1.4474  0.6282
18047SOL     OW55753   2.023   6.597   1.506 -0.5801 -0.1775 -0.1813
18047SOL    HW155754   2.045   6.563   1.419 -0.6141 -3.2343  0.8894
18047SOL    HW255755   2.101   6.581   1.558 -1.6162 -1.2983  1.0835
18048SOL     OW55756   4.970   6.625   5.163 -0.4259  0.2121  0.1383
18048SOL    HW155757   5.012   6.562   5.103 -2.4475 -0.9259 -0.1660
18048SOL    HW255758   4.940   6.572   5.237  0.5974  1.3599  1.4259
18049SOL     OW55759   6.777   5.359   2.975  0.1765  0.2082  0.3044
18049SOL    HW155760   6.714   5.397   3.036 -0.6528  0.0860 -0.4564
18049SOL    HW255761   6.841   5.429   2.959 -0.3937  0.7206  0.2231
18050SOL     OW55762   2.836   0.538   6.418 -0.0043  0.2547 -0.0220
18050SOL    HW155763   2.830   0.448   6.386  0.6596 -0.5665  1.9472
18050SOL    HW255764   2.836   0.592   6.340 -2.0040 -1.3404 -1.2282
18051SOL     OW55765   7.437   8.713   6.672  0.5109  0.3116 -0.6836
18051SOL    HW155766   7.469   8.629   6.641  1.0146 -0.4930  1.7911
18051SOL    HW255767   7.368   8.737   6.610  0.8674 -1.5337 -1.8655
18052SOL     OW55768   1.936   8.289   3.372  0.2515  0.2755  0.0129
18052SOL    HW155769   1.990   8.310   3.448 -0.1026  1.2013  0.0245
18052SOL    HW255770   1.866   8.233   3.406  0.2356  0.4858  0.3214
18053SOL     OW55771   5.587   0.961   9.528 -0.6066  0.5731  0.3088
18053SOL    HW155772   5.534   1.034   9.561 -0.0157  1.2910 -0.2963
18053SOL    HW255773   5.677   0.987   9.545 -0.4118 -0.3713  0.7767
18054SOL     OW55774   8.888   3.671   6.936  0.0792 -0.0753 -0.2389
18054SOL    HW155775   8.955   3.674   7.004 -0.2954 -0.3920  0.1525
18054SOL    HW255776   8.860   3.762   6.926 -1.1884 -0.2283  1.3919
18055SOL     OW55777   6.765   9.148   4.127  1.0102  0.4086  0.4636
18055SOL    HW155778   6.691   9.105   4.170  0.8033  0.9701  0.6710
18055SOL    HW255779   6.761   9.117   4.036  1.3001 -0.5824  0.7810
18056SOL     OW55780   7.723   9.311   6.563 -0.1974 -0.4837  0.3468
18056SOL    HW155781   7.789   9.335   6.497  0.1228 -2.1992  0.0053
18056SOL    HW255782   7.718   9.388   6.619  2.2033 -0.3100  0.4510
18057SOL     OW55783   4.625   2.695   3.428  0.1412 -0.1738  0.2665
18057SOL    HW155784   4.638   2.751   3.505 -0.3287 -0.6774  0.7229
18057SOL    HW255785   4.645   2.607   3.459  0.0102 -0.3718 -0.2099
18058SOL     OW55786   7.553   3.323   0.020 -0.5907  0.4005 -0.2548
18058SOL    HW155787   7.575   3.230   0.029 -1.9051  0.1222  0.4051
18058SOL    HW255788   7.504   3.343   0.100 -0.2269  1.7004 -0.3400
18059SOL     OW55789   8.183   0.643   7.138 -0.2990  0.7353  0.4110
18059SOL    HW155790   8.272   0.675   7.119  0.3769 -0.6057  1.2205
18059SOL    HW255791   8.129   0.685   7.071  1.1743  0.4023 -1.0612
18060SOL     OW55792   6.214   8.909   4.059  0.0447 -0.1736 -0.2025
18060SOL    HW155793   6.234   9.002   4.071 -0.9475  0.5462 -3.1208
18060SOL    HW255794   6.237   8.892   3.968 -0.3233 -2.6633  0.1063
18061SOL     OW55795   2.907   5.177   1.862  0.6228  0.2523 -0.0516
18061SOL    HW155796   2.927   5.227   1.783  0.5885  0.4678  0.0749
18061SOL    HW255797   2.933   5.235   1.934 -0.5394  0.5778  0.1230
18062SOL     OW55798   7.067   4.911   5.896  0.1964 -0.1351  0.2394
18062SOL    HW155799   7.113   4.945   5.819  0.7066 -1.2608  0.0213
18062SOL    HW255800   7.124   4.841   5.929 -0.1364  0.1645  1.4988
18063SOL     OW55801   8.818   0.174   4.183  0.0334 -0.1174 -0.0464
18063SOL    HW155802   8.739   0.212   4.144 -1.5315 -0.4951  2.5112
18063SOL    HW255803   8.850   0.241   4.243  1.2074 -0.2813 -0.4752
18064SOL     OW55804   3.691   9.840   8.395 -0.1387 -0.8640 -0.2947
18064SOL    HW155805   3.722   9.931   8.400 -0.4981 -0.7606  0.2086
18064SOL    HW255806   3.729   9.798   8.472 -2.2004 -0.4218  1.0314
18065SOL     OW55807   6.331   8.162   9.277  0.3028  0.2626  0.0715
18065SOL    HW155808   6.370   8.098   9.337  3.2993  0.3389 -1.5681
18065SOL    HW255809   6.315   8.113   9.196 -2.7851  0.3807  0.4898
18066SOL     OW55810   4.711   4.182   6.052 -0.1856 -0.1437 -0.4065
18066SOL    HW155811   4.804   4.194   6.069  0.1917 -1.5755 -1.2610
18066SOL    HW255812   4.686   4.258   6.000  0.2862  0.6752  0.5283
18067SOL     OW55813   9.353   4.036   4.760 -0.5165 -0.3870  0.4586
18067SOL    HW155814   9.355   4.007   4.851 -0.6268  0.7135  0.8341
18067SOL    HW255815   9.260   4.049   4.741 -0.6530 -2.3921 -0.4302
18068SOL     OW55816   6.898   2.884   9.193 -0.2129 -0.1517 -0.3578
18068SOL    HW155817   6.977   2.866   9.142 -0.5937  0.5532 -1.2171
18068SOL    HW255818   6.876   2.800   9.233 -1.3353 -1.4096 -3.3736
18069SOL     OW55819   3.893   3.779   4.778  0.3909 -0.2585 -0.7102
18069SOL    HW155820   3.800   3.764   4.759  0.3104  0.1890 -0.6755
18069SOL    HW255821   3.897   3.869   4.810  0.8727 -0.1906 -0.9493
18070SOL     OW55822   6.875   9.659   6.325  0.0672  0.5683  0.3976
18070SOL    HW155823   6.897   9.566   6.316 -0.2329  0.6159 -1.1042
18070SOL    HW255824   6.899   9.697   6.241 -0.8307  1.6434  0.6089
18071SOL     OW55825   8.464   1.500   6.039  0.2579 -0.5478  0.2210
18071SOL    HW155826   8.509   1.551   5.971 -0.4232 -0.1486  0.0514
18071SOL    HW255827   8.476   1.409   6.012 -1.0702 -0.3554 -1.1561
18072SOL     OW55828   1.147   6.886   8.791  0.2559 -1.1720 -0.7947
18072SOL    HW155829   1.150   6.871   8.886  0.3163 -2.0995 -0.9362
18072SOL    HW255830   1.054   6.897   8.772  0.3048 -0.1252 -0.5137
18073SOL     OW55831   0.606   8.561   1.831 -0.6353  0.4567  0.3399
18073SOL    HW155832   0.578   8.625   1.765  0.3453  1.0458  0.4840
18073SOL    HW255833   0.553   8.583   1.908 -1.4337  0.0753 -0.0880
18074SOL     OW55834   6.012   1.292   2.047 -0.2378 -0.3989 -0.0412
18074SOL    HW155835   6.019   1.382   2.078  0.7424 -0.7477  0.8013
18074SOL    HW255836   5.945   1.253   2.104 -2.5832  0.4324 -2.0528
18075SOL     OW55837   6.509   5.934   3.764 -0.4900  0.2277  0.6009
18075SOL    HW155838   6.461   6.017   3.756  1.8097  1.5300 -0.5464
18075SOL    HW255839   6.540   5.933   3.855 -0.9377  0.3433  0.7624
18076SOL     OW55840   1.810   1.788   8.302 -0.2881  0.2098 -0.2152
18076SOL    HW155841   1.787   1.698   8.325  0.0671 -0.0907 -1.0026
18076SOL    HW255842   1.898   1.781   8.264 -0.0547  0.9561  0.1549
18077SOL     OW55843   6.083   0.301   9.122 -0.0777 -0.4300  0.5415
18077SOL    HW155844   5.992   0.319   9.146 -0.2194  0.2336 -0.4737
18077SOL    HW255845   6.129   0.384   9.136 -0.1837  0.0242 -1.5184
18078SOL     OW55846   4.805   1.175   8.807  0.4038  0.0428 -0.1967
18078SOL    HW155847   4.840   1.178   8.896 -0.8059 -0.7420  0.3423
18078SOL    HW255848   4.862   1.115   8.760  0.1036 -0.8409  0.5296
18079SOL     OW55849   2.149   0.387   5.185  0.0288 -0.2049 -0.2485
18079SOL    HW155850   2.074   0.442   5.166 -0.0497 -0.9625 -2.4094
18079SOL    HW255851   2.216   0.415   5.123  0.4677 -1.5465 -0.4101
18080SOL     OW55852   9.827   5.803   2.768 -0.3619  0.5697 -0.0486
18080SOL    HW155853   9.787   5.745   2.833  1.2053 -0.1275  0.3452
18080SOL    HW255854   9.897   5.750   2.729  1.3814  2.3138  0.6056
18081SOL     OW55855   2.443   1.711   3.116  0.2088 -0.2714 -0.4811
18081SOL    HW155856   2.530   1.729   3.153  0.7844  1.6989 -2.5665
18081SOL    HW255857   2.458   1.642   3.052  0.4412  0.6058 -1.4026
18082SOL     OW55858   1.669   5.690   0.582  0.2560 -0.2058  0.3114
18082SOL    HW155859   1.696   5.683   0.673  0.9852 -1.3408  0.0359
18082SOL    HW255860   1.604   5.621   0.570  0.1703 -0.0716 -0.0231
18083SOL     OW55861   4.716   1.729   7.295  0.0757  0.0425 -0.3006
18083SOL    HW155862   4.721   1.789   7.369 -0.6621  1.2802 -1.2224
18083SOL    HW255863   4.779   1.660   7.316 -0.3762  0.1756  1.6281
18084SOL     OW55864   4.289   9.267   9.065  0.3236  0.7472  0.1702
18084SOL    HW155865   4.267   9.196   9.004  1.2697  0.0445  0.6304
18084SOL    HW255866   4.362   9.312   9.023 -0.4995  1.6945 -0.2889
18085SOL     OW55867   0.317   8.040   8.710 -0.1791  0.3298  0.0127
18085SOL    HW155868   0.260   7.987   8.765  0.4003 -0.0397  0.2693
18085SOL    HW255869   0.273   8.125   8.703 -0.7819  0.0305  0.1535
18086SOL     OW55870   1.457   5.048   2.571 -0.0976 -0.3504  0.2778
18086SOL    HW155871   1.505   4.987   2.515 -1.2360 -0.8176 -0.2089
18086SOL    HW255872   1.368   5.014   2.573 -0.6956  1.1546  0.2188
18087SOL     OW55873   7.272   2.896   4.724 -0.1671 -0.5646 -0.4899
18087SOL    HW155874   7.193   2.852   4.756 -1.7412  0.8616 -2.2190
18087SOL    HW255875   7.242   2.980   4.691  2.4069  0.8889  0.5523
18088SOL     OW55876   8.167   2.782   9.694  0.3446 -0.2662 -0.9850
18088SOL    HW155877   8.115   2.804   9.771 -0.2119 -2.7523 -0.5764
18088SOL    HW255878   8.251   2.754   9.730  0.3559 -0.6827 -1.3335
18089SOL     OW55879   6.351   6.071   6.278  0.5069 -0.4482  0.1711
18089SOL    HW155880   6.368   5.976   6.281 -0.6681 -0.7377 -1.0976
18089SOL    HW255881   6.427   6.108   6.234  0.2339 -1.0479 -0.8525
18090SOL     OW55882   7.160   4.611   6.807  0.0590  0.0910  0.2022
18090SOL    HW155883   7.236   4.554   6.795 -1.1791 -1.2121 -2.0885
18090SOL    HW255884   7.162   4.634   6.900  3.1113 -0.0240  0.2750
18091SOL     OW55885   6.655   9.732   5.844 -0.8668 -0.7138  0.7308
18091SOL    HW155886   6.720   9.803   5.843  0.2196 -1.6781 -1.1104
18091SOL    HW255887   6.627   9.727   5.936 -1.3839  2.4135  0.8391
18092SOL     OW55888   5.329   7.217   9.186 -0.4312  0.6827 -0.5384
18092SOL    HW155889   5.391   7.165   9.237 -2.0146  0.1163  0.9158
18092SOL    HW255890   5.281   7.153   9.133 -1.3508  0.8019  0.1175
18093SOL     OW55891   3.478   3.181   7.966 -0.4888 -0.0548 -0.4707
18093SOL    HW155892   3.401   3.228   7.934  0.0966  0.0802 -1.7268
18093SOL    HW255893   3.458   3.163   8.058 -2.0079 -0.0056 -0.7635
18094SOL     OW55894   5.136   2.029   6.665  0.5854  0.7643 -0.0041
18094SOL    HW155895   5.079   1.959   6.634  0.3849  2.1195 -3.0125
18094SOL    HW255896   5.206   1.984   6.712  0.0066 -1.3771 -1.0739
18095SOL     OW55897   9.189   1.115   6.093 -0.8132  0.3381 -0.2719
18095SOL    HW155898   9.268   1.168   6.093 -0.7398  0.2373  0.2654
18095SOL    HW255899   9.121   1.172   6.056 -1.2007  1.5594  2.1231
18096SOL     OW55900   5.072   5.339   1.331 -0.1539  0.3826 -0.0909
18096SOL    HW155901   5.103   5.249   1.318  0.7100  0.2534  2.2530
18096SOL    HW255902   4.986   5.341   1.288  0.1640 -1.3072 -0.9002
18097SOL     OW55903   5.183   9.196   6.346  0.8624  0.8756  0.0168
18097SOL    HW155904   5.140   9.212   6.262  1.9757  0.8832 -0.5715
18097SOL    HW255905   5.197   9.101   6.348  0.4108  0.8163  0.4128
18098SOL     OW55906   3.026   7.346   5.315  0.6022 -0.1333  0.5782
18098SOL    HW155907   3.106   7.292   5.317 -0.0055 -1.1484 -0.9498
18098SOL    HW255908   3.053   7.428   5.356  1.9322 -1.0804  1.7580
18099SOL     OW55909   4.788   6.726   8.810 -0.2319 -0.0411  0.6660
18099SOL    HW155910   4.747   6.748   8.726 -1.6357  0.3357  1.4268
18099SOL    HW255911   4.820   6.810   8.843 -2.3984  0.3888  1.8871
18100SOL     OW55912   9.023   5.716   6.821  0.7337  0.6235 -0.3652
18100SOL    HW155913   9.111   5.688   6.796  2.6327  2.1685  3.6325
18100SOL    HW255914   8.995   5.651   6.886 -0.3157  1.0886 -0.3438
18101SOL     OW55915   1.587   1.778   4.168 -0.0460 -0.5084  0.3732
18101SOL    HW155916   1.552   1.768   4.257 -1.4351 -0.5676 -0.1567
18101SOL    HW255917   1.523   1.833   4.123 -0.0858 -1.6042 -0.9740
18102SOL     OW55918   5.599   8.438   1.999 -0.3494  0.0987 -0.6374
18102SOL    HW155919   5.577   8.528   1.975  0.4919 -0.1826 -2.6812
18102SOL    HW255920   5.516   8.391   1.996 -0.7134  0.6874 -0.0673
18103SOL     OW55921   5.655   3.416   8.973  0.3800 -0.2916  0.0126
18103SOL    HW155922   5.606   3.497   8.986  0.9039 -0.0981  0.9430
18103SOL    HW255923   5.589   3.347   8.969 -0.0648  0.1688 -0.7371
18104SOL     OW55924   0.200   3.462   5.253  0.6709  0.2564 -0.3909
18104SOL    HW155925   0.199   3.558   5.242 -0.7567  0.2551 -0.4133
18104SOL    HW255926   0.264   3.447   5.322 -0.3005  1.3751  0.8026
18105SOL     OW55927   0.746   7.060   1.041 -0.1525  0.1502  0.1800
18105SOL    HW155928   0.740   6.968   1.064  0.2019 -0.0691 -0.5833
18105SOL    HW255929   0.840   7.078   1.038 -0.2086  0.8573  1.5341
18106SOL     OW55930   7.228   4.535   4.128 -0.0135 -0.4244 -0.4854
18106SOL    HW155931   7.305   4.481   4.110  1.0899 -0.2818  2.9657
18106SOL    HW255932   7.176   4.484   4.189 -0.2772  1.2909  0.8139
18107SOL     OW55933   6.568   5.600   5.277 -0.0612  0.1495  0.1074
18107SOL    HW155934   6.557   5.512   5.313 -0.9402 -0.1307 -0.7837
18107SOL    HW255935   6.655   5.626   5.304 -0.8055  0.1496  2.8057
18108SOL     OW55936   9.309   0.123   5.951 -0.0313  0.0840 -0.3956
18108SOL    HW155937   9.352   0.054   6.001  2.3212  1.6598 -0.0984
18108SOL    HW255938   9.216   0.111   5.970  0.1876 -3.2181 -0.7161
18109SOL     OW55939   7.342   7.573   7.091  0.1505 -0.2273  0.4028
18109SOL    HW155940   7.308   7.583   7.179 -0.8621 -0.9805  0.1079
18109SOL    HW255941   7.335   7.661   7.053 -1.4397 -0.3368  0.3720
18110SOL     OW55942   8.999   8.955   9.470 -0.0417 -0.2794 -0.0171
18110SOL    HW155943   9.087   8.967   9.435  0.5856  1.4071  1.9011
18110SOL    HW255944   8.993   8.861   9.489  1.7205 -0.2953  0.6521
18111SOL     OW55945   8.100   5.350   5.519 -0.5245  0.3894 -0.2870
18111SOL    HW155946   8.023   5.295   5.504  0.3024 -0.1545 -3.2012
18111SOL    HW255947   8.129   5.326   5.607 -1.3699 -2.4088 -0.6511
18112SOL     OW55948   5.612   8.968   4.863  0.2988  0.1080  0.1591
18112SOL    HW155949   5.530   9.014   4.881  0.7072  1.6739 -1.6066
18112SOL    HW255950   5.679   9.023   4.903  0.5582 -0.6450  0.7566
18113SOL     OW55951   1.210   7.601   5.345 -0.2886 -0.1850  0.1767
18113SOL    HW155952   1.139   7.665   5.351 -0.4838 -0.2528 -1.1214
18113SOL    HW255953   1.246   7.613   5.257  1.1914 -0.2895  0.7380
18114SOL     OW55954   2.344   5.645   3.781  0.1616  0.1655  0.0793
18114SOL    HW155955   2.415   5.613   3.724  0.4553  2.0737 -0.6989
18114SOL    HW255956   2.268   5.651   3.724 -0.0940  0.0905  0.4089
18115SOL     OW55957   7.025   0.762   3.939 -0.2841  0.4116  0.2647
18115SOL    HW155958   7.098   0.817   3.967 -0.3822  0.7989 -0.2116
18115SOL    HW255959   6.958   0.824   3.912 -0.9232  0.0604  1.0182
18116SOL     OW55960   8.045   0.464   7.588 -0.4886  0.7340 -0.7463
18116SOL    HW155961   8.073   0.516   7.662  0.2976 -0.5578 -0.0949
18116SOL    HW255962   8.090   0.502   7.513  0.1717  0.9216 -0.2624
18117SOL     OW55963   0.457   0.734   7.570  0.0707  0.1748  0.1231
18117SOL    HW155964   0.384   0.795   7.566  1.5072  1.9117 -1.0496
18117SOL    HW255965   0.508   0.761   7.646  0.5948  0.3149 -0.2695
18118SOL     OW55966   5.148   0.420   4.196 -0.3829 -0.1998  0.7006
18118SOL    HW155967   5.225   0.377   4.231  1.1068  0.9328 -1.0088
18118SOL    HW255968   5.138   0.384   4.108 -0.7574  0.9021  0.2720
18119SOL     OW55969   7.538   6.315   3.787 -0.0207 -0.0427 -0.9031
18119SOL    HW155970   7.489   6.292   3.866 -0.5098  2.3708 -0.4126
18119SOL    HW255971   7.505   6.256   3.720 -0.8313 -1.0012  0.2952
18120SOL     OW55972   5.729   7.083   1.730  0.4215  0.1462 -0.4227
18120SOL    HW155973   5.748   7.070   1.637  1.0774 -0.1427 -0.2562
18120SOL    HW255974   5.809   7.121   1.766 -0.0635  0.8669 -0.0993
18121SOL     OW55975   1.792   9.531   0.537  0.2357  0.1060  0.1066
18121SOL    HW155976   1.851   9.607   0.540  0.4400 -0.0692  0.6473
18121SOL    HW255977   1.835   9.466   0.593  0.2456 -0.5400 -0.6352
18122SOL     OW55978   2.148   2.656   2.279  0.2162 -0.0866 -0.4707
18122SOL    HW155979   2.120   2.743   2.308 -0.5962 -0.8322  1.0986
18122SOL    HW255980   2.174   2.668   2.188  1.2746  2.0486  0.0489
18123SOL     OW55981   3.493   0.576   8.798 -0.1621 -0.2123  0.3522
18123SOL    HW155982   3.511   0.523   8.875 -0.1773  1.5321  1.6192
18123SOL    HW255983   3.420   0.632   8.823  0.7954  1.4510 -0.3455
18124SOL     OW55984   8.509   1.172   0.513  0.5143 -0.4229  0.0817
18124SOL    HW155985   8.527   1.217   0.596  0.2638  0.2017 -0.2040
18124SOL    HW255986   8.415   1.183   0.500 -0.3853 -4.1429  1.8573
18125SOL     OW55987   7.805   2.376   0.864 -0.3280  0.3837  0.7448
18125SOL    HW155988   7.857   2.302   0.832 -0.4062  0.5994  0.1138
18125SOL    HW255989   7.731   2.335   0.910 -0.8610  0.0472 -0.3765
18126SOL     OW55990   8.115   5.912   8.833 -0.1013  0.4406  0.3000
18126SOL    HW155991   8.022   5.891   8.825 -0.0258 -0.7488  2.0603
18126SOL    HW255992   8.128   5.930   8.926  1.5806 -0.2695  0.2376
18127SOL     OW55993   7.775   1.417   8.866 -0.3905 -0.2451 -0.1457
18127SOL    HW155994   7.734   1.335   8.894 -1.3331  0.5009  0.7706
18127SOL    HW255995   7.724   1.444   8.789  1.4711 -1.7101 -2.0051
18128SOL     OW55996   8.262   7.683   8.174  0.3125 -0.0583  0.1995
18128SOL    HW155997   8.224   7.610   8.126  0.3902  0.7528 -1.1512
18128SOL    HW255998   8.334   7.645   8.224  0.8781 -0.7789 -1.1249
18129SOL     OW55999   4.986   6.688   7.368  0.2060 -0.1656  0.4175
18129SOL    HW156000   4.928   6.660   7.298  2.3498 -2.5588 -0.5620
18129SOL    HW256001   4.972   6.624   7.438 -0.3294  0.9080  1.3198
18130SOL     OW56002   9.159   0.784   0.209  0.0755 -0.4915  0.2502
18130SOL    HW156003   9.085   0.731   0.239  0.4868 -0.4842  1.3334
18130SOL    HW256004   9.125   0.833   0.134 -0.8632 -0.8641  0.4153
18131SOL     OW56005   2.780   0.679   4.660  0.2896 -0.0059  0.5069
18131SOL    HW156006   2.866   0.720   4.666 -0.2053  1.1639 -0.1352
18131SOL    HW256007   2.723   0.736   4.710 -0.9753  1.7741 -2.6664
18132SOL     OW56008   6.567   5.811   4.380 -0.1906  0.1653 -0.4797
18132SOL    HW156009   6.605   5.774   4.301 -0.2290  1.0959 -0.9478
18132SOL    HW256010   6.493   5.864   4.350 -0.5648  0.0684  0.2305
18133SOL     OW56011   5.701   7.241   8.782  0.9689  0.5665 -0.0497
18133SOL    HW156012   5.719   7.200   8.867  0.9134 -1.0678 -0.7944
18133SOL    HW256013   5.637   7.183   8.741  0.2284  1.8826 -0.8137
18134SOL     OW56014   1.302   9.474   4.262  0.0914  0.2265  0.1508
18134SOL    HW156015   1.246   9.466   4.185  1.6929  0.9134 -1.1607
18134SOL    HW256016   1.310   9.569   4.276  0.0566  0.1131  0.9849
18135SOL     OW56017   7.440   4.001   6.514 -0.7448  0.2454  0.6563
18135SOL    HW156018   7.528   3.979   6.546 -1.1298 -1.7275  0.4868
18135SOL    HW256019   7.454   4.070   6.450  0.3132  2.4005  3.0457
18136SOL     OW56020   1.077   6.599   8.236 -0.6379  0.5789  0.5391
18136SOL    HW156021   1.111   6.569   8.152 -0.1739  1.1829  0.5029
18136SOL    HW256022   1.072   6.520   8.289 -0.4426  0.2706  0.1075
18137SOL     OW56023   6.504   3.437   4.792  0.1819  0.4109  0.1266
18137SOL    HW156024   6.460   3.521   4.774 -0.8762  0.1731  1.4632
18137SOL    HW256025   6.452   3.373   4.744 -1.7195 -0.0187  2.5559
18138SOL     OW56026   4.557   6.441   8.619 -0.3366  0.0851 -0.0532
18138SOL    HW156027   4.587   6.532   8.607  0.1331  0.2849  2.1796
18138SOL    HW256028   4.482   6.449   8.678  1.0982 -1.0902  2.0320
18139SOL     OW56029   3.992   4.850   6.995 -0.2176 -0.1201  0.0288
18139SOL    HW156030   4.045   4.928   6.977  1.8734 -1.1704  1.2283
18139SOL    HW256031   4.012   4.790   6.923 -2.0275  0.4701 -1.0384
18140SOL     OW56032   7.799   1.603   6.597  0.1880  0.0649 -0.0226
18140SOL    HW156033   7.723   1.652   6.566  0.0838  0.2541  0.5136
18140SOL    HW256034   7.833   1.559   6.519  1.5567  2.6378 -1.0263
18141SOL     OW56035   9.163   5.757   6.154 -0.0485  0.0656 -0.6783
18141SOL    HW156036   9.229   5.765   6.086  0.1994 -0.9611 -0.5704
18141SOL    HW256037   9.087   5.720   6.110 -0.9013  2.0731 -1.0008
18142SOL     OW56038   3.270   2.367   4.635 -0.9214  0.2031  0.0373
18142SOL    HW156039   3.259   2.440   4.697  2.5321  0.8524  0.0639
18142SOL    HW256040   3.296   2.409   4.553  0.5064 -0.9132 -0.1187
18143SOL     OW56041   4.810   7.067   4.428  0.1382  1.0295 -0.4091
18143SOL    HW156042   4.782   6.980   4.399 -0.8960  0.6958  1.4209
18143SOL    HW256043   4.834   7.055   4.520  2.0149  2.2787 -0.6823
18144SOL     OW56044   4.148   6.210   9.558  0.3341 -0.5478  0.9635
18144SOL    HW156045   4.061   6.242   9.582  0.4601  1.0333 -0.4741
18144SOL    HW256046   4.134   6.162   9.476  0.9985  1.1933 -0.2270
18145SOL     OW56047   9.017   0.938   0.018 -0.1157 -0.5372 -0.2258
18145SOL    HW156048   8.977   1.010  -0.032  0.4247  0.6207  0.9559
18145SOL    HW256049   8.957   0.925   0.091  2.3273  2.4710  2.6329
18146SOL     OW56050   8.037   6.184   8.069  0.1502  0.1731  0.1787
18146SOL    HW156051   8.023   6.105   8.122 -1.7520  0.6122  0.4240
18146SOL    HW256052   8.132   6.196   8.068  0.6390 -2.8166 -0.9358
18147SOL     OW56053   5.742   2.972   1.754  0.3742 -0.4827  0.5191
18147SOL    HW156054   5.773   2.898   1.702 -0.3040 -0.4996  0.1313
18147SOL    HW256055   5.784   3.049   1.715  0.8339 -0.6251  0.7273
18148SOL     OW56056   2.988   9.032   5.949  0.0792  0.5303  0.8860
18148SOL    HW156057   3.076   9.037   5.912 -1.2066  2.0576 -2.3633
18148SOL    HW256058   2.969   8.938   5.953  0.2632  0.2045 -2.8458
18149SOL     OW56059   7.363   6.409   3.556  0.3537  0.4052 -0.4788
18149SOL    HW156060   7.312   6.339   3.514 -0.7409 -0.0756  1.5263
18149SOL    HW256061   7.439   6.420   3.499 -0.5153 -0.9391 -1.9873
18150SOL     OW56062   7.246   0.352   7.965 -0.1642  0.4003  0.0514
18150SOL    HW156063   7.189   0.429   7.971 -0.5954  0.3221 -2.0803
18150SOL    HW256064   7.335   0.388   7.967 -0.3444  0.8455  0.2459
18151SOL     OW56065   1.797   3.925   5.231 -0.1894  0.1165  0.0697
18151SOL    HW156066   1.796   3.867   5.308 -0.0800  0.5258  0.3870
18151SOL    HW256067   1.843   4.003   5.262  0.0845  0.1796 -0.4944
18152SOL     OW56068   7.475   4.539   9.580 -0.3815  0.1685 -0.2675
18152SOL    HW156069   7.400   4.489   9.610  1.3370 -1.8835  0.8966
18152SOL    HW256070   7.465   4.625   9.622 -1.1622 -0.6646  1.3286
18153SOL     OW56071   8.456   3.298   0.893  0.5796  0.1897  0.0383
18153SOL    HW156072   8.367   3.335   0.888 -0.9777 -3.0867  1.0235
18153SOL    HW256073   8.469   3.279   0.985  1.2255 -1.6488 -0.3858
18154SOL     OW56074   1.863   0.047   3.182 -0.2548 -0.1428 -0.7163
18154SOL    HW156075   1.889  -0.015   3.115 -0.4364 -0.0908 -0.8382
18154SOL    HW256076   1.941   0.060   3.236 -0.8811 -2.4491  0.9058
18155SOL     OW56077   5.589   7.848   0.476 -0.0926  0.2106 -0.3148
18155SOL    HW156078   5.660   7.892   0.430  0.1413  0.9039  0.6775
18155SOL    HW256079   5.564   7.909   0.546 -1.9097  0.1420 -0.8561
18156SOL     OW56080   1.256   9.079   4.191 -0.1239 -0.1719 -0.4285
18156SOL    HW156081   1.197   9.153   4.178 -1.0123 -0.8379 -0.3568
18156SOL    HW256082   1.342   9.111   4.164 -0.5391  0.7891 -0.6598
18157SOL     OW56083   5.720   7.095   6.100  0.0072 -0.3786 -0.1657
18157SOL    HW156084   5.702   7.140   6.017  2.1294  1.0434  0.0523
18157SOL    HW256085   5.707   7.162   6.167  2.6323 -0.1350  0.2188
18158SOL     OW56086   7.849   4.826   2.414  0.3296 -0.2116 -0.2294
18158SOL    HW156087   7.768   4.775   2.411  0.1374  0.0932 -0.2755
18158SOL    HW256088   7.828   4.900   2.470  0.7837 -0.4811  0.3130
18159SOL     OW56089   5.023   9.766   1.293  0.4193  0.5602 -0.0593
18159SOL    HW156090   5.016   9.763   1.389  0.9036 -0.9030 -0.0508
18159SOL    HW256091   5.117   9.772   1.276  0.3633  0.3154 -0.4559
18160SOL     OW56092   0.884   1.262   7.542 -0.6911  0.1865 -0.0812
18160SOL    HW156093   0.797   1.251   7.504 -0.0852 -0.4341 -1.3656
18160SOL    HW256094   0.944   1.235   7.472  0.4796 -1.2711  1.4269
18161SOL     OW56095   6.011   0.322   5.932 -0.3580 -0.6871 -0.2671
18161SOL    HW156096   6.090   0.293   5.886 -1.4570  0.2741 -3.0120
18161SOL    HW256097   5.957   0.243   5.939 -0.8831 -0.5804 -2.3482
18162SOL     OW56098   6.847   7.405   4.406 -0.0085 -0.8364  0.3527
18162SOL    HW156099   6.791   7.345   4.456 -0.2287 -0.6087  0.3781
18162SOL    HW256100   6.922   7.421   4.463  0.1394 -1.2251  0.2760
18163SOL     OW56101   4.984   9.531   3.523 -0.0175  0.7746 -0.3723
18163SOL    HW156102   5.027   9.513   3.440 -2.8665 -0.2618 -1.7819
18163SOL    HW256103   4.930   9.609   3.506 -1.3426  0.0195  0.1691
18164SOL     OW56104   3.603   7.912   6.163 -0.0350  0.8792 -0.0671
18164SOL    HW156105   3.555   7.839   6.125  0.0600  0.6359  0.2739
18164SOL    HW256106   3.654   7.873   6.234 -1.6785  1.6103  1.6041
18165SOL     OW56107   7.388   3.932   3.960 -0.1059 -0.6935  0.0435
18165SOL    HW156108   7.358   3.916   3.871 -1.2375  0.6973  0.1516
18165SOL    HW256109   7.477   3.966   3.950 -1.3598  2.7198 -0.8721
18166SOL     OW56110   9.625   7.803   0.525  0.2773  0.0383 -0.3030
18166SOL    HW156111   9.546   7.857   0.515 -0.0934  0.0721  2.2834
18166SOL    HW256112   9.683   7.855   0.581  1.0858 -1.0564 -0.0930
18167SOL     OW56113   4.324   5.158   1.405 -0.1775  0.3207 -0.3863
18167SOL    HW156114   4.335   5.225   1.473  1.3389 -0.5727  0.3261
18167SOL    HW256115   4.295   5.205   1.328 -1.7313  1.4100  0.8080
18168SOL     OW56116   7.302   1.672   8.593 -0.3194 -0.5496 -0.0424
18168SOL    HW156117   7.339   1.695   8.507 -2.1130  0.4199 -0.6022
18168SOL    HW256118   7.378   1.669   8.651  0.6527  1.5737 -1.0898
18169SOL     OW56119   0.602   0.371   2.388 -0.0768 -0.4921  0.2722
18169SOL    HW156120   0.681   0.425   2.391 -0.3502 -0.0826  0.2862
18169SOL    HW256121   0.556   0.400   2.309 -1.4812  1.1186  1.5922
18170SOL     OW56122   8.986   3.364   2.268 -0.1711 -0.3254  0.6895
18170SOL    HW156123   8.954   3.385   2.180 -2.7867 -1.1429  1.3526
18170SOL    HW256124   9.071   3.408   2.274 -0.7346  1.2540 -1.5916
18171SOL     OW56125   9.330   8.335   0.164 -0.2326 -0.7025  0.0376
18171SOL    HW156126   9.397   8.289   0.215  0.1231 -0.4642 -0.2098
18171SOL    HW256127   9.269   8.267   0.136  0.7514 -1.1513 -1.0451
18172SOL     OW56128   1.545   7.116   0.307 -0.1751  0.0001  0.0587
18172SOL    HW156129   1.547   7.201   0.351  0.5187  0.0644 -0.0836
18172SOL    HW256130   1.456   7.085   0.319 -0.1043  0.1990  1.1444
18173SOL     OW56131   8.768   4.416   8.608  0.0414  0.2847  0.1397
18173SOL    HW156132   8.756   4.338   8.554 -0.0004 -0.1505  0.7765
18173SOL    HW256133   8.783   4.486   8.544  0.6246 -0.3320 -0.4150
18174SOL     OW56134   3.194   1.736   1.768  0.2988 -0.2008  0.4349
18174SOL    HW156135   3.105   1.702   1.773  0.9494 -2.1409 -0.1154
18174SOL    HW256136   3.185   1.831   1.781 -1.8913 -0.2643 -0.2363
18175SOL     OW56137   5.863   4.885   1.531  0.1972 -0.2401 -0.3589
18175SOL    HW156138   5.777   4.900   1.571 -0.0097  1.5264 -1.3798
18175SOL    HW256139   5.919   4.861   1.604 -0.5763  1.1670  0.7455
18176SOL     OW56140   2.183   9.135   0.479  0.1377 -0.4250 -0.0446
18176SOL    HW156141   2.152   9.108   0.566  0.5037 -0.8205 -0.0335
18176SOL    HW256142   2.236   9.061   0.449  1.9389  0.6309  0.3737
18177SOL     OW56143   5.700   2.158   8.284 -0.3694 -0.1566 -0.2255
18177SOL    HW156144   5.682   2.242   8.243  0.3608  1.0945  1.8728
18177SOL    HW256145   5.787   2.133   8.250 -0.6942 -0.2041 -1.0363
18178SOL     OW56146   5.447   0.213   9.052  0.4597 -0.5619  0.6713
18178SOL    HW156147   5.522   0.255   9.009 -0.8132  0.1256 -0.9726
18178SOL    HW256148   5.437   0.129   9.007 -0.6022 -0.0343 -0.1253
18179SOL     OW56149   3.361   4.098   2.977 -0.0019 -0.3391 -0.0568
18179SOL    HW156150   3.274   4.060   2.989 -0.1811  0.1591  0.2345
18179SOL    HW256151   3.348   4.168   2.913 -0.0523  0.5135  0.8498
18180SOL     OW56152   6.278   6.552   9.791 -0.4219  0.1656  0.5500
18180SOL    HW156153   6.191   6.513   9.785 -0.6359  0.7044  0.0036
18180SOL    HW256154   6.288   6.601   9.710  0.1160  0.6752  0.9126
18181SOL     OW56155   0.708   0.366   3.988  0.8425  0.3206  0.1054
18181SOL    HW156156   0.687   0.455   3.960  1.1610  0.0491 -1.0136
18181SOL    HW256157   0.666   0.358   4.074 -1.3760  0.7070 -0.8624
18182SOL     OW56158   4.997   5.808   2.680  0.1208 -0.1079  0.1998
18182SOL    HW156159   5.081   5.843   2.652 -0.4326  0.9345 -0.2175
18182SOL    HW256160   4.948   5.795   2.598 -0.0702 -0.8361  0.4273
18183SOL     OW56161   3.212   4.456   7.095 -0.1010  0.1135  0.3239
18183SOL    HW156162   3.174   4.384   7.145 -2.7399  2.2911  1.7546
18183SOL    HW256163   3.149   4.474   7.026 -0.2467  1.9030  0.8670
18184SOL     OW56164   0.184   9.394   5.874 -0.2454  0.1130 -0.0422
18184SOL    HW156165   0.157   9.371   5.785  1.9380  0.6152 -0.8980
18184SOL    HW256166   0.270   9.353   5.885 -0.3985  0.1846  1.7913
18185SOL     OW56167   4.760   6.839   3.238 -0.1595 -0.0546 -0.6794
18185SOL    HW156168   4.728   6.758   3.199  1.9706 -1.3424  0.0985
18185SOL    HW256169   4.716   6.842   3.323 -1.2679  0.3447 -1.2449
18186SOL     OW56170   4.246   1.434   1.882 -0.0493  0.8977 -0.2342
18186SOL    HW156171   4.247   1.413   1.789 -1.3305 -1.1853  0.1525
18186SOL    HW256172   4.331   1.406   1.914 -0.9171 -1.9393 -0.1625
18187SOL     OW56173   3.959   2.403   3.062 -0.3774 -0.1105  0.6342
18187SOL    HW156174   3.887   2.456   3.030  0.0664  0.6652  0.8802
18187SOL    HW256175   4.025   2.467   3.090  0.2927 -0.7968  0.6615
18188SOL     OW56176   0.632   2.037   2.525  0.7613  0.0197 -0.0018
18188SOL    HW156177   0.690   2.093   2.577 -1.4338  3.2055 -0.6810
18188SOL    HW256178   0.635   2.075   2.437 -0.8807 -0.8974 -0.4879
18189SOL     OW56179   7.241   7.864   3.544 -0.2267  0.2337  0.3556
18189SOL    HW156180   7.190   7.900   3.471  0.4922  0.4171 -0.0648
18189SOL    HW256181   7.314   7.819   3.502  1.1247  1.7542  0.9851
18190SOL     OW56182   2.991   7.723   0.134  0.8118 -0.2374 -0.0390
18190SOL    HW156183   3.069   7.778   0.129  1.1866 -0.5528  1.6949
18190SOL    HW256184   2.992   7.687   0.223  0.1560 -2.4114 -0.8366
18191SOL     OW56185   2.355   6.003   0.384  0.5357 -0.2104  0.0688
18191SOL    HW156186   2.444   6.010   0.349  0.4432 -0.6551 -0.2680
18191SOL    HW256187   2.323   6.093   0.385  0.4613 -0.2056 -1.2158
18192SOL     OW56188   0.837   2.769   5.906 -0.2698  0.0028 -0.0387
18192SOL    HW156189   0.798   2.729   5.829 -0.1014  1.3002 -0.8292
18192SOL    HW256190   0.770   2.828   5.940  0.0972  0.3655  0.0694
18193SOL     OW56191   1.478   0.110   6.237  0.2432 -0.6227 -0.2998
18193SOL    HW156192   1.410   0.062   6.284  0.1733 -1.2254 -0.9905
18193SOL    HW256193   1.560   0.070   6.266  0.1681 -1.4041 -1.1131
18194SOL     OW56194   6.339   2.985   6.121  0.4474  0.4597 -0.0293
18194SOL    HW156195   6.363   2.901   6.083  0.6707  1.1040 -1.3484
18194SOL    HW256196   6.379   2.984   6.208  0.9385 -0.5502 -0.2548
18195SOL     OW56197   8.544   7.826   2.255 -0.1963 -0.1681  0.3120
18195SOL    HW156198   8.462   7.786   2.286  0.3183 -0.3763  1.4498
18195SOL    HW256199   8.598   7.833   2.333  0.0714  1.9966 -0.0184
18196SOL     OW56200   9.186   8.245   5.157 -0.1992 -0.1031  0.2558
18196SOL    HW156201   9.130   8.276   5.228  0.4033  0.1384  0.6315
18196SOL    HW256202   9.152   8.288   5.079  1.0789  2.1765  0.8691
18197SOL     OW56203   2.090   2.788   8.956 -0.2749 -0.0128  0.3296
18197SOL    HW156204   2.012   2.767   9.007 -0.6743 -0.6988 -0.5383
18197SOL    HW256205   2.163   2.755   9.010 -0.7933 -2.4291 -0.3033
18198SOL     OW56206   2.473   6.052   8.797 -0.4377  0.6946 -0.1436
18198SOL    HW156207   2.535   6.116   8.761 -0.3912  0.0105 -1.3535
18198SOL    HW256208   2.521   5.969   8.797 -0.6473  0.5565  0.9737
18199SOL     OW56209   9.542   8.925   3.605 -0.3059 -0.1424  0.2102
18199SOL    HW156210   9.637   8.916   3.608 -0.3792 -0.6815  1.5332
18199SOL    HW256211   9.527   9.016   3.582  0.5511  0.2582  1.1682
18200SOL     OW56212   7.815   5.340   8.181 -0.2924 -0.1696  0.3170
18200SOL    HW156213   7.742   5.331   8.242 -2.0957 -0.8905 -1.8299
18200SOL    HW256214   7.878   5.273   8.210 -0.8089 -0.0926  1.7150
18201SOL     OW56215   8.413   9.435   5.274  0.5274  0.2312  0.4711
18201SOL    HW156216   8.474   9.419   5.202 -0.0120 -0.2975  0.1126
18201SOL    HW256217   8.339   9.479   5.233 -0.1172 -0.7431  0.5375
18202SOL     OW56218   2.712   1.313   3.839  0.3354  0.2047  0.0108
18202SOL    HW156219   2.727   1.218   3.836  1.5238  0.4125 -1.7243
18202SOL    HW256220   2.631   1.322   3.889  0.0012 -1.7443 -0.0853
18203SOL     OW56221   2.287   3.814   5.862  0.5125 -0.3353 -0.7410
18203SOL    HW156222   2.326   3.902   5.868  2.1682 -1.0975  0.7175
18203SOL    HW256223   2.198   3.826   5.897  1.0632  0.5981  0.4444
18204SOL     OW56224   8.103   2.921   0.424 -0.2506  0.0759  0.0209
18204SOL    HW156225   8.110   2.942   0.517 -0.1376 -0.2049  0.0767
18204SOL    HW256226   8.176   2.861   0.408 -1.5828 -1.6996  0.2713
18205SOL     OW56227   5.008   0.446   1.535 -0.2082  0.7478  0.1699
18205SOL    HW156228   5.072   0.409   1.475 -0.5204  0.9971 -0.3264
18205SOL    HW256229   4.994   0.378   1.601 -0.8114 -0.0555 -0.7508
18206SOL     OW56230   6.184   8.535   2.201  0.1438 -0.2335  0.5384
18206SOL    HW156231   6.196   8.441   2.188  0.5177  0.1982 -3.7880
18206SOL    HW256232   6.091   8.550   2.181  0.8854  0.6308 -2.7977
18207SOL     OW56233   5.530   1.510   1.619 -0.4126  0.1577 -0.4611
18207SOL    HW156234   5.546   1.427   1.665 -1.4113  0.0303 -0.3302
18207SOL    HW256235   5.550   1.490   1.527 -2.5253 -0.8053 -0.7576
18208SOL     OW56236   7.320   4.857   3.445 -0.2422 -0.0593  0.7401
18208SOL    HW156237   7.406   4.822   3.468 -0.2617 -0.3127  0.4380
18208SOL    HW256238   7.340   4.938   3.398 -0.1544 -0.3246  0.3179
18209SOL     OW56239   4.256   1.096   9.286 -0.3228 -0.7700 -0.3260
18209SOL    HW156240   4.337   1.105   9.236 -1.3806 -0.0867 -1.9942
18209SOL    HW256241   4.242   1.001   9.293  0.3370 -0.8807 -0.4731
18210SOL     OW56242   8.306   9.112   8.765 -0.1748 -0.0054 -0.1424
18210SOL    HW156243   8.325   9.185   8.706  0.5457 -0.2446 -0.2126
18210SOL    HW256244   8.225   9.138   8.810 -1.3745 -0.3080 -2.0239
18211SOL     OW56245   4.906   0.246   3.821 -0.2976  0.2622  0.2146
18211SOL    HW156246   4.894   0.310   3.751 -0.1858  0.6423  0.5411
18211SOL    HW256247   4.909   0.161   3.776 -2.2834  0.2950 -0.0777
18212SOL     OW56248   5.396   2.525   1.743 -0.0159  0.5232  0.7454
18212SOL    HW156249   5.383   2.483   1.657 -1.1059  0.5782  0.8621
18212SOL    HW256250   5.449   2.463   1.792  0.9983  0.6823 -0.1022
18213SOL     OW56251   3.141   5.026   4.965 -0.0547 -0.4815 -0.0790
18213SOL    HW156252   3.162   4.937   4.937  0.3217 -0.4971  0.2459
18213SOL    HW256253   3.193   5.039   5.044  1.4142  0.7253 -1.1942
18214SOL     OW56254   2.343   1.681   2.610 -0.0276 -0.0377 -0.0412
18214SOL    HW156255   2.316   1.684   2.702 -1.7990 -0.8354 -0.4974
18214SOL    HW256256   2.269   1.719   2.562  1.6056  2.0907 -1.0361
18215SOL     OW56257   3.098   3.690   0.289  0.1218  0.2145 -0.0495
18215SOL    HW156258   3.181   3.649   0.266  0.7674  0.5187  1.5647
18215SOL    HW256259   3.083   3.664   0.380 -0.9668  1.1200  0.0559
18216SOL     OW56260   1.179   7.689   1.121  0.2789 -0.0652  0.3209
18216SOL    HW156261   1.263   7.678   1.166 -0.1205  0.6207  1.2540
18216SOL    HW256262   1.187   7.773   1.076  0.7742 -0.8558 -1.1730
18217SOL     OW56263   5.595   9.528   5.152 -0.0987  0.4650  0.0518
18217SOL    HW156264   5.613   9.506   5.244 -0.7393  0.7978  0.2603
18217SOL    HW256265   5.527   9.466   5.126  0.8798 -0.3812 -0.5473
18218SOL     OW56266   3.891   3.590   6.178  0.1032  0.0769  0.2799
18218SOL    HW156267   3.871   3.682   6.162  0.2499 -0.1335 -1.3167
18218SOL    HW256268   3.928   3.559   6.095 -1.9989 -1.9887  0.0154
18219SOL     OW56269   8.669   6.025   2.230 -0.2434  0.4037  0.0172
18219SOL    HW156270   8.706   6.105   2.193  0.1043 -0.5110 -1.7339
18219SOL    HW256271   8.648   5.971   2.153 -2.2220 -0.4302  1.0632
18220SOL     OW56272   7.534   2.410   0.971  0.6730 -0.0663  0.2009
18220SOL    HW156273   7.528   2.495   0.927  0.8379 -0.8426 -1.4193
18220SOL    HW256274   7.443   2.387   0.991  0.5268  0.0446 -0.3017
18221SOL     OW56275   0.315   1.554   3.811 -0.3244  0.0999 -0.2461
18221SOL    HW156276   0.342   1.640   3.842 -2.6162  1.2359 -1.1918
18221SOL    HW256277   0.376   1.533   3.741 -0.6303  1.6997 -1.0413
18222SOL     OW56278   2.624   6.378   0.952 -0.0721 -0.1510 -0.0978
18222SOL    HW156279   2.552   6.338   0.904  0.0051  0.2071 -0.5120
18222SOL    HW256280   2.697   6.317   0.940  0.4551  0.7833 -1.9259
18223SOL     OW56281   7.457   1.859   4.072  0.1968 -0.3691  0.7104
18223SOL    HW156282   7.371   1.892   4.097  0.0972  0.4071 -0.5544
18223SOL    HW256283   7.515   1.935   4.079  0.0631  0.0418 -1.7472
18224SOL     OW56284   7.111   3.671   8.732  0.2407  0.3220 -0.0412
18224SOL    HW156285   7.133   3.715   8.814  0.6170  1.5011 -0.7498
18224SOL    HW256286   7.037   3.615   8.755  2.8144 -2.5638  2.0500
18225SOL     OW56287   7.146   0.133   9.791 -0.1843 -0.0279  0.0891
18225SOL    HW156288   7.079   0.070   9.767  0.6139 -0.8824  0.0196
18225SOL    HW256289   7.132   0.207   9.732 -1.1046 -0.1575  0.1369
18226SOL     OW56290   2.128   1.887   9.415 -0.3813  0.3179  0.6140
18226SOL    HW156291   2.164   1.801   9.397  1.1632  1.3599 -1.9444
18226SOL    HW256292   2.036   1.871   9.437 -0.1008 -1.9698  0.3376
18227SOL     OW56293   9.392   0.308   6.329  0.3213  0.7576  0.1505
18227SOL    HW156294   9.430   0.396   6.329  0.4938  0.6846 -0.0957
18227SOL    HW256295   9.453   0.255   6.380  0.0734  0.8408  0.5334
18228SOL     OW56296   7.850   9.469   5.346  0.1245  0.6219  0.2512
18228SOL    HW156297   7.812   9.382   5.332  0.5669  0.4934 -0.1382
18228SOL    HW256298   7.775   9.522   5.375 -0.3265  0.3285 -0.3443
18229SOL     OW56299   9.256   7.278   2.256 -0.4238  0.2184 -0.5313
18229SOL    HW156300   9.191   7.254   2.322 -0.1370 -1.3280 -0.7937
18229SOL    HW256301   9.264   7.373   2.266 -1.9650  0.3169  0.1946
18230SOL     OW56302   8.063   8.965   0.103 -0.3618  0.4038  0.5146
18230SOL    HW156303   7.977   8.924   0.102  0.0085 -0.4479  1.5692
18230SOL    HW256304   8.100   8.940   0.188  0.6498  1.3316  0.3676
18231SOL     OW56305   4.888   2.352   3.658 -0.0938 -0.0401  0.4026
18231SOL    HW156306   4.828   2.291   3.701 -0.1677  0.0217  0.3873
18231SOL    HW256307   4.973   2.310   3.665  0.2457  0.9061  2.3986
18232SOL     OW56308   2.328   8.421   7.821 -0.4649  0.0520 -0.7009
18232SOL    HW156309   2.323   8.470   7.740  1.3806 -0.8218 -1.4147
18232SOL    HW256310   2.269   8.347   7.809  0.9756 -0.9650 -1.9741
18233SOL     OW56311   7.215   1.775   7.696 -0.6022 -0.4004  0.3473
18233SOL    HW156312   7.180   1.705   7.750 -0.8217 -0.0541  0.6588
18233SOL    HW256313   7.140   1.808   7.647 -0.7903  0.5463  1.2407
18234SOL     OW56314   3.726   7.429   8.340 -0.2786 -0.0506  0.4209
18234SOL    HW156315   3.739   7.367   8.412 -0.4656 -0.2107  0.3181
18234SOL    HW256316   3.782   7.396   8.270  0.6243  0.6221  0.7968
18235SOL     OW56317   7.447   8.684   1.374  0.0322  0.1869 -0.1481
18235SOL    HW156318   7.509   8.757   1.375  0.6604 -0.3054 -1.3102
18235SOL    HW256319   7.403   8.689   1.459  1.4770  0.7275  0.6122
18236SOL     OW56320   6.019   5.986   6.661 -1.2192  0.4459 -0.3279
18236SOL    HW156321   5.967   5.936   6.597  0.5413 -1.1232 -0.6115
18236SOL    HW256322   6.009   5.936   6.743  0.0804 -0.0746 -0.4715
18237SOL     OW56323   6.596   2.416   3.168 -0.3553  0.2057  0.0232
18237SOL    HW156324   6.585   2.504   3.132 -2.8791  0.0421  0.1872
18237SOL    HW256325   6.506   2.384   3.180  0.4824 -1.9535  1.0474
18238SOL     OW56326   7.809   3.907   2.570 -0.4387 -0.2272  0.0912
18238SOL    HW156327   7.801   3.851   2.493  2.1883  0.0635 -0.4774
18238SOL    HW256328   7.844   3.989   2.537 -1.6154  0.8143  1.3122
18239SOL     OW56329   3.525   6.885   7.390 -0.3449  0.0501 -0.0004
18239SOL    HW156330   3.451   6.944   7.401  0.9615  2.1296 -1.4495
18239SOL    HW256331   3.593   6.921   7.447 -0.2513 -1.5764  0.9869
18240SOL     OW56332   1.405   7.468   3.373 -0.4596 -0.3999 -0.2328
18240SOL    HW156333   1.428   7.387   3.327  0.0929  1.0116 -2.5786
18240SOL    HW256334   1.316   7.452   3.404  0.7577 -3.1121  2.3994
18241SOL     OW56335   8.333   7.002   9.487 -0.2152 -0.5683  0.0411
18241SOL    HW156336   8.356   7.039   9.403 -0.0897  0.8254  0.6601
18241SOL    HW256337   8.262   6.940   9.468  1.3303 -1.9794 -1.3474
18242SOL     OW56338   3.362   6.220   0.306  0.1379 -0.5238  0.8286
18242SOL    HW156339   3.413   6.178   0.236  0.2800 -1.6570  1.5830
18242SOL    HW256340   3.366   6.313   0.285 -0.3457 -0.8670 -1.0109
18243SOL     OW56341   9.177   0.608   4.208  0.2510 -0.0607 -0.1716
18243SOL    HW156342   9.253   0.555   4.230  0.3665 -0.1238 -0.7243
18243SOL    HW256343   9.159   0.589   4.116 -1.6074 -1.5341  0.4142
18244SOL     OW56344   1.099   0.658   8.738  0.2541  0.5048 -0.1136
18244SOL    HW156345   1.179   0.710   8.733 -0.1653  1.2128  0.3746
18244SOL    HW256346   1.035   0.716   8.779 -0.7045  0.1910 -1.1118
18245SOL     OW56347   2.341   3.354   4.648  0.9238  0.1474  0.3750
18245SOL    HW156348   2.398   3.305   4.707  1.9350 -0.1374 -0.7944
18245SOL    HW256349   2.342   3.444   4.683  0.3299 -0.3051  1.6055
18246SOL     OW56350   4.411   9.467   4.645  0.0609  0.1503 -0.1364
18246SOL    HW156351   4.427   9.513   4.562 -0.6500  0.6233 -0.0247
18246SOL    HW256352   4.469   9.511   4.707 -1.3006  1.5713  0.1775
18247SOL     OW56353   2.203   6.386   5.649  0.3245 -0.4157  0.5856
18247SOL    HW156354   2.236   6.363   5.737 -0.8608  1.0586  1.4567
18247SOL    HW256355   2.132   6.324   5.634 -1.7977  1.4605  2.2396
18248SOL     OW56356   8.141   0.459   4.697  0.1991  0.5957  0.0811
18248SOL    HW156357   8.135   0.445   4.792 -0.9055  0.1710 -0.0326
18248SOL    HW256358   8.103   0.546   4.684  1.2092  1.0539  0.1154
18249SOL     OW56359   0.177   5.271   7.047 -0.3635 -0.0458  0.0394
18249SOL    HW156360   0.246   5.336   7.063 -0.0661 -0.1851 -0.6070
18249SOL    HW256361   0.096   5.320   7.051 -0.2762  0.0170  1.3841
18250SOL     OW56362   6.973   4.202   3.696 -0.0444 -0.0781  0.5578
18250SOL    HW156363   6.964   4.257   3.774 -1.5607 -0.2609  0.5517
18250SOL    HW256364   6.989   4.263   3.624  2.1403  0.0394  1.0887
18251SOL     OW56365   2.874   1.073   7.851 -0.2696 -0.2181  0.1536
18251SOL    HW156366   2.960   1.058   7.890  0.5640  1.7122 -0.8128
18251SOL    HW256367   2.858   0.995   7.798  0.8019 -0.6852  0.4855
18252SOL     OW56368   5.802   5.028   5.089  0.6476 -0.0824 -0.0636
18252SOL    HW156369   5.745   5.050   5.163  0.4104 -1.3099  0.1473
18252SOL    HW256370   5.790   4.933   5.077 -0.4008  0.2768 -2.5731
18253SOL     OW56371   4.661   1.378   6.787 -0.3604  0.0210 -0.1276
18253SOL    HW156372   4.676   1.284   6.779  1.2501 -0.0193  2.4083
18253SOL    HW256373   4.609   1.387   6.867 -0.3276  1.3042 -0.2286
18254SOL     OW56374   4.647   2.961   9.248 -0.7082 -0.5791  0.3771
18254SOL    HW156375   4.696   2.916   9.180 -1.2755  0.4056 -0.7286
18254SOL    HW256376   4.704   2.959   9.325  0.0884 -1.4223 -0.2221
18255SOL     OW56377   3.597   4.308   0.740 -0.1031  0.4791 -0.1714
18255SOL    HW156378   3.556   4.382   0.785  0.5153  0.3512  0.6426
18255SOL    HW256379   3.620   4.248   0.811 -2.2521 -1.3835 -0.9145
18256SOL     OW56380   1.370   6.391   6.258  0.1527 -0.2677 -0.3746
18256SOL    HW156381   1.293   6.334   6.262 -1.2132  1.4279 -1.3350
18256SOL    HW256382   1.418   6.361   6.180  1.2399 -2.1577  0.9210
18257SOL     OW56383   6.478   1.285   4.316 -0.0045 -0.1021  0.3150
18257SOL    HW156384   6.560   1.332   4.330 -0.1588  0.1676  0.3162
18257SOL    HW256385   6.482   1.211   4.375  1.2776 -1.4079 -1.2991
18258SOL     OW56386   2.098   8.547   6.621  0.4110 -0.0882 -0.6323
18258SOL    HW156387   2.164   8.617   6.624 -0.6530  0.9269  0.2886
18258SOL    HW256388   2.146   8.468   6.644  1.8023  0.1766 -2.4502
18259SOL     OW56389   2.193   8.634   5.137  0.5257  0.3184  0.2793
18259SOL    HW156390   2.287   8.619   5.147  0.3804 -1.4415 -0.5887
18259SOL    HW256391   2.171   8.594   5.053 -1.5956 -2.6126  2.0296
18260SOL     OW56392   7.902   3.196   0.643 -0.1672 -0.0748  0.1409
18260SOL    HW156393   7.874   3.218   0.732  1.5916 -0.3131  0.7967
18260SOL    HW256394   7.825   3.156   0.602 -0.9512 -0.1203  1.6101
18261SOL     OW56395   9.712   6.691   1.389  0.1664 -0.4209  0.2168
18261SOL    HW156396   9.772   6.729   1.453  0.4803  0.2760 -0.4805
18261SOL    HW256397   9.672   6.766   1.345 -2.4641 -0.7968  1.7260
18262SOL     OW56398   4.961   2.499   2.003 -0.2446 -0.1373  0.0426
18262SOL    HW156399   4.977   2.535   2.090  0.6647 -0.7105  0.1235
18262SOL    HW256400   5.025   2.542   1.946 -1.7676  1.3066 -0.6549
18263SOL     OW56401   5.612   8.452   8.050  0.3079 -0.1613  0.1725
18263SOL    HW156402   5.653   8.408   8.125 -0.9729 -2.2034 -0.2436
18263SOL    HW256403   5.550   8.388   8.016  0.1328  1.0960 -2.0439
18264SOL     OW56404   1.921   3.289   5.679  0.0402  0.8864 -0.0591
18264SOL    HW156405   1.969   3.370   5.693 -0.3250  1.1198 -0.1551
18264SOL    HW256406   1.961   3.251   5.601  1.8418 -0.2400  1.3069
18265SOL     OW56407   6.138   4.026   9.134  0.1209  0.0366 -0.2769
18265SOL    HW156408   6.193   3.979   9.197  2.1594  0.0282 -1.9550
18265SOL    HW256409   6.184   4.016   9.051 -2.2692  0.3873 -1.7244
18266SOL     OW56410   4.851   3.292   4.099 -0.4026  0.4482 -0.0634
18266SOL    HW156411   4.780   3.330   4.150 -2.2517 -2.4630 -0.2656
18266SOL    HW256412   4.808   3.250   4.025  1.5527 -1.1074 -0.3993
18267SOL     OW56413   9.674   5.689   5.385 -0.3152  0.2084 -0.3250
18267SOL    HW156414   9.692   5.598   5.362 -0.8496  0.4317 -1.7075
18267SOL    HW256415   9.751   5.737   5.354 -0.3998  0.3362 -0.3357
18268SOL     OW56416   2.010   2.621   7.507  0.2055  0.1913  0.3110
18268SOL    HW156417   2.007   2.701   7.454 -0.9591  0.4215  0.6885
18268SOL    HW256418   2.092   2.578   7.481 -0.0006  0.6277 -1.1877
18269SOL     OW56419   1.339   3.680   4.459 -0.2556  0.4239 -0.4663
18269SOL    HW156420   1.256   3.680   4.507 -0.7016 -0.2789 -1.2311
18269SOL    HW256421   1.403   3.647   4.522 -0.9573 -1.1314 -0.5377
18270SOL     OW56422   0.455   1.031   7.753 -0.0500 -0.2772 -0.4513
18270SOL    HW156423   0.524   0.981   7.709 -0.4969 -1.5290  0.2321
18270SOL    HW256424   0.373   0.991   7.722 -0.3997 -0.3725  0.5811
18271SOL     OW56425   4.035   2.707   2.137 -0.4014  0.0225 -0.0794
18271SOL    HW156426   4.040   2.802   2.147 -1.5166  0.4953 -3.0677
18271SOL    HW256427   4.126   2.677   2.146 -0.0568  1.3221  1.0343
18272SOL     OW56428   2.408   7.112   2.850  0.0595 -0.0057 -0.6269
18272SOL    HW156429   2.502   7.130   2.847  0.0657 -0.1348 -1.3752
18272SOL    HW256430   2.377   7.129   2.761 -0.7097  0.4631 -0.2818
18273SOL     OW56431   1.690   7.629   6.967 -0.4003  0.2420  0.7759
18273SOL    HW156432   1.676   7.541   6.932 -2.2757  0.5233  0.7290
18273SOL    HW256433   1.785   7.639   6.967 -0.1751 -1.4332 -0.0729
18274SOL     OW56434   3.655   7.375   6.244  0.6045 -0.2970  0.2031
18274SOL    HW156435   3.610   7.297   6.213 -0.9607  0.7758 -0.2953
18274SOL    HW256436   3.687   7.418   6.165 -3.4056  2.4473 -0.2115
18275SOL     OW56437   9.751   6.673   9.333 -0.1166 -0.2655  0.1555
18275SOL    HW156438   9.718   6.661   9.422 -0.6494  0.6022  0.0901
18275SOL    HW256439   9.831   6.724   9.343 -0.7435  0.7541  0.0777
18276SOL     OW56440   7.831   3.676   5.551 -0.4091  0.3464 -0.1752
18276SOL    HW156441   7.870   3.592   5.526  1.5637  1.8518 -2.5950
18276SOL    HW256442   7.759   3.689   5.489 -2.7643 -0.8332  2.1207
18277SOL     OW56443   5.365   3.174   4.157  0.6621 -0.0922 -0.2384
18277SOL    HW156444   5.438   3.220   4.116  0.0496  1.0691 -0.0975
18277SOL    HW256445   5.299   3.167   4.087  0.5869 -0.3546 -0.1394
18278SOL     OW56446   9.651   8.354   3.905 -0.2022 -1.0362  0.0308
18278SOL    HW156447   9.580   8.295   3.882 -0.5478 -0.3587 -0.6781
18278SOL    HW256448   9.618   8.441   3.885  0.3606 -0.6007  0.9005
18279SOL     OW56449   1.335   4.162   9.817 -0.3145 -0.0989 -0.4414
18279SOL    HW156450   1.414   4.214   9.803  0.7120 -1.3902  0.3337
18279SOL    HW256451   1.268   4.205   9.764  1.0515  0.6848 -1.5912
18280SOL     OW56452   7.762   7.199   1.796 -0.7288  0.7451  0.6463
18280SOL    HW156453   7.744   7.201   1.702  0.5883  0.8086  0.3672
18280SOL    HW256454   7.802   7.113   1.812 -0.8913  0.7539  1.1329
18281SOL     OW56455   4.471   0.340   7.207 -0.4374  0.1384  0.2650
18281SOL    HW156456   4.441   0.344   7.297  0.7607 -0.0340  0.6856
18281SOL    HW256457   4.488   0.248   7.190 -1.4646  0.0630 -0.4212
18282SOL     OW56458   8.022   3.121   2.087  0.0167  0.6049 -0.4194
18282SOL    HW156459   8.066   3.199   2.121 -1.0279  0.7820  0.5736
18282SOL    HW256460   8.003   3.069   2.164 -0.0307 -0.2622 -1.0025
18283SOL     OW56461   5.871   6.390   2.247  0.3042  0.0889 -0.0029
18283SOL    HW156462   5.963   6.411   2.232 -0.1607  1.5171 -1.1262
18283SOL    HW256463   5.829   6.407   2.162 -0.8599 -1.3490  0.2544
18284SOL     OW56464   0.168   1.745   9.526 -0.6386 -0.6466 -0.1083
18284SOL    HW156465   0.143   1.826   9.570 -1.9260 -0.1302 -1.6749
18284SOL    HW256466   0.249   1.767   9.479 -0.5845 -0.4892  0.0589
18285SOL     OW56467   2.935   2.636   4.363 -0.0036 -0.4329  0.7523
18285SOL    HW156468   2.926   2.717   4.312  0.2777 -0.9377 -0.1096
18285SOL    HW256469   2.894   2.657   4.447  1.4516  1.1332  1.1431
18286SOL     OW56470   5.168   3.655   7.639  0.1409  0.1696 -0.4740
18286SOL    HW156471   5.182   3.658   7.734  0.3061 -1.2520 -0.4369
18286SOL    HW256472   5.073   3.657   7.629  0.0548 -1.2415 -0.1775
18287SOL     OW56473   8.543   9.079   0.722  0.4374  0.5748  0.4042
18287SOL    HW156474   8.597   9.084   0.801 -1.4640  1.7481  1.7161
18287SOL    HW256475   8.461   9.123   0.746 -0.8165 -0.4264 -1.7315
18288SOL     OW56476   6.217   8.412   6.909  0.0397 -0.5081 -0.2100
18288SOL    HW156477   6.124   8.436   6.904  0.1562  0.4040  1.4137
18288SOL    HW256478   6.243   8.437   6.997  1.5217 -1.9455 -0.1993
18289SOL     OW56479   2.999   2.094   3.874  0.1793  0.6687  0.4516
18289SOL    HW156480   2.956   2.040   3.941 -0.3019  0.7522  0.2191
18289SOL    HW256481   3.014   2.178   3.918 -0.4608  0.8420  0.3592
18290SOL     OW56482   0.718   8.391   1.129  0.3261 -0.1768  0.4956
18290SOL    HW156483   0.739   8.382   1.222  1.8990  0.3678  0.2293
18290SOL    HW256484   0.640   8.448   1.128  0.7269  0.4262  1.4607
18291SOL     OW56485   5.603   8.440   0.196 -0.2165 -0.3835 -0.2436
18291SOL    HW156486   5.631   8.367   0.142 -0.6694 -0.2077 -0.7336
18291SOL    HW256487   5.572   8.506   0.133  2.1431  1.1111  0.0439
18292SOL     OW56488   6.495   3.888   1.612  0.0452  0.5599 -0.3940
18292SOL    HW156489   6.479   3.855   1.524  1.6571  0.2686 -0.6028
18292SOL    HW256490   6.459   3.821   1.670  0.2859  0.0554 -0.8234
18293SOL     OW56491   7.251   6.477   8.686 -0.3210  0.9463 -0.4394
18293SOL    HW156492   7.339   6.460   8.722 -0.3728  0.0129 -0.7295
18293SOL    HW256493   7.218   6.551   8.738  0.3664  0.8674  0.1298
18294SOL     OW56494   4.315   7.221   7.889 -0.3402 -0.5988 -0.6499
18294SOL    HW156495   4.386   7.179   7.839 -0.8012  0.6793 -2.5057
18294SOL    HW256496   4.249   7.153   7.898  0.3165 -1.2443 -0.6225
18295SOL     OW56497   7.679   2.681   9.294 -0.3532  0.5835  0.0521
18295SOL    HW156498   7.620   2.746   9.333 -2.2790 -2.0720  1.8788
18295SOL    HW256499   7.635   2.653   9.214  1.6658  3.0988 -2.1371
18296SOL     OW56500   3.905   6.281   0.071 -0.4153  0.0844 -0.5860
18296SOL    HW156501   3.880   6.365   0.033 -0.7172 -0.2566 -1.1406
18296SOL    HW256502   3.969   6.245   0.010  1.3867  0.8739  0.7198
18297SOL     OW56503   4.132   5.856   3.017 -0.5023 -0.3531  0.1476
18297SOL    HW156504   4.222   5.879   3.040 -0.9160  1.4220  0.1903
18297SOL    HW256505   4.134   5.847   2.921 -0.0223 -1.6601  0.2691
18298SOL     OW56506   6.060   3.585   7.142  0.2839  0.0834  0.7181
18298SOL    HW156507   6.006   3.574   7.220 -1.2065  0.9565 -0.1455
18298SOL    HW256508   6.112   3.505   7.136 -0.8927 -0.7589  1.5976
18299SOL     OW56509   2.798   3.519   5.521 -0.1776  0.1382 -0.6207
18299SOL    HW156510   2.890   3.518   5.494  0.4122  2.4028  0.9867
18299SOL    HW256511   2.777   3.428   5.540  1.9592 -0.3363 -0.2964
18300SOL     OW56512   5.480   1.416   1.358  0.2680  0.0863  0.1197
18300SOL    HW156513   5.490   1.334   1.310  0.9552  0.1798  0.0880
18300SOL    HW256514   5.418   1.395   1.428  0.9524 -0.6547  0.5267
18301SOL     OW56515   5.992   1.702   5.214  0.6737 -0.3889 -0.5314
18301SOL    HW156516   5.999   1.738   5.303 -2.5159  1.0206 -0.7088
18301SOL    HW256517   6.020   1.611   5.223 -0.6660 -0.6332  2.2039
18302SOL     OW56518   9.388   4.205   9.061  0.2979 -0.1186 -0.4055
18302SOL    HW156519   9.403   4.125   9.011 -0.0995 -2.1451  2.4285
18302SOL    HW256520   9.422   4.185   9.149 -2.8653  1.5368  1.3889
18303SOL     OW56521   1.226   1.331   4.744 -0.2814  0.6120  0.5319
18303SOL    HW156522   1.274   1.261   4.789 -1.3369  0.5661  1.6493
18303SOL    HW256523   1.223   1.303   4.652  0.4497 -0.1500  0.7296
18304SOL     OW56524   0.647   8.318   6.414  0.0136  0.4827 -0.3592
18304SOL    HW156525   0.556   8.293   6.396  0.2972  0.3515 -1.7454
18304SOL    HW256526   0.640   8.403   6.458 -0.7672  0.9387 -1.3029
18305SOL     OW56527   9.145   8.357   0.997 -0.6376  0.2754  0.3490
18305SOL    HW156528   9.159   8.289   1.063 -0.9324  1.3443  1.5285
18305SOL    HW256529   9.124   8.307   0.917  0.9379 -1.0677  0.7153
18306SOL     OW56530   6.282   7.848   3.118  0.7109  0.4543  0.0518
18306SOL    HW156531   6.359   7.808   3.076  1.2891  0.2539  1.2522
18306SOL    HW256532   6.286   7.817   3.208  1.7932  4.0179  1.4070
18307SOL     OW56533   1.098   6.337   7.928  0.0420 -0.2903  0.6483
18307SOL    HW156534   1.140   6.319   7.844  0.2111  1.2695  0.3612
18307SOL    HW256535   1.141   6.416   7.960 -2.3302  1.1375  0.5561
18308SOL     OW56536   4.247   4.482   6.443  0.0273 -0.3180  0.2243
18308SOL    HW156537   4.244   4.490   6.538 -0.3686 -0.1018  0.1957
18308SOL    HW256538   4.339   4.493   6.421 -0.0278  0.7584  0.4904
18309SOL     OW56539   4.144   7.022   3.794 -1.0267 -0.4416 -0.3115
18309SOL    HW156540   4.074   7.067   3.748 -0.5481  0.1518 -0.4775
18309SOL    HW256541   4.112   7.013   3.884 -1.4866 -0.5581 -0.4887
18310SOL     OW56542   7.161   1.944   2.273 -0.3554  0.3148 -0.5358
18310SOL    HW156543   7.203   1.859   2.288 -0.0190  0.8622  2.0204
18310SOL    HW256544   7.232   2.001   2.244  0.2384  0.5857  1.2921
18311SOL     OW56545   2.001   0.204   8.001  0.2971  0.2360  0.4256
18311SOL    HW156546   2.045   0.222   7.918 -2.1633  2.1041 -0.5980
18311SOL    HW256547   2.072   0.184   8.062  2.3785  1.2758 -1.5046
18312SOL     OW56548   0.718   8.260   4.480  0.1119 -0.1837 -0.2171
18312SOL    HW156549   0.797   8.300   4.517 -0.4619  1.6069 -0.8271
18312SOL    HW256550   0.750   8.196   4.417  1.0646 -0.8609  0.9032
18313SOL     OW56551   0.535   2.179   9.357  0.5484  0.0295  0.5598
18313SOL    HW156552   0.544   2.233   9.278 -0.7262  2.3772  1.9186
18313SOL    HW256553   0.516   2.091   9.323  2.0912  0.4782 -1.7363
18314SOL     OW56554   9.170   7.615   9.182 -0.0483 -0.3833  0.0161
18314SOL    HW156555   9.240   7.577   9.130 -0.1874  1.0609 -1.3122
18314SOL    HW256556   9.093   7.611   9.125 -0.7684 -0.8431  0.9900
18315SOL     OW56557   2.172   7.279   2.903 -0.0104  0.1179 -0.9509
18315SOL    HW156558   2.233   7.352   2.906 -0.4355  0.4490 -0.0508
18315SOL    HW256559   2.228   7.201   2.904  0.3987  0.4131 -0.0410
18316SOL     OW56560   2.773   9.214   0.887 -0.5077  0.3582 -0.4018
18316SOL    HW156561   2.815   9.133   0.857 -0.0769  1.1877 -2.1160
18316SOL    HW256562   2.793   9.217   0.981  0.2373 -1.0533 -0.4832
18317SOL     OW56563   8.921   6.065   0.423  0.1990  0.6943  0.2606
18317SOL    HW156564   9.005   6.022   0.407 -0.0914  0.0900  0.3203
18317SOL    HW256565   8.906   6.055   0.517 -0.9456 -1.1233 -0.0705
18318SOL     OW56566   3.269   4.524   6.176  0.1400 -0.1489 -0.1878
18318SOL    HW156567   3.210   4.518   6.101 -0.6414  1.6531  0.2266
18318SOL    HW256568   3.319   4.604   6.161 -0.9603  0.9987  1.8013
18319SOL     OW56569   4.758   3.736   3.404  0.5355 -0.3090  0.4826
18319SOL    HW156570   4.691   3.798   3.376  2.3703  1.1327 -0.9830
18319SOL    HW256571   4.735   3.715   3.494 -1.3344  0.8586  0.3255
18320SOL     OW56572   6.307   9.142   2.605 -0.2207 -0.6262  0.1587
18320SOL    HW156573   6.278   9.059   2.641  1.0550 -1.7690 -1.3047
18320SOL    HW256574   6.359   9.118   2.528  0.7675  1.4874  0.0969
18321SOL     OW56575   1.349   9.822   5.672 -0.7476  0.2545 -1.0034
18321SOL    HW156576   1.290   9.896   5.666 -2.8446 -1.3472 -1.3275
18321SOL    HW256577   1.294   9.746   5.652  1.6774 -1.2410 -2.5168
18322SOL     OW56578   7.796   3.655   3.627  0.5862 -0.4187 -0.7107
18322SOL    HW156579   7.713   3.613   3.607  1.2657 -1.6034 -1.1984
18322SOL    HW256580   7.775   3.721   3.693 -1.1423  1.0416 -2.5844
18323SOL     OW56581   6.502   3.273   1.711  0.0851 -0.1121 -0.1665
18323SOL    HW156582   6.544   3.202   1.758 -1.4464 -1.3903 -0.6421
18323SOL    HW256583   6.433   3.304   1.770 -0.8177 -0.6662 -0.9069
18324SOL     OW56584   4.719   4.827   4.224 -1.0087  0.3768 -0.4411
18324SOL    HW156585   4.686   4.911   4.191  0.7965  1.4117  0.2411
18324SOL    HW256586   4.750   4.782   4.145 -1.4434  0.5869 -0.7413
18325SOL     OW56587   5.582   1.241   2.921  0.4794  0.0889  0.3956
18325SOL    HW156588   5.503   1.295   2.934  0.2330  0.2150 -1.3861
18325SOL    HW256589   5.646   1.301   2.884  0.1990 -0.7842 -1.6331
18326SOL     OW56590   6.719   3.084   2.523  0.3075  1.3044 -0.2215
18326SOL    HW156591   6.682   3.154   2.576 -1.1536  0.2253  0.2488
18326SOL    HW256592   6.667   3.086   2.442 -1.8045 -1.0387  0.9460
18327SOL     OW56593   6.549   2.520   5.303 -0.3778 -0.2223  0.2395
18327SOL    HW156594   6.512   2.551   5.385 -1.0375  0.2766 -0.2345
18327SOL    HW256595   6.520   2.584   5.238 -0.4729 -1.0044 -0.5041
18328SOL     OW56596   5.149   9.650   7.387 -0.0094 -0.2452 -0.1920
18328SOL    HW156597   5.230   9.675   7.342 -0.3653 -0.4686 -0.9693
18328SOL    HW256598   5.166   9.561   7.417  0.4752  0.1435  0.7136
18329SOL     OW56599   6.140   8.276   5.127 -0.0089  0.1154 -0.4860
18329SOL    HW156600   6.102   8.208   5.072  0.2813 -0.0047 -0.5409
18329SOL    HW256601   6.220   8.302   5.081  0.2288  0.0222 -0.1303
18330SOL     OW56602   2.118   4.409   6.925  0.0887 -0.0759 -0.4553
18330SOL    HW156603   2.084   4.497   6.943 -2.9080 -0.9902 -0.9874
18330SOL    HW256604   2.125   4.405   6.830  0.0655 -0.4508 -0.4424
18331SOL     OW56605   6.460   5.728   2.701 -0.2466  0.3229  0.4672
18331SOL    HW156606   6.457   5.818   2.735 -2.4705 -0.1029  1.5553
18331SOL    HW256607   6.387   5.724   2.639  1.4640 -0.0237 -1.6400
18332SOL     OW56608   7.092   9.373   7.044 -0.2668 -0.1121 -0.0888
18332SOL    HW156609   7.148   9.319   7.100 -0.1001  1.5836  1.4606
18332SOL    HW256610   7.072   9.317   6.969  2.5902 -1.1724 -0.1754
18333SOL     OW56611   0.986   0.908   7.240 -0.0844  0.7145 -0.0639
18333SOL    HW156612   1.032   0.992   7.234  1.8344 -0.0050  2.5615
18333SOL    HW256613   1.027   0.853   7.174  0.4360  1.1248 -0.0898
18334SOL     OW56614   5.790   3.631   8.194 -0.5720 -0.3684  0.0446
18334SOL    HW156615   5.802   3.717   8.234 -0.5711 -0.2220 -0.2704
18334SOL    HW256616   5.710   3.597   8.234 -1.5128  0.4738 -1.0240
18335SOL     OW56617   8.072   9.430   7.208 -0.2821  0.5135  0.2431
18335SOL    HW156618   8.062   9.523   7.228 -2.9909 -0.1606  2.8190
18335SOL    HW256619   8.071   9.387   7.293  3.1298 -1.8467 -0.7150
18336SOL     OW56620   5.568   2.892   3.786  0.3517  0.2632  0.3661
18336SOL    HW156621   5.646   2.922   3.833  0.6169 -1.4645  1.1043
18336SOL    HW256622   5.567   2.944   3.706  1.0975  1.7660  1.2962
18337SOL     OW56623   3.397   8.674   4.056 -0.0242 -0.0427 -0.6806
18337SOL    HW156624   3.422   8.690   3.965  1.6984  1.2131 -0.0370
18337SOL    HW256625   3.303   8.655   4.052 -0.3312  1.6019 -2.5517
18338SOL     OW56626   0.139   8.285   8.975  0.2854 -0.2773 -0.4606
18338SOL    HW156627   0.168   8.194   8.986  0.7559 -0.1209 -0.3907
18338SOL    HW256628   0.176   8.312   8.891 -1.1145 -0.6250 -1.2299
18339SOL     OW56629   5.229   1.040   1.145  0.2273 -0.2324 -0.2083
18339SOL    HW156630   5.263   1.013   1.230 -0.7105  0.0855  0.2789
18339SOL    HW256631   5.143   0.997   1.139 -0.3839  0.9676 -0.3113
18340SOL     OW56632   1.023   7.956   5.129  0.3130  0.1005 -0.3392
18340SOL    HW156633   1.061   7.911   5.054  0.4394 -0.2869 -0.0454
18340SOL    HW256634   1.016   7.889   5.197  0.2053  0.4475 -0.0007
18341SOL     OW56635   1.227   8.145   8.720 -0.0617  0.3418 -0.3418
18341SOL    HW156636   1.250   8.198   8.797  0.8832  0.7556 -0.8873
18341SOL    HW256637   1.294   8.168   8.655 -0.2810 -0.7211 -0.9614
18342SOL     OW56638   2.898   5.591   3.258  0.2135 -0.4422  0.3130
18342SOL    HW156639   2.986   5.628   3.260  1.0194 -2.2310  1.7884
18342SOL    HW256640   2.890   5.544   3.341 -2.4761  0.3340  0.5942
18343SOL     OW56641   0.542   8.945   4.517 -0.2412  0.4459  0.3706
18343SOL    HW156642   0.463   8.905   4.551  0.1021 -2.0408 -1.4848
18343SOL    HW256643   0.606   8.874   4.514  0.9490  1.5117 -1.5424
18344SOL     OW56644   3.738   1.904   5.255  0.4643 -0.0239 -0.0126
18344SOL    HW156645   3.734   1.808   5.249 -1.2934  0.0851 -3.1140
18344SOL    HW256646   3.817   1.927   5.206  1.1033  0.1460  1.0675
18345SOL     OW56647   9.249   1.215   4.947  0.0095  0.4918 -0.1222
18345SOL    HW156648   9.236   1.125   4.918  2.3859  0.0470 -0.0306
18345SOL    HW256649   9.318   1.249   4.890  0.7300  1.4835  1.2681
18346SOL     OW56650   3.590   0.433   2.139  0.0208  0.6134  0.2924
18346SOL    HW156651   3.626   0.408   2.054 -0.2474 -1.3355  0.7227
18346SOL    HW256652   3.558   0.522   2.125 -0.6316  0.1140 -1.8431
18347SOL     OW56653   8.886   1.875   7.173  0.5206 -0.0411  0.3465
18347SOL    HW156654   8.932   1.791   7.176  0.7333  0.0557 -0.1131
18347SOL    HW256655   8.943   1.932   7.123  0.1181  0.2216  0.1803
18348SOL     OW56656   4.375   2.903   4.559  0.0971 -0.6467  0.5076
18348SOL    HW156657   4.311   2.889   4.490 -1.0313  0.1026  1.3794
18348SOL    HW256658   4.433   2.826   4.554  1.1866  0.2301 -2.4363
18349SOL     OW56659   5.495   8.718   8.039 -0.1305 -0.1913 -0.2431
18349SOL    HW156660   5.582   8.758   8.042 -0.3016  0.5334 -2.6169
18349SOL    HW256661   5.511   8.624   8.042  0.7945 -0.0743 -1.0430
18350SOL     OW56662   6.532   8.843   7.452 -0.2809  0.5542 -0.4327
18350SOL    HW156663   6.606   8.902   7.439  0.8388 -0.7538 -0.2570
18350SOL    HW256664   6.546   8.772   7.389 -0.2082 -0.7958  1.0428
18351SOL     OW56665   3.896   6.110   3.569 -0.2644 -0.2663  0.0732
18351SOL    HW156666   3.881   6.162   3.490 -0.6241 -1.3757 -0.6149
18351SOL    HW256667   3.935   6.029   3.537 -0.1469 -0.6232  1.0737
18352SOL     OW56668   9.684   4.485   8.396  0.4441 -0.6869  0.7399
18352SOL    HW156669   9.660   4.420   8.330 -0.9347 -0.8420  1.3551
18352SOL    HW256670   9.601   4.509   8.438  0.5574  2.9081 -0.7114
18353SOL     OW56671   3.866   7.462   2.900 -0.0240 -0.0718 -0.3969
18353SOL    HW156672   3.796   7.402   2.926  2.0662 -2.5154 -0.1207
18353SOL    HW256673   3.866   7.529   2.968 -1.5091 -0.4899  0.0557
18354SOL     OW56674   3.991   2.668   1.186 -0.2996  0.3914  0.3800
18354SOL    HW156675   4.075   2.713   1.187 -0.0102 -0.1371  0.4734
18354SOL    HW256676   3.980   2.638   1.095  0.9987 -2.0344  0.9298
18355SOL     OW56677   6.759   8.706   8.314  0.1151  0.1578  0.2848
18355SOL    HW156678   6.716   8.790   8.333 -0.2510  0.0328  0.0254
18355SOL    HW256679   6.840   8.708   8.365  0.7651  1.2280 -0.7566
18356SOL     OW56680   1.073   0.846   3.848  0.0073  0.1254 -0.2779
18356SOL    HW156681   0.996   0.805   3.888  0.4507 -0.2550  0.2015
18356SOL    HW256682   1.064   0.939   3.870 -0.2404  0.0618 -0.0938
18357SOL     OW56683   3.037   2.122   7.636 -0.3721 -0.6158  0.1503
18357SOL    HW156684   3.120   2.077   7.622 -1.4754 -2.6470 -0.2321
18357SOL    HW256685   2.978   2.054   7.668 -1.3911  1.1711  2.4019
18358SOL     OW56686   7.647   1.032   8.482  0.4535 -0.6479  0.6325
18358SOL    HW156687   7.557   1.064   8.482  0.9686  0.9190  1.6486
18358SOL    HW256688   7.699   1.106   8.514  2.0288 -1.7143  0.6675
18359SOL     OW56689   0.323   6.985   7.507 -0.6233  0.0098  0.0066
18359SOL    HW156690   0.358   6.911   7.556 -2.0964  0.1885  1.4175
18359SOL    HW256691   0.378   7.060   7.532  0.7910 -0.5190 -1.3306
18360SOL     OW56692   7.109   8.540   3.561  0.2635  0.3802  0.0977
18360SOL    HW156693   7.125   8.633   3.578  0.8107  0.1782  0.7272
18360SOL    HW256694   7.190   8.496   3.589  0.2715 -0.2194 -0.8099
18361SOL     OW56695   8.367   7.564   6.291  0.4455 -0.4059 -0.4565
18361SOL    HW156696   8.405   7.621   6.225  0.1009 -1.0788 -1.2601
18361SOL    HW256697   8.305   7.620   6.338  1.2078  0.2601 -0.2222
18362SOL     OW56698   1.590   1.672   3.819 -0.5436 -0.4346 -0.1495
18362SOL    HW156699   1.543   1.711   3.745 -1.9505  0.0073  0.9197
18362SOL    HW256700   1.566   1.727   3.894  1.9733 -0.0076  0.4327
18363SOL     OW56701   8.560   5.109   8.164 -0.3569 -0.2489 -0.5439
18363SOL    HW156702   8.552   5.192   8.118 -1.3192  0.1909  0.3901
18363SOL    HW256703   8.484   5.105   8.222  0.1942 -1.3240  0.1530
18364SOL     OW56704   5.725   6.661   1.632  0.3984  0.1099 -0.3929
18364SOL    HW156705   5.720   6.658   1.728 -0.9030  1.8597 -0.3695
18364SOL    HW256706   5.817   6.683   1.615  0.3048  1.3499  0.5331
18365SOL     OW56707   7.026   8.534   4.599  0.1796 -0.5831 -0.4729
18365SOL    HW156708   6.939   8.547   4.561  0.6220  3.5040 -0.6185
18365SOL    HW256709   7.010   8.508   4.689 -1.3550  1.3931 -0.0996
18366SOL     OW56710   1.939   5.589   1.353  0.2405 -0.5417  0.0415
18366SOL    HW156711   1.853   5.565   1.389  0.0327 -1.3302 -0.9272
18366SOL    HW256712   1.982   5.505   1.335  0.8629 -0.1582 -0.3043
18367SOL     OW56713   3.205   3.029   6.990 -0.4041  0.3864  1.0022
18367SOL    HW156714   3.171   2.992   7.071 -1.3504 -2.1467 -0.4485
18367SOL    HW256715   3.297   3.002   6.988 -0.6944 -0.6012  0.6806
18368SOL     OW56716   3.369   0.124   3.944 -0.2119  0.4644  0.5166
18368SOL    HW156717   3.436   0.189   3.920  0.8572 -0.3660  1.1453
18368SOL    HW256718   3.296   0.176   3.977  0.4512  1.3662  0.6052
18369SOL     OW56719   7.360   7.284   0.155  0.1768 -0.7201 -0.1255
18369SOL    HW156720   7.383   7.304   0.246  2.0106 -0.6535 -0.5489
18369SOL    HW256721   7.440   7.245   0.119  0.0492  0.7468 -2.1565
18370SOL     OW56722   3.504   6.258   4.841 -0.2671 -1.1082  0.3268
18370SOL    HW156723   3.588   6.219   4.815  0.6598  0.7675  0.3715
18370SOL    HW256724   3.450   6.251   4.762  0.7758 -0.1378 -0.5033
18371SOL     OW56725   8.189   7.466   8.035 -0.5629  0.6634 -0.7035
18371SOL    HW156726   8.254   7.395   8.035 -0.6986  0.5202  0.6314
18371SOL    HW256727   8.113   7.428   7.990 -0.6449 -0.0705  0.0148
18372SOL     OW56728   4.794   8.286   3.397 -0.2722 -0.0904  0.5273
18372SOL    HW156729   4.747   8.258   3.319 -0.3510  0.2099  0.4644
18372SOL    HW256730   4.727   8.289   3.465 -0.4714  0.8872  0.3073
18373SOL     OW56731   3.338   2.520   4.410  0.1222 -0.1246  0.8574
18373SOL    HW156732   3.368   2.594   4.463  0.6359 -0.0613  0.4817
18373SOL    HW256733   3.417   2.489   4.366 -0.1805 -0.5985  0.6451
18374SOL     OW56734   4.270   3.957   0.396 -0.1204 -0.1375  0.3702
18374SOL    HW156735   4.318   3.933   0.317  0.5222  4.2331 -0.8823
18374SOL    HW256736   4.183   3.983   0.363 -0.9538 -1.2488  1.6111
18375SOL     OW56737   2.479   5.844   8.279 -0.5920 -0.6240 -0.1721
18375SOL    HW156738   2.570   5.866   8.296  0.0779 -2.7199 -0.7914
18375SOL    HW256739   2.443   5.924   8.239  0.2280  1.1157  2.2786
18376SOL     OW56740   5.460   3.908   0.367 -0.3484  0.2544  0.3476
18376SOL    HW156741   5.457   3.989   0.316 -1.9305 -1.4023 -2.4697
18376SOL    HW256742   5.373   3.901   0.406  0.1415  0.4214  1.5035
18377SOL     OW56743   9.306   0.857   3.027 -0.5215 -0.1032 -0.3778
18377SOL    HW156744   9.245   0.784   3.041 -0.9079  0.3229  0.2392
18377SOL    HW256745   9.249   0.934   3.019 -0.0664  0.8585  3.5822
18378SOL     OW56746   4.890   1.408   4.615 -0.2880 -0.2581 -0.2117
18378SOL    HW156747   4.861   1.340   4.554  0.7305 -1.2234  0.3449
18378SOL    HW256748   4.950   1.363   4.674  3.0460  1.7106 -1.7764
18379SOL     OW56749   3.942   3.115   0.046  0.0666  0.4917  0.1991
18379SOL    HW156750   4.026   3.092   0.005 -0.9387 -0.5242 -1.4089
18379SOL    HW256751   3.966   3.150   0.131  2.2126  1.5766 -0.7688
18380SOL     OW56752   8.430   2.495   5.443  0.4853  0.0931  0.4759
18380SOL    HW156753   8.490   2.543   5.500  1.4901 -0.6084  0.0482
18380SOL    HW256754   8.485   2.465   5.371 -0.1494 -1.5091  0.6164
18381SOL     OW56755   2.865   4.242   4.806 -0.0504  0.3016  0.4729
18381SOL    HW156756   2.872   4.322   4.859 -2.2377 -0.3977  1.9312
18381SOL    HW256757   2.932   4.184   4.842 -1.5689 -0.2095  2.6792
18382SOL     OW56758   3.553   8.170   6.454 -0.2793 -0.0848 -0.2644
18382SOL    HW156759   3.524   8.082   6.479  0.0670 -0.4569 -1.0957
18382SOL    HW256760   3.523   8.227   6.524  2.3799 -1.3098  2.0271
18383SOL     OW56761   3.391   5.868   3.661 -0.0518 -0.3552 -0.0337
18383SOL    HW156762   3.374   5.959   3.633  0.9561  0.0273  0.5554
18383SOL    HW256763   3.370   5.867   3.754 -1.5587 -1.1462 -0.3476
18384SOL     OW56764   9.316   9.654   8.471 -0.5331  0.5849  0.2780
18384SOL    HW156765   9.265   9.574   8.480 -1.5615  1.3908  2.1917
18384SOL    HW256766   9.396   9.638   8.522 -0.6372  0.6793  0.4735
18385SOL     OW56767   5.277   9.158   7.503 -0.4097  0.2085 -0.1247
18385SOL    HW156768   5.285   9.111   7.586 -0.2794  0.7841  0.1919
18385SOL    HW256769   5.367   9.163   7.469 -0.2800  1.1041  0.3332
18386SOL     OW56770   2.951   8.928   2.890 -0.1333 -0.0873  0.1523
18386SOL    HW156771   2.906   8.950   2.972 -1.2752  2.1342 -0.9810
18386SOL    HW256772   2.883   8.888   2.837  0.1893 -0.0876 -0.2584
18387SOL     OW56773   7.207   3.286   4.176 -0.0149  0.2613 -0.3841
18387SOL    HW156774   7.157   3.284   4.258  1.4205 -0.9114  0.5119
18387SOL    HW256775   7.140   3.295   4.108 -1.2215  1.6674  0.9025
18388SOL     OW56776   8.285   2.494   1.114  0.0084  0.0943  0.1666
18388SOL    HW156777   8.253   2.575   1.074 -3.4463 -0.9516  0.4502
18388SOL    HW256778   8.243   2.492   1.200 -0.7929 -2.4005 -0.2139
18389SOL     OW56779   1.286   7.298   9.378 -0.3399 -0.0706 -0.6066
18389SOL    HW156780   1.351   7.251   9.326  0.0138  0.4498 -0.6479
18389SOL    HW256781   1.305   7.272   9.468 -0.7794 -0.7632 -0.7122
18390SOL     OW56782   6.630   5.023   8.538 -0.2293 -0.5937  0.3803
18390SOL    HW156783   6.655   4.931   8.548  0.6938 -0.1978  2.1125
18390SOL    HW256784   6.703   5.072   8.577 -0.0685  0.9554 -1.6904
18391SOL     OW56785   3.242   1.624   6.488  0.2323 -0.7153  0.3683
18391SOL    HW156786   3.321   1.654   6.444 -0.4453  0.3088 -0.1749
18391SOL    HW256787   3.243   1.529   6.476  0.8839 -0.6099 -0.4656
18392SOL     OW56788   3.943   5.560   4.925  0.5229 -0.4233  0.2586
18392SOL    HW156789   3.992   5.624   4.873  0.2733  0.2648  0.8574
18392SOL    HW256790   4.010   5.511   4.973  0.7094 -0.5791 -0.1557
18393SOL     OW56791   2.932   2.371   4.806 -0.0897  0.7409 -0.3096
18393SOL    HW156792   2.945   2.297   4.866 -0.8880  1.6839  1.1039
18393SOL    HW256793   2.949   2.336   4.719  0.0979 -0.9534  0.3825
18394SOL     OW56794   9.216   9.221   4.645 -0.3079 -0.2796 -0.1013
18394SOL    HW156795   9.170   9.304   4.657  0.8786  0.2929  0.7173
18394SOL    HW256796   9.159   9.155   4.686 -0.8637  0.2398 -0.0268
18395SOL     OW56797   2.070   2.638   0.078  0.2991  0.3052  0.0108
18395SOL    HW156798   2.128   2.677   0.144  1.4036  0.6494 -1.1324
18395SOL    HW256799   2.114   2.557   0.053 -0.8250 -0.5383  0.6901
18396SOL     OW56800   0.813   8.657   4.241  0.3129 -0.5243 -0.4970
18396SOL    HW156801   0.880   8.724   4.232 -0.8857  0.6921 -0.6625
18396SOL    HW256802   0.858   8.583   4.282  2.0377 -0.2204 -1.7545
18397SOL     OW56803   9.304   6.971   6.261  0.4578 -0.1155  0.1297
18397SOL    HW156804   9.304   6.953   6.355 -0.8085 -1.3844 -0.0764
18397SOL    HW256805   9.357   7.050   6.251  0.4547  0.1377  1.9200
18398SOL     OW56806   6.851   9.815   6.568 -0.1842  0.0006  0.4219
18398SOL    HW156807   6.840   9.734   6.520 -0.2136  0.4475 -0.3317
18398SOL    HW256808   6.856   9.883   6.501  3.0949  0.2969  0.7961
18399SOL     OW56809   1.794   3.623   6.488 -0.0456  0.2590 -0.0814
18399SOL    HW156810   1.754   3.708   6.508  0.9272  0.9438 -0.8888
18399SOL    HW256811   1.752   3.562   6.548 -1.3066  1.1709  0.0181
18400SOL     OW56812   4.275   3.485   4.220 -0.9325  0.1272  0.2315
18400SOL    HW156813   4.283   3.568   4.267 -0.4269 -0.6920  1.6568
18400SOL    HW256814   4.327   3.497   4.141  0.7489  0.5462  1.3470
18401SOL     OW56815   0.617   1.796   1.540  0.2069 -0.1402  0.6578
18401SOL    HW156816   0.681   1.781   1.610 -1.3970 -0.3817  2.1466
18401SOL    HW256817   0.574   1.877   1.565  1.2408  1.1112 -1.4068
18402SOL     OW56818   7.903   5.121   5.911 -0.0976 -0.3111  0.1461
18402SOL    HW156819   7.939   5.048   5.961  0.0740  0.4368  1.1637
18402SOL    HW256820   7.831   5.154   5.965 -0.7919 -0.3093 -0.7489
18403SOL     OW56821   6.793   1.371   9.269 -0.1739  0.0547  0.0975
18403SOL    HW156822   6.740   1.351   9.345 -0.3870  0.8004  0.1487
18403SOL    HW256823   6.858   1.435   9.300  0.4916 -0.5250 -0.0642
18404SOL     OW56824   4.078   6.937   2.211 -0.0939  0.0721  0.0854
18404SOL    HW156825   4.031   6.875   2.267  0.7919 -0.0196  0.7520
18404SOL    HW256826   4.127   6.882   2.150  1.7726 -0.0130  1.5357
18405SOL     OW56827   9.257   5.407   3.834  0.1801  0.1934 -0.3883
18405SOL    HW156828   9.293   5.457   3.761 -0.4674  1.7839  0.3394
18405SOL    HW256829   9.322   5.414   3.903 -0.9535  2.2024  0.5708
18406SOL     OW56830   1.601   0.417   6.486  0.0304  0.1603  0.2989
18406SOL    HW156831   1.652   0.493   6.513  0.3801  0.5321 -1.3096
18406SOL    HW256832   1.588   0.429   6.392 -1.0555 -1.1012  0.2588
18407SOL     OW56833   2.719   0.234   8.151 -0.4043 -0.3525  0.1634
18407SOL    HW156834   2.810   0.210   8.167 -0.4549 -0.7465 -0.0974
18407SOL    HW256835   2.684   0.159   8.102 -0.2852  0.7175 -1.6242
18408SOL     OW56836   2.112   7.341   3.982  0.1371  0.2002  0.3392
18408SOL    HW156837   2.101   7.267   3.922  1.8067  1.6278 -1.8661
18408SOL    HW256838   2.186   7.316   4.038  1.4460  0.6042 -1.1582
18409SOL     OW56839   3.531   4.845   6.316  0.3490  0.4159 -0.1482
18409SOL    HW156840   3.449   4.876   6.356 -0.4505  0.3260 -1.6153
18409SOL    HW256841   3.502   4.803   6.235  1.6485 -1.9062  0.5390
18410SOL     OW56842   1.569   9.081   9.456 -0.4912 -0.1899  0.1750
18410SOL    HW156843   1.532   9.085   9.544  0.2891  0.5952  0.4886
18410SOL    HW256844   1.517   9.015   9.411 -1.1937 -0.2843  1.0870
18411SOL     OW56845   8.777   6.651   0.234  0.0485 -0.1290  0.1151
18411SOL    HW156846   8.804   6.609   0.152 -0.9310  1.6413 -1.2014
18411SOL    HW256847   8.746   6.738   0.207  0.6736  0.9211  2.5081
18412SOL     OW56848   7.197   9.816   4.368  0.1954 -0.4347 -0.0044
18412SOL    HW156849   7.219   9.881   4.301  1.7776 -0.3708  0.5394
18412SOL    HW256850   7.105   9.796   4.353 -0.4575  2.2428  0.0761
18413SOL     OW56851   8.137   5.075   2.403 -0.0548  0.0072  0.2034
18413SOL    HW156852   8.112   4.997   2.353  1.3031  0.1894 -0.8468
18413SOL    HW256853   8.127   5.147   2.341 -0.4708  0.5633  0.9025
18414SOL     OW56854   2.362   3.589   7.457  0.0731  0.1142  0.4676
18414SOL    HW156855   2.441   3.606   7.509  0.6172  0.9311 -0.5704
18414SOL    HW256856   2.298   3.653   7.488  1.2382  2.4473 -1.5589
18415SOL     OW56857   5.203   2.941   1.919  0.0587  0.2999 -0.2861
18415SOL    HW156858   5.198   2.847   1.934 -0.1865  0.0114 -1.9751
18415SOL    HW256859   5.297   2.961   1.926  0.1146 -0.0739  0.0648
18416SOL     OW56860   1.351   6.710   3.824 -0.2705 -0.3040 -0.6198
18416SOL    HW156861   1.438   6.750   3.819 -0.9113  1.1623 -0.8539
18416SOL    HW256862   1.292   6.778   3.790 -1.6959 -0.6008  1.1090
18417SOL     OW56863   3.914   7.993   2.274 -0.1315  0.4593  0.0946
18417SOL    HW156864   3.996   7.975   2.229 -0.6705 -2.0235 -0.0441
18417SOL    HW256865   3.940   8.026   2.360  1.1148 -2.1143  0.7872
18418SOL     OW56866   2.805   1.390   1.866 -0.3339  0.0014  0.6537
18418SOL    HW156867   2.729   1.436   1.901  0.7292  0.3165  2.6466
18418SOL    HW256868   2.780   1.297   1.870 -0.9707  0.1570  0.3845
18419SOL     OW56869   9.384   2.963   0.128  0.2308  0.0061 -0.1633
18419SOL    HW156870   9.442   3.038   0.139  0.8208 -0.6608  1.5910
18419SOL    HW256871   9.353   2.943   0.217 -1.4047 -0.6730 -0.8365
18420SOL     OW56872   3.722   5.823   6.081  0.1533 -0.3124 -0.0142
18420SOL    HW156873   3.804   5.825   6.130  0.9517 -0.4351 -1.2800
18420SOL    HW256874   3.725   5.741   6.032 -0.6567 -0.2550 -0.1648
18421SOL     OW56875   4.618   2.515   8.574  0.2268  0.4534 -0.4556
18421SOL    HW156876   4.555   2.481   8.637  1.0567 -0.6739 -0.2136
18421SOL    HW256877   4.650   2.438   8.527  2.6315  0.7490  0.5435
18422SOL     OW56878   2.509   3.385   8.909 -0.2352 -0.0798  0.0098
18422SOL    HW156879   2.466   3.430   8.836  0.3858 -0.7442 -0.7916
18422SOL    HW256880   2.470   3.298   8.910  0.9360 -0.6335 -0.6173
18423SOL     OW56881   9.355   1.144   1.422 -0.1227 -0.1760  0.1659
18423SOL    HW156882   9.284   1.177   1.367  0.5735 -1.6456 -1.7447
18423SOL    HW256883   9.435   1.174   1.379  0.4423 -0.2143  1.1686
18424SOL     OW56884   1.785   6.754   4.448  0.2860 -0.1535 -0.6028
18424SOL    HW156885   1.766   6.762   4.542  1.3531 -1.3268 -0.2667
18424SOL    HW256886   1.854   6.819   4.433  2.3294 -2.0198  0.1391
18425SOL     OW56887   8.284   6.906   9.763 -0.0231  0.6086 -0.1753
18425SOL    HW156888   8.323   6.920   9.677 -0.8335 -1.2084 -0.8796
18425SOL    HW256889   8.337   6.836   9.802 -0.6610  0.2963  0.1407
18426SOL     OW56890   0.556   5.375   7.435 -0.2960  0.9025  0.2203
18426SOL    HW156891   0.524   5.355   7.347 -0.9103 -0.3239  0.6952
18426SOL    HW256892   0.499   5.323   7.493  0.0850  1.6993  1.3389
18427SOL     OW56893   8.899   7.658   3.656  0.0141  0.3475  0.6586
18427SOL    HW156894   8.884   7.671   3.750 -0.0541 -0.1691  0.7242
18427SOL    HW256895   8.826   7.603   3.628 -1.3686  2.5139 -0.2420
18428SOL     OW56896   3.650   4.803   3.592  0.1754 -0.2713 -0.0206
18428SOL    HW156897   3.614   4.836   3.510 -1.3414 -0.3945  0.5630
18428SOL    HW256898   3.601   4.849   3.660  0.4621 -1.1495  0.8053
18429SOL     OW56899   0.516   8.576   1.075 -0.5122  0.8294 -0.0798
18429SOL    HW156900   0.475   8.621   1.149 -0.5295 -0.1157  0.5026
18429SOL    HW256901   0.444   8.555   1.016 -0.7455  0.0146  0.4879
18430SOL     OW56902   5.851   1.830   0.465 -0.5849  0.5171 -0.0588
18430SOL    HW156903   5.795   1.887   0.517 -0.8598 -0.1432  0.3914
18430SOL    HW256904   5.830   1.851   0.374 -0.4089  1.3860  0.0905
18431SOL     OW56905   7.763   3.209   1.976  0.2561 -0.2981 -0.8290
18431SOL    HW156906   7.854   3.193   2.001  0.2886  0.0480 -0.7237
18431SOL    HW256907   7.732   3.124   1.944  1.0994 -0.0667 -2.3864
18432SOL     OW56908   5.017   3.293   0.022  0.2180 -0.0415 -0.0001
18432SOL    HW156909   5.087   3.284   0.086 -0.2035 -0.3175  0.4267
18432SOL    HW256910   5.006   3.388   0.012  1.3316  0.0151 -0.8325
18433SOL     OW56911   1.634   1.048   7.088 -0.3765  0.0318  0.4642
18433SOL    HW156912   1.676   0.964   7.104 -0.5208 -0.1837 -0.2429
18433SOL    HW256913   1.637   1.093   7.172 -1.6211 -1.2622  1.2352
18434SOL     OW56914   0.380   2.926   2.064  0.0937 -0.4072 -0.4007
18434SOL    HW156915   0.395   2.844   2.112 -2.1351  0.6853  2.5050
18434SOL    HW256916   0.285   2.935   2.061  0.2678  1.7757 -1.2054
18435SOL     OW56917   5.236   0.041   1.168 -0.2751 -0.5144 -0.1991
18435SOL    HW156918   5.161   0.091   1.137  0.2188  1.3411  1.3693
18435SOL    HW256919   5.311   0.100   1.157  0.4078 -1.0435  1.2868
18436SOL     OW56920   2.174   2.305   4.901  0.1520 -0.0614 -0.3909
18436SOL    HW156921   2.240   2.375   4.902  1.8126 -1.5284 -0.9522
18436SOL    HW256922   2.191   2.257   4.982 -0.6711 -0.0840 -0.2318
18437SOL     OW56923   3.687   4.196   3.638  0.7395  0.0412 -0.1912
18437SOL    HW156924   3.602   4.234   3.661  0.6156 -0.4044  0.1000
18437SOL    HW256925   3.678   4.102   3.658  1.3572  0.0196  0.0103
18438SOL     OW56926   0.512   3.542   4.635  0.3735 -0.0926 -0.2248
18438SOL    HW156927   0.591   3.546   4.689  0.1212 -1.2121  0.2649
18438SOL    HW256928   0.531   3.473   4.571 -0.2476 -0.4509 -0.0255
18439SOL     OW56929   3.479   6.769   0.018  0.2455 -0.2561 -0.3081
18439SOL    HW156930   3.430   6.816   0.085  0.7618  0.6306 -0.5378
18439SOL    HW256931   3.556   6.736   0.063  1.2711  1.4744 -0.7194
18440SOL     OW56932   4.097   3.285   9.616 -0.1412 -0.1304 -0.4865
18440SOL    HW156933   4.142   3.370   9.617 -1.8520  0.8261  0.0622
18440SOL    HW256934   4.159   3.225   9.575  1.5764  1.1231  0.1664
18441SOL     OW56935   9.056   4.051   9.034 -0.1796 -0.0776  0.0188
18441SOL    HW156936   9.116   4.114   9.073  0.3888 -0.7851  0.3106
18441SOL    HW256937   8.973   4.099   9.025 -0.3422  0.1371  2.1300
18442SOL     OW56938   6.377   0.105   6.933  0.2729  0.7655  0.4574
18442SOL    HW156939   6.369   0.146   6.847 -1.7891 -0.5991 -0.0773
18442SOL    HW256940   6.320   0.029   6.929  2.3772 -1.0305  2.0929
18443SOL     OW56941   3.174   2.038   9.753  0.0113  0.3780 -0.1933
18443SOL    HW156942   3.180   2.047   9.848 -1.3333  1.4069 -0.1720
18443SOL    HW256943   3.084   2.007   9.738  0.7076 -1.4066 -1.0547
18444SOL     OW56944   7.020   2.622   9.187  0.1688  0.2894 -0.0812
18444SOL    HW156945   7.070   2.542   9.172  0.0456  0.1257  0.3733
18444SOL    HW256946   7.085   2.685   9.218  0.4928  0.7329 -1.5461
18445SOL     OW56947   2.595   7.768   5.747 -0.4556  0.0414  0.2392
18445SOL    HW156948   2.552   7.716   5.815  1.9289 -0.6925  1.2875
18445SOL    HW256949   2.618   7.704   5.679  0.7173  0.0259  0.6240
18446SOL     OW56950   6.212   4.250   5.095 -0.0958  0.0808 -0.0963
18446SOL    HW156951   6.195   4.217   5.006  0.1527 -1.3426  0.3552
18446SOL    HW256952   6.307   4.241   5.106 -0.2585 -0.8221  0.6972
18447SOL     OW56953   6.602   8.761   7.774 -0.0776 -0.0029  0.3061
18447SOL    HW156954   6.606   8.721   7.861 -1.2814 -0.8103  0.0157
18447SOL    HW256955   6.516   8.804   7.771 -0.9985 -1.8244 -1.2200
18448SOL     OW56956   1.752   3.340   8.744  0.5146  0.2015  0.5888
18448SOL    HW156957   1.836   3.386   8.751  0.5196  0.0525  1.6893
18448SOL    HW256958   1.775   3.247   8.754  0.0898  0.2472  2.2753
18449SOL     OW56959   8.315   5.869   0.597 -0.0970 -0.5325 -0.2293
18449SOL    HW156960   8.364   5.943   0.633  1.9614 -2.0624  0.2661
18449SOL    HW256961   8.235   5.909   0.561  0.2790  1.7320  1.2381
18450SOL     OW56962   4.299   4.888   8.576  0.2651 -0.0506 -0.2938
18450SOL    HW156963   4.357   4.946   8.527 -1.2350  1.0375 -0.8769
18450SOL    HW256964   4.219   4.939   8.587  0.8658  0.3150  4.4741
18451SOL     OW56965   2.593   4.548   6.871 -0.4340  0.3945  0.0144
18451SOL    HW156966   2.671   4.583   6.829 -1.6040  0.5303 -2.1781
18451SOL    HW256967   2.573   4.610   6.940  0.4630  1.2234 -0.4439
18452SOL     OW56968   5.767   2.059   9.814  0.0363 -0.3953 -0.3165
18452SOL    HW156969   5.698   2.125   9.813  2.0985  1.8905 -1.0037
18452SOL    HW256970   5.778   2.037   9.907 -0.2923  0.7145  0.0012
18453SOL     OW56971   8.454   9.057   6.739 -0.0909 -0.2819 -0.0584
18453SOL    HW156972   8.548   9.058   6.721  0.1530 -3.2717  0.5024
18453SOL    HW256973   8.447   9.092   6.828  0.5505 -0.3256  0.0174
18454SOL     OW56974   8.841   4.435   2.103  0.1406 -0.3530 -0.3539
18454SOL    HW156975   8.824   4.412   2.012 -0.3214 -1.4685  0.0033
18454SOL    HW256976   8.924   4.483   2.101 -0.0357 -0.0786 -1.3946
18455SOL     OW56977   6.410   0.953   2.785 -0.6233  0.2512  0.0116
18455SOL    HW156978   6.381   0.898   2.858 -1.2417  0.3619 -0.1522
18455SOL    HW256979   6.379   1.040   2.808 -1.1095  0.2260 -0.5447
18456SOL     OW56980   6.102   4.291   7.909 -0.0949 -0.4824  0.1165
18456SOL    HW156981   6.078   4.231   7.838 -0.3307  0.3781 -0.5496
18456SOL    HW256982   6.193   4.271   7.928 -0.1810 -1.0718 -0.0685
18457SOL     OW56983   9.094   5.033   5.523  0.2264 -0.4796  0.3153
18457SOL    HW156984   9.118   5.103   5.462  0.8830 -0.6896  0.3215
18457SOL    HW256985   9.059   4.963   5.468 -1.2526  0.1639  0.3779
18458SOL     OW56986   5.341   8.251   6.264 -0.1645 -0.4957 -0.4165
18458SOL    HW156987   5.341   8.172   6.318  0.6547 -0.6777 -0.6557
18458SOL    HW256988   5.308   8.222   6.179 -5.8790  0.6502  1.0059
18459SOL     OW56989   1.981   3.260   7.665  0.2113 -0.9773 -0.1556
18459SOL    HW156990   2.031   3.264   7.583 -2.5909 -0.1474 -1.9494
18459SOL    HW256991   1.968   3.351   7.690  0.6644 -1.2154  1.0391
18460SOL     OW56992   3.542   3.396   5.246  0.4089 -0.1720  0.2469
18460SOL    HW156993   3.587   3.366   5.325  3.3255 -1.6666 -1.7867
18460SOL    HW256994   3.586   3.478   5.223  1.6782 -1.2003 -1.2810
18461SOL     OW56995   0.632   5.101   8.380 -0.0532 -0.5213 -0.2342
18461SOL    HW156996   0.647   5.016   8.340  0.0119  0.1202 -1.6209
18461SOL    HW256997   0.558   5.087   8.439  0.9956 -1.9098  0.8383
18462SOL     OW56998   5.853   4.825   2.000  0.0435  0.1924 -0.1479
18462SOL    HW156999   5.796   4.894   2.035  0.3525  0.2296  0.2893
18462SOL    HW257000   5.874   4.770   2.076 -0.4536 -0.5728 -0.5427
18463SOL     OW57001   7.881   1.984   7.517 -0.2350 -0.1614 -0.1641
18463SOL    HW157002   7.947   2.018   7.578 -0.3874  0.9817 -0.6295
18463SOL    HW257003   7.842   2.061   7.478 -0.2734 -0.8751 -1.5937
18464SOL     OW57004   2.114   9.809   5.507  0.1606 -0.5991  0.3747
18464SOL    HW157005   2.122   9.900   5.478  0.2557 -1.3049 -2.0400
18464SOL    HW257006   2.024   9.785   5.487  0.6662 -1.5737 -0.9026
18465SOL     OW57007   8.235   3.007   8.114  0.7393 -0.4841 -0.2336
18465SOL    HW157008   8.279   3.014   8.030  1.0218 -0.6277 -0.0984
18465SOL    HW257009   8.302   3.028   8.179  0.7569 -1.2052 -0.0004
18466SOL     OW57010   6.162   9.260   4.275 -0.0106 -0.5252 -0.0673
18466SOL    HW157011   6.133   9.339   4.322  1.4891 -0.3395  0.6231
18466SOL    HW257012   6.082   9.209   4.263 -0.8301  0.5564  0.5271
18467SOL     OW57013   4.458   6.534   9.712  0.0931 -0.1966 -0.3269
18467SOL    HW157014   4.452   6.466   9.644 -0.3453 -0.2246 -0.2609
18467SOL    HW257015   4.367   6.555   9.733  0.1701  1.5347 -1.4728
18468SOL     OW57016   1.894   7.628   5.084 -0.0045  0.0770 -0.2800
18468SOL    HW157017   1.919   7.611   5.175  1.2327  0.2022 -0.5881
18468SOL    HW257018   1.952   7.699   5.056  1.4567 -1.6873 -1.9728
18469SOL     OW57019   0.874   9.247   0.319 -0.1843  0.0463  0.0962
18469SOL    HW157020   0.919   9.240   0.235  0.2208 -0.3370  0.3389
18469SOL    HW257021   0.894   9.165   0.364 -1.1601 -0.1436  0.1982
18470SOL     OW57022   5.372   1.224   9.342 -0.1305  0.5706 -0.0798
18470SOL    HW157023   5.412   1.189   9.263 -0.5286  0.9803 -0.4656
18470SOL    HW257024   5.446   1.244   9.400  0.2304  1.3418 -0.7880
18471SOL     OW57025   1.876   9.051   2.048  0.1828  0.5583 -0.3905
18471SOL    HW157026   1.797   9.106   2.053 -0.5892 -0.5152 -0.5771
18471SOL    HW257027   1.904   9.058   1.957  0.8369  1.6498 -0.1221
18472SOL     OW57028   1.898   2.742   4.114 -0.4670  0.1230  0.5754
18472SOL    HW157029   1.890   2.828   4.072 -1.8546 -1.6240 -3.1093
18472SOL    HW257030   1.992   2.724   4.114 -0.0661  1.8539  2.1166
18473SOL     OW57031   4.755   4.508   7.002  0.8432 -0.1998  0.4088
18473SOL    HW157032   4.787   4.489   7.091 -1.3376  0.8743  1.5059
18473SOL    HW257033   4.705   4.430   6.978  0.3173  0.0410  0.7018
18474SOL     OW57034   4.842   7.554   4.242  0.0004  0.1911  0.0889
18474SOL    HW157035   4.871   7.575   4.331  1.2764 -0.0360 -0.2555
18474SOL    HW257036   4.850   7.637   4.195 -0.7254  0.3239  0.1795
18475SOL     OW57037   1.056   7.478   4.976 -0.2382 -0.0648 -0.5008
18475SOL    HW157038   0.984   7.508   5.032  1.8267  4.0337  0.3444
18475SOL    HW257039   1.094   7.405   5.024 -0.6469  1.1215  1.7957
18476SOL     OW57040   0.148   6.698   8.671  0.3472 -0.7259 -0.0202
18476SOL    HW157041   0.058   6.694   8.638  0.2135  0.6800  0.0895
18476SOL    HW257042   0.139   6.725   8.762  0.8790 -0.4216 -0.0535
18477SOL     OW57043   2.460   2.058   8.418 -0.2623  0.1403 -0.3007
18477SOL    HW157044   2.479   2.044   8.511 -1.7472 -1.4886 -0.1911
18477SOL    HW257045   2.422   2.146   8.415 -1.5833 -0.3444  0.8959
18478SOL     OW57046   3.112   8.594   1.473  0.3614  0.5603 -0.0272
18478SOL    HW157047   3.111   8.683   1.439  0.9477  1.5948  2.4757
18478SOL    HW257048   3.202   8.564   1.459  0.2302  0.4194 -0.6297
18479SOL     OW57049   0.898   3.519   8.165 -0.0003 -0.4289  0.4267
18479SOL    HW157050   0.893   3.510   8.260  0.0749  0.8389  0.5670
18479SOL    HW257051   0.831   3.584   8.143  0.3337 -0.3198 -0.3184
18480SOL     OW57052   6.840   2.227   0.398  0.1933 -0.0893  0.5487
18480SOL    HW157053   6.923   2.195   0.432 -0.6443 -0.8895  1.9218
18480SOL    HW257054   6.774   2.182   0.449 -1.1687 -1.0237 -1.8850
18481SOL     OW57055   9.089   2.387   4.286  0.5587  0.7051 -0.0515
18481SOL    HW157056   9.035   2.425   4.356  1.0210  1.0167  0.1388
18481SOL    HW257057   9.039   2.310   4.257 -0.2424  1.2787 -0.2354
18482SOL     OW57058   1.591   3.458   5.059 -0.2864  0.1786 -0.3192
18482SOL    HW157059   1.611   3.544   5.024  1.6636 -0.0932  0.0416
18482SOL    HW257060   1.675   3.414   5.066 -1.1819 -1.5983 -0.0389
18483SOL     OW57061   4.193   2.207   5.575  0.3132  0.0607 -0.5793
18483SOL    HW157062   4.242   2.126   5.562  0.0120 -0.4662  1.2306
18483SOL    HW257063   4.101   2.181   5.566  0.2461  0.3583 -0.7529
18484SOL     OW57064   3.048   7.798   5.184  0.0829  0.0478  0.6065
18484SOL    HW157065   3.020   7.795   5.275  0.8864 -1.5240  0.8315
18484SOL    HW257066   3.141   7.822   5.188 -0.0154  0.5234  0.1638
18485SOL     OW57067   6.988   3.396   1.276  0.1460  0.1401 -0.3754
18485SOL    HW157068   7.082   3.403   1.292 -0.1915  1.4569  1.1912
18485SOL    HW257069   6.956   3.486   1.276 -1.3652 -0.3495  0.7630
18486SOL     OW57070   8.453   0.700   7.068  0.1964  0.3761 -1.0502
18486SOL    HW157071   8.481   0.787   7.040 -0.2666  0.2798 -1.8222
18486SOL    HW257072   8.521   0.641   7.035  0.6961  0.4656 -0.2256
18487SOL     OW57073   2.615   4.705   1.534  1.2936 -0.6311  0.1210
18487SOL    HW157074   2.624   4.724   1.627  0.2295 -0.1641  0.1386
18487SOL    HW257075   2.641   4.786   1.490 -1.3408  0.3124  0.1384
18488SOL     OW57076   3.422   8.660   8.216  0.3717  0.1898 -0.4934
18488SOL    HW157077   3.326   8.656   8.213  0.3408  1.5042 -2.4231
18488SOL    HW257078   3.450   8.574   8.185 -0.1319 -0.5071  0.8608
18489SOL     OW57079   0.366   1.263   0.297  0.0173 -0.0365  0.4863
18489SOL    HW157080   0.385   1.192   0.359 -3.1283  0.2438  1.9640
18489SOL    HW257081   0.299   1.227   0.239 -1.6625  1.6870  1.2853
18490SOL     OW57082   3.588   4.324   3.371 -0.2931  0.0585 -0.3852
18490SOL    HW157083   3.637   4.406   3.380  0.2167 -0.3176  0.4000
18490SOL    HW257084   3.605   4.277   3.452 -1.0425 -0.5874 -0.5850
18491SOL     OW57085   4.436   7.524   0.831 -0.5438  0.1450 -0.3776
18491SOL    HW157086   4.406   7.613   0.848 -1.7285 -0.5607  1.5291
18491SOL    HW257087   4.465   7.491   0.916 -0.0776 -1.2722 -1.0496
18492SOL     OW57088   3.306   1.326   8.867 -0.7780 -0.2836 -0.2389
18492SOL    HW157089   3.231   1.267   8.870 -0.6781 -0.4949 -1.3147
18492SOL    HW257090   3.380   1.270   8.844 -0.3418 -0.0235  0.4904
18493SOL     OW57091   3.958   6.995   6.145  0.1519 -0.4896  0.6204
18493SOL    HW157092   4.041   6.955   6.169 -1.0602 -2.9676  1.0360
18493SOL    HW257093   3.927   6.943   6.071 -1.5595 -0.3980  1.2240
18494SOL     OW57094   6.277   7.937   9.123 -0.1817  0.1990  0.8169
18494SOL    HW157095   6.342   7.893   9.068 -1.3652 -0.3646 -0.2031
18494SOL    HW257096   6.249   7.870   9.186 -2.0695 -0.6641 -0.8111
18495SOL     OW57097   9.266   1.006   3.640  0.3030  0.0326 -0.2787
18495SOL    HW157098   9.226   0.925   3.607 -0.1241  0.3365 -0.5305
18495SOL    HW257099   9.360   0.992   3.632  0.2766 -0.8857  0.7610
18496SOL     OW57100   4.147   6.549   2.688  0.4479 -0.4820  0.2108
18496SOL    HW157101   4.175   6.462   2.717 -2.8381 -1.3422  1.2879
18496SOL    HW257102   4.164   6.606   2.762  0.3597 -0.7653  0.4528
18497SOL     OW57103   8.842   3.472   0.563 -0.3554  0.1492  0.2486
18497SOL    HW157104   8.759   3.494   0.521 -1.3918 -3.5700 -0.0073
18497SOL    HW257105   8.819   3.407   0.629  2.3213 -0.8124  0.3526
18498SOL     OW57106   8.916   2.365   8.027  0.2752 -0.1775 -0.2734
18498SOL    HW157107   8.998   2.404   8.056 -0.0421 -0.5510  1.1855
18498SOL    HW257108   8.863   2.357   8.106 -1.0717 -0.1966 -1.1440
18499SOL     OW57109   9.057   5.800   3.658  0.8264 -0.7178 -0.0960
18499SOL    HW157110   8.996   5.751   3.603  0.7476 -0.7914  0.0584
18499SOL    HW257111   9.142   5.759   3.642  1.3313  0.9692 -2.2825
18500SOL     OW57112   8.001   5.939   8.189 -0.2793 -0.3142  0.2443
18500SOL    HW157113   7.909   5.945   8.162 -0.3036 -1.9431 -0.1402
18500SOL    HW257114   8.025   5.848   8.173  1.4374  0.0929  0.2746
18501SOL     OW57115   0.070   7.476   8.380  0.4236  0.3344  0.0313
18501SOL    HW157116   0.149   7.529   8.385  0.4783  0.3252 -0.6244
18501SOL    HW257117   0.098   7.389   8.411  0.8455  0.1502 -0.8439
18502SOL     OW57118   8.621   0.307   5.595 -0.2298  0.1068 -0.2878
18502SOL    HW157119   8.572   0.388   5.612 -1.9305 -1.1665  1.1925
18502SOL    HW257120   8.578   0.269   5.519 -1.1569 -0.6908  0.6183
18503SOL     OW57121   8.144   5.434   5.128 -0.0059 -0.0749  0.4927
18503SOL    HW157122   8.165   5.521   5.094  1.9408 -0.9652 -0.7829
18503SOL    HW257123   8.103   5.451   5.212 -0.3665  2.0941 -0.0570
18504SOL     OW57124   6.411   8.732   8.788  0.8399 -0.3866 -0.1565
18504SOL    HW157125   6.482   8.668   8.792  1.2937  0.1582  1.0648
18504SOL    HW257126   6.450   8.808   8.746 -0.1108 -1.3472 -3.0234
18505SOL     OW57127   8.691   6.965   7.020 -0.1255  0.2382 -0.4714
18505SOL    HW157128   8.764   6.958   7.081 -0.7744  1.8990  0.5576
18505SOL    HW257129   8.651   6.878   7.021  2.2148 -0.9773 -1.6579
18506SOL     OW57130   2.371   1.429   5.277 -0.7529 -0.6369 -0.0139
18506SOL    HW157131   2.374   1.449   5.371  0.4947  3.7104 -0.7542
18506SOL    HW257132   2.288   1.468   5.247 -0.0491  0.1492 -1.0166
18507SOL     OW57133   9.596   1.828   6.295 -0.3713  0.4451  0.2337
18507SOL    HW157134   9.596   1.775   6.375 -0.1268  1.3598  0.8554
18507SOL    HW257135   9.619   1.916   6.325 -1.0187  0.9633 -0.7350
18508SOL     OW57136   3.527   6.031   8.066 -0.3567 -0.1806 -0.3102
18508SOL    HW157137   3.575   5.989   8.137  1.3826 -0.3771 -1.5375
18508SOL    HW257138   3.483   6.105   8.107  1.5472  0.3976  0.7958
18509SOL     OW57139   0.233   8.729   9.641 -0.0068  0.2241 -0.0465
18509SOL    HW157140   0.223   8.821   9.666  0.7447  0.8573 -1.8941
18509SOL    HW257141   0.300   8.696   9.701 -0.3444  0.8423  0.6959
18510SOL     OW57142   3.053   8.498   9.510  0.0894  0.4890  0.3126
18510SOL    HW157143   3.070   8.495   9.604 -1.2642 -1.2517  0.5332
18510SOL    HW257144   3.049   8.407   9.483 -0.1136  0.9582 -1.3514
18511SOL     OW57145   4.166   9.061   8.863  0.0797 -0.0933 -0.3186
18511SOL    HW157146   4.248   9.024   8.896 -0.4638  0.0621  1.2890
18511SOL    HW257147   4.115   8.984   8.836 -0.6528 -0.5306  2.0897
18512SOL     OW57148   1.042   9.559   7.970  0.0455 -0.5759 -0.2623
18512SOL    HW157149   0.991   9.500   8.025  0.6761 -1.5225 -0.6603
18512SOL    HW257150   1.045   9.515   7.885  0.2841  0.1753 -0.6472
18513SOL     OW57151   9.772   2.121   0.398 -0.2709  0.6565 -0.8657
18513SOL    HW157152   9.832   2.069   0.344  0.6323  1.0868 -0.2848
18513SOL    HW257153   9.698   2.062   0.414  2.1066 -1.7448  2.5348
18514SOL     OW57154   3.678   6.713   1.864  0.3435 -0.2959 -0.1452
18514SOL    HW157155   3.681   6.647   1.932  0.4169 -0.2895 -0.1424
18514SOL    HW257156   3.763   6.756   1.867 -0.4044  1.2010  1.2395
18515SOL     OW57157   8.861   1.279   6.729  0.4718 -0.2805 -0.3202
18515SOL    HW157158   8.836   1.353   6.785  1.4829 -0.7339  0.7687
18515SOL    HW257159   8.954   1.267   6.745  0.0543 -2.7723  0.7567
18516SOL     OW57160   4.255   4.316   5.269 -0.2891  0.4528  0.4198
18516SOL    HW157161   4.315   4.241   5.268 -1.1074 -0.2300  0.9474
18516SOL    HW257162   4.283   4.368   5.345  0.4097  0.8052 -0.0685
18517SOL     OW57163   1.737   5.554   4.345  0.6553  0.5203  0.6877
18517SOL    HW157164   1.824   5.548   4.383 -0.0514 -1.0187  2.2035
18517SOL    HW257165   1.718   5.466   4.313  0.7144  1.4710 -2.2308
18518SOL     OW57166   8.606   2.342   5.300  0.0950  0.1587 -0.4441
18518SOL    HW157167   8.672   2.339   5.231  2.4196  0.3348  1.6327
18518SOL    HW257168   8.613   2.257   5.343  1.0699  1.1958  1.5737
18519SOL     OW57169   3.742   8.817   6.576  0.3107 -0.4479  0.2372
18519SOL    HW157170   3.806   8.774   6.633 -1.5494 -0.8323  2.1995
18519SOL    HW257171   3.733   8.905   6.614 -1.2778 -0.8565  0.8879
18520SOL     OW57172   2.841   6.227   5.032  0.8707 -0.4944  0.4076
18520SOL    HW157173   2.763   6.281   5.046  1.3450 -0.0738  1.5575
18520SOL    HW257174   2.843   6.168   5.108  1.4017 -0.8346  0.1343
18521SOL     OW57175   8.641   4.780   4.158  0.1785 -0.0880 -0.2117
18521SOL    HW157176   8.624   4.709   4.096 -6.5305 -1.3459  2.1683
18521SOL    HW257177   8.612   4.859   4.112  0.2515 -0.1674 -0.3932
18522SOL     OW57178   3.548   1.802   5.504 -0.4310 -0.1153 -0.4742
18522SOL    HW157179   3.580   1.867   5.441 -1.3451 -0.4860 -1.3519
18522SOL    HW257180   3.619   1.739   5.511  0.1763  0.5806 -0.1668
18523SOL     OW57181   7.107   5.119   4.626 -0.0199 -0.2416 -0.3353
18523SOL    HW157182   7.108   5.086   4.716  0.1648  1.9816  0.5645
18523SOL    HW257183   7.015   5.122   4.603 -0.1302 -0.0859  0.1045
18524SOL     OW57184   0.010   7.600   1.922 -0.0333  0.2502 -0.1895
18524SOL    HW157185  -0.075   7.611   1.880  0.4112  0.6105 -1.0181
18524SOL    HW257186   0.045   7.520   1.884  1.2106  1.5849 -2.0479
18525SOL     OW57187   9.433   8.951   2.202  0.0493 -0.6516 -0.0380
18525SOL    HW157188   9.360   8.913   2.252  0.7402 -1.7429  0.1726
18525SOL    HW257189   9.509   8.899   2.229  0.8942  0.4383 -0.2977
18526SOL     OW57190   1.174   0.611   7.588  0.1463  0.4234 -0.3875
18526SOL    HW157191   1.135   0.574   7.508 -0.3395 -0.1211  0.0881
18526SOL    HW257192   1.176   0.705   7.572 -0.0554  0.3303 -0.9973
18527SOL     OW57193   2.297   6.450   7.753  0.1639 -0.0812  0.2986
18527SOL    HW157194   2.263   6.495   7.676  0.9500  0.0047 -0.0076
18527SOL    HW257195   2.307   6.359   7.724  0.8896  0.0399  0.1469
18528SOL     OW57196   7.422   1.404   2.293 -0.3223  0.1384  0.4726
18528SOL    HW157197   7.466   1.420   2.209  0.8416  0.4366  1.1170
18528SOL    HW257198   7.370   1.325   2.277  1.9750 -1.4242  0.1985
18529SOL     OW57199   7.249   0.169   4.134 -0.0446 -0.0913  0.0518
18529SOL    HW157200   7.302   0.105   4.086  0.8363  0.7411 -0.1006
18529SOL    HW257201   7.200   0.215   4.066 -1.6773 -1.4404  0.2466
18530SOL     OW57202   6.638   8.884   6.354 -0.0463 -0.0313 -0.3292
18530SOL    HW157203   6.716   8.932   6.326 -0.2552 -0.0618 -0.9996
18530SOL    HW257204   6.581   8.886   6.277  0.2516 -2.0165 -0.6665
18531SOL     OW57205   4.906   7.246   8.505 -0.2609  0.2259 -0.4002
18531SOL    HW157206   4.886   7.264   8.413 -0.8445  0.2730 -0.2734
18531SOL    HW257207   4.834   7.289   8.553 -0.6114 -0.7971  0.0171
18532SOL     OW57208   9.836   3.526   3.618  0.1869 -0.2555  0.2660
18532SOL    HW157209   9.779   3.550   3.690  0.2274  0.3203  0.1051
18532SOL    HW257210   9.871   3.608   3.585  0.0713 -0.4978 -0.4905
18533SOL     OW57211   7.960   0.634   3.761 -0.1991 -0.0318  0.2710
18533SOL    HW157212   7.970   0.662   3.670  1.7175  0.3329  0.5436
18533SOL    HW257213   7.952   0.539   3.757  2.1307 -0.2624 -0.2035
18534SOL     OW57214   7.755   5.245   8.620  0.0602  0.1268 -0.5030
18534SOL    HW157215   7.837   5.204   8.644  1.0881  2.1216 -0.3729
18534SOL    HW257216   7.691   5.210   8.681  0.8871 -1.1543 -0.3472
18535SOL     OW57217   9.609   1.246   5.872 -0.1281  0.0361  0.0134
18535SOL    HW157218   9.560   1.313   5.824 -1.3136 -1.1654 -0.4956
18535SOL    HW257219   9.685   1.293   5.907  0.2652  1.1931 -2.2077
18536SOL     OW57220   5.089   1.467   8.129 -0.2738 -0.6318  0.3935
18536SOL    HW157221   5.113   1.557   8.150 -0.2000 -0.4459 -0.4551
18536SOL    HW257222   5.005   1.453   8.174 -1.9123  0.9192 -1.9439
18537SOL     OW57223   6.451   4.687   3.488 -0.0159 -0.1822 -0.0643
18537SOL    HW157224   6.483   4.679   3.398 -0.7161 -1.3018 -0.2287
18537SOL    HW257225   6.507   4.755   3.527  1.3099 -0.7552 -0.8860
18538SOL     OW57226   7.756   5.382   5.317  0.0772 -0.1697 -0.0356
18538SOL    HW157227   7.720   5.421   5.237 -2.6273 -1.1971  0.5724
18538SOL    HW257228   7.774   5.291   5.294 -1.8638 -0.8053  0.7591
18539SOL     OW57229   5.285   9.659   6.159 -0.3337 -0.4533 -0.7708
18539SOL    HW157230   5.258   9.748   6.138 -0.6235  0.0685  1.6185
18539SOL    HW257231   5.204   9.609   6.166 -0.5382  0.1569  2.2394
18540SOL     OW57232   0.745   3.446   8.778  0.1978 -0.4029  0.0932
18540SOL    HW157233   0.712   3.535   8.790  0.5791 -0.2559  0.0783
18540SOL    HW257234   0.801   3.431   8.854  1.2337 -0.1137 -0.5887
18541SOL     OW57235   7.422   4.818   8.119 -0.0002  0.5119 -0.1364
18541SOL    HW157236   7.341   4.858   8.149 -1.4838 -1.9105 -0.6619
18541SOL    HW257237   7.491   4.866   8.165 -1.5959  3.4467 -0.5777
18542SOL     OW57238   1.712   5.689   9.473 -0.3914  0.0817 -0.3097
18542SOL    HW157239   1.753   5.689   9.560  1.9324  0.2138 -1.3343
18542SOL    HW257240   1.625   5.654   9.488 -0.2006  0.4857  2.1452
18543SOL     OW57241   4.679   3.018   2.734  0.0014 -0.2242  0.1330
18543SOL    HW157242   4.729   3.097   2.711 -0.8426  0.5204  0.7646
18543SOL    HW257243   4.669   2.972   2.651  2.2181 -0.7213  0.0625
18544SOL     OW57244   0.875   8.301   3.799 -0.0782  0.2715  0.1206
18544SOL    HW157245   0.892   8.275   3.709  0.6366 -1.0404  0.6114
18544SOL    HW257246   0.824   8.382   3.791  1.6064  1.2656 -1.4369
18545SOL     OW57247   1.833   0.470   9.255 -0.4806  0.0331 -0.1388
18545SOL    HW157248   1.747   0.430   9.247 -1.2849  1.6647  0.0842
18545SOL    HW257249   1.816   0.563   9.271  1.3193  0.5280 -0.8041
18546SOL     OW57250   7.072   1.413   2.465  0.2106 -0.0251 -0.3277
18546SOL    HW157251   7.125   1.351   2.516  0.0473  0.3557  0.3125
18546SOL    HW257252   7.019   1.358   2.408  0.0319 -0.4845  0.2670
18547SOL     OW57253   9.425   0.594   9.548 -0.1959  0.2266 -0.0221
18547SOL    HW157254   9.439   0.682   9.513  0.9971 -0.4091 -1.2569
18547SOL    HW257255   9.360   0.555   9.489  0.2520 -0.1446 -0.2776
18548SOL     OW57256   3.739   5.363   2.607 -0.6090 -0.5018 -0.2595
18548SOL    HW157257   3.687   5.418   2.549 -1.0760 -0.1636  0.4684
18548SOL    HW257258   3.742   5.278   2.562  1.2519  0.4266 -2.0645
18549SOL     OW57259   4.985   3.489   8.406  0.4407  0.4340  0.6590
18549SOL    HW157260   4.938   3.483   8.323  0.5109  0.3526  0.6242
18549SOL    HW257261   4.917   3.486   8.473  0.2603  2.0683  0.5713
18550SOL     OW57262   3.632   9.247   0.215 -0.1171  0.3673  0.4932
18550SOL    HW157263   3.726   9.263   0.204 -0.5832  1.7451 -2.4736
18550SOL    HW257264   3.590   9.299   0.146 -3.0600 -0.5763  1.3986
18551SOL     OW57265   8.554   9.655   0.024  0.2604 -0.2737  0.0772
18551SOL    HW157266   8.617   9.687  -0.041  0.4964 -1.9422 -0.5689
18551SOL    HW257267   8.545   9.562   0.005 -0.9843 -0.4557  1.3694
18552SOL     OW57268   5.530   9.129   7.373  0.4966  0.0208  0.1646
18552SOL    HW157269   5.604   9.182   7.401  1.7737 -0.3631 -2.2704
18552SOL    HW257270   5.569   9.053   7.329 -1.3259 -1.1105  0.3683
18553SOL     OW57271   6.661   0.774   2.845 -0.6056 -0.2746  0.2225
18553SOL    HW157272   6.610   0.755   2.923 -0.8787  0.0569  0.1259
18553SOL    HW257273   6.638   0.704   2.783 -2.2878  0.8368 -0.4542
18554SOL     OW57274   2.501   7.028   7.073 -0.0734 -0.7424  0.3634
18554SOL    HW157275   2.570   7.093   7.082  0.0241 -0.4646 -1.8131
18554SOL    HW257276   2.496   6.985   7.159  1.0028  0.9770  1.3318
18555SOL     OW57277   9.601   3.961   3.862 -0.1679  0.0849 -0.0467
18555SOL    HW157278   9.637   3.899   3.925 -1.6286  0.3329  1.0943
18555SOL    HW257279   9.507   3.944   3.863 -0.4259  1.3783 -0.7406
18556SOL     OW57280   6.643   8.686   6.567 -0.4358 -0.5564  0.0136
18556SOL    HW157281   6.683   8.606   6.534 -1.1559 -0.1423 -2.0388
18556SOL    HW257282   6.619   8.736   6.489 -1.3456  1.0035  1.1975
18557SOL     OW57283   7.393   1.673   6.934  0.7196  0.0657 -0.1169
18557SOL    HW157284   7.376   1.768   6.933  0.7656  0.0712 -0.4562
18557SOL    HW257285   7.458   1.662   7.004  0.2096  0.1939  0.3889
18558SOL     OW57286   5.825   6.745   2.882  0.3814  0.0736 -0.0769
18558SOL    HW157287   5.794   6.658   2.857  1.3111 -0.6868  1.2726
18558SOL    HW257288   5.836   6.741   2.977 -0.0344  1.8363  0.0888
18559SOL     OW57289   3.520   7.879   6.968  0.1571 -0.7018 -0.2581
18559SOL    HW157290   3.509   7.925   7.051 -2.0321 -1.5155 -0.0525
18559SOL    HW257291   3.562   7.796   6.992 -0.9472 -1.1628  0.1361
18560SOL     OW57292   5.348   8.492   3.404  0.0043  0.3500  0.4245
18560SOL    HW157293   5.425   8.497   3.346  0.8023  0.3558  1.4570
18560SOL    HW257294   5.331   8.583   3.428 -0.5772  0.3877 -0.1007
18561SOL     OW57295   7.390   4.787   7.022 -0.1143 -0.2543 -0.3463
18561SOL    HW157296   7.380   4.833   6.939 -0.7197  0.9136  0.3679
18561SOL    HW257297   7.302   4.756   7.044 -0.4773  1.6457  1.0973
18562SOL     OW57298   3.230   5.323   1.018 -0.3685  0.2706 -0.3512
18562SOL    HW157299   3.188   5.253   0.967 -0.2394  0.4191 -0.6632
18562SOL    HW257300   3.324   5.311   1.003  0.0014 -1.9502  2.7277
18563SOL     OW57301   7.951   9.840   1.891  0.6929 -0.2298 -0.5725
18563SOL    HW157302   7.960   9.887   1.808 -0.0317 -0.5282 -0.8218
18563SOL    HW257303   7.929   9.908   1.955  1.7966  0.0866 -0.5001
18564SOL     OW57304   6.255   2.489   2.112 -0.7387  0.3013 -0.1202
18564SOL    HW157305   6.212   2.507   2.028  1.6059 -0.0860 -1.5159
18564SOL    HW257306   6.271   2.394   2.111 -1.2961  0.1721  1.1254
18565SOL     OW57307   0.805   2.248   3.015  0.1088 -0.0235  0.0742
18565SOL    HW157308   0.799   2.223   3.107  1.3310 -3.7501 -0.6961
18565SOL    HW257309   0.714   2.251   2.985 -0.3193  1.4008  1.3472
18566SOL     OW57310   8.013   5.746   4.658  0.4226  0.0450 -0.0342
18566SOL    HW157311   8.037   5.792   4.738  0.5993  0.3407 -0.2556
18566SOL    HW257312   7.920   5.724   4.670  0.0398  1.4242 -0.3850
18567SOL     OW57313   1.246   1.183   2.604  0.1488 -0.1610  0.1415
18567SOL    HW157314   1.268   1.145   2.519 -0.7687  2.0395 -1.1824
18567SOL    HW257315   1.164   1.230   2.588 -0.6475 -0.6086  2.5583
18568SOL     OW57316   2.363   8.023   0.523 -0.1176  0.2109 -0.1086
18568SOL    HW157317   2.321   7.941   0.496 -0.1324 -0.0276  0.6141
18568SOL    HW257318   2.446   7.996   0.563  1.1666  0.7277 -2.2519
18569SOL     OW57319   2.318   0.849   3.410  0.3370 -0.2393  0.1671
18569SOL    HW157320   2.303   0.941   3.387 -1.4962 -1.1386 -2.7843
18569SOL    HW257321   2.393   0.823   3.356  0.3498 -0.6701  0.3887
18570SOL     OW57322   4.272   5.829   5.636  0.3060 -0.1850 -0.3908
18570SOL    HW157323   4.353   5.880   5.634 -0.1465  0.6312  0.7311
18570SOL    HW257324   4.257   5.813   5.729 -0.3355 -1.1243 -0.6493
18571SOL     OW57325   1.971   7.970   9.542  0.0113  0.1907  0.1013
18571SOL    HW157326   2.054   8.016   9.552  1.1206 -1.4019 -1.2960
18571SOL    HW257327   1.944   7.951   9.632 -0.5637  3.5158  0.7565
18572SOL     OW57328   2.155   0.687   5.786  0.0526 -0.6806 -0.3802
18572SOL    HW157329   2.096   0.614   5.765  1.2785 -2.3104  1.4912
18572SOL    HW257330   2.195   0.662   5.869  3.6522  0.1384 -1.7059
18573SOL     OW57331   4.538   3.507   5.344 -0.2190  0.2654  0.4037
18573SOL    HW157332   4.500   3.503   5.256  0.7008 -1.5895  0.0449
18573SOL    HW257333   4.486   3.445   5.395  0.4173 -0.0311  0.6937
18574SOL     OW57334   3.405   3.247   7.661 -0.0163 -0.1824 -0.0633
18574SOL    HW157335   3.474   3.301   7.622 -0.0636 -1.0292 -1.3680
18574SOL    HW257336   3.444   3.159   7.667 -0.4053 -0.3083  0.7803
18575SOL     OW57337   2.344   0.560   1.057  0.2912  0.8480  0.4453
18575SOL    HW157338   2.337   0.490   0.992  1.4907  1.1512 -0.0359
18575SOL    HW257339   2.416   0.534   1.114  0.9596  1.8169  0.0747
18576SOL     OW57340   2.321   5.714   1.237  0.1026 -0.1264  0.1647
18576SOL    HW157341   2.321   5.642   1.174  0.3810  0.8623 -0.9982
18576SOL    HW257342   2.388   5.774   1.205 -0.6417  1.0232  0.6982
18577SOL     OW57343   9.435   0.354   1.246  0.7174  0.0008 -0.4248
18577SOL    HW157344   9.377   0.294   1.199  1.7884 -1.0899 -0.4113
18577SOL    HW257345   9.518   0.307   1.252  1.9318  1.8994 -1.3106
18578SOL     OW57346   1.059   2.199   2.995 -0.4722 -0.1810 -0.1506
18578SOL    HW157347   0.971   2.233   3.010 -0.2866  0.5958 -0.7438
18578SOL    HW257348   1.105   2.213   3.078 -0.9016 -0.6036  0.1652
18579SOL     OW57349   1.008   8.333   9.164 -0.0935 -0.8438  0.4819
18579SOL    HW157350   1.038   8.419   9.196 -1.9838 -0.1519  0.5037
18579SOL    HW257351   1.083   8.300   9.114  0.3871  1.2524 -0.3353
18580SOL     OW57352   4.140   7.360   8.673  0.4608  0.5654 -0.2692
18580SOL    HW157353   4.148   7.415   8.596  0.3144  0.3997 -0.4055
18580SOL    HW257354   4.098   7.279   8.640  4.0099 -1.2267 -0.8514
18581SOL     OW57355   7.841   0.592   8.832  0.2262  0.0878  0.0667
18581SOL    HW157356   7.885   0.584   8.916  0.5327 -0.6361 -0.1472
18581SOL    HW257357   7.748   0.590   8.853  0.2192  2.9614  0.6470
18582SOL     OW57358   5.284   1.948   6.388  0.2010 -0.6221  0.1198
18582SOL    HW157359   5.291   2.023   6.329  1.8401  0.3787  1.4859
18582SOL    HW257360   5.191   1.927   6.390 -0.2694  1.2538 -0.4854
18583SOL     OW57361   3.528   4.728   4.228  0.4398 -0.3181  0.0737
18583SOL    HW157362   3.446   4.679   4.230  0.0640  0.2973  1.7379
18583SOL    HW257363   3.592   4.666   4.194 -0.7346 -0.7388 -1.4800
18584SOL     OW57364   8.139   2.744   8.704 -0.8047 -0.2374  0.0058
18584SOL    HW157365   8.075   2.815   8.702  0.2478  0.8464  1.7890
18584SOL    HW257366   8.146   2.716   8.613 -1.6267  1.6289 -0.6931
18585SOL     OW57367   2.206   1.553   4.481 -0.9251  0.4363  0.3123
18585SOL    HW157368   2.194   1.458   4.474  1.9031 -0.1927  1.9976
18585SOL    HW257369   2.126   1.585   4.522 -1.8456 -1.2482 -0.0897
18586SOL     OW57370   3.322   4.926   1.071  0.4863  0.1024 -0.1763
18586SOL    HW157371   3.318   4.996   1.006 -0.4558  0.1298 -0.1058
18586SOL    HW257372   3.333   4.971   1.155  0.3327  0.1390 -0.1765
18587SOL     OW57373   7.580   2.447   1.667  0.2796 -0.2915 -0.0797
18587SOL    HW157374   7.553   2.438   1.576  1.7170  0.8698 -0.6822
18587SOL    HW257375   7.540   2.530   1.695 -0.6747 -0.9550  0.5703
18588SOL     OW57376   8.567   1.988   4.903 -0.1637  0.3146 -0.0532
18588SOL    HW157377   8.523   2.058   4.952 -0.0050  0.7373 -0.4996
18588SOL    HW257378   8.542   1.908   4.947  1.4381  0.7913  1.8917
18589SOL     OW57379   2.540   2.337   8.700 -0.0243  0.3773 -0.3668
18589SOL    HW157380   2.604   2.275   8.665 -0.8843 -0.7514  0.0071
18589SOL    HW257381   2.463   2.283   8.721 -0.6930  1.5277  0.2292
18590SOL     OW57382   5.535   7.307   9.513 -0.2698 -0.4160 -0.2823
18590SOL    HW157383   5.514   7.217   9.487  0.9568 -0.4616 -1.2077
18590SOL    HW257384   5.631   7.310   9.514 -0.2782  1.1182 -1.1692
18591SOL     OW57385   8.778   6.765   2.764  0.4605 -0.1245 -0.5763
18591SOL    HW157386   8.730   6.683   2.747  0.9126 -1.0820  2.2024
18591SOL    HW257387   8.870   6.740   2.760  0.6177  0.4098 -0.3771
18592SOL     OW57388   3.828   1.917   5.691 -0.5646  0.0128  0.4459
18592SOL    HW157389   3.835   1.830   5.651 -0.4880  0.2388 -0.0442
18592SOL    HW257390   3.803   1.900   5.782 -0.5574 -0.5206  0.3517
18593SOL     OW57391   3.998   7.649   1.611 -0.6155 -0.0268 -0.5312
18593SOL    HW157392   4.072   7.649   1.672 -1.9536  1.7648  1.2376
18593SOL    HW257393   4.038   7.659   1.525  1.2240  1.6247  0.4347
18594SOL     OW57394   5.953   7.480   2.031 -0.2854  0.0121  0.3144
18594SOL    HW157395   5.947   7.429   2.112  0.9249  0.1810  0.5258
18594SOL    HW257396   5.948   7.571   2.060  2.5704  0.1831  0.5149
18595SOL     OW57397   1.157   2.260   5.983 -0.1830  0.3345 -0.0004
18595SOL    HW157398   1.249   2.289   5.989 -0.8908  3.4844 -1.6497
18595SOL    HW257399   1.155   2.207   5.904  0.3180 -0.2331  0.3603
18596SOL     OW57400   7.973   6.254   6.058 -0.3728  0.7810 -0.1477
18596SOL    HW157401   7.969   6.164   6.089  1.6637  0.2201 -1.3003
18596SOL    HW257402   7.908   6.301   6.110 -1.6101 -1.3714  0.3474
18597SOL     OW57403   3.260   1.755   9.634  0.1005 -0.0437 -0.0363
18597SOL    HW157404   3.254   1.848   9.656  1.3045  0.5218 -1.9532
18597SOL    HW257405   3.179   1.737   9.586  0.9480  0.6558 -1.7865
18598SOL     OW57406   8.071   8.200   5.019 -0.5061 -0.2989 -0.0591
18598SOL    HW157407   8.072   8.142   4.943 -1.3042  1.1451 -1.2427
18598SOL    HW257408   8.131   8.271   4.996  0.8893 -0.8835  1.5864
18599SOL     OW57409   3.382   2.261   9.795 -0.3404 -0.0420 -0.1101
18599SOL    HW157410   3.378   2.180   9.743  0.1706  0.2517 -0.6109
18599SOL    HW257411   3.443   2.317   9.748  0.0465  0.2741  0.7572
18600SOL     OW57412   9.674   0.232   1.244 -0.4623 -0.0237 -0.1774
18600SOL    HW157413   9.643   0.145   1.218  0.6471 -0.4885  0.0049
18600SOL    HW257414   9.751   0.215   1.298 -0.1941  1.0858 -0.1830
18601SOL     OW57415   3.859   0.274   6.381 -0.5153  0.3959 -0.2984
18601SOL    HW157416   3.826   0.320   6.459 -1.1408 -0.3298 -0.1185
18601SOL    HW257417   3.858   0.181   6.405  3.5843  0.3760  0.4181
18602SOL     OW57418   0.523   9.567   7.221 -0.0047 -0.0389 -0.0171
18602SOL    HW157419   0.555   9.477   7.222 -3.3879 -1.4034 -0.2990
18602SOL    HW257420   0.519   9.592   7.313 -2.1144 -1.5244  0.3802
18603SOL     OW57421   8.263   9.584   8.576 -0.2144 -0.4481 -0.2137
18603SOL    HW157422   8.293   9.583   8.667 -2.2866  1.2661  0.6085
18603SOL    HW257423   8.342   9.600   8.524  0.6042  2.2340  1.6320
18604SOL     OW57424   7.065   5.466   0.509 -0.0872 -0.5106  0.3480
18604SOL    HW157425   7.036   5.439   0.422 -3.2541  3.6749 -0.2255
18604SOL    HW257426   7.010   5.414   0.569 -3.1635  1.4288 -0.5413
18605SOL     OW57427   3.993   1.417   1.657  0.3994  0.1511 -0.0995
18605SOL    HW157428   3.926   1.417   1.725 -0.3271  0.4183 -0.8015
18605SOL    HW257429   4.019   1.325   1.648  0.3476  0.0862  0.3774
18606SOL     OW57430   2.124   6.683   5.640 -0.5651  0.3632  0.0295
18606SOL    HW157431   2.121   6.590   5.620 -0.7020  0.4835 -0.5269
18606SOL    HW257432   2.179   6.689   5.718  1.0118 -0.0122 -1.0142
18607SOL     OW57433   0.353   9.259   4.886 -0.2108 -0.0800  0.5432
18607SOL    HW157434   0.295   9.335   4.899  1.2274  1.2743 -0.5036
18607SOL    HW257435   0.412   9.260   4.961  0.5489  0.5880 -0.0366
18608SOL     OW57436   0.732   6.125   3.440  0.0257 -0.3110 -0.7569
18608SOL    HW157437   0.702   6.112   3.350 -1.5931  1.5007 -0.5432
18608SOL    HW257438   0.706   6.044   3.485  0.8818 -1.2478 -1.8859
18609SOL     OW57439   7.092   1.180   1.212 -0.9422 -0.2298  0.2143
18609SOL    HW157440   7.025   1.114   1.198 -0.5208 -0.3095 -1.5636
18609SOL    HW257441   7.050   1.262   1.188  0.0452 -0.4668 -2.7269
18610SOL     OW57442   3.756   0.989   9.409  0.4683  0.4778 -0.1190
18610SOL    HW157443   3.821   0.933   9.451 -0.6415 -0.6846  0.0957
18610SOL    HW257444   3.746   0.953   9.321 -2.6445 -1.8542  1.0220
18611SOL     OW57445   3.114   9.754   3.113 -0.2573 -0.6617 -0.3037
18611SOL    HW157446   3.165   9.676   3.092  0.6654 -0.3069  0.5496
18611SOL    HW257447   3.093   9.744   3.206  0.7495  0.5886  0.0778
18612SOL     OW57448   7.762   6.751   7.503 -0.1358  0.7343 -0.1002
18612SOL    HW157449   7.758   6.804   7.423 -1.1061  2.5015  1.0321
18612SOL    HW257450   7.836   6.693   7.490  1.7884  3.2085 -0.9774
18613SOL     OW57451   1.460   7.325   1.618  0.0734  0.1056 -0.2048
18613SOL    HW157452   1.483   7.260   1.685  0.1762  0.7678  0.4141
18613SOL    HW257453   1.371   7.301   1.591  0.3927 -0.7451 -0.5336
18614SOL     OW57454   4.897   7.002   2.056 -0.6359 -0.1827  0.1077
18614SOL    HW157455   4.953   7.060   2.004  1.1372 -0.5751  1.4915
18614SOL    HW257456   4.844   7.062   2.109  2.0427  0.3793  2.4448
18615SOL     OW57457   2.204   7.629   7.100 -0.1036  0.0488  0.1360
18615SOL    HW157458   2.255   7.704   7.068  0.1299  0.6883  1.9037
18615SOL    HW257459   2.213   7.563   7.031  3.4868 -0.0445  0.5048
18616SOL     OW57460   0.669   0.124   8.243 -0.2583  0.5266 -0.0784
18616SOL    HW157461   0.679   0.208   8.287 -0.2618  0.9895 -0.9286
18616SOL    HW257462   0.708   0.061   8.303  1.5086  1.3810 -0.2517
18617SOL     OW57463   2.229   8.917   5.991 -0.3027  0.0772 -0.2444
18617SOL    HW157464   2.286   8.991   6.011 -1.4602  0.6714  0.9982
18617SOL    HW257465   2.282   8.861   5.934  2.5901 -0.8587  3.0484
18618SOL     OW57466   3.136   1.207   0.994  0.6292 -0.3748  0.1131
18618SOL    HW157467   3.056   1.259   0.999  0.3159 -0.8374 -0.0334
18618SOL    HW257468   3.193   1.244   1.061  0.3804  0.1036  0.0626
18619SOL     OW57469   7.477   9.006   8.343 -0.2658  0.0781 -0.2008
18619SOL    HW157470   7.460   8.944   8.413 -1.2214 -0.6386 -1.0487
18619SOL    HW257471   7.394   9.015   8.297  0.1126  1.2184 -0.7165
18620SOL     OW57472   9.071   0.431   9.037 -0.0345  0.1113  0.3044
18620SOL    HW157473   9.069   0.425   8.942  0.6324 -1.0856  0.3455
18620SOL    HW257474   9.161   0.409   9.061 -0.7131 -1.7952  1.3183
18621SOL     OW57475   7.576   6.451   5.327  0.1294 -0.1904 -0.1713
18621SOL    HW157476   7.557   6.377   5.384 -2.2283  0.6921  0.3088
18621SOL    HW257477   7.577   6.527   5.385 -0.9685  0.5541 -1.0626
18622SOL     OW57478   2.686   4.597   4.684 -0.0257  0.3669  0.1213
18622SOL    HW157479   2.603   4.636   4.712  0.0629  0.9440 -0.3970
18622SOL    HW257480   2.697   4.520   4.740 -1.8406 -0.8174 -1.0427
18623SOL     OW57481   9.685   8.848   2.248  0.2157  0.3077 -0.3211
18623SOL    HW157482   9.731   8.916   2.200 -0.3194  1.6231  0.9510
18623SOL    HW257483   9.691   8.771   2.192  2.1981  0.9547 -1.0977
18624SOL     OW57484   4.371   0.377   6.967  0.3884  0.0828  0.3036
18624SOL    HW157485   4.288   0.424   6.968  1.6524  2.5557 -0.6415
18624SOL    HW257486   4.417   0.407   7.045  0.8654 -0.3601  0.1987
18625SOL     OW57487   1.568   4.382   9.364 -0.0641 -0.3619 -0.3872
18625SOL    HW157488   1.639   4.379   9.299 -0.4363  0.9752 -0.8771
18625SOL    HW257489   1.558   4.474   9.385 -1.1874 -0.6073  0.2209
18626SOL     OW57490   7.137   0.322   2.252 -0.2517 -0.2776 -0.4002
18626SOL    HW157491   7.128   0.288   2.163  1.0522 -0.1754 -0.5863
18626SOL    HW257492   7.128   0.417   2.243 -2.7159 -0.3979 -0.0361
18627SOL     OW57493   4.277   9.533   3.632  0.1760 -0.0458 -0.0882
18627SOL    HW157494   4.240   9.468   3.692  1.3837 -0.2286  0.5025
18627SOL    HW257495   4.354   9.566   3.679  1.5037 -0.6174 -1.7691
18628SOL     OW57496   0.917   2.722   4.823 -0.2764  0.6745 -0.1976
18628SOL    HW157497   0.848   2.713   4.889  0.5973  0.9164  0.7673
18628SOL    HW257498   0.950   2.811   4.835  0.6180  0.3558 -0.2395
18629SOL     OW57499   5.437   3.472   5.361 -0.3829  0.9789 -0.4002
18629SOL    HW157500   5.364   3.417   5.389  1.4677 -0.0023  3.1987
18629SOL    HW257501   5.502   3.411   5.326  0.8831  0.9346  1.7776
18630SOL     OW57502   9.440   0.678   9.831  0.2158 -0.0541 -0.3939
18630SOL    HW157503   9.468   0.621   9.760 -1.0307 -1.1301 -0.0636
18630SOL    HW257504   9.442   0.766   9.794  1.4554 -0.3685 -1.1391
18631SOL     OW57505   3.485   4.954   7.404 -0.4458 -0.0479  0.1480
18631SOL    HW157506   3.480   4.991   7.493  0.9407 -0.9629  0.6341
18631SOL    HW257507   3.576   4.928   7.394 -1.0801 -2.2079 -0.6198
18632SOL     OW57508   5.858   6.211   1.633 -0.1665  0.0438  0.2329
18632SOL    HW157509   5.891   6.294   1.599  0.2446  0.0572  0.6605
18632SOL    HW257510   5.919   6.146   1.598 -1.7408 -0.3626 -1.9640
18633SOL     OW57511   3.573   2.998   5.196  0.0000  0.2429  0.2644
18633SOL    HW157512   3.653   2.946   5.194  0.5390  0.9699  1.6385
18633SOL    HW257513   3.582   3.059   5.123  0.4469 -0.0486  0.0746
18634SOL     OW57514   1.096   6.034   7.829 -0.6192 -1.0679 -1.1362
18634SOL    HW157515   1.170   6.040   7.889 -0.3950 -0.2019 -1.4763
18634SOL    HW257516   1.045   5.960   7.861 -0.4235 -0.7208  0.0356
18635SOL     OW57517   1.616   0.059   5.531  0.0063  0.2263  0.0334
18635SOL    HW157518   1.527   0.029   5.551  0.4481 -1.2827 -0.0809
18635SOL    HW257519   1.621   0.054   5.435 -0.0335  1.0750 -0.0146
18636SOL     OW57520   8.018   5.859   6.405 -0.2620 -0.2972 -0.0047
18636SOL    HW157521   8.058   5.913   6.473 -2.7993  0.7925  0.7628
18636SOL    HW257522   8.021   5.770   6.440  0.8877 -0.1724  0.2699
18637SOL     OW57523   0.937   3.820   5.972 -0.6676 -0.4597 -0.5234
18637SOL    HW157524   0.947   3.792   6.063 -1.5500 -1.4359 -0.7069
18637SOL    HW257525   0.842   3.830   5.960 -0.7355 -2.0599 -1.7909
18638SOL     OW57526   3.108   0.423   4.277 -0.0408 -0.4170 -0.4329
18638SOL    HW157527   3.052   0.412   4.201 -0.9283 -0.2782  0.1857
18638SOL    HW257528   3.083   0.508   4.313  0.3775 -0.4755  0.0128
18639SOL     OW57529   6.477   0.315   2.147 -0.0631 -0.2357  0.4928
18639SOL    HW157530   6.437   0.287   2.229  0.0660  1.2984  1.1004
18639SOL    HW257531   6.446   0.404   2.134  0.6876 -0.1195 -0.6352
18640SOL     OW57532   9.332   0.146   7.565 -0.4376  0.1066 -0.5657
18640SOL    HW157533   9.340   0.104   7.479  2.6115 -2.6436  0.8317
18640SOL    HW257534   9.401   0.212   7.565 -0.5538  0.2275 -0.3121
18641SOL     OW57535   1.562   4.432   7.856 -0.0050  0.1054  0.3483
18641SOL    HW157536   1.560   4.336   7.859 -1.9772  0.1158  0.8801
18641SOL    HW257537   1.638   4.456   7.908  0.0583 -1.1652  0.8747
18642SOL     OW57538   1.434   8.849   7.258  0.1481  0.0171  0.0845
18642SOL    HW157539   1.344   8.854   7.290  0.6507  1.8471  1.3511
18642SOL    HW257540   1.472   8.934   7.278  2.6860 -1.2550  1.1973
18643SOL     OW57541   6.462   5.925   8.329 -0.3773  0.5542  0.5874
18643SOL    HW157542   6.556   5.936   8.316 -0.0783 -1.3401  0.8236
18643SOL    HW257543   6.455   5.886   8.416 -1.5640  2.6195  1.4913
18644SOL     OW57544   8.278   8.309   3.444  0.1541 -0.2152  0.0731
18644SOL    HW157545   8.323   8.328   3.361  0.1770 -1.2996 -0.1831
18644SOL    HW257546   8.200   8.261   3.418  0.0960 -0.4527  0.6746
18645SOL     OW57547   7.266   5.508   5.574 -0.0318 -0.4793 -0.3232
18645SOL    HW157548   7.272   5.576   5.642  1.2692 -0.6902 -0.1999
18645SOL    HW257549   7.330   5.535   5.508 -1.5823 -0.0410 -1.7230
18646SOL     OW57550   7.985   0.476   6.447  0.4389 -0.3334  0.8174
18646SOL    HW157551   7.982   0.485   6.542 -1.7168  0.2587  0.7583
18646SOL    HW257552   8.043   0.402   6.431  0.6238 -0.6172  2.5968
18647SOL     OW57553   7.052   6.235   5.791  0.2780  0.4475 -0.4792
18647SOL    HW157554   7.035   6.194   5.706 -1.9061  0.1163  0.0361
18647SOL    HW257555   6.965   6.261   5.822  1.0777  0.9789  1.4494
18648SOL     OW57556   7.844   5.063   3.211 -0.0445 -0.4693  0.2833
18648SOL    HW157557   7.934   5.056   3.179  0.3794 -0.6811  1.4755
18648SOL    HW257558   7.845   5.140   3.268 -0.4021 -0.9746  0.9785
18649SOL     OW57559   2.942   7.344   0.926  0.2065 -0.4180  1.0378
18649SOL    HW157560   2.945   7.284   0.852  0.9542  1.6019 -0.6815
18649SOL    HW257561   2.870   7.403   0.906  3.1997  3.0604 -0.6712
18650SOL     OW57562   2.908   5.151   9.283 -0.1149  1.0996 -0.1033
18650SOL    HW157563   2.856   5.182   9.356  0.1788 -1.2372  1.2151
18650SOL    HW257564   2.991   5.124   9.322 -0.1446 -0.6919 -1.1622
18651SOL     OW57565   1.576   6.014   2.882 -0.4875  0.1385 -0.4498
18651SOL    HW157566   1.619   6.008   2.966  1.1563 -2.2057 -1.3547
18651SOL    HW257567   1.482   6.012   2.903 -0.2441  2.6755  1.3958
18652SOL     OW57568   4.211   0.671   2.552  0.1723  0.3104  0.0290
18652SOL    HW157569   4.222   0.611   2.626 -0.3768 -1.0721 -0.9865
18652SOL    HW257570   4.298   0.681   2.516  0.6675  1.9124  1.5034
18653SOL     OW57571   1.978   0.209   5.332 -0.1556 -0.1906 -0.0705
18653SOL    HW157572   1.893   0.244   5.306  0.4727  0.5387 -1.2519
18653SOL    HW257573   2.041   0.257   5.277  0.9999 -0.8069  0.6830
18654SOL     OW57574   9.308   7.356   2.970 -0.6427  0.1202 -0.5426
18654SOL    HW157575   9.319   7.329   2.879  0.3247 -0.2172 -0.3313
18654SOL    HW257576   9.280   7.277   3.016 -1.1132  0.2861 -0.5340
18655SOL     OW57577   3.044   7.027   7.654  0.2757  0.2497  0.7555
18655SOL    HW157578   3.125   7.072   7.677  0.6468 -0.7821  1.5640
18655SOL    HW257579   2.979   7.097   7.646  1.1043  1.0320  0.6958
18656SOL     OW57580   8.844   4.523   4.202 -0.0266  0.0629  0.4638
18656SOL    HW157581   8.919   4.574   4.171 -1.6148  1.6299 -1.0720
18656SOL    HW257582   8.821   4.564   4.286 -0.6625  1.2598 -0.2679
18657SOL     OW57583   7.449   6.074   2.728  0.0408  0.1185 -0.0875
18657SOL    HW157584   7.402   6.134   2.671  0.3007 -0.3410 -0.7972
18657SOL    HW257585   7.487   6.009   2.669 -0.4457 -0.9014  0.6792
18658SOL     OW57586   1.313   8.516   3.789  0.6211  0.4906 -0.0221
18658SOL    HW157587   1.342   8.448   3.851 -0.1242 -0.2862 -0.4994
18658SOL    HW257588   1.264   8.467   3.723  1.7040  1.2481 -1.4334
18659SOL     OW57589   6.931   2.002   1.005 -0.1695 -0.1411 -0.4566
18659SOL    HW157590   6.974   1.916   0.999  0.0611 -0.0876  0.3068
18659SOL    HW257591   6.869   1.993   1.077 -0.0025  0.3857 -0.2387
18660SOL     OW57592   1.898   8.289   5.146 -0.2618  0.0308  0.1105
18660SOL    HW157593   1.886   8.383   5.161 -1.6166 -0.3257  1.5818
18660SOL    HW257594   1.812   8.251   5.161  0.1294 -1.4023 -1.0445
18661SOL     OW57595   0.553   1.379   6.230  0.0559  0.0916  0.0371
18661SOL    HW157596   0.618   1.315   6.199  0.9237  0.6116  0.7214
18661SOL    HW257597   0.556   1.450   6.166 -1.7300 -1.0082 -1.3578
18662SOL     OW57598   3.724   2.566   2.949 -0.1451  0.4799  0.4701
18662SOL    HW157599   3.666   2.628   2.995 -0.3108  0.1062  0.7655
18662SOL    HW257600   3.670   2.532   2.878 -1.1895 -1.8011  2.2451
18663SOL     OW57601   8.424   7.418   1.502  0.1418  0.2063 -0.0676
18663SOL    HW157602   8.387   7.368   1.574 -0.2287  0.7707  0.1475
18663SOL    HW257603   8.509   7.447   1.533  0.2452 -0.0709 -0.0929
18664SOL     OW57604   5.087   1.920   1.559  0.2851 -0.1282 -0.3612
18664SOL    HW157605   5.023   1.923   1.488  1.4967  0.4100 -1.4844
18664SOL    HW257606   5.171   1.908   1.515  1.0191 -0.3379  1.0328
18665SOL     OW57607   9.277   1.131   9.623 -0.4737  0.7801  0.5302
18665SOL    HW157608   9.183   1.119   9.610 -0.1641 -0.1258 -1.0922
18665SOL    HW257609   9.287   1.225   9.641 -1.8565  0.5794  2.7717
18666SOL     OW57610   5.820   2.376   8.643 -0.0587  0.3716 -0.2829
18666SOL    HW157611   5.749   2.419   8.691 -0.0654 -0.3405  0.3713
18666SOL    HW257612   5.811   2.409   8.553 -2.3158 -1.0007 -0.6479
18667SOL     OW57613   8.485   4.583   4.794 -0.3175  0.0444 -0.4538
18667SOL    HW157614   8.438   4.606   4.714 -2.8168  1.8995  1.3542
18667SOL    HW257615   8.433   4.512   4.832 -0.6490  0.8590  0.6726
18668SOL     OW57616   0.639   8.303   5.450 -0.3823  0.5863  0.0243
18668SOL    HW157617   0.638   8.214   5.415 -2.3830  0.0964  1.1138
18668SOL    HW257618   0.552   8.338   5.428  0.5941  2.5525 -0.9608
18669SOL     OW57619   6.938   6.850   4.101 -0.0807  0.5969  0.2075
18669SOL    HW157620   6.906   6.910   4.168 -0.8051 -0.5072  0.9032
18669SOL    HW257621   7.011   6.896   4.060  0.9118  1.0156  2.2784
18670SOL     OW57622   7.620   2.467   2.163 -0.1181  0.0331 -0.0113
18670SOL    HW157623   7.586   2.381   2.137 -1.5749  0.1278  1.3874
18670SOL    HW257624   7.689   2.447   2.226 -1.9151 -0.1886  2.0250
18671SOL     OW57625   1.612   5.826   7.961 -0.1312  0.5831 -0.1373
18671SOL    HW157626   1.536   5.836   7.904  0.9190 -1.2265 -1.9890
18671SOL    HW257627   1.615   5.733   7.981  2.2213  0.3771 -1.1231
18672SOL     OW57628   0.768   7.100   6.624 -0.1969 -0.3763 -0.1085
18672SOL    HW157629   0.862   7.084   6.614 -0.4722 -1.1061 -2.0501
18672SOL    HW257630   0.758   7.129   6.714  2.0326  0.7719 -0.1646
18673SOL     OW57631   9.195   7.292   0.395  0.2450 -0.1821 -0.5941
18673SOL    HW157632   9.103   7.317   0.392  0.3590  0.3011 -0.2285
18673SOL    HW257633   9.194   7.197   0.393 -0.2323 -0.1749 -1.3120
18674SOL     OW57634   0.531   3.595   2.570  0.0204 -0.4341 -0.4656
18674SOL    HW157635   0.597   3.664   2.577 -0.5532 -0.0670  3.3614
18674SOL    HW257636   0.574   3.516   2.603 -0.8931 -0.5786  0.4516
18675SOL     OW57637   5.722   1.870   6.259  0.2516 -0.1359  0.3617
18675SOL    HW157638   5.780   1.943   6.236 -0.3338 -0.1489 -1.2479
18675SOL    HW257639   5.740   1.854   6.352  1.1479  1.3640  0.4826
18676SOL     OW57640   5.507   6.890   9.097 -0.1159 -0.5325 -0.3247
18676SOL    HW157641   5.538   6.916   9.183 -2.5963 -0.9922  0.7855
18676SOL    HW257642   5.489   6.796   9.104  1.3648 -0.9984 -1.9385
18677SOL     OW57643   9.013   4.469   1.367  0.4743  0.3659 -0.0127
18677SOL    HW157644   9.052   4.552   1.394  0.4702 -0.2699  2.0588
18677SOL    HW257645   9.059   4.447   1.285  1.6317  1.5890  0.2794
18678SOL     OW57646   1.332   1.433   5.104 -0.1244 -0.2174  0.1903
18678SOL    HW157647   1.392   1.473   5.040  0.5866  0.2875  1.1557
18678SOL    HW257648   1.310   1.348   5.065  0.4878 -0.0211 -0.6165
18679SOL     OW57649   4.949   5.911   6.510  0.0504  0.3054 -0.2935
18679SOL    HW157650   4.872   5.938   6.559 -0.9040 -0.8737 -1.0785
18679SOL    HW257651   5.019   5.969   6.541 -0.8230  0.5127  1.4083
18680SOL     OW57652   3.214   4.118   2.458 -0.2114 -1.0749 -0.0205
18680SOL    HW157653   3.174   4.205   2.456 -2.1841 -1.9396 -0.8590
18680SOL    HW257654   3.255   4.108   2.372 -1.2520 -1.5186 -0.4709
18681SOL     OW57655   8.394   2.841   5.508 -0.2608  0.6309 -0.0612
18681SOL    HW157656   8.411   2.816   5.418  0.0027  1.9115 -0.3857
18681SOL    HW257657   8.480   2.835   5.551 -0.7121 -2.0399  0.6956
18682SOL     OW57658   5.355   1.720   9.233  0.1448 -0.1170 -0.4103
18682SOL    HW157659   5.292   1.790   9.245  0.1397 -0.3664  1.2282
18682SOL    HW257660   5.430   1.763   9.192 -0.4621  0.5128 -0.8819
18683SOL     OW57661   2.098   4.588   8.889 -0.1309  0.5546  0.2737
18683SOL    HW157662   2.135   4.506   8.856 -0.1610  0.2592  0.9682
18683SOL    HW257663   2.074   4.636   8.810  2.5797  1.1834 -0.2404
18684SOL     OW57664   3.750   8.871   8.355  0.1941 -0.5296  0.6984
18684SOL    HW157665   3.716   8.947   8.401 -0.8053 -0.8318  0.4724
18684SOL    HW257666   3.683   8.849   8.290  1.2216 -0.5849 -0.3778
18685SOL     OW57667   9.015   2.898   9.427  0.0743  0.0260 -0.2622
18685SOL    HW157668   9.094   2.847   9.412 -0.1380  0.4129 -3.2811
18685SOL    HW257669   8.959   2.841   9.479  2.2572 -0.2507  1.9509
18686SOL     OW57670   3.093   2.208   2.491  0.0465 -0.1440  0.2180
18686SOL    HW157671   3.095   2.298   2.526 -0.2039 -0.9661  2.5468
18686SOL    HW257672   3.000   2.185   2.493  0.2118 -0.7905  0.6101
18687SOL     OW57673   5.749   5.964   0.264 -0.7076 -0.1882  0.2706
18687SOL    HW157674   5.653   5.961   0.269 -0.7975 -0.9295 -1.3521
18687SOL    HW257675   5.774   6.029   0.330 -2.3537  0.3399  0.4314
18688SOL     OW57676   3.981   9.178   9.462  0.5625 -0.3680 -0.0002
18688SOL    HW157677   4.010   9.159   9.373  2.6294 -3.4274  1.1425
18688SOL    HW257678   4.063   9.195   9.510 -0.3056 -0.7189  1.6882
18689SOL     OW57679   6.848   8.572   6.310  0.2845  0.0389 -0.2730
18689SOL    HW157680   6.769   8.578   6.257  0.0251  1.2527  0.2381
18689SOL    HW257681   6.910   8.632   6.269  1.1618 -1.2823 -0.9835
18690SOL     OW57682   0.490   4.175   4.093  0.4660  0.3180 -0.2500
18690SOL    HW157683   0.478   4.210   4.005  1.4606 -0.1987 -0.6098
18690SOL    HW257684   0.437   4.095   4.095  1.2039 -0.1920 -0.7151
18691SOL     OW57685   9.223   4.117   3.086 -0.0686  0.2460 -0.0495
18691SOL    HW157686   9.283   4.063   3.034  1.2967  0.7408  0.9211
18691SOL    HW257687   9.161   4.055   3.124  0.0357 -0.3354 -0.8145
18692SOL     OW57688   1.214   9.440   5.250  0.0192  0.2681  0.0832
18692SOL    HW157689   1.204   9.346   5.234  1.4333  0.5266 -3.2743
18692SOL    HW257690   1.125   9.473   5.250 -0.4402 -0.6598 -2.8228
18693SOL     OW57691   5.967   9.139   1.714 -0.6437  0.5126  0.8676
18693SOL    HW157692   5.955   9.213   1.654  0.3838  1.1817  1.4511
18693SOL    HW257693   6.037   9.087   1.675 -0.4926  0.5395  1.0970
18694SOL     OW57694   7.229   6.432   5.920  0.1926 -0.3768  0.2994
18694SOL    HW157695   7.209   6.476   6.003 -0.4824  2.3719 -1.2047
18694SOL    HW257696   7.145   6.402   5.887 -0.3299  2.5246 -1.3879
18695SOL     OW57697   8.365   0.538   4.535  0.1046 -0.6728 -0.2233
18695SOL    HW157698   8.283   0.507   4.572 -2.5252  5.3256  0.2084
18695SOL    HW257699   8.412   0.578   4.609 -0.2010  2.1920 -1.4273
18696SOL     OW57700   3.210   1.705   4.239  0.8286  0.4353 -0.2201
18696SOL    HW157701   3.208   1.637   4.171  1.0548  0.8979 -0.6912
18696SOL    HW257702   3.246   1.660   4.316 -0.8535 -0.5086  0.0717
18697SOL     OW57703   6.401   1.628   8.300 -0.3321 -0.2395 -0.4868
18697SOL    HW157704   6.485   1.657   8.336 -0.2512  0.3055 -1.0865
18697SOL    HW257705   6.419   1.612   8.208 -0.6703 -1.0617 -0.4146
18698SOL     OW57706   7.637   2.292   4.478  0.2719  0.3139 -0.1349
18698SOL    HW157707   7.722   2.264   4.442  0.7063  1.8570 -0.3627
18698SOL    HW257708   7.659   2.364   4.537 -0.8138  0.1997  0.4175
18699SOL     OW57709   5.139   5.883   3.155 -0.0322 -0.2264 -0.1153
18699SOL    HW157710   5.077   5.894   3.084 -0.3067  0.0255  0.1589
18699SOL    HW257711   5.085   5.858   3.231  0.1388  0.4665  0.2424
18700SOL     OW57712   7.868   5.428   9.762 -0.5370 -0.1596 -0.0246
18700SOL    HW157713   7.878   5.344   9.808  0.8303  0.9091  1.7341
18700SOL    HW257714   7.937   5.426   9.695  0.6909  0.2642  1.1879
18701SOL     OW57715   6.650   6.108   0.314 -0.2863 -0.0295 -0.0449
18701SOL    HW157716   6.732   6.071   0.283 -0.6398 -0.1867 -0.8371
18701SOL    HW257717   6.601   6.129   0.233 -0.8261  0.4918  0.4043
18702SOL     OW57718   0.748   9.228   5.644  0.1183  0.1892 -0.0901
18702SOL    HW157719   0.675   9.202   5.588 -0.8471  0.3392  1.0487
18702SOL    HW257720   0.811   9.156   5.637 -0.5041 -0.3295 -0.4568
18703SOL     OW57721   3.260   4.065   5.113 -0.0580  0.1932 -0.3364
18703SOL    HW157722   3.321   4.017   5.059  1.5730  2.2968 -0.4780
18703SOL    HW257723   3.296   4.060   5.202  0.1815  1.1803 -0.3652
18704SOL     OW57724   5.925   7.950   3.953 -0.2547  0.4902  0.1624
18704SOL    HW157725   5.840   7.922   3.987  0.5812  0.7864  2.7045
18704SOL    HW257726   5.969   7.868   3.929 -0.8750  0.2710 -0.2560
18705SOL     OW57727   4.604   9.345   4.392 -0.4647  0.3126  0.4232
18705SOL    HW157728   4.547   9.275   4.363 -1.1520  0.8274  0.4946
18705SOL    HW257729   4.547   9.422   4.397  0.1091  0.7124  1.0404
18706SOL     OW57730   9.707   2.061   9.051  0.0683  0.1223  0.1527
18706SOL    HW157731   9.722   2.055   9.146  0.6117 -0.8693  0.0183
18706SOL    HW257732   9.725   1.972   9.019 -2.4687 -0.1912 -0.5606
18707SOL     OW57733   4.868   6.536   4.306 -0.1213  0.0529  0.3295
18707SOL    HW157734   4.853   6.588   4.227  1.5491  3.9967  2.3044
18707SOL    HW257735   4.963   6.523   4.308 -0.3755 -2.1062  0.5776
18708SOL     OW57736   0.482   1.712   4.007 -0.0024 -0.3962 -0.7382
18708SOL    HW157737   0.571   1.679   4.021 -0.1166 -0.2379  0.4598
18708SOL    HW257738   0.475   1.787   4.066 -1.1848 -0.8926 -0.2125
18709SOL     OW57739   4.566   9.250   5.862  0.3034  0.6178  0.3489
18709SOL    HW157740   4.568   9.316   5.793 -0.2583 -1.4454 -1.7971
18709SOL    HW257741   4.509   9.181   5.827  0.9962 -1.0742  2.3562
18710SOL     OW57742   6.941   6.140   6.889  0.3423 -0.0745 -0.4144
18710SOL    HW157743   6.852   6.160   6.919  0.9413 -0.4244  1.7676
18710SOL    HW257744   6.997   6.201   6.937  1.2510  1.0113 -2.6899
18711SOL     OW57745   1.791   4.630   7.665  0.0863  0.2491  0.0144
18711SOL    HW157746   1.865   4.628   7.726 -0.0705  2.2938  0.3476
18711SOL    HW257747   1.775   4.538   7.643  1.0922 -0.4290  1.9044
18712SOL     OW57748   9.136   8.545   6.472  0.0225 -0.5279 -0.2069
18712SOL    HW157749   9.113   8.488   6.399 -2.5573 -0.2317  0.2853
18712SOL    HW257750   9.087   8.510   6.546  2.1690 -0.5212  1.3143
18713SOL     OW57751   6.498   0.639   1.505  0.2254 -0.2832  0.3101
18713SOL    HW157752   6.515   0.631   1.599 -1.4545  2.2241  0.9311
18713SOL    HW257753   6.402   0.643   1.499  0.2332 -1.7634 -1.6929
18714SOL     OW57754   4.394   1.143   2.553  0.1367  0.2931 -0.0930
18714SOL    HW157755   4.430   1.229   2.530  0.5577 -0.5531 -3.0160
18714SOL    HW257756   4.303   1.146   2.523 -1.0217  0.7964  3.0077
18715SOL     OW57757   9.358   4.911   8.142  0.0038  0.7106 -0.2721
18715SOL    HW157758   9.311   4.965   8.079 -0.2473  0.5813 -0.1944
18715SOL    HW257759   9.417   4.857   8.088  2.0338  2.7267 -0.2466
18716SOL     OW57760   5.077   8.152   1.830  0.0924  0.0595  0.8260
18716SOL    HW157761   5.037   8.075   1.790 -0.8330  0.4132  1.0428
18716SOL    HW257762   5.167   8.126   1.849  1.0538  0.2373 -2.6809
18717SOL     OW57763   8.767   6.058   6.399 -0.2808 -0.0537  0.5132
18717SOL    HW157764   8.763   6.052   6.494  0.0631  1.0502  0.6100
18717SOL    HW257765   8.713   5.985   6.368  2.5399 -2.7427  1.4729
18718SOL     OW57766   9.631   1.766   5.729 -0.6121 -0.3000 -0.6962
18718SOL    HW157767   9.546   1.742   5.768  0.3004 -0.2938  1.4337
18718SOL    HW257768   9.638   1.860   5.744  0.0399 -0.4096 -0.2990
18719SOL     OW57769   0.349   8.953   4.260 -0.6521  0.2062 -0.0136
18719SOL    HW157770   0.323   8.862   4.248  0.5405  0.0286 -1.6045
18719SOL    HW257771   0.445   8.951   4.255 -0.4573  1.2867  2.0922
18720SOL     OW57772   2.809   4.481   3.594  0.0130 -0.0643  0.1890
18720SOL    HW157773   2.770   4.540   3.530  0.7282 -0.7518 -0.9111
18720SOL    HW257774   2.883   4.441   3.549  0.2536 -0.9268  1.2920
18721SOL     OW57775   3.030   5.640   3.736 -0.4185  0.0961 -0.7009
18721SOL    HW157776   3.012   5.596   3.819  0.5344  2.6532  1.0105
18721SOL    HW257777   3.118   5.610   3.711 -0.4785 -0.2570 -0.4931
18722SOL     OW57778   5.203   8.408   2.934 -0.2556  0.1073 -0.5390
18722SOL    HW157779   5.168   8.481   2.883 -0.4245  1.1095  0.9463
18722SOL    HW257780   5.267   8.367   2.876 -0.5755  1.0686 -1.6144
18723SOL     OW57781   1.561   6.698   3.550  0.1140  0.4982  0.0709
18723SOL    HW157782   1.468   6.678   3.540 -0.2429  1.5989  0.9758
18723SOL    HW257783   1.568   6.791   3.528  1.4887 -0.1413 -2.6680
18724SOL     OW57784   7.383   8.604   1.695 -0.4456  0.0746  0.3088
18724SOL    HW157785   7.311   8.547   1.669 -0.0665  0.6678 -2.2428
18724SOL    HW257786   7.460   8.548   1.695 -0.3850  0.1503 -0.3033
18725SOL     OW57787   1.498   6.224   1.356  0.3718  0.5303  0.2933
18725SOL    HW157788   1.554   6.172   1.415 -0.8241 -3.0157 -1.3751
18725SOL    HW257789   1.541   6.219   1.271  0.6008  3.1350  0.1798
18726SOL     OW57790   7.734   5.701   9.546  0.5303 -0.0152 -0.5564
18726SOL    HW157791   7.684   5.691   9.466 -0.5179  0.1944  0.0532
18726SOL    HW257792   7.781   5.784   9.536  1.8371 -0.8590 -1.6908
18727SOL     OW57793   2.290   9.811   1.224  0.0074 -0.2020 -0.1902
18727SOL    HW157794   2.315   9.757   1.299  3.0510  1.3208  0.0139
18727SOL    HW257795   2.339   9.773   1.150  0.3136  0.8220 -0.5238
18728SOL     OW57796   3.951   4.005   2.889 -0.1320  0.9745 -0.0067
18728SOL    HW157797   4.004   3.934   2.853  0.4533  0.4933  1.7269
18728SOL    HW257798   3.868   3.998   2.842  0.2296 -0.3052 -0.4992
18729SOL     OW57799   6.279   7.697   5.427  0.0943  0.8912 -0.4314
18729SOL    HW157800   6.270   7.609   5.388  0.1927  1.0705 -0.8643
18729SOL    HW257801   6.201   7.707   5.481 -0.2176  0.7748 -0.8560
18730SOL     OW57802   8.653   9.173   2.889  0.3661 -0.2482  0.1009
18730SOL    HW157803   8.674   9.088   2.927  0.6709  0.2872  1.1514
18730SOL    HW257804   8.735   9.201   2.847  1.1483  0.7525  2.1438
18731SOL     OW57805   5.594   1.248   4.112 -0.2032  0.1847  0.2023
18731SOL    HW157806   5.602   1.174   4.172  0.1568  1.0703  1.2753
18731SOL    HW257807   5.637   1.219   4.032  2.2827  0.1125  1.4778
18732SOL     OW57808   6.398   7.782   3.760  0.2191  0.3957 -0.0015
18732SOL    HW157809   6.357   7.775   3.846  1.0217  0.4725  0.3931
18732SOL    HW257810   6.483   7.822   3.777  0.2860  0.6285 -0.8628
18733SOL     OW57811   4.442   3.978   5.973 -0.0343 -0.2983 -0.3969
18733SOL    HW157812   4.450   4.031   5.893  0.0944  2.4776  1.3218
18733SOL    HW257813   4.351   3.986   5.998  0.0869 -0.5481  0.1259
18734SOL     OW57814   9.774   4.874   7.112  0.1725 -0.1898  0.0243
18734SOL    HW157815   9.785   4.957   7.158 -1.3297  0.0941 -0.0764
18734SOL    HW257816   9.857   4.861   7.066  0.6971  0.8789  0.6340
18735SOL     OW57817   6.330   0.995   9.823  0.2892 -0.3154  0.1954
18735SOL    HW157818   6.285   1.073   9.855 -1.4878 -0.4008 -1.9156
18735SOL    HW257819   6.403   0.983   9.885 -0.7113  1.6644  1.8859
18736SOL     OW57820   4.593   1.010   7.504 -0.4684 -0.0210  0.4913
18736SOL    HW157821   4.663   1.074   7.511  0.0722 -0.8003  3.1830
18736SOL    HW257822   4.625   0.947   7.439  1.0713 -0.0333  1.2134
18737SOL     OW57823   0.609   4.290   5.322  0.0106  0.0005  0.3027
18737SOL    HW157824   0.603   4.229   5.396 -0.0235 -2.7061 -1.8127
18737SOL    HW257825   0.531   4.272   5.269 -1.4208  3.7611  0.7986
18738SOL     OW57826   1.524   3.074   7.683  0.2891 -0.2654  0.2995
18738SOL    HW157827   1.497   3.073   7.775 -1.9088 -1.4529 -0.2976
18738SOL    HW257828   1.567   3.159   7.672 -0.2725  0.3164  2.1952
18739SOL     OW57829   1.277   1.320   6.550 -0.2741  0.1922  0.3032
18739SOL    HW157830   1.187   1.352   6.547 -0.4486 -0.2431  0.7169
18739SOL    HW257831   1.273   1.242   6.605 -0.0656 -1.2495 -1.6305
18740SOL     OW57832   9.761   2.599   4.637 -0.0300 -0.3279  0.0882
18740SOL    HW157833   9.756   2.689   4.671  1.0742 -0.6028  1.0675
18740SOL    HW257834   9.735   2.544   4.711 -1.5207 -0.8150 -0.7526
18741SOL     OW57835   1.915   2.142   2.666  0.5753  0.1578  0.0311
18741SOL    HW157836   1.882   2.053   2.651  0.1474  0.3305 -0.0498
18741SOL    HW257837   1.842   2.199   2.643  0.8894  0.5383 -0.0304
18742SOL     OW57838   4.630   0.761   3.869 -0.2415 -0.1812 -0.1630
18742SOL    HW157839   4.617   0.788   3.960 -1.0964 -0.2835 -0.2404
18742SOL    HW257840   4.723   0.741   3.863 -0.2502 -0.6038  0.8080
18743SOL     OW57841   3.920   9.087   7.221  0.2739 -0.0408 -0.0728
18743SOL    HW157842   3.969   9.163   7.190 -0.2677  0.3357 -0.0209
18743SOL    HW257843   3.916   9.099   7.316 -0.0767  0.0281 -0.0954
18744SOL     OW57844   1.253   1.134   8.630  0.0094  0.1328  0.1251
18744SOL    HW157845   1.257   1.201   8.562 -1.2626  1.8630  1.6437
18744SOL    HW257846   1.334   1.145   8.680  0.4629 -0.4536 -0.4572
18745SOL     OW57847   4.177   3.176   5.489 -0.7667 -0.0640  0.2777
18745SOL    HW157848   4.265   3.189   5.454  0.3602 -2.6149  1.8249
18745SOL    HW257849   4.120   3.176   5.412  0.7161  0.6858 -0.8664
18746SOL     OW57850   1.872   8.949   3.302 -0.1769 -0.2536 -0.3327
18746SOL    HW157851   1.847   9.014   3.368 -1.0723  0.0837 -0.9752
18746SOL    HW257852   1.842   8.866   3.338 -1.7155  0.0612 -0.7751
18747SOL     OW57853   8.399   2.945   2.672 -0.3152  0.2235  0.0865
18747SOL    HW157854   8.351   2.902   2.601 -1.4096  0.9348  0.3738
18747SOL    HW257855   8.415   2.876   2.736  0.1517 -0.2906 -0.5748
18748SOL     OW57856   0.934   6.906   1.804 -0.4298  0.1535 -0.1743
18748SOL    HW157857   0.909   6.946   1.887 -0.4801  0.7785 -0.4765
18748SOL    HW257858   0.924   6.977   1.740 -0.7564 -0.4157 -0.7715
18749SOL     OW57859   3.259   3.821   8.104 -0.2177 -0.2635 -0.7798
18749SOL    HW157860   3.340   3.770   8.097  1.1339  1.8481 -1.3300
18749SOL    HW257861   3.282   3.897   8.157 -1.4634  1.0579 -2.0130
18750SOL     OW57862   7.348   8.325   3.067  0.2697  0.7109 -0.1406
18750SOL    HW157863   7.313   8.239   3.089  0.3719  0.8818  0.7291
18750SOL    HW257864   7.386   8.314   2.980  1.1256 -0.3673  0.3484
18751SOL     OW57865   8.186   6.884   0.562 -0.2090 -0.1657  0.1616
18751SOL    HW157866   8.248   6.853   0.497  0.2186  0.9025  0.0355
18751SOL    HW257867   8.224   6.858   0.646  0.2505  0.1875  0.0689
18752SOL     OW57868   6.500   7.887   0.019 -0.2567 -0.0016 -0.3817
18752SOL    HW157869   6.408   7.890   0.047  0.8281 -0.1509  4.0086
18752SOL    HW257870   6.508   7.960  -0.042 -3.1108  0.5701 -0.2313
18753SOL     OW57871   4.572   1.496   5.211  0.1820  0.1261 -0.4777
18753SOL    HW157872   4.584   1.497   5.306  2.3545 -0.1312 -0.7040
18753SOL    HW257873   4.529   1.412   5.193 -1.3361  0.6914  0.3522
18754SOL     OW57874   4.308   1.732   3.521  0.2392 -0.2021  0.0694
18754SOL    HW157875   4.324   1.639   3.503  1.6672 -0.0545  0.4577
18754SOL    HW257876   4.321   1.776   3.437  0.0235 -0.3024 -0.0159
18755SOL     OW57877   6.744   6.685   3.987 -0.3533  0.3498 -0.2848
18755SOL    HW157878   6.701   6.750   3.931 -1.5971  1.2714  1.6490
18755SOL    HW257879   6.824   6.728   4.018  0.6529 -0.3791 -1.7342
18756SOL     OW57880   8.035   2.971   7.154  0.0160  0.6248 -0.1777
18756SOL    HW157881   8.052   3.010   7.068 -2.3054 -1.0988 -1.5483
18756SOL    HW257882   8.082   3.026   7.216  1.7557  1.9557 -2.5450
18757SOL     OW57883   6.560   0.904   1.096 -0.6163 -0.2444  0.1516
18757SOL    HW157884   6.590   0.869   1.179 -0.3074 -1.5973 -0.4906
18757SOL    HW257885   6.538   0.826   1.044 -0.5088  0.5500 -1.1345
18758SOL     OW57886   6.820   8.091   8.959  0.5069 -0.6300 -0.2520
18758SOL    HW157887   6.765   8.134   9.025  0.5961 -0.6119 -0.1896
18758SOL    HW257888   6.909   8.096   8.994  0.9435  1.6122 -1.5196
18759SOL     OW57889   2.693   7.516   2.024 -0.3540 -0.0012  0.1329
18759SOL    HW157890   2.706   7.429   1.985  0.9277  0.0093  0.4913
18759SOL    HW257891   2.749   7.516   2.101  0.7867  1.6418 -0.6443
18760SOL     OW57892   1.703   7.157   9.061  0.0140 -0.6065 -0.1159
18760SOL    HW157893   1.708   7.099   9.136  0.1482  0.7343  0.9617
18760SOL    HW257894   1.713   7.100   8.985  0.0697 -1.9726  0.8839
18761SOL     OW57895   8.203   9.367   2.847  0.4130 -0.3935 -0.2694
18761SOL    HW157896   8.182   9.440   2.789  0.0514 -1.0837 -1.0124
18761SOL    HW257897   8.287   9.391   2.886 -0.5119  1.2611  0.8680
18762SOL     OW57898   3.476   1.299   9.484  0.2832 -0.3081  0.5725
18762SOL    HW157899   3.409   1.270   9.422  0.8291 -0.1438 -0.1007
18762SOL    HW257900   3.439   1.279   9.570 -2.2641  3.0200  0.4775
18763SOL     OW57901   6.442   0.370   8.301  0.3647 -0.6850  0.5752
18763SOL    HW157902   6.521   0.409   8.264  0.6157 -2.0422 -0.3918
18763SOL    HW257903   6.371   0.427   8.273  0.7908 -0.5551 -0.2456
18764SOL     OW57904   3.047   4.889   7.090 -0.2477 -0.3098  0.3444
18764SOL    HW157905   3.117   4.856   7.034  0.5770  0.9000  0.6108
18764SOL    HW257906   2.980   4.921   7.029  0.2677  0.2250  0.0476
18765SOL     OW57907   0.382   9.208   3.266  0.7759  0.2803  0.3019
18765SOL    HW157908   0.312   9.202   3.332  0.6242  0.2131  0.1362
18765SOL    HW257909   0.369   9.131   3.210  0.3009  0.8553 -0.3946
18766SOL     OW57910   2.843   8.903   8.174 -0.1121 -0.2680 -0.2404
18766SOL    HW157911   2.866   8.974   8.113  1.8305 -0.0595  0.6772
18766SOL    HW257912   2.838   8.826   8.118 -0.8995  0.3391 -1.0492
18767SOL     OW57913   5.546   0.104   0.643 -0.1701 -0.3839 -0.4713
18767SOL    HW157914   5.588   0.019   0.632 -0.3567 -0.6033  0.4209
18767SOL    HW257915   5.613   0.167   0.616  0.4241 -0.7616  0.0930
18768SOL     OW57916   5.075   6.560   9.790 -0.2371  0.0242  0.0877
18768SOL    HW157917   5.121   6.589   9.869 -0.5522 -0.6885  0.5388
18768SOL    HW257918   5.100   6.468   9.780  2.2380  0.8216 -2.3679
18769SOL     OW57919   7.532   6.370   7.816  0.2530  0.2616 -0.1607
18769SOL    HW157920   7.572   6.396   7.899  2.4750 -2.6544 -0.1528
18769SOL    HW257921   7.584   6.414   7.750  1.3212 -0.7589 -0.0439
18770SOL     OW57922   2.523   0.865   0.267 -0.4854 -0.2587  0.5013
18770SOL    HW157923   2.577   0.892   0.341  1.5649  0.7769 -1.2273
18770SOL    HW257924   2.470   0.792   0.300  1.0912 -0.5115  2.6726
18771SOL     OW57925   9.692   7.554   6.723  0.2483  0.6998 -0.1118
18771SOL    HW157926   9.681   7.497   6.647 -1.2376  0.0899  0.5087
18771SOL    HW257927   9.731   7.634   6.688 -0.1806  0.3446 -1.4643
18772SOL     OW57928   9.620   3.668   6.720  0.0845 -0.2257 -0.1503
18772SOL    HW157929   9.612   3.713   6.804  0.9881  0.2366 -0.3083
18772SOL    HW257930   9.645   3.578   6.744 -2.4797 -0.9251  0.2054
18773SOL     OW57931   8.502   7.476   8.020  1.0344 -0.3293  0.1106
18773SOL    HW157932   8.489   7.381   8.011  2.3658 -0.4974 -0.2820
18773SOL    HW257933   8.544   7.502   7.938  0.5456  0.6440  0.1523
18774SOL     OW57934   1.579   7.657   3.650  0.3973 -0.5801  0.0992
18774SOL    HW157935   1.672   7.632   3.648  0.6012 -0.0413 -3.1726
18774SOL    HW257936   1.533   7.581   3.616  0.0592  0.2662 -1.4427
18775SOL     OW57937   0.319   1.239   2.219 -0.3151  0.1913 -0.1150
18775SOL    HW157938   0.382   1.212   2.285 -1.0347  0.8908  0.8842
18775SOL    HW257939   0.234   1.222   2.258 -0.7567  1.1832 -0.6034
18776SOL     OW57940   0.481   6.257   1.224  0.1591  0.4126 -0.1360
18776SOL    HW157941   0.442   6.272   1.311  0.6328  1.0118 -0.0201
18776SOL    HW257942   0.407   6.261   1.164 -0.5602 -2.2943  0.4266
18777SOL     OW57943   8.976   5.477   9.016 -0.0488  0.0456 -0.0305
18777SOL    HW157944   8.982   5.505   8.924 -2.8299  0.4087 -0.2044
18777SOL    HW257945   8.996   5.556   9.066  0.1498  0.2040 -0.3563
18778SOL     OW57946   3.132   2.319   9.704  0.4204  0.1620 -0.2471
18778SOL    HW157947   3.126   2.266   9.625  1.5230  0.3762 -0.4995
18778SOL    HW257948   3.217   2.295   9.742  0.5559  1.1230  0.0840
18779SOL     OW57949   8.431   8.895   8.734  0.1661 -0.0266 -0.7741
18779SOL    HW157950   8.380   8.859   8.661 -1.5384  0.4312  0.1418
18779SOL    HW257951   8.396   8.983   8.746  1.7299  0.5990 -0.6000
18780SOL     OW57952   6.051   0.240   0.071 -0.2553  0.4583 -0.1658
18780SOL    HW157953   6.008   0.302   0.012  0.8053  0.4236 -1.0051
18780SOL    HW257954   6.059   0.159   0.020 -2.7667 -0.8684  1.3218
18781SOL     OW57955   3.566   1.568   3.341 -0.0925  0.1438 -0.1272
18781SOL    HW157956   3.580   1.658   3.312  0.9534 -0.2556 -0.9612
18781SOL    HW257957   3.562   1.573   3.436  0.5231  0.9992 -0.1377
18782SOL     OW57958   7.395   4.326   9.772  0.1697  0.4985 -1.1989
18782SOL    HW157959   7.442   4.384   9.832 -1.7799  0.1543  0.7976
18782SOL    HW257960   7.455   4.312   9.700  2.4369  1.4087  0.4052
18783SOL     OW57961   1.586   7.937   3.812  0.1436  0.1132  0.4181
18783SOL    HW157962   1.612   7.977   3.729  1.4920 -0.1114  0.7144
18783SOL    HW257963   1.569   7.845   3.791  1.9603 -0.3089  0.6261
18784SOL     OW57964   8.761   7.961   8.002 -0.5557  0.6570  0.0435
18784SOL    HW157965   8.695   7.933   7.939 -0.4599  0.0285  0.2150
18784SOL    HW257966   8.722   8.035   8.047 -1.2244  0.1598  0.2900
18785SOL     OW57967   1.193   4.552   2.018  0.2287 -0.1043 -0.1014
18785SOL    HW157968   1.182   4.647   2.013  0.3782 -0.1280 -3.3758
18785SOL    HW257969   1.124   4.518   1.962  1.5556 -1.7491 -0.8236
18786SOL     OW57970   4.548   1.786   3.663 -0.1761  0.3579  0.6848
18786SOL    HW157971   4.604   1.709   3.660  0.7223  1.0076  0.2572
18786SOL    HW257972   4.469   1.760   3.614  1.0760  0.4212 -1.5317
18787SOL     OW57973   9.213   2.753   8.350 -0.3547 -0.0040  0.3145
18787SOL    HW157974   9.173   2.673   8.385 -1.9517 -0.3279 -2.0595
18787SOL    HW257975   9.288   2.721   8.299  1.4692  0.4079  2.5577
18788SOL     OW57976   8.209   1.035   4.058 -0.2702  0.0121  0.5585
18788SOL    HW157977   8.273   0.965   4.075 -0.4007 -0.2708 -0.0885
18788SOL    HW257978   8.124   0.990   4.056 -0.4272  0.2985  0.8472
18789SOL     OW57979   9.347   4.614   6.191 -0.4449 -0.0948  0.2621
18789SOL    HW157980   9.304   4.541   6.237  0.4903 -0.4003  0.6712
18789SOL    HW257981   9.412   4.646   6.252 -0.7978  1.0553  0.0487
18790SOL     OW57982   2.653   3.676   0.573 -0.6531  0.1987 -0.4701
18790SOL    HW157983   2.580   3.733   0.548  0.2095  1.6413  0.1498
18790SOL    HW257984   2.710   3.732   0.625 -0.0760 -1.4385  0.7326
18791SOL     OW57985   4.656   3.153   8.003 -0.4810  0.7027 -0.0705
18791SOL    HW157986   4.638   3.088   7.935 -0.1488  0.9685 -0.4090
18791SOL    HW257987   4.734   3.200   7.973 -0.6923  1.2328  0.1922
18792SOL     OW57988   8.450   3.941   1.732  0.5473 -0.5087 -0.1864
18792SOL    HW157989   8.401   4.020   1.754  2.0277  0.9968 -1.9777
18792SOL    HW257990   8.394   3.869   1.761 -1.5557  1.1448  0.1015
18793SOL     OW57991   8.748   2.580   7.077 -0.0185  0.1817 -0.7938
18793SOL    HW157992   8.746   2.603   6.984 -2.4696 -1.6632 -1.3134
18793SOL    HW257993   8.792   2.495   7.080 -1.3020 -0.5028 -0.5314
18794SOL     OW57994   7.581   8.073   8.719 -0.6995  0.3547  0.1123
18794SOL    HW157995   7.611   8.140   8.781  0.2392 -0.1118  0.1812
18794SOL    HW257996   7.634   7.996   8.740 -1.6795 -0.3752 -0.0561
18795SOL     OW57997   0.591   2.904   4.157  0.0793  0.1602  0.1223
18795SOL    HW157998   0.518   2.922   4.216 -0.0512 -0.8042  0.2787
18795SOL    HW257999   0.557   2.837   4.098  0.9947 -0.7096  0.5496
18796SOL     OW58000   0.131   7.547   9.255 -0.5506 -0.1332 -0.2227
18796SOL    HW158001   0.049   7.592   9.232 -1.0940 -0.5076  0.9361
18796SOL    HW258002   0.132   7.547   9.351  0.3165 -1.0346 -0.2237
18797SOL     OW58003   0.089   2.074   5.380 -0.7739  0.0244  0.0368
18797SOL    HW158004   0.081   1.991   5.427  2.1213 -1.3102 -1.5582
18797SOL    HW258005   0.015   2.073   5.319 -1.9472 -0.3576  1.4041
18798SOL     OW58006   9.275   0.558   7.008  0.2579 -0.1528  0.0220
18798SOL    HW158007   9.251   0.474   7.046 -0.7912  0.2698  0.3332
18798SOL    HW258008   9.343   0.593   7.067  0.2822 -0.5158  0.2085
18799SOL     OW58009   5.841   5.390   7.661  0.2730  0.1115  0.1148
18799SOL    HW158010   5.749   5.363   7.659 -1.0078  3.6977  2.2176
18799SOL    HW258011   5.846   5.461   7.597  1.8713 -0.6137 -0.6212
18800SOL     OW58012   7.214   5.238   7.917  0.3725  0.3748  0.1670
18800SOL    HW158013   7.130   5.283   7.930  0.4295  0.8580 -1.0496
18800SOL    HW258014   7.190   5.146   7.903  0.0946  0.4091  0.4072
18801SOL     OW58015   6.203   5.868   1.841  0.3657  0.3676  0.0012
18801SOL    HW158016   6.215   5.847   1.934 -0.4163  3.0234  0.7816
18801SOL    HW258017   6.110   5.855   1.825  0.4387  0.2503 -0.3402
18802SOL     OW58018   8.899   0.208   2.789 -0.1005 -0.0391 -0.1103
18802SOL    HW158019   8.966   0.248   2.734  0.1318  0.8333  0.7824
18802SOL    HW258020   8.821   0.202   2.733  0.6314 -0.8348 -1.0771
18803SOL     OW58021   6.227   5.553   2.888 -0.1057 -0.1173  0.9018
18803SOL    HW158022   6.151   5.598   2.852  1.0142  1.0626 -0.1332
18803SOL    HW258023   6.242   5.479   2.829 -0.3930 -0.3069  1.0644
18804SOL     OW58024   7.086   8.058   5.356  0.4062  0.0175 -0.0208
18804SOL    HW158025   7.000   8.091   5.331 -0.9416 -0.8690  2.9257
18804SOL    HW258026   7.141   8.136   5.362 -0.3191  0.6708 -1.3808
18805SOL     OW58027   2.024   3.928   4.430  0.1686  0.0559  0.3011
18805SOL    HW158028   1.991   3.984   4.360 -1.2296 -0.9283  0.1386
18805SOL    HW258029   1.984   3.963   4.510  1.0239  0.6028  0.5053
18806SOL     OW58030   0.856   5.499   1.249  0.7406  0.1650 -0.3428
18806SOL    HW158031   0.916   5.507   1.175 -1.9115  1.6257 -2.4849
18806SOL    HW258032   0.855   5.586   1.288 -0.2284  0.2413 -0.5341
18807SOL     OW58033   6.724   7.554   2.296  0.2186 -0.0089 -0.4875
18807SOL    HW158034   6.805   7.543   2.347 -0.9152 -0.1121  1.3669
18807SOL    HW258035   6.728   7.644   2.265  1.1604 -0.0915 -0.6368
18808SOL     OW58036   5.011   5.682   8.249 -0.0145 -0.0909 -0.6278
18808SOL    HW158037   4.931   5.634   8.270 -1.4936  1.9484 -1.2336
18808SOL    HW258038   4.988   5.732   8.170  1.5366  1.2541 -0.2702
18809SOL     OW58039   4.229   0.156   5.462 -0.3337  0.0704 -0.2596
18809SOL    HW158040   4.293   0.102   5.416 -1.6617 -0.8687 -1.0867
18809SOL    HW258041   4.241   0.134   5.554  0.6947  0.1158 -0.3646
18810SOL     OW58042   5.465   8.778   4.676  0.4614 -0.4467  0.7118
18810SOL    HW158043   5.372   8.802   4.682  0.7386  1.1437 -0.6247
18810SOL    HW258044   5.486   8.787   4.583  2.0366 -0.4818  1.0359
18811SOL     OW58045   1.044   0.982   1.857  0.5419  0.1770  0.2408
18811SOL    HW158046   0.951   0.962   1.868  0.3979 -0.2026 -1.3501
18811SOL    HW258047   1.059   1.057   1.913 -0.9634  0.8208 -0.1563
18812SOL     OW58048   8.410   4.508   0.202  0.4907 -0.0007 -0.3104
18812SOL    HW158049   8.464   4.490   0.126 -0.1348  0.1100 -0.7919
18812SOL    HW258050   8.460   4.572   0.252 -0.1002  1.7550 -1.8293
18813SOL     OW58051   6.675   0.997   3.559  0.8723 -1.3333  0.0323
18813SOL    HW158052   6.649   1.076   3.511  0.9099 -0.6430  1.1163
18813SOL    HW258053   6.699   0.934   3.490 -1.1521 -1.1378 -0.9211
18814SOL     OW58054   5.610   8.522   4.757 -0.1283  0.4596  0.2740
18814SOL    HW158055   5.681   8.466   4.786 -0.8039 -0.6753 -0.2074
18814SOL    HW258056   5.533   8.490   4.804 -0.4859  1.1227  0.1563
18815SOL     OW58057   1.488   2.175   8.680 -0.1266  0.1216  0.7028
18815SOL    HW158058   1.505   2.081   8.676  1.2825  0.3638  0.5146
18815SOL    HW258059   1.546   2.206   8.750  0.9358  1.1462 -0.5897
18816SOL     OW58060   4.538   5.186   5.289  0.0356 -0.4301  0.1395
18816SOL    HW158061   4.474   5.230   5.234  0.0917  0.1404  0.5194
18816SOL    HW258062   4.610   5.249   5.297  0.0079 -0.4852  0.8917
18817SOL     OW58063   6.988   3.300   3.980 -0.2054  0.3391 -0.3009
18817SOL    HW158064   6.979   3.206   3.995 -1.0716  0.3476 -0.6690
18817SOL    HW258065   6.950   3.314   3.893  0.6940  0.9101 -0.6158
18818SOL     OW58066   3.335   9.781   6.351 -0.3866 -0.3836  0.3987
18818SOL    HW158067   3.400   9.804   6.284  1.1975 -2.1309  1.2414
18818SOL    HW258068   3.337   9.686   6.354 -1.0951 -0.3775  2.2842
18819SOL     OW58069   5.154   3.772   8.315 -0.1623  0.6019  0.3041
18819SOL    HW158070   5.074   3.740   8.272 -0.0695 -0.0497  0.5924
18819SOL    HW258071   5.136   3.864   8.333 -0.6769  0.5755 -0.0342
18820SOL     OW58072   4.551   3.883   2.195  0.7964 -0.6725  0.2639
18820SOL    HW158073   4.639   3.920   2.185  1.5350 -1.4093  3.1530
18820SOL    HW258074   4.562   3.791   2.173  0.6651 -0.6930  0.2891
18821SOL     OW58075   8.741   8.719   0.301  0.5687  0.1136 -0.1086
18821SOL    HW158076   8.813   8.658   0.320  0.1006 -0.5208 -0.3200
18821SOL    HW258077   8.762   8.755   0.215  0.1408 -0.8352 -0.6323
18822SOL     OW58078   3.276   9.524   2.785 -0.1518 -0.0662  0.2783
18822SOL    HW158079   3.252   9.482   2.868  0.3904  1.0240  1.0132
18822SOL    HW258080   3.234   9.470   2.718 -2.5353  0.3085  1.3764
18823SOL     OW58081   4.028   1.185   2.779  0.7022 -0.0239 -0.2212
18823SOL    HW158082   4.094   1.127   2.817  0.7503  0.4267  0.4223
18823SOL    HW258083   4.078   1.261   2.748  0.5192  0.2150  0.0570
18824SOL     OW58084   3.202   6.478   3.861  0.0747 -0.4226 -0.0107
18824SOL    HW158085   3.205   6.390   3.900  1.6905 -0.0187  0.8737
18824SOL    HW258086   3.109   6.501   3.862 -0.5229 -2.4872 -1.1839
18825SOL     OW58087   4.397   4.233   6.642 -0.1148  0.2083  0.0504
18825SOL    HW158088   4.471   4.174   6.655 -1.2272 -1.1925  0.2249
18825SOL    HW258089   4.356   4.203   6.561 -0.4238  1.0407 -0.1108
18826SOL     OW58090   6.438   8.176   6.664  0.0841  0.4856  0.3051
18826SOL    HW158091   6.405   8.145   6.749 -1.4378  1.8972  0.2731
18826SOL    HW258092   6.501   8.244   6.686  1.1111 -0.4435  0.3128
18827SOL     OW58093   5.649   8.763   8.740 -0.4544  0.1179 -0.0285
18827SOL    HW158094   5.626   8.850   8.707  1.9506  1.5023  1.6063
18827SOL    HW258095   5.743   8.769   8.759 -0.1712 -2.9342 -0.0538
18828SOL     OW58096   0.010   1.910   0.242  0.4725  0.5988 -0.0064
18828SOL    HW158097   0.067   1.835   0.225  0.2374  0.3919  0.1132
18828SOL    HW258098   0.045   1.980   0.187 -0.0886  0.0317 -1.1176
18829SOL     OW58099   1.847   2.407   8.841 -0.3253 -0.7117 -0.0271
18829SOL    HW158100   1.833   2.484   8.897 -1.7583 -1.4440  0.6798
18829SOL    HW258101   1.798   2.427   8.762 -0.3870 -0.7486  0.0024
18830SOL     OW58102   6.332   9.723   3.885  0.5514  0.0058 -0.1186
18830SOL    HW158103   6.326   9.668   3.963 -1.2950  1.8002  1.1156
18830SOL    HW258104   6.380   9.670   3.821 -2.3318 -3.6743  0.4134
18831SOL     OW58105   3.766   9.491   5.953  0.1916 -0.2063 -0.4003
18831SOL    HW158106   3.857   9.477   5.981 -0.1334  1.0911  1.4401
18831SOL    HW258107   3.774   9.516   5.861  1.6175 -0.9761 -0.5255
18832SOL     OW58108   1.864   7.471   9.671 -0.0460  0.3735  0.5459
18832SOL    HW158109   1.836   7.410   9.604 -0.5968  0.4878  0.6595
18832SOL    HW258110   1.856   7.557   9.630  0.4947  0.3868  0.4635
18833SOL     OW58111   8.549   4.525   9.788 -0.0605 -0.6538 -0.1143
18833SOL    HW158112   8.635   4.486   9.771  0.4622  0.3294  0.1412
18833SOL    HW258113   8.547   4.603   9.731 -0.3364 -0.0825  0.6589
18834SOL     OW58114   9.196   7.166   6.609  0.0033 -0.0686 -0.5018
18834SOL    HW158115   9.271   7.223   6.597  1.1237 -1.0004  1.5504
18834SOL    HW258116   9.143   7.209   6.676 -1.6673  0.8522 -2.2987
18835SOL     OW58117   2.555   8.367   0.629 -0.5593  0.1737  0.6480
18835SOL    HW158118   2.518   8.350   0.715  2.0599 -0.8232  1.6774
18835SOL    HW258119   2.629   8.425   0.645 -0.6453  0.8312 -1.0854
18836SOL     OW58120   0.921   6.177   9.520  0.4633  0.1482 -0.5997
18836SOL    HW158121   0.829   6.150   9.526  0.9503 -1.7364 -0.8361
18836SOL    HW258122   0.928   6.252   9.579 -0.7055 -1.2267  1.4534
18837SOL     OW58123   0.921   6.886   1.293 -1.1022  0.0343 -0.3691
18837SOL    HW158124   0.993   6.826   1.309 -0.4170  0.7916 -0.5284
18837SOL    HW258125   0.875   6.850   1.218 -0.6528 -0.2438 -0.5142
18838SOL     OW58126   7.542   5.323   7.316  0.0432  0.3343 -0.8469
18838SOL    HW158127   7.580   5.275   7.389  0.5331  0.2959 -1.1240
18838SOL    HW258128   7.552   5.416   7.339  1.1116  0.3503 -1.3068
18839SOL     OW58129   8.626   5.300   2.157 -1.0465 -0.0317 -0.0371
18839SOL    HW158130   8.681   5.226   2.133  1.6643  1.6833  0.4209
18839SOL    HW258131   8.556   5.301   2.092 -0.5448 -2.3287 -0.6811
18840SOL     OW58132   9.619   6.976   4.024  0.5313 -0.0381 -0.0864
18840SOL    HW158133   9.555   7.033   3.981  0.9385 -1.2726 -2.5234
18840SOL    HW258134   9.703   7.020   4.009  0.4647  0.8701  1.8896
18841SOL     OW58135   5.015   5.576   2.261  0.4724  0.0911  0.0594
18841SOL    HW158136   5.065   5.650   2.225  0.4947  1.9665  3.5144
18841SOL    HW258137   4.935   5.574   2.209  0.7107  2.2581 -0.4949
18842SOL     OW58138   9.266   7.059   1.590 -0.5568 -0.1730 -0.7348
18842SOL    HW158139   9.185   7.069   1.541 -0.1288  2.5236 -1.0396
18842SOL    HW258140   9.287   7.148   1.621  1.3481 -1.0877  0.8398
18843SOL     OW58141   7.366   7.066   4.522 -0.3147  0.5127 -0.1755
18843SOL    HW158142   7.349   7.123   4.597  1.7241  3.1510 -1.5690
18843SOL    HW258143   7.337   7.116   4.446  0.9650 -0.5587 -1.4282
18844SOL     OW58144   0.566   5.357   2.817 -0.7598 -0.1522  0.6872
18844SOL    HW158145   0.535   5.271   2.790  1.2612 -0.8902  0.5439
18844SOL    HW258146   0.528   5.418   2.753 -0.4904 -1.2041 -0.4974
18845SOL     OW58147   4.870   9.374   4.742 -0.3368 -0.2370 -0.0182
18845SOL    HW158148   4.859   9.283   4.714  0.1445 -0.8033  1.5292
18845SOL    HW258149   4.861   9.425   4.661  0.3279 -1.7183 -1.0697
18846SOL     OW58150   2.814   5.759   0.307  0.1574  0.0269 -0.0863
18846SOL    HW158151   2.785   5.847   0.330  0.8112  0.2637 -0.1463
18846SOL    HW258152   2.747   5.701   0.343 -0.8724  0.5997 -1.0154
18847SOL     OW58153   0.541   1.730   3.534 -0.0965 -0.1120 -0.2495
18847SOL    HW158154   0.526   1.810   3.584  0.4430  0.4554 -0.9744
18847SOL    HW258155   0.477   1.732   3.464 -0.3266 -0.5087 -0.0549
18848SOL     OW58156   1.661   0.074   4.225  0.2215 -0.3440 -0.2754
18848SOL    HW158157   1.643   0.158   4.183 -0.3141 -1.0526 -1.5307
18848SOL    HW258158   1.599   0.013   4.184  0.0934 -1.2064  1.1267
18849SOL     OW58159   7.878   3.540   7.834  0.0145 -0.0256 -0.1933
18849SOL    HW158160   7.883   3.543   7.738 -1.3102  1.3719 -0.2491
18849SOL    HW258161   7.960   3.579   7.863 -0.4288  1.4295 -0.8062
18850SOL     OW58162   1.696   4.557   0.668 -0.4553  0.1287 -0.5643
18850SOL    HW158163   1.668   4.467   0.685  0.8828  0.0027  1.3267
18850SOL    HW258164   1.785   4.549   0.632 -1.5936  0.6238 -3.8175
18851SOL     OW58165   2.024   8.555   9.135 -0.0618  0.5562 -0.4362
18851SOL    HW158166   2.113   8.578   9.161  0.0334 -0.0269 -0.2420
18851SOL    HW258167   1.969   8.615   9.185  0.0989 -0.7032  1.3401
18852SOL     OW58168   0.680   7.406   3.627  0.0032 -0.0492 -0.6945
18852SOL    HW158169   0.753   7.438   3.575  0.7948  0.7965  0.8648
18852SOL    HW258170   0.659   7.321   3.589  1.1187  0.1510 -1.8205
18853SOL     OW58171   0.944   9.510   5.352  0.9010  0.2998  0.1401
18853SOL    HW158172   0.895   9.591   5.369  0.8695  0.2660  0.2127
18853SOL    HW258173   0.955   9.470   5.438 -0.3218 -0.4866 -0.0289
18854SOL     OW58174   4.827   4.215   6.353  0.3056 -0.2374  0.4125
18854SOL    HW158175   4.898   4.223   6.289  1.7164  1.8417  2.1150
18854SOL    HW258176   4.752   4.259   6.311  0.7045 -0.3753 -0.4686
18855SOL     OW58177   2.337   3.796   6.960 -0.1280  0.0965 -0.0747
18855SOL    HW158178   2.366   3.786   7.051  0.7837 -2.3263 -0.5568
18855SOL    HW258179   2.278   3.871   6.962 -0.2422  0.0320  2.5382
18856SOL     OW58180   8.557   1.145   3.892  0.1632  0.3073  0.2908
18856SOL    HW158181   8.624   1.210   3.913 -0.3178  1.0759 -0.4851
18856SOL    HW258182   8.476   1.181   3.927  0.1426 -0.6578  1.2986
18857SOL     OW58183   8.883   5.910   8.291  0.1225 -0.3641 -0.7461
18857SOL    HW158184   8.833   5.958   8.357  1.2569  1.0380 -0.8353
18857SOL    HW258185   8.818   5.858   8.244 -0.9485 -0.0910  0.3806
18858SOL     OW58186   9.498   5.959   4.209  0.1515 -0.0768  0.1991
18858SOL    HW158187   9.513   5.947   4.115  1.3067  1.1726  0.1933
18858SOL    HW258188   9.450   6.042   4.215 -0.7150 -0.5996  0.6731
18859SOL     OW58189   0.888   9.173   1.469 -1.2095  0.2451 -0.1756
18859SOL    HW158190   0.849   9.260   1.457 -1.2084  0.1230 -1.2218
18859SOL    HW258191   0.972   9.179   1.425 -0.2370  0.3473  1.6211
18860SOL     OW58192   1.597   7.105   5.413 -0.0633 -0.8010  0.2065
18860SOL    HW158193   1.569   7.186   5.370 -0.3526 -1.3216 -0.6163
18860SOL    HW258194   1.515   7.057   5.429  0.0609 -0.7288  1.1338
18861SOL     OW58195   4.796   8.006   2.743  0.3505  0.0855 -0.0925
18861SOL    HW158196   4.844   8.037   2.666  1.5161 -0.9605  0.1699
18861SOL    HW258197   4.864   7.991   2.809 -0.0795 -2.9351 -0.2005
18862SOL     OW58198   7.672   0.917   3.273  0.0473 -0.1426 -0.4523
18862SOL    HW158199   7.655   0.875   3.188  0.4437  0.2320 -0.7254
18862SOL    HW258200   7.721   0.996   3.250 -1.1818  0.7774 -0.0098
18863SOL     OW58201   1.828   4.176   5.520  0.2529 -0.2026  0.0176
18863SOL    HW158202   1.805   4.170   5.427  2.0641 -0.0045 -0.4767
18863SOL    HW258203   1.752   4.216   5.561 -0.4667 -0.0240 -1.4277
18864SOL     OW58204   0.298   8.812   4.590  0.7276 -0.2524 -0.0153
18864SOL    HW158205   0.325   8.721   4.601 -0.1096 -0.6195 -0.8506
18864SOL    HW258206   0.206   8.813   4.616  0.6929  0.3263 -0.1453
18865SOL     OW58207   5.591   8.635   8.475 -0.1523 -0.7125 -0.7590
18865SOL    HW158208   5.681   8.602   8.467  0.3523  0.2714  0.5696
18865SOL    HW258209   5.592   8.687   8.555 -1.3310  1.1476 -1.9009
18866SOL     OW58210   4.628   5.302   1.225  0.3604  0.6695  0.0478
18866SOL    HW158211   4.603   5.213   1.199  1.7005 -0.1767  1.4534
18866SOL    HW258212   4.700   5.325   1.167  1.8982 -0.3511  1.4355
18867SOL     OW58213   0.104   7.675   0.200  0.4411 -0.1928  0.5161
18867SOL    HW158214   0.128   7.744   0.138 -0.3185 -0.2270  0.1712
18867SOL    HW258215   0.181   7.665   0.256  0.6780  0.7154  0.3702
18868SOL     OW58216   6.216   5.792   4.479 -0.1042  0.3190 -0.0558
18868SOL    HW158217   6.240   5.778   4.388  2.1786  0.6112  0.4222
18868SOL    HW258218   6.207   5.704   4.516  3.4645 -0.0130  0.4095
18869SOL     OW58219   2.778   7.831   3.483  0.1500  0.4891 -0.0055
18869SOL    HW158220   2.726   7.751   3.476  1.6365 -0.5120 -0.0860
18869SOL    HW258221   2.759   7.879   3.402 -1.8968  0.9732  0.7040
18870SOL     OW58222   7.473   1.080   0.355 -0.2226  0.0984 -0.0991
18870SOL    HW158223   7.458   1.115   0.443 -1.9259 -1.1434  0.1556
18870SOL    HW258224   7.528   1.003   0.370 -1.4269 -0.7603  0.0392
18871SOL     OW58225   6.880   1.054   4.280 -0.2161  0.0045 -0.5088
18871SOL    HW158226   6.973   1.067   4.263 -0.4717  2.2198 -0.4718
18871SOL    HW258227   6.850   0.997   4.208  1.7726 -3.8166  1.4028
18872SOL     OW58228   2.395   9.786   7.054  0.1682  0.2735 -0.1891
18872SOL    HW158229   2.313   9.806   7.008 -0.0911 -0.7581 -0.1989
18872SOL    HW258230   2.428   9.872   7.082 -1.0499  0.6941  0.0347
18873SOL     OW58231   9.572   9.173   4.118 -0.2279 -0.1952  0.2377
18873SOL    HW158232   9.478   9.187   4.117 -0.0063  1.5727 -0.1031
18873SOL    HW258233   9.593   9.147   4.208 -0.9459  0.1364  0.5015
18874SOL     OW58234   4.347   9.607   7.713  0.2400  0.6200 -0.1010
18874SOL    HW158235   4.441   9.602   7.697  0.3211  0.5207  0.4035
18874SOL    HW258236   4.308   9.550   7.647  0.5594  0.3829 -0.0862
18875SOL     OW58237   2.306   8.672   7.981  0.3721  0.3273  0.3764
18875SOL    HW158238   2.301   8.711   7.893 -1.0352 -0.7690 -0.0564
18875SOL    HW258239   2.384   8.616   7.978  0.4641  0.4773 -0.0994
18876SOL     OW58240   1.767   7.373   8.887  0.3733 -0.0710 -0.3027
18876SOL    HW158241   1.857   7.341   8.882  0.4511  0.1648 -0.4023
18876SOL    HW258242   1.714   7.293   8.896  0.6314 -0.1718  0.3258
18877SOL     OW58243   6.699   5.939   2.010 -0.0641  0.3423 -0.0863
18877SOL    HW158244   6.764   5.892   1.959  0.8168 -0.1187  1.3959
18877SOL    HW258245   6.743   5.958   2.093 -0.8560  2.5689 -0.1040
18878SOL     OW58246   3.575   8.341   9.265  0.0925 -0.3079 -0.3295
18878SOL    HW158247   3.551   8.293   9.344  2.0223 -0.7119  0.0726
18878SOL    HW258248   3.661   8.377   9.284  0.4137 -0.0305 -2.0854
18879SOL     OW58249   8.153   6.445   9.745 -0.0751 -0.8383 -0.2802
18879SOL    HW158250   8.133   6.447   9.839 -0.8670  2.8112 -0.4012
18879SOL    HW258251   8.237   6.490   9.737 -0.5599 -0.1068 -1.4101
18880SOL     OW58252   2.822   9.237   5.412  0.0143 -0.1140  0.0282
18880SOL    HW158253   2.828   9.274   5.500  1.3541  0.5513 -0.3188
18880SOL    HW258254   2.728   9.229   5.396 -0.2531 -0.0155  1.4176
18881SOL     OW58255   7.004   3.858   0.726 -0.2906  0.2591  0.4210
18881SOL    HW158256   7.081   3.908   0.698 -1.1240  0.3224 -2.0401
18881SOL    HW258257   6.930   3.911   0.696 -1.3215 -0.0658  2.2568
18882SOL     OW58258   2.004   5.112   7.259  0.6119 -0.2245  0.2162
18882SOL    HW158259   2.040   5.191   7.298  0.3970  0.8847 -1.6999
18882SOL    HW258260   1.911   5.133   7.245 -0.2129 -1.9643  2.4095
18883SOL     OW58261   0.947   1.222   2.643 -0.4759 -0.4251 -0.1513
18883SOL    HW158262   0.871   1.278   2.656 -0.7855 -0.9805  0.4509
18883SOL    HW258263   0.956   1.173   2.725  0.6981 -0.1588 -0.1017
18884SOL     OW58264   4.620   4.822   8.474 -0.0661 -0.3443  0.4590
18884SOL    HW158265   4.712   4.797   8.476 -0.4045 -1.6558  1.9081
18884SOL    HW258266   4.574   4.741   8.453 -0.9486  0.0500  0.8129
18885SOL     OW58267   4.369   8.117   3.586 -0.1772 -0.3612 -0.5878
18885SOL    HW158268   4.289   8.101   3.536 -0.4093  0.8099 -0.5986
18885SOL    HW258269   4.343   8.175   3.657  0.2317 -1.6769  0.7033
18886SOL     OW58270   7.119   3.313   3.483 -0.0304 -0.1341  0.0361
18886SOL    HW158271   7.164   3.230   3.468  0.2947  0.0993 -0.2929
18886SOL    HW258272   7.079   3.335   3.399 -0.2437 -0.0331  0.1617
18887SOL     OW58273   7.503   4.610   3.486 -0.2973 -0.0340  0.5423
18887SOL    HW158274   7.516   4.545   3.555  2.3499  0.3025  0.4619
18887SOL    HW258275   7.457   4.562   3.417 -0.1169 -1.2746  1.2438
18888SOL     OW58276   0.155   4.075   8.636  0.5768 -0.0004 -0.2679
18888SOL    HW158277   0.107   4.001   8.674  0.9459  0.3405  0.9053
18888SOL    HW258278   0.120   4.152   8.682  1.1388  0.4139 -0.5254
18889SOL     OW58279   3.125   8.870   9.183 -0.1090 -0.0514 -0.3057
18889SOL    HW158280   3.163   8.808   9.246 -0.5123 -0.0618 -0.0696
18889SOL    HW258281   3.139   8.955   9.223 -1.3760 -0.1247  0.3662
18890SOL     OW58282   6.596   3.117   1.896  0.2134 -0.1562 -0.3285
18890SOL    HW158283   6.527   3.140   1.958  1.8773  0.6902  1.2938
18890SOL    HW258284   6.562   3.040   1.851 -0.8850 -1.1258  1.9708
18891SOL     OW58285   9.802   7.329   3.506  0.1626 -0.3285  0.2076
18891SOL    HW158286   9.716   7.308   3.470 -0.0590 -0.7103  0.9237
18891SOL    HW258287   9.841   7.243   3.525 -0.1184 -0.1481  1.7320
18892SOL     OW58288   8.621   1.206   7.537 -0.2331  0.1886  0.5864
18892SOL    HW158289   8.715   1.190   7.537 -0.0226  1.1115  3.0281
18892SOL    HW258290   8.587   1.147   7.469  1.8218 -1.7575  1.1363
18893SOL     OW58291   5.507   3.143   7.823 -0.4084 -0.2098 -0.1857
18893SOL    HW158292   5.431   3.097   7.860 -0.5133 -0.2866 -0.4959
18893SOL    HW258293   5.569   3.073   7.803  0.6524 -0.0134  2.0708
18894SOL     OW58294   5.313   7.743   6.371  0.2937  0.1436  0.2444
18894SOL    HW158295   5.297   7.819   6.315  1.5030  0.5046  0.3743
18894SOL    HW258296   5.259   7.759   6.449 -1.2583 -0.2751 -0.7031
18895SOL     OW58297   1.891   1.164   2.755  0.7160 -0.1322  0.1681
18895SOL    HW158298   1.838   1.138   2.830 -0.9019  1.9827 -0.1623
18895SOL    HW258299   1.976   1.188   2.792  1.2449 -2.6785  0.8096
18896SOL     OW58300   6.882   8.762   7.031  0.8654 -0.0379 -0.1425
18896SOL    HW158301   6.951   8.823   7.059  1.1838 -0.4414 -0.0385
18896SOL    HW258302   6.891   8.758   6.936 -0.1271  1.2275 -0.3196
18897SOL     OW58303   8.270   0.907   9.772  0.2942  0.5331 -0.7709
18897SOL    HW158304   8.179   0.881   9.789  0.6192 -0.3198 -0.2585
18897SOL    HW258305   8.266   0.961   9.693 -0.2643 -2.3012 -2.8454
18898SOL     OW58306   9.041   5.465   1.845 -0.0788 -0.2144  0.3295
18898SOL    HW158307   9.035   5.488   1.752 -1.5030 -1.2388  0.1343
18898SOL    HW258308   9.105   5.527   1.881  1.1688 -0.3704 -1.4945
18899SOL     OW58309   7.429   0.714   4.588 -0.9133 -0.1538  0.0863
18899SOL    HW158310   7.458   0.659   4.515  2.5165  1.5010 -0.0234
18899SOL    HW258311   7.443   0.804   4.557 -1.2444  0.6414  2.0821
18900SOL     OW58312   9.107   7.985   5.859  0.2310  0.3225  0.3391
18900SOL    HW158313   9.061   8.010   5.779  1.5230  0.2113 -0.4652
18900SOL    HW258314   9.148   7.901   5.838  2.3947  1.3132  0.3318
18901SOL     OW58315   9.273   9.401   6.285 -0.1145  0.6352 -0.3818
18901SOL    HW158316   9.177   9.393   6.290  0.0144 -1.1658 -0.3107
18901SOL    HW258317   9.301   9.402   6.377  0.0329 -0.6321 -0.3925
18902SOL     OW58318   7.211   2.308   5.003 -0.3270 -0.1333  0.2857
18902SOL    HW158319   7.198   2.295   5.097  1.1403  1.0350  0.6929
18902SOL    HW258320   7.125   2.294   4.964 -1.5315  1.7386  2.0968
18903SOL     OW58321   3.010   6.580   8.384  0.1503 -0.0222  0.3013
18903SOL    HW158322   3.016   6.673   8.361 -1.5465 -0.1840 -0.9678
18903SOL    HW258323   3.096   6.544   8.365  0.8691  1.2947  0.9252
18904SOL     OW58324   8.346   3.866   3.975 -0.6773  0.8671 -0.6030
18904SOL    HW158325   8.278   3.803   3.952  0.1598 -0.0929 -0.5445
18904SOL    HW258326   8.402   3.871   3.898  0.1738  0.2816 -0.0489
18905SOL     OW58327   5.602   4.501   0.142  0.7221 -0.4721 -0.3294
18905SOL    HW158328   5.652   4.470   0.218  0.8327 -1.2969 -0.7293
18905SOL    HW258329   5.661   4.488   0.068  0.5097  0.0711 -0.6046
18906SOL     OW58330   1.354   9.294   9.241  0.2728 -0.0611 -0.3649
18906SOL    HW158331   1.347   9.279   9.147  0.2940 -0.0742 -0.3645
18906SOL    HW258332   1.441   9.334   9.252  0.0287  0.4987 -0.4208
18907SOL     OW58333   3.447   7.521   4.353 -0.1053 -0.2650  0.4435
18907SOL    HW158334   3.448   7.605   4.307  2.6089  1.2591  2.9200
18907SOL    HW258335   3.393   7.537   4.430  1.1065 -0.4331  1.3625
18908SOL     OW58336   6.165   3.933   4.175 -0.1766  0.0796 -0.1027
18908SOL    HW158337   6.242   3.987   4.156 -0.2691 -0.2242 -1.4082
18908SOL    HW258338   6.098   3.966   4.115 -0.2011 -1.5469 -1.0074
18909SOL     OW58339   1.593   3.211   5.612 -0.1890  0.0070  0.2727
18909SOL    HW158340   1.540   3.291   5.614 -0.8144 -0.2032 -2.7913
18909SOL    HW258341   1.680   3.238   5.642 -0.5765  1.6729 -0.0330
18910SOL     OW58342   0.521   1.955   4.116  0.0392 -0.1405  0.5256
18910SOL    HW158343   0.551   1.989   4.031  0.4496 -1.0576  0.2906
18910SOL    HW258344   0.581   1.994   4.180 -1.9361  2.8126  0.7883
18911SOL     OW58345   2.370   1.458   7.168  0.0745  0.2213  0.3310
18911SOL    HW158346   2.461   1.452   7.196 -0.4983  0.6051  2.4449
18911SOL    HW258347   2.374   1.500   7.082  2.0573 -2.6886 -1.1610
18912SOL     OW58348   0.614   9.505   0.167 -0.2304 -0.5291  0.2273
18912SOL    HW158349   0.708   9.520   0.174 -0.3810  0.9228 -0.6734
18912SOL    HW258350   0.591   9.460   0.249  0.8663  1.0994  1.4880
18913SOL     OW58351   8.006   4.512   3.929  0.0160 -0.0261 -0.7994
18913SOL    HW158352   8.019   4.581   3.994  1.5970 -0.4614 -0.6089
18913SOL    HW258353   8.002   4.431   3.981  2.2021 -0.4763 -1.2546
18914SOL     OW58354   9.044   4.174   0.179 -0.8432 -0.7656  0.0638
18914SOL    HW158355   8.997   4.243   0.225 -0.6433  1.2507 -2.5059
18914SOL    HW258356   8.987   4.098   0.184 -2.1202  0.2183  1.0962
18915SOL     OW58357   9.643   0.148   3.560 -0.0795 -0.2174  0.2693
18915SOL    HW158358   9.631   0.062   3.600  2.1123 -0.0532  1.4389
18915SOL    HW258359   9.579   0.204   3.604  0.9031 -0.4969  2.1615
18916SOL     OW58360   7.263   5.886   7.603  0.1670  0.6522 -0.0782
18916SOL    HW158361   7.188   5.938   7.631 -0.2550 -1.3810  3.1507
18916SOL    HW258362   7.330   5.951   7.579 -1.2395  2.5959  0.9907
18917SOL     OW58363   8.225   2.882   2.244 -0.7707 -0.1493  0.2405
18917SOL    HW158364   8.236   2.849   2.333  0.6646 -1.8405 -0.5175
18917SOL    HW258365   8.290   2.952   2.236 -0.5109 -0.3836  0.3254
18918SOL     OW58366   6.018   5.325   3.234  0.6324  0.2403 -0.0017
18918SOL    HW158367   6.065   5.267   3.175 -0.9131 -1.5978  0.4747
18918SOL    HW258368   5.962   5.378   3.176  1.9191  1.1764 -0.4230
18919SOL     OW58369   9.526   5.524   2.371 -0.0142 -0.1498 -0.0899
18919SOL    HW158370   9.446   5.478   2.396  1.0662 -2.3347 -0.4459
18919SOL    HW258371   9.589   5.455   2.354  1.3958  1.4441 -1.7767
18920SOL     OW58372   5.021   5.555   4.330  0.0175 -0.0853  0.0221
18920SOL    HW158373   5.026   5.460   4.340 -1.8467 -0.2697 -0.3623
18920SOL    HW258374   4.979   5.568   4.245  0.6138  1.0991 -0.1145
18921SOL     OW58375   2.918   2.511   2.941  0.0504 -0.3667  0.3192
18921SOL    HW158376   2.993   2.570   2.931  0.4992 -0.8658  0.7134
18921SOL    HW258377   2.849   2.566   2.979  0.7590 -0.3101  1.5349
18922SOL     OW58378   1.304   5.049   4.001  0.2558 -0.1517  0.6581
18922SOL    HW158379   1.356   5.061   4.080 -1.8021 -0.4366  2.1564
18922SOL    HW258380   1.217   5.081   4.024 -0.7972 -1.5847 -0.9972
18923SOL     OW58381   2.616   1.210   4.168  0.0201  0.3579  0.0066
18923SOL    HW158382   2.566   1.225   4.088 -0.8301  1.2129  0.6750
18923SOL    HW258383   2.654   1.123   4.157 -0.5092  0.2541 -1.0960
18924SOL     OW58384   1.163   8.531   0.631  0.0503 -0.1923  0.1387
18924SOL    HW158385   1.133   8.566   0.548 -1.1929 -0.6562  0.3631
18924SOL    HW258386   1.136   8.439   0.629  2.8062 -1.0596 -0.2406
18925SOL     OW58387   6.590   9.664   0.417 -0.0597  0.1106  0.4778
18925SOL    HW158388   6.596   9.743   0.471  1.0691  0.0213  0.5012
18925SOL    HW258389   6.681   9.635   0.406 -0.1050  0.7985 -2.4340
18926SOL     OW58390   2.609   7.260   1.433  0.0482 -0.1757 -0.4997
18926SOL    HW158391   2.688   7.312   1.446 -0.0796 -0.5833  2.8954
18926SOL    HW258392   2.592   7.221   1.519 -2.4816 -2.0732 -1.7358
18927SOL     OW58393   7.706   9.820   3.832  0.1482  0.4362  0.4808
18927SOL    HW158394   7.630   9.802   3.776 -1.0609  2.3385  1.3884
18927SOL    HW258395   7.779   9.778   3.787 -1.7567 -3.7723  0.8789
18928SOL     OW58396   5.713   6.252   2.609 -0.0051 -0.1816 -0.0739
18928SOL    HW158397   5.634   6.285   2.651  0.2467 -0.9989  1.0940
18928SOL    HW258398   5.769   6.329   2.599 -0.3569  0.1491  0.4562
18929SOL     OW58399   4.342   7.138   6.284  0.0226  0.2394 -0.1235
18929SOL    HW158400   4.280   7.180   6.225 -0.2710  1.7173  1.1647
18929SOL    HW258401   4.310   7.160   6.372  2.7590  1.6825  0.5897
18930SOL     OW58402   5.934   4.365   2.584 -0.1913  0.5767 -0.3612
18930SOL    HW158403   5.864   4.300   2.591 -0.7503  1.1778 -0.2942
18930SOL    HW258404   5.918   4.408   2.500  1.3999 -0.7471 -1.4243
18931SOL     OW58405   7.352   3.091   1.064 -0.4379  0.1568 -0.7808
18931SOL    HW158406   7.388   3.007   1.094 -3.2917 -0.6288  0.8220
18931SOL    HW258407   7.297   3.068   0.989 -0.5494  0.7437 -0.8849
18932SOL     OW58408   6.959   2.111   2.448  0.0990 -0.2878  0.0605
18932SOL    HW158409   6.878   2.095   2.400  0.6752  0.2648 -1.1292
18932SOL    HW258410   7.017   2.040   2.421  0.0727 -0.5996  0.8009
18933SOL     OW58411   8.311   7.064   7.817  0.5386 -0.3972 -0.0136
18933SOL    HW158412   8.372   7.030   7.751  0.9135 -0.1801  0.2208
18933SOL    HW258413   8.237   7.097   7.766  1.4243  1.0430 -0.4309
18934SOL     OW58414   3.558   7.256   0.080 -0.2211 -0.2175 -0.0862
18934SOL    HW158415   3.492   7.221   0.020 -0.2339 -0.4052  0.0391
18934SOL    HW258416   3.514   7.259   0.164 -0.3501  0.4665 -0.1700
18935SOL     OW58417   8.762   4.926   3.010 -0.2588  0.1760 -0.3030
18935SOL    HW158418   8.676   4.957   2.980 -0.1278  1.4345  0.5224
18935SOL    HW258419   8.766   4.954   3.102  1.5613  1.3063 -0.6930
18936SOL     OW58420   3.494   1.295   0.062 -0.0868 -0.0247 -0.4235
18936SOL    HW158421   3.483   1.250  -0.022 -1.0593 -0.3735 -0.1295
18936SOL    HW258422   3.418   1.352   0.069 -2.6311 -3.2891  2.1812
18937SOL     OW58423   5.266   6.039   0.377  0.3722  0.1946  0.5248
18937SOL    HW158424   5.236   5.978   0.445  0.1448 -2.4902 -1.8086
18937SOL    HW258425   5.358   6.018   0.364  0.4376  0.7525  0.0329
18938SOL     OW58426   9.777   1.910   1.907  0.1411 -0.3185 -0.4089
18938SOL    HW158427   9.850   1.949   1.955  1.1096 -1.4898 -0.8510
18938SOL    HW258428   9.782   1.949   1.820 -1.1607  1.2558  0.1830
18939SOL     OW58429   0.698   0.749   3.436  0.0845 -0.0602  0.1333
18939SOL    HW158430   0.699   0.798   3.518 -0.3164 -0.5161  0.4123
18939SOL    HW258431   0.606   0.745   3.412  0.1472 -0.4191 -0.0473
18940SOL     OW58432   4.342   8.238   2.114 -0.7002  0.1766  0.2562
18940SOL    HW158433   4.317   8.226   2.023 -0.6340 -0.3664  0.3059
18940SOL    HW258434   4.315   8.328   2.135 -1.1789  0.1276 -0.1443
18941SOL     OW58435   6.775   9.586   8.144  0.0764 -0.0688  0.0199
18941SOL    HW158436   6.763   9.567   8.051  0.4120 -0.8073  0.1251
18941SOL    HW258437   6.837   9.520   8.175 -0.9491 -0.5822  1.0481
18942SOL     OW58438   7.345   0.424   4.236 -0.1560  0.2535  0.2361
18942SOL    HW158439   7.348   0.468   4.151  1.2705 -1.6554 -0.7743
18942SOL    HW258440   7.326   0.332   4.215  3.2612 -0.9231  1.6155
18943SOL     OW58441   7.174   0.205   8.682 -0.0440  0.2654  0.0051
18943SOL    HW158442   7.154   0.131   8.623 -0.1239  1.7009 -1.8698
18943SOL    HW258443   7.113   0.194   8.754 -0.4663 -1.1770 -0.5158
18944SOL     OW58444   0.190   0.301   7.900 -0.2419  0.3755  0.5776
18944SOL    HW158445   0.275   0.336   7.929 -0.8557  1.1145  1.5576
18944SOL    HW258446   0.182   0.219   7.948  0.4395 -0.2986 -0.4285
18945SOL     OW58447   3.248   2.923   4.145  0.2264  0.0098 -0.1647
18945SOL    HW158448   3.219   2.839   4.110  1.5141 -0.6230  0.2160
18945SOL    HW258449   3.339   2.931   4.116 -0.0593  1.5745 -0.7123
18946SOL     OW58450   1.527   5.221   9.757  0.1428  0.4490 -0.0385
18946SOL    HW158451   1.531   5.128   9.777  1.3599  0.7461  1.2362
18946SOL    HW258452   1.583   5.263   9.822  1.0878  1.8971 -1.6712
18947SOL     OW58453   8.897   1.011   3.560 -0.3575  0.3073  0.6347
18947SOL    HW158454   8.961   1.040   3.495 -0.0836 -1.5187  0.0236
18947SOL    HW258455   8.826   1.076   3.554  0.5076  1.2216 -0.1255
18948SOL     OW58456   5.959   6.165   4.547  0.2555  0.6079 -0.7347
18948SOL    HW158457   5.990   6.214   4.471  1.0546 -0.2548 -0.9949
18948SOL    HW258458   5.873   6.201   4.566  1.3088  2.9669 -0.1203
18949SOL     OW58459   8.055   9.726   7.564  0.4994 -0.3470  0.0792
18949SOL    HW158460   8.062   9.690   7.652  0.1194  0.6159  0.5275
18949SOL    HW258461   8.027   9.817   7.578  0.4070 -0.1889 -1.0348
18950SOL     OW58462   8.202   2.131   6.347 -0.3732  0.4252  0.3159
18950SOL    HW158463   8.108   2.140   6.357 -0.4960 -0.6931  0.2161
18950SOL    HW258464   8.229   2.213   6.304 -1.5020  0.1659 -0.9545
18951SOL     OW58465   8.149   0.785   9.096  0.0210 -0.8203 -0.3798
18951SOL    HW158466   8.196   0.843   9.156 -0.1775 -0.1870 -0.8256
18951SOL    HW258467   8.218   0.736   9.052  0.5610  1.9177 -2.9339
18952SOL     OW58468   6.660   8.854   1.860 -0.2247 -0.1490  0.7386
18952SOL    HW158469   6.708   8.918   1.808  0.2700 -1.6640 -0.7386
18952SOL    HW258470   6.676   8.880   1.951  1.8525  0.4877  0.2307
18953SOL     OW58471   0.061   7.962   0.988 -0.1733  0.5880 -0.3677
18953SOL    HW158472   0.006   7.901   1.037  0.1854  0.0023 -0.6925
18953SOL    HW258473   0.145   7.959   1.033  0.8649 -1.6279 -2.2656
18954SOL     OW58474   9.463   3.134   8.982 -0.1556 -0.0097 -0.1188
18954SOL    HW158475   9.415   3.187   9.045 -2.5707 -0.4096 -1.5222
18954SOL    HW258476   9.436   3.167   8.896  1.1096 -1.1231 -1.0059
18955SOL     OW58477   2.885   5.000   8.420  0.5630 -0.4682 -0.7007
18955SOL    HW158478   2.921   4.984   8.332 -0.9272 -3.4009 -0.8857
18955SOL    HW258479   2.937   4.944   8.477  1.2854  1.1601  0.2930
18956SOL     OW58480   5.540   5.317   3.092  0.0042 -0.1295 -0.6388
18956SOL    HW158481   5.559   5.231   3.129  0.3510  0.0801 -0.3213
18956SOL    HW258482   5.549   5.377   3.166 -0.7763  0.1158 -0.7324
18957SOL     OW58483   9.616   2.297   5.395 -0.1089  0.0473 -0.2840
18957SOL    HW158484   9.633   2.337   5.480 -3.0670  0.3851  0.2503
18957SOL    HW258485   9.689   2.326   5.340  1.3820  0.5978  1.8489
18958SOL     OW58486   4.375   8.002   4.775 -0.0942  0.3792  0.1125
18958SOL    HW158487   4.379   7.908   4.755  1.4476  0.4971 -0.1834
18958SOL    HW258488   4.457   8.038   4.742 -0.8554  1.9344 -0.1899
18959SOL     OW58489   8.623   6.155   6.164  0.0300  0.4525  0.0851
18959SOL    HW158490   8.532   6.133   6.185 -0.1733 -1.5965 -2.4277
18959SOL    HW258491   8.675   6.095   6.218 -0.3240 -1.3307 -1.4334
18960SOL     OW58492   7.212   3.549   1.828 -0.6255  0.1827  0.7140
18960SOL    HW158493   7.189   3.610   1.899 -2.3875  1.2731 -0.7079
18960SOL    HW258494   7.129   3.529   1.786  0.6014  2.8905 -3.6653
18961SOL     OW58495   3.151   8.254   2.977 -0.0132 -0.0611  0.5139
18961SOL    HW158496   3.062   8.270   3.007 -0.8483  0.0985 -1.8018
18961SOL    HW258497   3.194   8.211   3.051 -3.0589 -3.4193  0.6149
18962SOL     OW58498   7.194   7.112   3.147 -0.0525 -0.0760  0.9142
18962SOL    HW158499   7.264   7.152   3.198  1.1999 -1.1252  0.0687
18962SOL    HW258500   7.220   7.124   3.056 -1.6980  0.7657  0.5049
18963SOL     OW58501   1.660   5.493   5.675  0.2353  0.0156 -0.3500
18963SOL    HW158502   1.706   5.576   5.683  1.0716 -0.3312 -1.3224
18963SOL    HW258503   1.707   5.445   5.607 -0.2492 -1.2472  0.1520
18964SOL     OW58504   7.035   6.084   6.454  0.3635 -0.1740 -0.6971
18964SOL    HW158505   7.123   6.046   6.464 -0.0745 -1.5198 -1.6224
18964SOL    HW258506   6.976   6.009   6.465 -0.6361  0.6054 -0.6808
18965SOL     OW58507   8.269   8.575   3.092 -0.6166  0.1320  0.0923
18965SOL    HW158508   8.257   8.612   3.005  1.0707  0.4498 -0.0286
18965SOL    HW258509   8.336   8.630   3.133  0.1043 -1.2476  0.8360
18966SOL     OW58510   8.823   7.759   5.924 -0.0780  0.4077  0.3059
18966SOL    HW158511   8.877   7.714   5.859 -1.1608  0.0579 -0.3809
18966SOL    HW258512   8.755   7.802   5.872 -1.8127 -1.0509  1.2729
18967SOL     OW58513   5.925   2.289   0.978 -0.3493  0.0650 -0.3914
18967SOL    HW158514   5.885   2.299   0.891 -0.6194  1.3630 -0.1332
18967SOL    HW258515   5.850   2.279   1.037 -0.2459  0.9038 -0.1069
18968SOL     OW58516   0.472   6.309   5.804 -0.1509  0.0365  0.1947
18968SOL    HW158517   0.381   6.310   5.774 -0.5072  1.9666  1.1485
18968SOL    HW258518   0.494   6.216   5.814 -1.3608 -0.5301 -1.8776
18969SOL     OW58519   3.680   6.455   1.461  0.7103 -0.2680 -0.9139
18969SOL    HW158520   3.585   6.442   1.461  0.9154 -1.8956 -0.7893
18969SOL    HW258521   3.698   6.497   1.377 -0.2719  1.5878 -0.2727
18970SOL     OW58522   5.624   3.241   3.726 -0.1181 -0.0653  0.2878
18970SOL    HW158523   5.624   3.175   3.658 -0.9225  1.0530 -0.8421
18970SOL    HW258524   5.555   3.302   3.701 -0.6752  0.2101  2.2868
18971SOL     OW58525   3.835   7.456   4.687  0.1856 -0.3256  0.0741
18971SOL    HW158526   3.771   7.412   4.743  1.4410 -0.8175  1.1704
18971SOL    HW258527   3.782   7.499   4.620 -1.1592 -4.6880 -2.0810
18972SOL     OW58528   1.371   7.241   3.168 -0.0573 -0.5941  0.1617
18972SOL    HW158529   1.387   7.278   3.081 -1.6322 -0.1310  0.0410
18972SOL    HW258530   1.459   7.227   3.204  0.6147  0.1346 -1.1075
18973SOL     OW58531   2.125   5.861   7.430 -0.5597 -0.4211 -0.4410
18973SOL    HW158532   2.217   5.835   7.422 -0.1651  0.4034  1.0581
18973SOL    HW258533   2.095   5.820   7.510 -1.0050  0.6578 -0.0316
18974SOL     OW58534   4.915   0.477   2.512  0.9236  0.1826  0.2011
18974SOL    HW158535   4.847   0.410   2.504  1.6286 -0.7126  1.2880
18974SOL    HW258536   4.966   0.470   2.431 -0.4017  1.0536 -0.7498
18975SOL     OW58537   0.277   8.502   3.186  0.1586  0.0943 -0.2198
18975SOL    HW158538   0.339   8.570   3.157 -0.7979  1.6205  1.1638
18975SOL    HW258539   0.303   8.482   3.275 -0.0340 -0.8448 -0.3640
18976SOL     OW58540   5.394   1.105   0.682 -0.2132 -0.2549 -0.3804
18976SOL    HW158541   5.397   1.109   0.586 -0.3664  0.4000 -0.3639
18976SOL    HW258542   5.456   1.171   0.711 -0.0543 -0.5584 -0.0245
18977SOL     OW58543   3.132   4.579   2.664  0.3877  0.6323  0.2074
18977SOL    HW158544   3.209   4.580   2.606  0.9032  0.0228  0.8578
18977SOL    HW258545   3.058   4.564   2.606  0.8991  0.0130 -0.2944
18978SOL     OW58546   3.623   5.731   0.129 -0.1245 -0.0558  0.0659
18978SOL    HW158547   3.668   5.811   0.102 -0.9236  0.4298  0.1300
18978SOL    HW258548   3.685   5.661   0.111  0.7006  0.6015  0.2688
18979SOL     OW58549   5.962   1.299   1.331 -0.1494 -0.0543 -0.3608
18979SOL    HW158550   6.043   1.338   1.364 -0.4502 -0.2100  0.6116
18979SOL    HW258551   5.909   1.285   1.410 -0.8480 -0.5770 -0.9112
18980SOL     OW58552   6.490   1.132   5.733  0.4815 -0.0974 -0.0980
18980SOL    HW158553   6.442   1.204   5.693 -1.6078 -1.0295  0.6035
18980SOL    HW258554   6.564   1.116   5.674 -0.5492  0.8456 -1.6903
18981SOL     OW58555   9.188   1.794   3.473  0.0379 -0.0820 -0.2922
18981SOL    HW158556   9.121   1.863   3.474  0.1409  0.0262 -0.7376
18981SOL    HW258557   9.139   1.713   3.459 -0.0505 -0.0639 -0.0931
18982SOL     OW58558   8.802   9.501   8.513 -0.5215 -0.6293 -0.0698
18982SOL    HW158559   8.875   9.514   8.574  0.6718 -0.2927 -1.5127
18982SOL    HW258560   8.801   9.581   8.461 -2.5232 -0.2439  0.4884
18983SOL     OW58561   3.195   3.344   2.120  0.2319 -0.7411  0.0457
18983SOL    HW158562   3.112   3.383   2.149  1.7367  0.5773  3.1387
18983SOL    HW258563   3.180   3.250   2.123 -1.3125 -0.5175  0.0376
18984SOL     OW58564   4.754   6.560   3.069 -0.0249 -0.3742 -0.8651
18984SOL    HW158565   4.833   6.609   3.046 -1.7909  3.5537  0.5350
18984SOL    HW258566   4.704   6.556   2.988 -0.0231  0.6064 -0.9332
18985SOL     OW58567   1.583   8.672   2.898  0.1046 -0.3211 -0.8318
18985SOL    HW158568   1.595   8.766   2.883  0.9471 -0.5899 -1.9093
18985SOL    HW258569   1.664   8.643   2.939 -1.1549 -0.1119  2.0851
18986SOL     OW58570   9.180   9.309   2.918  0.1896  0.1290  0.0129
18986SOL    HW158571   9.191   9.266   3.003  0.6548  0.5398  0.1592
18986SOL    HW258572   9.186   9.402   2.937 -0.4361  0.2510 -0.3670
18987SOL     OW58573   6.065   7.849   2.923 -0.3020 -0.0249 -0.1683
18987SOL    HW158574   6.123   7.815   2.991 -1.2611 -1.9891 -0.2323
18987SOL    HW258575   6.105   7.931   2.895 -0.3864  1.4418  3.4577
18988SOL     OW58576   8.387   3.366   4.137 -0.7208  0.1951 -0.2027
18988SOL    HW158577   8.394   3.424   4.213 -0.1511  0.0893 -0.1679
18988SOL    HW258578   8.296   3.374   4.109 -0.6022  1.2899 -0.3306
18989SOL     OW58579   8.384   9.323   1.159  0.6194  0.4404 -0.1660
18989SOL    HW158580   8.419   9.411   1.150  1.4494  0.1229 -0.2271
18989SOL    HW258581   8.304   9.333   1.210  0.6898  1.2257 -0.2014
18990SOL     OW58582   6.595   8.424   6.377 -0.6226  0.0941  0.0797
18990SOL    HW158583   6.585   8.353   6.314 -0.9834 -0.1163  0.3741
18990SOL    HW258584   6.593   8.504   6.324 -1.3045 -0.0602 -0.1385
18991SOL     OW58585   9.345   3.658   8.804  0.0348 -0.5428 -0.2114
18991SOL    HW158586   9.295   3.611   8.871 -1.1650 -0.4933 -1.0414
18991SOL    HW258587   9.402   3.592   8.766  0.3223 -0.6966  0.4576
18992SOL     OW58588   1.243   6.662   6.120  0.2413 -0.6515 -0.2123
18992SOL    HW158589   1.242   6.754   6.146  1.0428 -0.7473  0.1970
18992SOL    HW258590   1.319   6.625   6.166  1.0646 -1.0747 -1.8175
18993SOL     OW58591   0.923   2.066   4.507 -0.1797 -0.0394  0.1410
18993SOL    HW158592   0.896   2.122   4.579  1.7190  0.1940  0.7221
18993SOL    HW258593   1.015   2.047   4.524  0.1217 -0.6018 -1.8306
18994SOL     OW58594   3.112   8.939   0.869  0.7028  0.0378  0.0946
18994SOL    HW158595   3.149   8.990   0.796 -0.2368 -0.0885 -0.4913
18994SOL    HW258596   3.188   8.895   0.907  1.3124  0.6277 -0.3849
18995SOL     OW58597   9.706   0.791   7.151  0.6633 -0.0187  0.3697
18995SOL    HW158598   9.631   0.734   7.167 -1.1057  2.0599 -0.1480
18995SOL    HW258599   9.729   0.775   7.059  1.1764 -0.9674  0.6471
18996SOL     OW58600   2.844   6.792   9.439 -0.1323  0.1530  0.0836
18996SOL    HW158601   2.795   6.815   9.518 -1.4646  0.6857 -0.8738
18996SOL    HW258602   2.893   6.871   9.417 -0.1790  0.1767  0.0663
18997SOL     OW58603   0.388   3.324   6.195  0.4340 -0.0336 -0.5286
18997SOL    HW158604   0.350   3.239   6.173 -0.0282  0.0522 -0.0678
18997SOL    HW258605   0.373   3.335   6.289  2.6061 -0.5121 -0.0553
18998SOL     OW58606   7.996   3.310   4.241  0.6362 -0.2223 -0.0158
18998SOL    HW158607   7.983   3.405   4.252  0.6342 -0.0832 -1.1383
18998SOL    HW258608   7.995   3.276   4.331  1.7777  0.9826  0.4884
18999SOL     OW58609   9.300   4.303   7.143  0.0509 -0.8360  0.1572
18999SOL    HW158610   9.263   4.389   7.163  2.0158 -0.2362  1.5777
18999SOL    HW258611   9.243   4.241   7.187 -1.1813 -0.2631 -0.5807
19000SOL     OW58612   8.330   6.144   0.691  0.3864  0.4333 -0.1359
19000SOL    HW158613   8.400   6.201   0.660  1.9286 -0.1525  2.0418
19000SOL    HW258614   8.285   6.195   0.759  0.0046  0.0462 -0.0900
19001SOL     OW58615   1.105   8.713   9.590 -0.5037 -0.6051 -0.6772
19001SOL    HW158616   1.115   8.716   9.685  2.4704  0.7862 -0.9159
19001SOL    HW258617   1.097   8.805   9.564 -0.2639 -0.8945 -1.8338
19002SOL     OW58618   5.070   9.384   1.137 -0.3819  0.6111 -0.0697
19002SOL    HW158619   5.140   9.446   1.118 -0.1865  0.3462 -0.2396
19002SOL    HW258620   5.074   9.372   1.232 -1.1589  1.7080  0.1207
19003SOL     OW58621   3.091   7.330   9.537 -0.5270  1.3086  0.1315
19003SOL    HW158622   3.050   7.311   9.622 -1.3395  1.1095 -0.2936
19003SOL    HW258623   3.070   7.422   9.521 -0.0654  1.4466  0.3092
19004SOL     OW58624   3.862   4.581   0.386  0.2615  0.6256 -0.2702
19004SOL    HW158625   3.871   4.487   0.399  0.3861  0.7377  0.4942
19004SOL    HW258626   3.800   4.590   0.314 -2.6585 -0.0271  1.9542
19005SOL     OW58627   3.167   9.416   3.013  0.1491 -0.0222 -0.3324
19005SOL    HW158628   3.231   9.468   3.062 -0.3413  1.3452 -1.1124
19005SOL    HW258629   3.167   9.331   3.058  1.1146  0.5616  0.8406
19006SOL     OW58630   2.326   6.926   0.565 -0.2248 -0.4368 -0.0867
19006SOL    HW158631   2.286   6.841   0.584  2.3274 -1.4210  1.3930
19006SOL    HW258632   2.420   6.910   0.571  0.4454  2.0017 -2.1388
19007SOL     OW58633   2.115   2.331   2.633 -0.8540 -0.1599 -0.0759
19007SOL    HW158634   2.075   2.384   2.563  0.8582 -0.0800 -1.0380
19007SOL    HW258635   2.071   2.246   2.626 -0.3638 -0.3246 -1.6314
19008SOL     OW58636   5.038   9.506   6.185 -0.1042  0.1147 -0.2699
19008SOL    HW158637   5.005   9.425   6.146  0.6497 -0.6111  0.5501
19008SOL    HW258638   4.963   9.543   6.231 -0.1911 -0.7111  0.2828
19009SOL     OW58639   1.148   7.454   1.681  0.1979  0.4124 -0.1142
19009SOL    HW158640   1.221   7.491   1.732  0.1105  1.4666 -0.7222
19009SOL    HW258641   1.096   7.405   1.745  1.2760 -0.1062  0.3813
19010SOL     OW58642   0.139   8.513   6.166 -0.6286  0.0771  0.1703
19010SOL    HW158643   0.161   8.538   6.076  0.6118  0.5089  0.5734
19010SOL    HW258644   0.056   8.465   6.158  2.1210 -5.0297 -1.9399
19011SOL     OW58645   1.211   7.011   2.533  0.5735  0.4671  0.2350
19011SOL    HW158646   1.200   6.919   2.511  3.4679  0.0579  0.0598
19011SOL    HW258647   1.172   7.019   2.620  0.1151 -0.8925  0.1799
19012SOL     OW58648   3.645   5.528   1.550  0.1483  0.2893 -0.0960
19012SOL    HW158649   3.703   5.479   1.609 -0.7786 -0.5439  0.1623
19012SOL    HW258650   3.633   5.612   1.593  1.4818  0.6351 -0.3582
19013SOL     OW58651   2.555   9.636   2.141  0.1137 -0.1040  0.0315
19013SOL    HW158652   2.516   9.721   2.121 -0.4921 -0.8132 -2.0031
19013SOL    HW258653   2.648   9.656   2.156  0.0690  0.8572 -0.8401
19014SOL     OW58654   3.519   3.209   6.295  0.3444  0.8704 -0.0765
19014SOL    HW158655   3.538   3.300   6.318  1.2051  0.5897  0.3640
19014SOL    HW258656   3.601   3.163   6.310 -0.6062 -0.3706  1.6634
19015SOL     OW58657   6.517   8.975   8.775  0.6725 -0.7322  0.0542
19015SOL    HW158658   6.559   9.029   8.708  1.6868 -0.7522  0.6527
19015SOL    HW258659   6.456   9.034   8.819 -0.3430 -0.8370 -1.1673
19016SOL     OW58660   2.270   5.660   6.145  0.1662 -0.1823 -0.5038
19016SOL    HW158661   2.353   5.701   6.170  0.1077 -0.3426 -0.0362
19016SOL    HW258662   2.268   5.577   6.193 -1.0467  0.6034  0.8758
19017SOL     OW58663   3.133   8.421   4.603 -0.1891 -0.2169 -0.5661
19017SOL    HW158664   3.128   8.329   4.577 -0.4822  0.0995 -1.6859
19017SOL    HW258665   3.073   8.429   4.676  0.8983 -1.2147  0.4791
19018SOL     OW58666   2.704   6.894   9.660 -0.0522  0.1330  0.1555
19018SOL    HW158667   2.682   6.841   9.737 -0.0826 -0.7795 -0.4645
19018SOL    HW258668   2.629   6.953   9.650 -0.0504  0.2588  0.8127
19019SOL     OW58669   2.748   1.866   6.622  0.1025  0.6402  0.2883
19019SOL    HW158670   2.686   1.847   6.693 -0.5996 -2.3371 -0.9575
19019SOL    HW258671   2.825   1.902   6.667 -1.5401  2.0789  2.1452
19020SOL     OW58672   6.353   1.233   6.887  0.1173  0.1109 -0.2589
19020SOL    HW158673   6.417   1.253   6.818  0.3765 -2.4596 -0.8676
19020SOL    HW258674   6.401   1.177   6.949 -0.7479  0.5497  0.8584
19021SOL     OW58675   6.634   7.670   6.478 -0.2462  0.2243  0.1732
19021SOL    HW158676   6.710   7.659   6.421 -0.3130  0.8022 -0.0397
19021SOL    HW258677   6.658   7.742   6.536 -0.8152  0.7433 -0.2187
19022SOL     OW58678   8.235   8.789   6.353  0.3552  0.1792 -0.6130
19022SOL    HW158679   8.320   8.750   6.334  0.2560 -0.5438  0.3697
19022SOL    HW258680   8.252   8.852   6.422 -0.1604 -1.2433  0.8719
19023SOL     OW58681   5.659   7.103   2.410  0.4603  0.7749  0.0667
19023SOL    HW158682   5.715   7.177   2.433  0.3390  0.7074  0.5930
19023SOL    HW258683   5.709   7.026   2.436  0.4416  0.6872 -0.1590
19024SOL     OW58684   4.095   1.176   9.656 -0.5288 -0.1164 -0.9870
19024SOL    HW158685   4.103   1.083   9.676 -0.1310  0.0382 -0.4155
19024SOL    HW258686   4.003   1.196   9.675 -1.0217 -0.7128 -2.5482
19025SOL     OW58687   0.254   1.795   8.607 -0.2279 -0.0602 -0.1405
19025SOL    HW158688   0.286   1.849   8.535  1.3238 -0.6371  0.0859
19025SOL    HW258689   0.331   1.747   8.638 -1.4908 -2.3429 -0.2600
19026SOL     OW58690   1.337   0.282   6.078 -0.7379 -0.0277  0.5726
19026SOL    HW158691   1.285   0.232   6.015  0.9204  0.5857 -1.3872
19026SOL    HW258692   1.388   0.215   6.125  0.2114 -0.3668 -0.8585
19027SOL     OW58693   3.759   1.625   6.942  0.1670 -0.2282 -0.5238
19027SOL    HW158694   3.784   1.672   6.862  0.7137 -0.5617 -0.5565
19027SOL    HW258695   3.837   1.629   6.997  0.5931 -1.9522 -0.9371
19028SOL     OW58696   4.318   4.300   3.947 -0.8898  0.0941 -0.0902
19028SOL    HW158697   4.263   4.372   3.978 -0.2798  0.6622 -0.3204
19028SOL    HW258698   4.289   4.285   3.857 -0.9124  0.1459 -0.0914
19029SOL     OW58699   2.019   3.199   4.235  0.0442 -0.0116 -0.2219
19029SOL    HW158700   1.928   3.225   4.222 -0.1750 -0.7217 -0.1909
19029SOL    HW258701   2.069   3.280   4.234 -0.6680  0.4432  0.4282
19030SOL     OW58702   4.916   3.950   8.555 -0.4280  0.3683 -0.1884
19030SOL    HW158703   4.860   4.022   8.527  0.5662  1.6459  0.9670
19030SOL    HW258704   5.002   3.969   8.516 -0.0286  0.1078  0.5315
19031SOL     OW58705   0.520   1.174   2.395  0.0435  0.5502  0.3093
19031SOL    HW158706   0.583   1.115   2.353 -1.8171 -1.6145  0.3620
19031SOL    HW258707   0.542   1.169   2.489  1.2729  1.7481  0.1205
19032SOL     OW58708   2.878   1.318   2.596  0.2456 -0.1152 -0.2260
19032SOL    HW158709   2.890   1.405   2.558  0.0887 -0.3991 -0.9420
19032SOL    HW258710   2.960   1.301   2.643  0.4203  0.2650 -0.3899
19033SOL     OW58711   4.473   9.343   1.904 -0.2607  0.3277 -0.0603
19033SOL    HW158712   4.464   9.420   1.960 -0.3313  0.2296  0.0656
19033SOL    HW258713   4.530   9.371   1.833 -0.3669  0.5253 -0.0678
19034SOL     OW58714   5.976   5.103   2.643 -0.5391 -0.4424  0.9133
19034SOL    HW158715   5.902   5.068   2.593 -0.3823 -0.3499  0.6141
19034SOL    HW258716   5.936   5.167   2.703 -0.5675  0.5368 -0.1159
19035SOL     OW58717   3.816   9.538   4.437 -0.0509 -0.5409 -0.6667
19035SOL    HW158718   3.844   9.521   4.347 -1.3620 -1.6485 -0.9029
19035SOL    HW258719   3.745   9.603   4.427 -0.9531 -1.4865 -0.5610
19036SOL     OW58720   6.349   7.457   0.540  0.1209  0.2956 -0.0250
19036SOL    HW158721   6.307   7.411   0.468  1.6647 -0.5432 -0.4490
19036SOL    HW258722   6.298   7.432   0.617 -2.1896  2.0375 -0.8838
19037SOL     OW58723   5.527   4.408   6.017 -0.1690 -0.6074 -0.3438
19037SOL    HW158724   5.443   4.415   5.972 -1.3957  0.6497  1.9673
19037SOL    HW258725   5.555   4.499   6.031 -1.2096 -0.7088  3.6388
19038SOL     OW58726   8.159   0.249   2.839  0.2593  0.0072  0.2888
19038SOL    HW158727   8.250   0.275   2.857  0.6796 -0.2044 -1.2896
19038SOL    HW258728   8.106   0.321   2.873  1.1195  0.8064  0.0012
19039SOL     OW58729   3.196   4.427   3.409 -0.1604  0.6531  0.0590
19039SOL    HW158730   3.106   4.410   3.381  0.0892  0.0430 -0.3890
19039SOL    HW258731   3.250   4.388   3.340  0.4661 -0.0361  0.9288
19040SOL     OW58732   6.469   1.650   2.674  0.1089  0.1826  0.2262
19040SOL    HW158733   6.407   1.577   2.676 -1.3077  1.2650 -1.3685
19040SOL    HW258734   6.555   1.609   2.683 -0.6759 -1.6177  0.0038
19041SOL     OW58735   5.776   3.254   9.702  0.1614  0.3871  0.1483
19041SOL    HW158736   5.741   3.165   9.711 -0.4986  0.7275  1.1306
19041SOL    HW258737   5.699   3.309   9.689  0.6792  0.6395 -2.3281
19042SOL     OW58738   2.084   5.935   0.252  0.5302  0.6438 -0.4001
19042SOL    HW158739   2.113   5.864   0.195  0.6210  0.8840 -0.6541
19042SOL    HW258740   2.154   5.944   0.317 -0.7451 -1.4368  1.4332
19043SOL     OW58741   3.314   3.960   2.251  0.2078 -0.2106  0.7450
19043SOL    HW158742   3.272   3.895   2.195  1.3519 -0.8299  0.5750
19043SOL    HW258743   3.370   4.010   2.192  0.6708 -0.2258  1.1633
19044SOL     OW58744   7.160   2.096   8.944 -0.0387 -0.1011 -0.1907
19044SOL    HW158745   7.138   2.037   8.872 -0.1147 -0.0798 -0.1853
19044SOL    HW258746   7.102   2.070   9.015 -0.6432  0.5091 -0.4475
19045SOL     OW58747   3.466   8.941   6.665 -0.3593 -0.2428 -0.0983
19045SOL    HW158748   3.376   8.952   6.634 -0.2367  2.0079  0.2367
19045SOL    HW258749   3.457   8.927   6.759 -0.4813 -3.2827 -0.4435
19046SOL     OW58750   6.417   2.048   6.025  0.3469  0.2591 -0.3950
19046SOL    HW158751   6.380   2.042   5.938  0.7158  3.2545 -0.8604
19046SOL    HW258752   6.343   2.034   6.085 -0.5963  1.4418 -1.2470
19047SOL     OW58753   9.182   7.863   3.420  0.3327  0.0857  0.0663
19047SOL    HW158754   9.145   7.827   3.340 -0.9030  0.6442  0.3547
19047SOL    HW258755   9.252   7.803   3.445  1.1828  0.2621 -1.7762
19048SOL     OW58756   1.360   5.639   9.789  0.0413  0.3189 -0.0372
19048SOL    HW158757   1.268   5.637   9.762  0.2052  0.0563 -0.5919
19048SOL    HW258758   1.360   5.603   9.877 -0.3558  0.0465 -0.1453
19049SOL     OW58759   6.025   1.869   6.549 -0.0057 -0.3935  0.1325
19049SOL    HW158760   6.075   1.912   6.619 -0.4760 -2.2549  1.7157
19049SOL    HW258761   6.072   1.892   6.469  1.7781  0.1732  1.2615
19050SOL     OW58762   8.067   1.936   3.618  0.0430 -0.5408  0.7412
19050SOL    HW158763   8.032   1.917   3.705 -0.4636 -1.4805  0.3512
19050SOL    HW258764   8.063   1.852   3.572  0.1206 -0.0190 -0.2475
19051SOL     OW58765   0.808   1.750   3.384 -0.1012  0.2306 -0.0443
19051SOL    HW158766   0.773   1.768   3.297  0.2510  2.2335  0.1967
19051SOL    HW258767   0.730   1.733   3.438 -0.3319 -0.8024 -0.6718
19052SOL     OW58768   5.802   8.858   6.391 -0.0602 -0.1579 -0.0094
19052SOL    HW158769   5.795   8.783   6.332  0.7250 -1.2130  1.1754
19052SOL    HW258770   5.723   8.853   6.445  0.1570 -0.3429  0.2944
19053SOL     OW58771   6.694   5.266   5.196 -0.0048  0.1559 -0.1484
19053SOL    HW158772   6.675   5.216   5.276  1.9551 -1.4965 -0.6353
19053SOL    HW258773   6.721   5.352   5.228  3.0216 -1.1723  1.2324
19054SOL     OW58774   5.788   3.976   4.763 -0.4520 -0.0034 -0.3668
19054SOL    HW158775   5.824   4.046   4.708 -1.3182 -0.0912 -1.0602
19054SOL    HW258776   5.789   4.013   4.851 -0.5620  0.7516 -0.6730
19055SOL     OW58777   5.876   9.729   0.226 -0.1817  0.2060  0.6223
19055SOL    HW158778   5.790   9.692   0.245 -0.3673  0.1878 -0.2039
19055SOL    HW258779   5.859   9.819   0.200 -0.2316 -0.4081 -1.7419
19056SOL     OW58780   6.784   1.784   5.357  0.0162 -0.2357  0.0347
19056SOL    HW158781   6.864   1.756   5.313  1.5264  1.6866  1.3643
19056SOL    HW258782   6.760   1.711   5.414  2.1685 -0.0307  1.3045
19057SOL     OW58783   3.861   6.762   6.642 -0.7239  0.2505 -0.3929
19057SOL    HW158784   3.909   6.679   6.643 -1.7355 -0.3568 -1.1999
19057SOL    HW258785   3.858   6.787   6.550 -2.7378 -0.1996 -0.4918
19058SOL     OW58786   0.883   4.507   6.404  0.6873 -0.4116  0.1956
19058SOL    HW158787   0.812   4.482   6.464  0.2971  2.8205  1.2632
19058SOL    HW258788   0.960   4.516   6.461  0.2275  3.0963  0.4676
19059SOL     OW58789   1.396   2.003   3.748  0.2868 -0.6744 -0.4151
19059SOL    HW158790   1.398   2.098   3.759  1.6634 -0.8327  1.0233
19059SOL    HW258791   1.305   1.979   3.765  0.3206  0.2039  1.1455
19060SOL     OW58792   0.811   5.598   9.405  0.3364  0.4243  0.5678
19060SOL    HW158793   0.801   5.657   9.330 -1.3557 -2.3307 -1.6023
19060SOL    HW258794   0.740   5.621   9.465 -0.5464  0.4117 -0.4374
19061SOL     OW58795   1.365   5.548   7.411  0.0806 -0.2531  0.8516
19061SOL    HW158796   1.347   5.588   7.326 -2.2276  0.5246  1.6530
19061SOL    HW258797   1.371   5.454   7.391 -0.6581 -0.1104 -0.1430
19062SOL     OW58798   8.488   2.447   7.157  0.2174  0.0120  0.1004
19062SOL    HW158799   8.578   2.470   7.178  0.0208  0.7618  0.1468
19062SOL    HW258800   8.435   2.495   7.221 -0.3580  1.8174 -1.6018
19063SOL     OW58801   6.280   1.258   1.976 -0.2959 -0.0492  0.0976
19063SOL    HW158802   6.198   1.276   2.022 -0.4651 -1.2621  0.2808
19063SOL    HW258803   6.297   1.339   1.926 -1.5372  0.2542  0.1259
19064SOL     OW58804   9.700   0.271   4.055  0.3987 -0.1069 -0.0243
19064SOL    HW158805   9.747   0.187   4.051 -0.2618 -0.4246 -1.8337
19064SOL    HW258806   9.607   0.246   4.057  0.1670  0.5746 -1.4516
19065SOL     OW58807   6.590   2.789   0.296  0.3493 -0.4241  0.1143
19065SOL    HW158808   6.580   2.863   0.356 -0.9931  0.1393 -0.7539
19065SOL    HW258809   6.501   2.753   0.288  1.0201 -2.3801  0.8028
19066SOL     OW58810   0.351   2.336   4.446 -0.2468  0.1041 -0.9564
19066SOL    HW158811   0.301   2.353   4.526 -1.2932 -0.9116 -1.3539
19066SOL    HW258812   0.343   2.416   4.395 -0.2708  0.4613 -0.3964
19067SOL     OW58813   2.262   4.878   2.176  0.3311  0.2235 -0.3260
19067SOL    HW158814   2.181   4.860   2.223  0.9581  0.2429  0.7943
19067SOL    HW258815   2.293   4.962   2.211  1.5416 -0.4493  0.2965
19068SOL     OW58816   9.742   6.456   0.613 -0.6101  0.0599 -0.2527
19068SOL    HW158817   9.703   6.439   0.699  0.3439  0.2508  0.2333
19068SOL    HW258818   9.668   6.453   0.552 -1.5604  1.5119  0.7668
19069SOL     OW58819   0.130   0.026   7.716 -0.2930  0.7246  0.1633
19069SOL    HW158820   0.220   0.002   7.693 -0.9428 -0.2874 -1.5278
19069SOL    HW258821   0.098   0.076   7.641 -2.0628 -1.5262 -0.7179
19070SOL     OW58822   7.211   5.444   4.250  0.1143  0.0405 -0.1221
19070SOL    HW158823   7.156   5.394   4.310  0.6235  0.7319  0.9355
19070SOL    HW258824   7.159   5.451   4.170 -1.0355  0.0710  0.6116
19071SOL     OW58825   6.289   1.847   1.752 -0.6601 -0.9335 -0.4208
19071SOL    HW158826   6.312   1.788   1.680 -0.9216 -0.9755 -0.4709
19071SOL    HW258827   6.277   1.932   1.711 -0.7261 -0.9398 -0.4143
19072SOL     OW58828   3.661   2.359   8.612  0.2967  0.2449 -0.1429
19072SOL    HW158829   3.693   2.273   8.637  0.5342 -0.1369 -1.6445
19072SOL    HW258830   3.697   2.373   8.524  0.2690  1.8811  0.0811
19073SOL     OW58831   5.278   4.765   9.525  0.1557 -0.2537 -0.1580
19073SOL    HW158832   5.252   4.857   9.528  0.6170 -0.1025 -0.6785
19073SOL    HW258833   5.357   4.764   9.472  0.1600 -0.9528 -0.1497
19074SOL     OW58834   4.808   9.137   2.128  0.0314  0.3977  0.0356
19074SOL    HW158835   4.781   9.224   2.157  0.0931 -0.0512  1.5239
19074SOL    HW258836   4.757   9.120   2.049 -1.9287  0.7286  1.1804
19075SOL     OW58837   6.141   4.669   3.358 -0.0388  0.2884 -0.0474
19075SOL    HW158838   6.169   4.632   3.441 -0.1555  1.4515  0.5291
19075SOL    HW258839   6.206   4.639   3.295  1.1056  0.9252  0.8106
19076SOL     OW58840   8.368   7.545   7.332  0.2009 -0.1316  0.1167
19076SOL    HW158841   8.406   7.508   7.412  1.9824  1.6254  0.1741
19076SOL    HW258842   8.291   7.593   7.363  1.0099  0.7389  0.8817
19077SOL     OW58843   0.361   0.223   9.366  0.0859  0.0761  0.2408
19077SOL    HW158844   0.281   0.180   9.396  0.2337 -0.9716 -0.8143
19077SOL    HW258845   0.337   0.315   9.356 -1.0110 -0.2358 -0.1362
19078SOL     OW58846   6.890   9.651   7.425  0.6500 -0.0529  0.1390
19078SOL    HW158847   6.906   9.595   7.349 -1.0999  0.2843 -0.5218
19078SOL    HW258848   6.975   9.656   7.469  1.2140 -1.9893 -0.6124
19079SOL     OW58849   2.540   8.284   1.439  0.0271  0.6021  0.3755
19079SOL    HW158850   2.479   8.293   1.512 -0.9887  0.4355 -0.4243
19079SOL    HW258851   2.544   8.371   1.400  0.3768  0.6344  0.4838
19080SOL     OW58852   9.189   0.621   5.991 -0.5414  0.3188  0.0671
19080SOL    HW158853   9.240   0.547   6.025 -0.2021  0.1261 -0.8215
19080SOL    HW258854   9.249   0.695   5.993 -0.1985  0.0947 -0.9673
19081SOL     OW58855   2.223   9.332   1.844  0.2856 -0.3134 -0.3659
19081SOL    HW158856   2.309   9.334   1.802  1.4786  0.5407  1.9165
19081SOL    HW258857   2.181   9.413   1.815  0.3266 -0.6281 -1.3267
19082SOL     OW58858   6.465   4.217   6.127  0.2446  0.1646 -0.2751
19082SOL    HW158859   6.469   4.223   6.223  1.0034  2.1065 -0.3973
19082SOL    HW258860   6.524   4.285   6.096  1.8154 -1.9133 -2.1555
19083SOL     OW58861   5.266   9.250   7.049 -0.3505 -0.0638 -0.4982
19083SOL    HW158862   5.217   9.321   7.091 -3.3229 -1.2866 -1.6641
19083SOL    HW258863   5.232   9.170   7.089 -0.3723 -1.0359 -2.3561
19084SOL     OW58864   5.146   7.149   6.803  0.1903 -0.2126  0.0574
19084SOL    HW158865   5.150   7.170   6.896 -0.1809  1.3128 -0.2473
19084SOL    HW258866   5.132   7.233   6.760  3.5171 -0.3463 -1.6387
19085SOL     OW58867   7.273   7.118   2.577 -0.0725  0.1235  0.6032
19085SOL    HW158868   7.279   7.211   2.555 -2.4999  0.5675  1.5034
19085SOL    HW258869   7.326   7.074   2.511 -0.4746  1.9937 -1.0493
19086SOL     OW58870   1.840   5.105   5.313  0.1718  0.4013 -0.3650
19086SOL    HW158871   1.897   5.051   5.258 -0.0913  0.7297 -0.9582
19086SOL    HW258872   1.753   5.098   5.273  0.2563  1.7615 -0.8122
19087SOL     OW58873   9.828   3.389   8.984  0.7934  0.1741 -0.4159
19087SOL    HW158874   9.919   3.366   8.967  0.4199 -0.8699 -1.0895
19087SOL    HW258875   9.795   3.320   9.041  0.9804  1.6857  1.6671
19088SOL     OW58876   5.501   2.984   8.168  0.6504  0.0793 -1.0663
19088SOL    HW158877   5.511   3.012   8.259 -1.1703 -0.1522 -0.7554
19088SOL    HW258878   5.567   2.917   8.156 -0.5448 -1.5676  0.8439
19089SOL     OW58879   8.391   4.333   4.921 -0.5292  0.1190 -0.2255
19089SOL    HW158880   8.409   4.251   4.966  0.3437 -0.3627 -1.4157
19089SOL    HW258881   8.314   4.315   4.867  0.2593 -0.2285 -1.2489
19090SOL     OW58882   8.534   4.499   7.952  0.1061 -0.1760 -0.1539
19090SOL    HW158883   8.518   4.556   7.877 -1.1330  0.4012  0.5155
19090SOL    HW258884   8.567   4.557   8.021 -0.6431 -0.3375  0.3614
19091SOL     OW58885   1.967   1.219   2.504  0.4131 -0.4363  0.1548
19091SOL    HW158886   1.947   1.177   2.587  1.4013  0.2701  0.7817
19091SOL    HW258887   2.060   1.243   2.511  0.7326 -1.0635 -1.4663
19092SOL     OW58888   6.573   5.934   3.315 -0.6711 -0.1100 -0.1876
19092SOL    HW158889   6.569   5.940   3.219 -1.8949  0.1177 -0.1453
19092SOL    HW258890   6.577   5.841   3.333  0.6730 -0.1187 -0.4799
19093SOL     OW58891   7.692   3.072   8.003  0.1509  0.4960  0.1109
19093SOL    HW158892   7.764   3.134   7.995  1.1455 -0.6502 -0.1256
19093SOL    HW258893   7.687   3.053   8.097  3.2517 -2.8144 -0.1583
19094SOL     OW58894   1.992   6.031   3.087 -0.0786 -0.2948 -0.2234
19094SOL    HW158895   2.067   6.017   3.030 -0.1581  0.4228 -0.5129
19094SOL    HW258896   2.028   6.077   3.163 -0.1880 -0.1036 -0.2853
19095SOL     OW58897   7.077   1.469   3.494 -0.1827 -0.2137 -0.0694
19095SOL    HW158898   7.056   1.529   3.423  2.3380 -0.1323 -0.8567
19095SOL    HW258899   7.171   1.453   3.485 -0.0967 -1.5259  2.2536
19096SOL     OW58900   2.192   9.559   0.076  0.0308 -0.1055 -0.3199
19096SOL    HW158901   2.248   9.621   0.123 -1.0634 -0.0250  0.9654
19096SOL    HW258902   2.199   9.584  -0.016  1.1397  0.6568 -0.0469
19097SOL     OW58903   9.076   1.600   9.483  0.7929  0.1405  0.5646
19097SOL    HW158904   8.990   1.566   9.461  1.1386  1.1710 -3.2522
19097SOL    HW258905   9.059   1.678   9.535 -0.6947  0.7143 -0.6923
19098SOL     OW58906   2.471   8.951   1.982 -0.0272 -0.5416 -0.3430
19098SOL    HW158907   2.415   8.878   1.954 -1.5825  1.3987 -2.7599
19098SOL    HW258908   2.414   9.006   2.035  0.3304  0.1938 -0.7085
19099SOL     OW58909   1.833   3.562   3.486  0.2648 -0.5839 -0.6212
19099SOL    HW158910   1.824   3.629   3.554  1.6921 -2.1580  1.2204
19099SOL    HW258911   1.792   3.601   3.408 -0.2955  1.7908  0.7751
19100SOL     OW58912   5.185   6.300   0.031  0.0144 -0.6461 -0.3918
19100SOL    HW158913   5.104   6.297   0.082  1.1103 -0.7460  1.4340
19100SOL    HW258914   5.215   6.209   0.029  1.0387 -0.3543  0.6288
19101SOL     OW58915   4.264   2.649   2.271 -0.6164 -0.0288 -0.2212
19101SOL    HW158916   4.241   2.558   2.291  1.2877 -0.7640 -1.0939
19101SOL    HW258917   4.236   2.698   2.348 -1.6883 -1.3449  0.2711
19102SOL     OW58918   5.483   2.834   0.896  0.3570  0.4111  0.2262
19102SOL    HW158919   5.464   2.888   0.819  0.0627  0.7396  0.5338
19102SOL    HW258920   5.572   2.859   0.921  1.0338 -0.7431 -0.8849
19103SOL     OW58921   0.780   7.644   6.135  0.5324  0.1092  0.0712
19103SOL    HW158922   0.830   7.577   6.180 -1.1649 -0.8638  0.5956
19103SOL    HW258923   0.765   7.712   6.201 -0.6134 -0.5922  0.5683
19104SOL     OW58924   8.746   4.521   6.631  0.3439 -0.0226 -0.2131
19104SOL    HW158925   8.671   4.505   6.574 -0.2601 -0.9948  0.8020
19104SOL    HW258926   8.810   4.454   6.606  0.8391  0.7411 -1.0088
19105SOL     OW58927   3.918   7.474   6.550  0.0028  0.8416 -0.1267
19105SOL    HW158928   3.927   7.439   6.639 -0.3399  1.8717  0.3276
19105SOL    HW258929   3.840   7.432   6.515 -0.2681  0.9634  0.3251
19106SOL     OW58930   7.380   8.948   3.874 -0.9772  0.3901 -0.5644
19106SOL    HW158931   7.355   8.856   3.869  0.4352 -0.0277 -0.3403
19106SOL    HW258932   7.413   8.969   3.787 -0.7439  0.5154 -0.4471
19107SOL     OW58933   3.124   9.333   0.982 -0.9495 -0.0005 -0.0882
19107SOL    HW158934   3.117   9.401   0.914 -1.7846  0.5913  0.5636
19107SOL    HW258935   3.059   9.268   0.956 -1.4040  0.3176  0.2288
19108SOL     OW58936   6.794   9.293   9.170  0.1337  0.0283 -0.4403
19108SOL    HW158937   6.718   9.235   9.165 -0.0760  0.3246 -0.7565
19108SOL    HW258938   6.757   9.381   9.171  0.5013  0.2839 -2.6942
19109SOL     OW58939   9.361   3.106   1.316 -0.5032 -0.1035 -0.5515
19109SOL    HW158940   9.427   3.090   1.249 -0.4660  0.0866 -0.5611
19109SOL    HW258941   9.285   3.055   1.289 -0.7663  0.5888 -1.1628
19110SOL     OW58942   4.385   0.320   2.503 -0.6659  0.1302  0.1278
19110SOL    HW158943   4.311   0.300   2.445 -1.5678 -0.7891  1.5331
19110SOL    HW258944   4.345   0.335   2.588  0.7121  0.4447  0.7457
19111SOL     OW58945   0.470   6.635   6.542  0.0749  0.2572 -0.1838
19111SOL    HW158946   0.384   6.676   6.555  0.6344  1.2961  0.3758
19111SOL    HW258947   0.499   6.610   6.630 -0.1327 -1.1490 -0.4839
19112SOL     OW58948   0.605   6.953   0.125 -0.1525 -0.8035  0.1318
19112SOL    HW158949   0.640   6.874   0.083 -1.7450 -1.3362 -0.3004
19112SOL    HW258950   0.583   7.011   0.052  0.3168 -0.2620  0.4179
19113SOL     OW58951   2.635   0.191   2.561  0.1277  0.0181 -0.3422
19113SOL    HW158952   2.544   0.164   2.557  0.6109 -1.8524  0.0928
19113SOL    HW258953   2.645   0.229   2.648 -0.1423 -0.1443 -0.2389
19114SOL     OW58954   2.175   9.381   9.343 -0.2681  0.7898 -0.2603
19114SOL    HW158955   2.257   9.376   9.393 -0.4413 -1.1868 -0.1143
19114SOL    HW258956   2.198   9.429   9.264  0.5310  2.0410  0.6902
19115SOL     OW58957   6.232   6.681   8.102  0.4064  0.3514  0.1180
19115SOL    HW158958   6.285   6.742   8.154  0.3455  0.8800 -0.4311
19115SOL    HW258959   6.208   6.612   8.163  1.6121  0.1759  0.4177
19116SOL     OW58960   2.658   0.637   5.427 -0.0746 -0.4253 -0.2921
19116SOL    HW158961   2.730   0.601   5.376 -0.7028 -1.6506 -0.3412
19116SOL    HW258962   2.582   0.631   5.369 -0.3482  0.2815 -0.0174
19117SOL     OW58963   7.595   5.844   2.920 -0.0366  0.1591 -0.0013
19117SOL    HW158964   7.550   5.863   2.838 -0.2522  0.7839  0.2552
19117SOL    HW258965   7.669   5.905   2.922 -0.7935  1.0891  0.8810
19118SOL     OW58966   5.955   2.513   6.523  0.0489  0.2501 -0.1082
19118SOL    HW158967   6.030   2.562   6.490  0.4387 -2.2016 -3.3541
19118SOL    HW258968   5.990   2.460   6.594  0.2051  2.4879  1.6005
19119SOL     OW58969   8.656   6.021   4.347 -0.1261 -0.0454  0.5052
19119SOL    HW158970   8.694   6.030   4.434  0.7507 -0.8597  0.2198
19119SOL    HW258971   8.722   6.056   4.287 -0.3330 -0.3317  0.1012
19120SOL     OW58972   1.165   1.820   2.786 -0.6499 -0.4115 -0.4610
19120SOL    HW158973   1.248   1.776   2.768 -1.0652 -0.7607 -1.5934
19120SOL    HW258974   1.147   1.871   2.707 -1.3147 -0.0064 -0.0618
19121SOL     OW58975   3.266   4.997   6.733  0.3379  0.0105 -0.5113
19121SOL    HW158976   3.280   4.908   6.766  0.0552  0.1279 -0.0636
19121SOL    HW258977   3.196   5.032   6.788  2.1844  1.4399  1.0676
19122SOL     OW58978   3.617   2.872   1.843 -0.0659 -0.2138  0.1368
19122SOL    HW158979   3.524   2.883   1.823  0.0613  0.0027 -0.3632
19122SOL    HW258980   3.627   2.907   1.932 -0.4250 -0.0533  0.1155
19123SOL     OW58981   3.275   3.884   1.315 -0.0149 -0.6471  0.0173
19123SOL    HW158982   3.261   3.854   1.405 -0.9980  0.8769  0.4137
19123SOL    HW258983   3.201   3.847   1.266 -0.1117 -0.5499  0.0878
19124SOL     OW58984   6.365   3.427   9.116  0.4108 -0.5398 -0.2071
19124SOL    HW158985   6.313   3.416   9.196  1.3996  0.9482  0.6757
19124SOL    HW258986   6.447   3.381   9.134  0.5269 -0.4308 -0.4607
19125SOL     OW58987   4.870   3.600   8.843 -0.5889  0.1581  0.0066
19125SOL    HW158988   4.952   3.627   8.884 -1.0448 -0.2691  1.2596
19125SOL    HW258989   4.803   3.651   8.889 -1.0859 -0.0839 -0.4440
19126SOL     OW58990   0.369   5.594   2.377  0.3901  0.0435 -0.4143
19126SOL    HW158991   0.404   5.510   2.348  0.0443  0.5349 -2.3802
19126SOL    HW258992   0.367   5.648   2.298  2.4865  2.6200  1.1212
19127SOL     OW58993   5.459   5.127   9.815  0.5609 -0.1898 -0.1039
19127SOL    HW158994   5.547   5.093   9.798  1.1428  0.9857  0.4348
19127SOL    HW258995   5.454   5.207   9.764 -0.7873 -1.0240 -1.3500
19128SOL     OW58996   6.177   2.961   7.344 -0.0775  0.7344  0.0916
19128SOL    HW158997   6.088   2.927   7.355 -0.1217  1.3545  2.1015
19128SOL    HW258998   6.166   3.056   7.341  0.5043  0.8082  0.2506
19129SOL     OW58999   7.047   8.834   1.353  0.3617 -0.1356 -0.1026
19129SOL    HW159000   7.037   8.929   1.358 -0.4557 -0.1826 -0.6464
19129SOL    HW259001   7.116   8.819   1.289 -0.2289  0.0770 -0.7999
19130SOL     OW59002   4.743   9.298   0.750  0.5539 -0.5546 -0.0220
19130SOL    HW159003   4.710   9.218   0.710 -2.5258  0.6349 -0.1252
19130SOL    HW259004   4.765   9.273   0.840 -0.2804 -1.5384 -0.0741
19131SOL     OW59005   5.447   4.339   9.577 -0.3538 -0.5908  0.5338
19131SOL    HW159006   5.410   4.320   9.663 -2.0783  2.8906  0.7323
19131SOL    HW259007   5.375   4.327   9.516  0.4927 -1.7172 -0.2883
19132SOL     OW59008   9.805   8.981   8.840  0.3978 -0.3248  0.1351
19132SOL    HW159009   9.866   9.009   8.772 -0.6483 -0.8420 -1.0661
19132SOL    HW259010   9.857   8.926   8.898  1.3423  0.2063 -0.1819
19133SOL     OW59011   9.527   7.152   7.234  0.2426 -0.1606 -0.4232
19133SOL    HW159012   9.477   7.071   7.226 -1.1566  0.6309  0.0363
19133SOL    HW259013   9.476   7.216   7.185 -0.9215  1.4142  2.5888
19134SOL     OW59014   0.921   0.206   8.595  0.3062 -0.5268 -0.0271
19134SOL    HW159015   0.958   0.278   8.646 -1.2456 -0.2747  0.7985
19134SOL    HW259016   0.904   0.244   8.509 -1.5362  0.4698  0.7228
19135SOL     OW59017   9.663   0.293   9.340 -0.4216  0.2995 -0.5510
19135SOL    HW159018   9.632   0.369   9.291 -0.9207 -0.1148 -0.8927
19135SOL    HW259019   9.597   0.279   9.408  0.5893  1.2557  0.6769
19136SOL     OW59020   2.809   2.992   6.274  0.4294  0.2797 -0.3258
19136SOL    HW159021   2.744   2.943   6.325  2.1458 -1.7617  0.0816
19136SOL    HW259022   2.794   2.963   6.184 -1.4785  2.5725 -0.8365
19137SOL     OW59023   1.132   2.063   5.778 -0.1228  0.1934  0.1680
19137SOL    HW159024   1.111   1.976   5.813 -1.7232  1.4175  2.4849
19137SOL    HW259025   1.190   2.045   5.704 -2.6018 -3.0196 -1.2297
19138SOL     OW59026   5.418   6.664   6.980 -0.1745 -0.6554  0.1192
19138SOL    HW159027   5.487   6.693   7.039 -0.2369 -1.3352  0.5364
19138SOL    HW259028   5.425   6.568   6.980  0.5342 -0.6566 -1.8171
19139SOL     OW59029   5.299   4.812   6.905 -0.4110  0.5469  0.8811
19139SOL    HW159030   5.311   4.749   6.834  2.3651 -0.7620  2.3339
19139SOL    HW259031   5.299   4.897   6.861  2.6933 -0.1112 -0.7159
19140SOL     OW59032   5.679   1.456   8.513 -0.3574 -0.8690 -0.3907
19140SOL    HW159033   5.742   1.431   8.581 -1.8319 -0.7836  1.0802
19140SOL    HW259034   5.708   1.542   8.484  0.4907 -1.0483 -0.0942
19141SOL     OW59035   1.546   1.122   1.474 -0.8093 -0.0111 -0.0248
19141SOL    HW159036   1.541   1.027   1.479  0.1168 -0.0761 -0.1418
19141SOL    HW259037   1.638   1.142   1.489 -0.5257  0.7102 -2.2931
19142SOL     OW59038   9.842   2.392   4.487 -0.0636  0.0578  0.0797
19142SOL    HW159039   9.896   2.355   4.557 -1.9197  0.0864  1.6012
19142SOL    HW259040   9.796   2.465   4.528 -1.3353 -0.0257 -1.1296
19143SOL     OW59041   2.116   4.181   6.719  0.1888 -0.2418  0.5752
19143SOL    HW159042   2.165   4.103   6.694  0.9848  0.5233 -0.3205
19143SOL    HW259043   2.072   4.208   6.638 -1.0095 -0.4077  1.1551
19144SOL     OW59044   8.824   8.405   0.765 -0.1284  0.2736  0.0161
19144SOL    HW159045   8.851   8.487   0.724  0.1563  0.0280 -0.2935
19144SOL    HW259046   8.898   8.346   0.751  0.2761  0.3981  1.5179
19145SOL     OW59047   6.869   4.310   6.841  0.4246 -0.2467  0.3922
19145SOL    HW159048   6.828   4.313   6.754  0.9918 -0.9407  0.0845
19145SOL    HW259049   6.958   4.280   6.824  1.4273  2.2550  0.9327
19146SOL     OW59050   7.241   5.696   1.627  0.2702 -0.4883  0.1658
19146SOL    HW159051   7.189   5.671   1.551 -1.0458 -0.3991  1.0212
19146SOL    HW259052   7.203   5.649   1.700  0.6510  0.4750  1.0154
19147SOL     OW59053   6.292   1.725   4.153  0.6064  0.2127 -0.6964
19147SOL    HW159054   6.370   1.739   4.100 -1.4929  0.4529 -4.0434
19147SOL    HW259055   6.258   1.814   4.169  1.1049  0.1318  0.9818
19148SOL     OW59056   2.187   0.658   1.292 -0.6678  1.0116 -0.4043
19148SOL    HW159057   2.169   0.572   1.330 -0.2179  0.4992 -1.3257
19148SOL    HW259058   2.252   0.642   1.224  2.4620  2.6336  1.9785
19149SOL     OW59059   1.832   9.647   7.381  0.1894  0.5979 -0.4643
19149SOL    HW159060   1.748   9.680   7.350  0.5758  1.2171 -0.8790
19149SOL    HW259061   1.814   9.557   7.408 -0.7511  0.9384  0.1024
19150SOL     OW59062   9.682   5.292   5.925 -0.4254 -0.2048  0.5085
19150SOL    HW159063   9.649   5.322   6.009 -1.2472 -1.9624  0.8463
19150SOL    HW259064   9.639   5.208   5.910  0.6939 -0.5518 -1.0526
19151SOL     OW59065   1.125   5.534   1.639 -0.2232 -0.3232  0.3338
19151SOL    HW159066   1.047   5.481   1.654  0.1934 -1.4737 -1.3200
19151SOL    HW259067   1.091   5.618   1.607 -0.8040 -1.4867 -2.3325
19152SOL     OW59068   6.736   5.817   3.610 -0.2051  0.4142  0.6580
19152SOL    HW159069   6.705   5.727   3.605  1.0305  0.0249 -0.6728
19152SOL    HW259070   6.661   5.871   3.586 -0.8080 -0.2765  0.9659
19153SOL     OW59071   2.135   1.345   8.970 -0.5411 -0.1237  0.7170
19153SOL    HW159072   2.146   1.293   9.049  1.0989  0.3538  0.8617
19153SOL    HW259073   2.158   1.286   8.898  0.0492  0.0114  0.7843
19154SOL     OW59074   7.613   8.241   3.202 -0.4053 -0.3821 -0.6961
19154SOL    HW159075   7.623   8.278   3.115 -0.3331 -1.8009 -1.3297
19154SOL    HW259076   7.534   8.187   3.196  0.8130 -2.2802 -0.5909
19155SOL     OW59077   3.613   9.086   8.485  0.1623  0.7568  0.6979
19155SOL    HW159078   3.591   9.168   8.440 -2.2687  1.0783  2.2827
19155SOL    HW259079   3.688   9.108   8.539  1.6771  0.9703 -1.3908
19156SOL     OW59080   8.696   3.898   7.732  1.0246  0.0010 -0.1170
19156SOL    HW159081   8.603   3.874   7.734  1.0688 -0.1233  0.8385
19156SOL    HW259082   8.695   3.994   7.738  0.9613 -0.0022 -0.0682
19157SOL     OW59083   8.397   2.703   1.761  0.0777  0.0974  0.4617
19157SOL    HW159084   8.371   2.613   1.780 -0.6380  0.0628 -0.5552
19157SOL    HW259085   8.469   2.721   1.821 -0.6177 -0.7075  1.5612
19158SOL     OW59086   0.758   3.572   4.782  0.2904  0.2187 -0.2751
19158SOL    HW159087   0.768   3.644   4.844 -0.0807 -0.4928  0.6318
19158SOL    HW259088   0.826   3.587   4.717 -0.3477  1.8773 -0.6005
19159SOL     OW59089   1.229   1.763   6.408 -0.1151 -0.5429 -0.4397
19159SOL    HW159090   1.203   1.816   6.332  1.8815  2.2262  0.6521
19159SOL    HW259091   1.165   1.785   6.475 -0.7414 -1.4879 -0.7156
19160SOL     OW59092   8.752   6.345   0.437  0.1894 -0.4823 -0.4013
19160SOL    HW159093   8.744   6.313   0.527  2.5569  1.5745  0.6541
19160SOL    HW259094   8.687   6.415   0.431  1.0750  0.4203  0.2626
19161SOL     OW59095   5.853   8.511   4.542  0.2663 -0.3104 -0.3841
19161SOL    HW159096   5.799   8.579   4.583 -1.5176 -2.1783  0.5995
19161SOL    HW259097   5.864   8.541   4.452 -1.7035  0.6313 -0.3830
19162SOL     OW59098   5.781   2.372   5.466  0.5158 -0.3072  0.0193
19162SOL    HW159099   5.737   2.401   5.386  0.6520  1.6691  0.6164
19162SOL    HW259100   5.858   2.324   5.435 -0.6324 -1.5774 -1.0124
19163SOL     OW59101   4.668   8.075   8.757  0.6228  0.2807  0.4726
19163SOL    HW159102   4.593   8.035   8.802  0.0913  1.4223  0.6339
19163SOL    HW259103   4.698   8.008   8.696 -0.8761 -0.0023  0.0083
19164SOL     OW59104   4.181   9.526   7.051 -0.2490  0.5196 -0.2873
19164SOL    HW159105   4.177   9.572   7.135  0.6358  1.6499 -0.8469
19164SOL    HW259106   4.127   9.578   6.992 -1.4334 -0.6440 -0.2905
19165SOL     OW59107   7.811   6.362   4.890  0.5915 -0.1681 -0.6144
19165SOL    HW159108   7.831   6.392   4.979  0.1087 -2.7350  0.4729
19165SOL    HW259109   7.741   6.419   4.860  1.3454  1.3015  0.2865
19166SOL     OW59110   6.683   7.791   0.887 -0.3797  0.0510 -0.1879
19166SOL    HW159111   6.617   7.823   0.825  0.0065  0.4059 -0.4159
19166SOL    HW259112   6.762   7.840   0.866  0.0470 -0.5953 -0.1187
19167SOL     OW59113   1.961   4.556   0.590  0.7108 -0.2597  0.7776
19167SOL    HW159114   2.029   4.581   0.652  2.9013  2.4922 -2.3928
19167SOL    HW259115   2.006   4.507   0.522 -0.1682  2.0481 -1.6716
19168SOL     OW59116   5.761   6.852   9.840  0.2255 -0.3162 -0.0818
19168SOL    HW159117   5.699   6.909   9.886  2.0973 -0.1677  2.4485
19168SOL    HW259118   5.707   6.779   9.810 -1.5942  0.9918 -0.2105
19169SOL     OW59119   6.529   0.569   8.672  0.0766  0.0863 -0.0484
19169SOL    HW159120   6.579   0.605   8.745 -1.2232 -0.1761  1.0015
19169SOL    HW259121   6.537   0.635   8.603  2.0196 -0.0486  0.0001
19170SOL     OW59122   1.098   9.139   7.435  0.1185 -0.0698  0.5121
19170SOL    HW159123   1.148   9.058   7.440  0.2679 -0.0445 -0.3811
19170SOL    HW259124   1.135   9.185   7.360 -2.4160 -0.8593 -1.3424
19171SOL     OW59125   6.182   8.054   0.461 -0.4911  0.3745 -0.5556
19171SOL    HW159126   6.265   8.098   0.445 -0.8417  1.7232  1.0977
19171SOL    HW259127   6.118   8.102   0.409 -0.9494  2.2314  1.5766
19172SOL     OW59128   5.772   4.075   7.375  0.2111 -0.0192  0.4745
19172SOL    HW159129   5.744   4.164   7.398 -0.1039 -0.0179  0.1098
19172SOL    HW259130   5.696   4.020   7.395 -0.5167  0.1395 -1.5917
19173SOL     OW59131   1.199   6.850   6.694 -0.4168 -0.2660 -0.2034
19173SOL    HW159132   1.218   6.829   6.785 -0.1116 -0.8370 -0.3958
19173SOL    HW259133   1.246   6.784   6.644  1.0612  1.2052 -0.8430
19174SOL     OW59134   2.824   6.851   1.406  0.9149  0.1796  0.5275
19174SOL    HW159135   2.852   6.850   1.497  0.3799  0.8256  0.7086
19174SOL    HW259136   2.849   6.937   1.373 -0.4617  0.6321  0.5887
19175SOL     OW59137   1.190   3.677   5.994 -0.6660 -0.2057 -0.3034
19175SOL    HW159138   1.107   3.690   6.039 -0.4125  0.3820  0.0035
19175SOL    HW259139   1.238   3.614   6.048 -0.2851  0.6389  0.3738
19176SOL     OW59140   0.249   2.234   5.588 -0.2560  0.1260  0.1423
19176SOL    HW159141   0.275   2.162   5.645  1.5008  1.1637  0.7196
19176SOL    HW259142   0.218   2.191   5.508  0.5914 -1.2730  0.5272
19177SOL     OW59143   3.041   9.218   4.488 -0.5456 -0.4706 -0.3094
19177SOL    HW159144   3.025   9.132   4.449 -0.0153 -0.3111 -0.8995
19177SOL    HW259145   2.974   9.227   4.555 -0.2779 -1.5731  0.1311
19178SOL     OW59146   1.226   8.748   6.958 -0.0501  0.3020 -0.4675
19178SOL    HW159147   1.169   8.724   7.031 -0.0325  0.3452 -0.4402
19178SOL    HW259148   1.223   8.672   6.900  0.2329  0.1175 -0.2420
19179SOL     OW59149   9.523   1.592   7.855  0.0645  0.1485  0.3295
19179SOL    HW159150   9.461   1.536   7.807  1.2654 -1.4037  0.4942
19179SOL    HW259151   9.607   1.575   7.813  0.6323  1.0767  1.0708
19180SOL     OW59152   7.812   0.839   2.492 -0.3349 -0.2164  0.1672
19180SOL    HW159153   7.869   0.885   2.430  0.4456 -0.4882  0.6754
19180SOL    HW259154   7.761   0.779   2.438  0.2356 -0.3423 -0.2419
19181SOL     OW59155   5.629   5.280   5.978 -0.4478 -0.0030 -0.3181
19181SOL    HW159156   5.615   5.312   6.066 -0.5907 -0.9562  0.0193
19181SOL    HW259157   5.705   5.329   5.946 -1.0433  1.1106 -0.0743
19182SOL     OW59158   2.972   4.009   9.459  0.4482 -0.0959  0.1015
19182SOL    HW159159   3.043   4.032   9.518 -0.0130  1.6225  0.0416
19182SOL    HW259160   3.016   3.985   9.377  0.9977  0.9921  0.0515
19183SOL     OW59161   7.947   2.662   4.565  0.0983  0.0036 -0.0385
19183SOL    HW159162   8.027   2.657   4.513 -0.3405 -1.5454 -0.6542
19183SOL    HW259163   7.964   2.607   4.642 -0.5571 -0.8944 -0.5034
19184SOL     OW59164   1.831   6.687   5.248  0.1438 -0.1472  0.0840
19184SOL    HW159165   1.831   6.767   5.301 -0.1618  0.4545 -0.8105
19184SOL    HW259166   1.813   6.717   5.159 -0.4231 -1.2692 -0.1906
19185SOL     OW59167   9.627   3.606   1.601 -0.6744  0.1795 -0.1907
19185SOL    HW159168   9.633   3.553   1.522  0.6835 -0.0557  0.0367
19185SOL    HW259169   9.682   3.682   1.583 -0.1059 -0.0266  0.6268
19186SOL     OW59170   8.377   9.223   9.019  0.1002 -0.2358  0.0147
19186SOL    HW159171   8.396   9.139   9.062  0.3937 -0.1167  0.1186
19186SOL    HW259172   8.399   9.207   8.927  1.1729  0.0390  0.2073
19187SOL     OW59173   1.120   1.707   6.834  0.5849 -0.3977  0.2551
19187SOL    HW159174   1.066   1.629   6.847 -0.3161  0.0618 -0.6420
19187SOL    HW259175   1.206   1.672   6.809  0.7640 -1.1356  1.7525
19188SOL     OW59176   4.236   6.732   2.527  0.4513  0.3652 -0.5661
19188SOL    HW159177   4.205   6.662   2.585  0.4930  0.3736 -0.5342
19188SOL    HW259178   4.185   6.809   2.554  0.4090  0.3483 -0.5977
19189SOL     OW59179   8.116   0.295   6.984  1.0735  0.4963  0.0389
19189SOL    HW159180   8.100   0.243   7.063  2.3273  1.1958  0.7838
19189SOL    HW259181   8.150   0.232   6.920  0.9443  0.0987  0.3586
19190SOL     OW59182   7.372   2.200   7.647  0.7783  0.3272  0.3197
19190SOL    HW159183   7.352   2.292   7.664 -1.4065  0.5812 -2.7317
19190SOL    HW259184   7.307   2.152   7.699 -1.0364  0.7712 -1.4246
19191SOL     OW59185   6.626   2.155   1.733 -0.6774  0.0604  0.6398
19191SOL    HW159186   6.547   2.133   1.783 -0.4689 -0.9640  0.5264
19191SOL    HW259187   6.697   2.109   1.778 -0.4612 -0.7590 -0.4960
19192SOL     OW59188   7.945   9.391   6.974 -0.3155  0.1237 -0.1978
19192SOL    HW159189   7.882   9.322   6.995 -0.3884  0.6823  1.5232
19192SOL    HW259190   7.998   9.402   7.053  1.8502 -0.1817 -1.5378
19193SOL     OW59191   3.154   1.396   1.752 -0.3962  0.0120  0.3850
19193SOL    HW159192   3.243   1.365   1.771 -0.6690 -1.3095 -0.4295
19193SOL    HW259193   3.168   1.484   1.716  0.3621  1.0310  2.9246
19194SOL     OW59194   8.061   0.974   7.827 -0.7573  0.5423  0.2581
19194SOL    HW159195   8.142   0.926   7.844 -1.0340 -0.8476 -1.9152
19194SOL    HW259196   8.084   1.038   7.760 -1.4248  0.1307 -0.3816
19195SOL     OW59197   0.274   8.089   9.809  0.8857 -0.2558 -0.0206
19195SOL    HW159198   0.348   8.042   9.846 -0.7991 -0.6957  3.1480
19195SOL    HW259199   0.228   8.025   9.755  0.6871 -1.1512  1.1911
19196SOL     OW59200   1.057   5.070   6.825 -0.3928  0.1491 -0.4664
19196SOL    HW159201   1.080   4.979   6.847 -1.2584 -0.2844 -1.2797
19196SOL    HW259202   1.140   5.118   6.833 -0.1485 -0.4538  1.1791
19197SOL     OW59203   5.490   8.009   3.307  0.1769 -0.0255 -0.5547
19197SOL    HW159204   5.431   8.031   3.235  0.3870  1.8103 -0.2200
19197SOL    HW259205   5.461   8.064   3.380  1.1240 -0.4839  0.1872
19198SOL     OW59206   5.937   5.224   7.056  0.0685  0.1010  0.4470
19198SOL    HW159207   5.988   5.174   6.992  0.3043 -0.8749  1.3799
19198SOL    HW259208   5.909   5.302   7.007  2.1535  0.5300 -0.1890
19199SOL     OW59209   9.808   5.456   0.080 -0.4237  0.3878 -0.0125
19199SOL    HW159210   9.902   5.468   0.061 -0.3847 -0.1828 -0.2068
19199SOL    HW259211   9.793   5.505   0.161 -0.1508  1.2227 -0.4491
19200SOL     OW59212   4.926   5.571   5.656 -0.0267 -0.7469  0.2599
19200SOL    HW159213   4.979   5.495   5.679  0.4073 -0.8605 -1.0465
19200SOL    HW259214   4.970   5.644   5.699  1.2100 -0.8378 -0.8015
19201SOL     OW59215   1.955   8.808   9.428 -0.1593 -0.1685  0.4886
19201SOL    HW159216   2.022   8.809   9.497 -1.3569 -0.4341  1.6935
19201SOL    HW259217   1.890   8.745   9.458 -0.1728 -1.1490 -1.4485
19202SOL     OW59218   5.235   7.962   7.906  0.0100  0.4177 -0.2710
19202SOL    HW159219   5.205   7.883   7.951 -1.9338  1.3622  0.2054
19202SOL    HW259220   5.221   7.944   7.813 -0.1292  0.0820 -0.1852
19203SOL     OW59221   4.367   0.182   0.999 -0.2679 -0.2314 -0.2245
19203SOL    HW159222   4.362   0.127   0.921  0.6484 -0.7445  0.0601
19203SOL    HW259223   4.446   0.152   1.044  0.3428  1.4226 -0.1358
19204SOL     OW59224   3.740   2.391   7.098  0.2994 -0.3857  0.0712
19204SOL    HW159225   3.724   2.428   7.011  2.2292 -0.9231 -0.5780
19204SOL    HW259226   3.698   2.452   7.158  0.1444  0.7852 -1.1645
19205SOL     OW59227   9.645   7.667   2.079  0.9929  0.0915  0.8671
19205SOL    HW159228   9.697   7.617   2.142  1.2506 -1.8306 -0.7508
19205SOL    HW259229   9.567   7.612   2.064  0.2668  1.1816  0.5453
19206SOL     OW59230   9.454   8.628   9.277  0.2996  0.5142 -0.5425
19206SOL    HW159231   9.531   8.658   9.229  0.9152  0.4661  0.4154
19206SOL    HW259232   9.423   8.552   9.227  0.0251  1.3853 -1.7319
19207SOL     OW59233   5.173   4.276   4.819  0.2462 -0.5389  0.0312
19207SOL    HW159234   5.227   4.337   4.769 -1.3285  0.4913 -0.4565
19207SOL    HW259235   5.126   4.226   4.753 -2.6282  1.5241  0.3613
19208SOL     OW59236   6.879   5.973   3.032 -0.3140  0.8164  0.4723
19208SOL    HW159237   6.798   5.923   3.046 -0.0857  0.7304  1.5333
19208SOL    HW259238   6.898   6.013   3.117  2.5047 -1.7311  1.2129
19209SOL     OW59239   4.507   7.960   0.149 -0.3216  0.3578 -0.3886
19209SOL    HW159240   4.561   8.023   0.101  2.2615 -1.5931 -0.2625
19209SOL    HW259241   4.442   7.930   0.086  0.6889  0.5149 -1.5245
19210SOL     OW59242   6.483   1.649   8.051 -0.1411 -0.1728  0.3215
19210SOL    HW159243   6.567   1.687   8.024  0.5727 -0.4439  2.0302
19210SOL    HW259244   6.418   1.716   8.027  0.9546  1.6825  2.2083
19211SOL     OW59245   1.867   9.606   4.363  0.1901  0.1321 -0.3734
19211SOL    HW159246   1.928   9.555   4.417  0.2353 -0.4732 -0.9810
19211SOL    HW259247   1.781   9.585   4.397  0.2487  0.1715 -0.1966
19212SOL     OW59248   2.805   4.568   8.682 -0.1955  0.1131 -0.1650
19212SOL    HW159249   2.871   4.589   8.615  2.0922  0.5859  2.0909
19212SOL    HW259250   2.854   4.521   8.750 -1.7744  2.0271  2.4518
19213SOL     OW59251   7.539   8.035   2.581  0.2075 -0.1172 -0.6351
19213SOL    HW159252   7.468   8.091   2.548  0.0946  0.0041 -0.1923
19213SOL    HW259253   7.618   8.088   2.572 -0.2866  1.5715  2.9937
19214SOL     OW59254   2.007   6.225   2.559  0.5725 -0.0077  0.6920
19214SOL    HW159255   1.989   6.166   2.486  2.3528  0.9785 -0.6003
19214SOL    HW259256   2.058   6.172   2.621  1.4158 -0.0942 -0.0595
19215SOL     OW59257   1.544   9.038   2.312 -0.2208  0.2410  0.5726
19215SOL    HW159258   1.564   9.043   2.218 -0.2741  0.0955  0.5542
19215SOL    HW259259   1.613   9.090   2.354  0.3745 -0.5165  0.5366
19216SOL     OW59260   9.509   8.343   2.800 -0.1777  0.0731  0.3177
19216SOL    HW159261   9.479   8.430   2.771  0.6024  0.8614  1.7594
19216SOL    HW259262   9.436   8.310   2.852 -0.1042  0.2643  0.5419
19217SOL     OW59263   9.511   2.252   7.207 -0.0962  0.3512 -0.0117
19217SOL    HW159264   9.531   2.341   7.176  2.9347 -0.2431 -0.1067
19217SOL    HW259265   9.586   2.229   7.262 -1.7754 -1.4415  1.6439
19218SOL     OW59266   8.991   7.934   0.134  0.2284 -0.0219 -0.2055
19218SOL    HW159267   8.903   7.940   0.170  0.8338  1.4016  1.1498
19218SOL    HW259268   8.981   7.883   0.053 -1.7771 -0.0794  0.0421
19219SOL     OW59269   4.180   1.950   4.891  0.2403  0.1057  0.5533
19219SOL    HW159270   4.092   1.953   4.853 -0.0967 -2.7196  0.9122
19219SOL    HW259271   4.165   1.952   4.985  0.4036 -1.9522  0.6514
19220SOL     OW59272   7.581   7.560   9.405 -0.3630 -0.1181  0.5315
19220SOL    HW159273   7.648   7.553   9.474  0.0943  0.5934  0.1734
19220SOL    HW259274   7.596   7.483   9.350 -1.1846 -1.0712  1.6052
19221SOL     OW59275   9.742   6.088   3.077  0.2706  0.0502  0.2373
19221SOL    HW159276   9.745   6.040   3.160  0.3083  2.7068  1.8787
19221SOL    HW259277   9.655   6.128   3.075  0.2353 -0.0351 -1.0837
19222SOL     OW59278   3.798   0.063   3.343 -0.6558 -1.0034 -0.3528
19222SOL    HW159279   3.836  -0.025   3.343  2.3430  0.1310  1.4415
19222SOL    HW259280   3.868   0.119   3.310 -2.5456  0.7455 -1.5954
19223SOL     OW59281   4.525   0.604   1.699 -0.1972 -0.2775  0.1168
19223SOL    HW159282   4.518   0.536   1.765  0.7702  0.3887  0.9386
19223SOL    HW259283   4.604   0.653   1.723  1.4325 -1.2982 -2.7125
19224SOL     OW59284   5.829   7.487   4.326  0.0914 -0.1092  0.0104
19224SOL    HW159285   5.772   7.416   4.356 -2.4419  1.5251 -0.6189
19224SOL    HW259286   5.885   7.506   4.401 -1.3021 -0.7411  1.2759
19225SOL     OW59287   8.518   3.161   3.624  0.8734  0.5771 -0.1874
19225SOL    HW159288   8.530   3.148   3.718  0.6126 -1.1115 -0.3581
19225SOL    HW259289   8.604   3.144   3.586  1.0334  1.4849 -0.2406
19226SOL     OW59290   5.179   1.902   0.923 -0.0903 -0.2933 -0.1497
19226SOL    HW159291   5.146   1.823   0.880  1.3517 -0.1048 -1.7242
19226SOL    HW259292   5.202   1.874   1.011  1.2146 -1.8883 -0.9445
19227SOL     OW59293   8.340   3.600   4.777 -0.5655  0.2298  0.5114
19227SOL    HW159294   8.331   3.527   4.716  1.7464  1.5111 -1.5369
19227SOL    HW259295   8.339   3.558   4.864 -1.8638 -1.8844 -0.4272
19228SOL     OW59296   7.526   6.233   7.155 -0.0676  0.2181 -0.1072
19228SOL    HW159297   7.526   6.322   7.189  0.4654  0.9508 -1.8925
19228SOL    HW259298   7.520   6.177   7.232  1.9381  1.7411  1.2474
19229SOL     OW59299   6.503   8.873   9.433 -0.3847 -0.3032  0.7226
19229SOL    HW159300   6.535   8.868   9.343 -0.5969  1.8658  0.4799
19229SOL    HW259301   6.467   8.962   9.441 -1.1772 -0.7458  2.6870
19230SOL     OW59302   4.927   4.297   7.383 -0.3287 -0.2214  0.2861
19230SOL    HW159303   4.982   4.342   7.319  0.1948  0.5025  1.2157
19230SOL    HW259304   4.838   4.305   7.348 -0.1180  0.6440 -0.0908
19231SOL     OW59305   7.325   5.131   8.322  0.3430 -0.1044  0.0920
19231SOL    HW159306   7.375   5.196   8.273  2.6429 -1.4896  0.4384
19231SOL    HW259307   7.321   5.164   8.411  0.5244  0.0684  0.0349
19232SOL     OW59308   9.132   4.234   1.835  0.3002 -0.1359  0.3472
19232SOL    HW159309   9.133   4.139   1.826  0.1677  0.0677 -3.1201
19232SOL    HW259310   9.203   4.253   1.896  1.0124 -2.3728  0.3051
19233SOL     OW59311   0.402   8.018   5.269  0.4514 -0.1523  0.3404
19233SOL    HW159312   0.372   7.967   5.194  1.3770  0.2801 -0.3433
19233SOL    HW259313   0.462   7.959   5.315  1.3284  0.2196 -0.3111
19234SOL     OW59314   1.729   4.024   6.202  0.8629  0.0014 -0.2426
19234SOL    HW159315   1.716   4.118   6.188  0.7397 -0.0341 -0.3729
19234SOL    HW259316   1.688   3.983   6.126 -0.2106 -0.2193  0.4327
19235SOL     OW59317   2.036   9.130   9.571 -0.4030 -0.1493 -0.0976
19235SOL    HW159318   2.069   9.199   9.628 -0.9077 -1.9066  2.4658
19235SOL    HW259319   1.942   9.127   9.589 -0.5282 -0.9432 -0.8097
19236SOL     OW59320   1.099   6.173   5.310 -0.2201  0.4241 -0.0025
19236SOL    HW159321   1.034   6.209   5.250 -0.3808 -0.1114 -0.1497
19236SOL    HW259322   1.064   6.193   5.397  0.6753  2.4206 -0.0457
19237SOL     OW59323   1.771   1.406   0.170  0.1496 -0.3035  0.5624
19237SOL    HW159324   1.831   1.360   0.111  2.7774  2.1285  1.1240
19237SOL    HW259325   1.794   1.498   0.160 -0.8109  0.4001  3.7452
19238SOL     OW59326   4.583   5.655   6.515 -0.0276  0.2794 -0.0205
19238SOL    HW159327   4.666   5.649   6.468  0.0973 -3.4533  0.3919
19238SOL    HW259328   4.542   5.570   6.503 -2.4203  0.9465  2.3158
19239SOL     OW59329   3.008   9.649   1.467  0.3151 -0.1957  0.6002
19239SOL    HW159330   3.066   9.677   1.395 -1.0570 -0.5329 -0.6850
19239SOL    HW259331   3.005   9.554   1.459 -0.6557 -0.1566  0.4479
19240SOL     OW59332   4.473   7.610   2.611  0.0136 -0.3468  0.5277
19240SOL    HW159333   4.485   7.536   2.671  1.1961  1.2322  2.3826
19240SOL    HW259334   4.554   7.660   2.619 -1.9723  3.0209  2.1481
19241SOL     OW59335   8.092   7.032   3.179 -0.3930 -0.7165 -0.1715
19241SOL    HW159336   7.999   7.041   3.159 -0.7235 -0.8482  1.1843
19241SOL    HW259337   8.101   7.072   3.266  1.2624  1.4314 -1.2367
19242SOL     OW59338   2.134   6.042   9.238  0.4129 -0.6321 -0.5544
19242SOL    HW159339   2.059   6.081   9.193 -0.0748 -0.0071  0.7696
19242SOL    HW259340   2.210   6.070   9.186  0.2112  2.9530  0.8031
19243SOL     OW59341   8.994   3.705   6.160  0.0155  0.3067 -0.3956
19243SOL    HW159342   9.062   3.768   6.136 -1.2236  1.0808 -2.0191
19243SOL    HW259343   8.964   3.734   6.246  1.5215  0.1004  0.2397
19244SOL     OW59344   4.341   5.664   3.007 -0.5935  0.4407  0.2049
19244SOL    HW159345   4.406   5.660   3.077 -0.2173  1.0109 -0.0992
19244SOL    HW259346   4.261   5.694   3.049 -0.5171  0.2449  0.4891
19245SOL     OW59347   4.126   6.523   9.485 -0.3942  0.2318  0.0115
19245SOL    HW159348   4.155   6.553   9.399  0.5644  1.2892  0.6821
19245SOL    HW259349   4.052   6.465   9.466 -0.1548  0.3833 -1.5216
19246SOL     OW59350   7.282   8.365   9.640  0.2155  0.6789 -0.4904
19246SOL    HW159351   7.283   8.298   9.572 -0.5057  0.2635 -0.1036
19246SOL    HW259352   7.211   8.423   9.616  0.9551  1.4278 -0.9225
19247SOL     OW59353   1.444   7.233   7.080  0.6865 -0.2722 -0.5973
19247SOL    HW159354   1.391   7.188   7.014  1.0212  0.4564 -1.3897
19247SOL    HW259355   1.520   7.265   7.031  2.1192 -1.6860  0.6012
19248SOL     OW59356   9.221   2.519   3.696 -0.0079 -0.3663 -0.0187
19248SOL    HW159357   9.152   2.454   3.677  0.5088 -0.7555 -0.6142
19248SOL    HW259358   9.186   2.601   3.661 -0.6844 -0.3020  0.7678
19249SOL     OW59359   1.081   5.069   8.306 -0.2104 -0.4204  0.0140
19249SOL    HW159360   1.082   5.045   8.398 -0.1964  0.2256  0.1911
19249SOL    HW259361   1.106   5.162   8.306 -1.0688 -0.1810 -0.5708
19250SOL     OW59362   3.831   5.742   1.155 -0.2208 -0.2437 -0.5143
19250SOL    HW159363   3.789   5.669   1.200 -0.6894 -1.8740 -3.3053
19250SOL    HW259364   3.759   5.795   1.122  0.0255 -0.0860 -0.8090
19251SOL     OW59365   3.935   0.993   4.949 -0.2295 -0.1326  0.1475
19251SOL    HW159366   4.023   1.030   4.956  0.0470 -0.8016  0.3245
19251SOL    HW259367   3.886   1.033   5.021 -0.0516  0.1966  0.0843
19252SOL     OW59368   6.077   4.264   5.793  0.0120 -0.1107 -0.4201
19252SOL    HW159369   6.017   4.316   5.847  1.3249  0.6500  0.3330
19252SOL    HW259370   6.033   4.179   5.785 -0.5546 -0.0160  1.2511
19253SOL     OW59371   3.867   2.242   8.420 -0.1500 -0.2918 -0.1850
19253SOL    HW159372   3.902   2.252   8.332 -1.4179 -0.5013 -0.7386
19253SOL    HW259373   3.825   2.156   8.419 -0.0600 -0.3490  0.6668
19254SOL     OW59374   0.453   8.147   8.099  0.0981  0.6227 -0.2523
19254SOL    HW159375   0.520   8.086   8.131  0.4869  0.9138 -0.5022
19254SOL    HW259376   0.370   8.111   8.132  0.4140  0.4926  0.4177
19255SOL     OW59377   3.170   2.670   9.455 -0.0715 -0.5169 -0.2613
19255SOL    HW159378   3.249   2.679   9.402 -0.7646  0.0895 -1.2209
19255SOL    HW259379   3.194   2.705   9.541  0.1322  1.6115 -1.1243
19256SOL     OW59380   2.798   4.807   4.448  0.6792  0.0238 -0.0077
19256SOL    HW159381   2.786   4.874   4.381  0.3529  0.4628  0.4820
19256SOL    HW259382   2.776   4.851   4.531 -0.9504 -1.0802  0.1881
19257SOL     OW59383   0.018   0.343   3.682  0.6180 -0.4434 -0.1574
19257SOL    HW159384  -0.043   0.290   3.629 -0.6176  0.5805  0.1743
19257SOL    HW259385   0.060   0.280   3.740  0.9179 -1.3825 -1.3547
19258SOL     OW59386   8.802   6.223   3.989 -0.3682  0.0785 -0.0982
19258SOL    HW159387   8.727   6.271   4.026  0.2924  1.4551 -0.5118
19258SOL    HW259388   8.877   6.253   4.040  0.3479  0.9722 -1.6432
19259SOL     OW59389   4.163   7.725   0.712  0.2364 -0.0407  0.5685
19259SOL    HW159390   4.178   7.758   0.623 -1.3952  0.8746  0.5877
19259SOL    HW259391   4.243   7.746   0.759 -0.3272  3.1976  0.3263
19260SOL     OW59392   2.578   4.363   7.462 -0.2522 -0.4731  0.0312
19260SOL    HW159393   2.637   4.421   7.413 -1.6380 -0.2830 -1.5088
19260SOL    HW259394   2.539   4.307   7.395 -2.0059 -0.4204  0.9523
19261SOL     OW59395   0.089   0.794   4.612  0.3217 -0.0494  0.2660
19261SOL    HW159396   0.071   0.888   4.615  2.8693  0.5314 -0.3328
19261SOL    HW259397   0.067   0.769   4.522 -0.8048 -0.1761  0.5549
19262SOL     OW59398   8.127   2.098   2.560 -0.0843  0.0269 -0.2122
19262SOL    HW159399   8.138   2.178   2.611 -0.6315 -0.4125  0.6159
19262SOL    HW259400   8.216   2.062   2.553  0.0112  0.1477  0.3434
19263SOL     OW59401   6.521   1.029   6.698  0.0594  0.1399  0.0203
19263SOL    HW159402   6.617   1.024   6.697  0.0768  0.5088 -0.1115
19263SOL    HW259403   6.499   1.085   6.624 -0.2039  1.0477  0.7728
19264SOL     OW59404   1.213   4.816   6.841  0.5807 -0.0286 -0.0351
19264SOL    HW159405   1.232   4.829   6.748 -1.6532 -2.5266 -0.9722
19264SOL    HW259406   1.271   4.745   6.868  0.7839  0.2657  0.3149
19265SOL     OW59407   7.272   3.387   1.351 -0.3222 -0.4395 -0.7106
19265SOL    HW159408   7.337   3.319   1.334 -1.4954 -2.1211  1.1276
19265SOL    HW259409   7.319   3.454   1.401 -0.1010 -1.9750  1.2241
19266SOL     OW59410   3.040   2.700   2.375 -0.4124  0.0038  0.7518
19266SOL    HW159411   3.111   2.636   2.379  0.1117  0.2732 -2.1561
19266SOL    HW259412   2.960   2.647   2.373 -0.0663 -0.4959 -0.1210
19267SOL     OW59413   8.730   9.179   0.432  0.0824  0.0820 -0.3494
19267SOL    HW159414   8.737   9.114   0.502  2.2948 -0.1985 -0.7471
19267SOL    HW259415   8.727   9.263   0.477 -1.8092 -0.1847  0.1328
19268SOL     OW59416   8.479   5.511   1.771 -0.1139  0.3261 -0.3731
19268SOL    HW159417   8.524   5.461   1.703  2.0409  0.9416  0.5055
19268SOL    HW259418   8.447   5.589   1.727 -1.4271 -0.6564 -1.2514
19269SOL     OW59419   4.059   2.471   5.192 -0.2867 -0.5392 -0.0056
19269SOL    HW159420   4.064   2.466   5.287  0.1002  0.0419  0.0108
19269SOL    HW259421   3.990   2.409   5.168  0.0749 -1.1923  0.5964
19270SOL     OW59422   8.819   3.723   5.960  0.1543  0.5018 -0.2950
19270SOL    HW159423   8.798   3.630   5.953 -0.2104  0.4057  1.6054
19270SOL    HW259424   8.875   3.729   6.037 -3.2608  2.2936  2.3372
19271SOL     OW59425   6.393   2.595   7.697 -0.5033  0.3944 -0.3229
19271SOL    HW159426   6.329   2.666   7.695 -1.2176 -0.2470 -0.7262
19271SOL    HW259427   6.350   2.525   7.747  0.9404  0.9203  1.7889
19272SOL     OW59428   2.655   2.815   7.168 -0.0987  0.3077  0.8786
19272SOL    HW159429   2.656   2.905   7.200 -1.7826  0.1268  1.5527
19272SOL    HW259430   2.586   2.814   7.102  1.0984 -0.1066 -0.3937
19273SOL     OW59431   5.863   8.034   0.627 -0.7360 -0.0497  0.1933
19273SOL    HW159432   5.865   8.129   0.631 -0.7238 -0.0864  1.5301
19273SOL    HW259433   5.903   8.005   0.708  0.1334 -1.2198 -0.6099
19274SOL     OW59434   8.941   2.513   0.836  0.3215 -0.0620  0.0651
19274SOL    HW159435   8.960   2.602   0.805  1.5379 -0.8447 -1.6076
19274SOL    HW259436   8.851   2.497   0.807  0.3519  0.3554 -0.2828
19275SOL     OW59437   6.139   4.326   3.332  0.2494 -0.1431 -0.1446
19275SOL    HW159438   6.116   4.253   3.389 -1.1819  0.2237 -0.2033
19275SOL    HW259439   6.198   4.380   3.385 -0.6808 -0.0577  0.8565
19276SOL     OW59440   4.868   6.175   3.978 -0.0456  0.7117  0.3398
19276SOL    HW159441   4.936   6.242   3.978 -0.1645  0.8564  1.7181
19276SOL    HW259442   4.916   6.092   3.975  0.2756  0.7797  2.4242
19277SOL     OW59443   0.636   2.000   0.094 -0.3675  0.2924  0.0355
19277SOL    HW159444   0.594   1.914   0.090  2.2630 -1.0472 -1.1078
19277SOL    HW259445   0.682   2.001   0.178  1.6824 -0.5679 -0.9972
19278SOL     OW59446   8.442   4.095   5.510  0.4979 -0.3171  0.2541
19278SOL    HW159447   8.459   4.076   5.602 -0.7470  1.1981  0.8433
19278SOL    HW259448   8.348   4.116   5.507  1.1072  2.7529 -0.7607
19279SOL     OW59449   6.279   8.876   9.760 -0.2248 -0.2105  0.5003
19279SOL    HW159450   6.336   8.805   9.790 -1.0380 -0.2793  1.9767
19279SOL    HW259451   6.232   8.838   9.686  0.9056 -0.4720 -0.1089
19280SOL     OW59452   6.413   2.265   5.141 -0.0267 -0.5193  0.2943
19280SOL    HW159453   6.474   2.305   5.078  0.8907 -1.1709  0.7403
19280SOL    HW259454   6.328   2.266   5.096  0.1613  0.9806 -0.1022
19281SOL     OW59455   6.052   9.541   8.086 -1.2826  0.8600  0.3176
19281SOL    HW159456   6.093   9.627   8.087  1.1661 -0.0868 -2.9768
19281SOL    HW259457   6.115   9.483   8.129 -0.2124 -0.1349 -2.3890
19282SOL     OW59458   9.348   4.308   3.996  0.1840 -0.5314 -0.6547
19282SOL    HW159459   9.299   4.262   3.928  0.7626 -2.1885 -0.0012
19282SOL    HW259460   9.374   4.240   4.057 -0.2497  0.8993  1.2191
19283SOL     OW59461   6.416   4.734   0.145  0.1175  0.1000 -0.2551
19283SOL    HW159462   6.496   4.761   0.189 -1.6739  0.1165  3.2911
19283SOL    HW259463   6.371   4.816   0.125  0.2165  0.0417 -0.7322
19284SOL     OW59464   9.669   1.146   4.229 -0.7587 -0.0081 -0.6154
19284SOL    HW159465   9.672   1.200   4.308  2.1250 -0.0264 -0.5987
19284SOL    HW259466   9.620   1.199   4.165 -0.3671  1.4345  0.2328
19285SOL     OW59467   5.296   3.295   7.207  0.0730  0.6335  0.6534
19285SOL    HW159468   5.302   3.312   7.113  1.4427 -0.0616  0.5891
19285SOL    HW259469   5.247   3.369   7.242  1.4015  2.0489 -0.3234
19286SOL     OW59470   7.265   5.371   2.679  0.0018 -0.4155  0.7267
19286SOL    HW159471   7.209   5.404   2.609  2.1684  1.0955 -0.4059
19286SOL    HW259472   7.224   5.402   2.760 -0.8047  0.6306 -0.0649
19287SOL     OW59473   8.718   2.263   9.793 -0.1394 -0.1392 -0.3145
19287SOL    HW159474   8.723   2.169   9.775  0.3166 -0.4089  1.0568
19287SOL    HW259475   8.808   2.294   9.785 -0.2661  0.1545 -0.6203
19288SOL     OW59476   2.011   8.327   6.871  0.0190 -0.6056  0.4620
19288SOL    HW159477   2.082   8.316   6.808 -0.8456 -0.7351 -0.5269
19288SOL    HW259478   1.975   8.239   6.883 -0.7170 -0.3797  0.0272
19289SOL     OW59479   4.299   3.332   4.465  0.2744  0.1242 -0.1896
19289SOL    HW159480   4.297   3.370   4.377 -0.2024  2.1951  0.6562
19289SOL    HW259481   4.269   3.242   4.453 -0.2729  0.5110 -2.0698
19290SOL     OW59482   1.240   2.847   5.812 -0.4278  0.2459 -0.1124
19290SOL    HW159483   1.226   2.753   5.829 -1.9226  0.7246  1.6107
19290SOL    HW259484   1.167   2.872   5.756 -1.3504  0.8261  1.3034
19291SOL     OW59485   8.879   6.102   3.213  0.0893  0.3369  0.1695
19291SOL    HW159486   8.878   6.113   3.308  2.4462  1.0467  0.1827
19291SOL    HW259487   8.959   6.052   3.196 -1.3837 -1.7197 -1.3276
19292SOL     OW59488   9.319   4.366   7.717 -0.2113  0.3572  0.1439
19292SOL    HW159489   9.227   4.342   7.729  0.5675 -2.9688  0.6149
19292SOL    HW259490   9.340   4.339   7.628  1.1566 -2.8593  1.2582
19293SOL     OW59491   3.529   3.634   1.972 -0.1522  0.5042 -0.1424
19293SOL    HW159492   3.448   3.611   2.019  0.5701 -3.2343 -0.3840
19293SOL    HW259493   3.503   3.704   1.913 -3.3675 -0.7809 -0.4919
19294SOL     OW59494   5.623   5.134   2.714 -0.5787 -0.2985 -0.2339
19294SOL    HW159495   5.538   5.165   2.683 -1.4125 -0.5991  1.5821
19294SOL    HW259496   5.665   5.095   2.637 -1.7057  0.6452 -1.3611
19295SOL     OW59497   7.010   5.047   7.545  0.4166  0.8985 -0.9829
19295SOL    HW159498   6.918   5.026   7.528  0.7807 -1.4417 -0.4561
19295SOL    HW259499   7.013   5.066   7.638  0.7099 -0.9810 -0.5604
19296SOL     OW59500   3.509   2.633   2.504 -0.4610  0.0183 -0.7992
19296SOL    HW159501   3.586   2.580   2.524 -0.6836  0.3019  0.9580
19296SOL    HW259502   3.437   2.570   2.498 -0.6654  0.0400  0.9519
19297SOL     OW59503   1.039   3.410   4.458 -0.0106  0.8532  0.3327
19297SOL    HW159504   1.035   3.399   4.363  3.5053 -1.6796  0.3228
19297SOL    HW259505   1.075   3.498   4.470  1.8375  0.2914 -0.8022
19298SOL     OW59506   7.076   6.419   2.460 -0.1001  0.2192  0.4721
19298SOL    HW159507   7.138   6.437   2.390 -1.8204 -0.5595 -1.3439
19298SOL    HW259508   7.068   6.502   2.508 -0.6964  1.5465 -1.7856
19299SOL     OW59509   7.042   7.303   4.571  0.3074  0.4905 -0.3809
19299SOL    HW159510   7.110   7.287   4.505  1.6974  0.0948  1.0974
19299SOL    HW259511   7.017   7.215   4.600 -1.2012  0.6106 -1.2285
19300SOL     OW59512   6.841   8.946   4.389 -0.2451 -0.3755  0.2470
19300SOL    HW159513   6.823   9.033   4.354  1.4798  0.1606  0.6330
19300SOL    HW259514   6.834   8.887   4.314 -0.8281  0.1673 -0.1302
19301SOL     OW59515   6.238   1.613   9.567 -0.2902 -0.4687  1.0302
19301SOL    HW159516   6.202   1.544   9.511 -0.1681 -0.4738  0.9577
19301SOL    HW259517   6.310   1.570   9.614 -0.2266 -0.3960  0.9996
19302SOL     OW59518   3.814   2.204   2.360 -0.1341 -0.4695 -0.0479
19302SOL    HW159519   3.763   2.141   2.310 -2.2874  1.1332 -0.0403
19302SOL    HW259520   3.812   2.284   2.307  1.2373  0.0426  0.6141
19303SOL     OW59521   7.626   1.488   5.128 -0.2602  0.2625 -0.2943
19303SOL    HW159522   7.683   1.426   5.172 -0.5757  0.0353 -0.2026
19303SOL    HW259523   7.678   1.520   5.054  1.0678  2.1898  1.3594
19304SOL     OW59524   5.494   0.601   2.819  0.6927  0.3060  0.8357
19304SOL    HW159525   5.550   0.593   2.742 -2.5292  0.8737 -1.8101
19304SOL    HW259526   5.451   0.516   2.826  0.1266  0.6256  1.2937
19305SOL     OW59527   9.245   2.893   1.149  0.4980 -0.3222 -0.0692
19305SOL    HW159528   9.318   2.839   1.182 -0.0790 -0.8142  0.4235
19305SOL    HW259529   9.166   2.848   1.179 -0.0910 -0.9279 -2.3432
19306SOL     OW59530   1.060   1.603   3.921  0.3185 -0.0705 -0.0002
19306SOL    HW159531   1.001   1.539   3.960 -3.5071  3.0568  0.0345
19306SOL    HW259532   1.051   1.590   3.826 -2.2380  1.5936 -0.0849
19307SOL     OW59533   7.184   5.135   5.181 -0.4266  0.6502  0.5361
19307SOL    HW159534   7.134   5.166   5.256 -2.2776 -0.9757  0.0582
19307SOL    HW259535   7.188   5.040   5.191 -2.0199  0.1907 -2.0843
19308SOL     OW59536   5.032   5.981   0.073  0.1461 -0.1066 -1.0072
19308SOL    HW159537   4.975   5.924   0.125 -0.5255  0.6761 -0.8446
19308SOL    HW259538   4.971   6.030   0.016  0.4400  1.9731  0.3477
19309SOL     OW59539   6.712   0.944   0.447  0.1923 -0.4668  0.7333
19309SOL    HW159540   6.691   0.861   0.490 -0.3027  0.2851  1.9800
19309SOL    HW259541   6.627   0.978   0.419  0.2436  0.2214  1.3818
19310SOL     OW59542   5.541   5.033   8.444 -0.1809 -0.3213  0.6141
19310SOL    HW159543   5.570   4.996   8.361  1.1588 -1.3323  1.4778
19310SOL    HW259544   5.546   5.127   8.431  1.2673 -0.4621 -0.0649
19311SOL     OW59545   7.871   8.500   9.371  0.1746  0.1131 -0.3850
19311SOL    HW159546   7.927   8.560   9.420  1.5456 -0.5594 -1.0736
19311SOL    HW259547   7.806   8.471   9.435  1.1993  0.1761  0.7219
19312SOL     OW59548   9.121   8.255   4.665 -0.1507  0.4260  0.1949
19312SOL    HW159549   9.163   8.189   4.609  0.0547  1.2451 -0.6432
19312SOL    HW259550   9.135   8.338   4.619  0.7621  1.2569  1.8648
19313SOL     OW59551   9.023   8.634   0.960  0.3401 -0.4602 -0.5326
19313SOL    HW159552   9.029   8.543   0.929  0.8474 -0.7397  0.3432
19313SOL    HW259553   9.106   8.649   1.005 -0.7921 -0.4784  1.6829
19314SOL     OW59554   6.789   2.324   0.980  0.8123 -0.0656 -0.1221
19314SOL    HW159555   6.803   2.325   1.075  0.2172  1.1390 -0.0313
19314SOL    HW259556   6.819   2.410   0.951 -1.7594  0.7549 -0.5884
19315SOL     OW59557   5.361   9.761   1.585 -0.1662  0.1613 -0.0470
19315SOL    HW159558   5.354   9.669   1.612  1.9777 -0.3121 -0.8967
19315SOL    HW259559   5.406   9.758   1.501  0.5189  2.0377  0.2034
19316SOL     OW59560   3.928   9.751   3.666 -0.3522  0.5122 -0.1600
19316SOL    HW159561   3.891   9.720   3.583 -0.8232 -1.1413  0.6221
19316SOL    HW259562   3.865   9.721   3.732  1.4783 -0.8550  1.0440
19317SOL     OW59563   9.307   8.345   6.322  0.1913  0.0050 -0.0060
19317SOL    HW159564   9.278   8.278   6.383 -0.3950 -0.7700 -1.0997
19317SOL    HW259565   9.239   8.349   6.255  0.6506  1.0610 -0.4494
19318SOL     OW59566   6.550   0.043   2.079 -0.2577 -0.6163 -0.8995
19318SOL    HW159567   6.535   0.010   1.990 -1.1742  0.3395 -1.1150
19318SOL    HW259568   6.489   0.116   2.089  1.3411  0.7255 -0.2753
19319SOL     OW59569   4.944   0.238   1.730 -0.3707 -0.1902  0.1070
19319SOL    HW159570   4.927   0.177   1.658 -1.1232  0.8591 -0.6318
19319SOL    HW259571   5.013   0.196   1.780 -0.1315 -1.1625 -0.9763
19320SOL     OW59572   6.757   1.014   2.782  0.3454 -0.5025 -0.6386
19320SOL    HW159573   6.688   1.067   2.820  1.8487  1.3113 -0.2806
19320SOL    HW259574   6.733   0.924   2.804 -0.6830  0.2321  1.5198
19321SOL     OW59575   8.292   6.029   5.611  0.3035  0.3045  0.1792
19321SOL    HW159576   8.347   6.025   5.533  0.3252  0.3061  0.1943
19321SOL    HW259577   8.204   6.045   5.578 -0.0235 -1.6181  0.0194
19322SOL     OW59578   8.366   5.472   5.584 -0.2011  0.0006 -0.2410
19322SOL    HW159579   8.401   5.446   5.669  0.0393  1.5560  0.1766
19322SOL    HW259580   8.271   5.461   5.593 -0.3188  1.5023  0.7779
19323SOL     OW59581   8.929   8.671   8.443  0.0907 -0.2426 -0.7577
19323SOL    HW159582   8.850   8.632   8.479 -0.2869  1.0787 -0.0981
19323SOL    HW259583   8.914   8.765   8.446  2.8487  0.2887  2.3400
19324SOL     OW59584   3.052   3.060   0.731  0.8664  0.2429  0.1148
19324SOL    HW159585   3.126   3.007   0.703  0.5622 -0.5755  0.8073
19324SOL    HW259586   3.025   3.107   0.653  1.2462 -0.5117 -0.4797
19325SOL     OW59587   0.624   5.743   0.082 -0.4296  0.1840 -0.1389
19325SOL    HW159588   0.667   5.811   0.134 -0.0655 -0.7756  0.8587
19325SOL    HW259589   0.533   5.773   0.076 -0.3557  0.5896  0.5835
19326SOL     OW59590   6.107   6.099   5.463 -0.1367 -0.3214  0.3259
19326SOL    HW159591   6.194   6.134   5.486 -0.3887  1.4322 -1.2229
19326SOL    HW259592   6.054   6.116   5.541  0.7388 -0.8817  1.0734
19327SOL     OW59593   7.331   6.625   5.733  0.1250 -0.3093  0.1032
19327SOL    HW159594   7.271   6.626   5.659 -0.1635 -0.6347  0.3309
19327SOL    HW259595   7.282   6.583   5.804  0.3757  0.0421  0.4961
19328SOL     OW59596   0.298   2.319   6.784  0.3210  0.2258 -0.0685
19328SOL    HW159597   0.207   2.344   6.798 -0.0506 -0.1670 -1.5791
19328SOL    HW259598   0.294   2.228   6.754  1.2119  0.1952 -0.1284
19329SOL     OW59599   5.568   5.856   6.172  0.1999 -0.0646  0.1011
19329SOL    HW159600   5.547   5.766   6.197 -2.7130 -0.2156 -2.2226
19329SOL    HW259601   5.657   5.852   6.137  0.2696 -1.9636  0.4264
19330SOL     OW59602   3.431   1.664   8.306  0.1623 -0.1927  0.5075
19330SOL    HW159603   3.336   1.650   8.300  0.1008  0.7082 -1.6797
19330SOL    HW259604   3.459   1.675   8.215  1.8375  2.7939  1.2493
19331SOL     OW59605   6.282   6.896   7.191 -0.2118  0.0601 -0.1065
19331SOL    HW159606   6.265   6.941   7.109  0.4955 -0.9810 -0.8665
19331SOL    HW259607   6.313   6.809   7.164  0.9612  0.0195  1.2357
19332SOL     OW59608   4.117   9.114   9.234  0.5751 -0.0528 -0.3044
19332SOL    HW159609   4.147   9.189   9.182 -0.2379 -0.0269 -0.7445
19332SOL    HW259610   4.196   9.059   9.244  1.3091  1.0865  0.4662
19333SOL     OW59611   0.109   4.318   1.475  0.0461  0.1924  0.1691
19333SOL    HW159612   0.107   4.408   1.508  0.4744 -0.0341  0.8214
19333SOL    HW259613   0.194   4.284   1.503  0.5024  0.0369 -1.2938
19334SOL     OW59614   7.258   8.251   0.727 -0.4893  0.4367 -0.2455
19334SOL    HW159615   7.251   8.176   0.668  4.2821  0.5071 -1.3519
19334SOL    HW259616   7.228   8.325   0.675 -0.7203 -0.0947 -0.8904
19335SOL     OW59617   9.843   2.344   7.548  0.0440  0.3445  0.0652
19335SOL    HW159618   9.806   2.326   7.635  0.9810 -0.1086  0.3794
19335SOL    HW259619   9.820   2.436   7.531  0.0181  0.4971  0.8749
19336SOL     OW59620   3.023   9.647   6.540  0.1250  0.1027 -0.4153
19336SOL    HW159621   2.940   9.600   6.552  1.0709 -0.9538  3.0764
19336SOL    HW259622   3.078   9.584   6.492 -0.0773 -0.5236  0.1534
19337SOL     OW59623   5.735   6.163   0.446 -0.2664  0.1810  0.1009
19337SOL    HW159624   5.826   6.191   0.433  0.0427 -1.1016 -0.6048
19337SOL    HW259625   5.701   6.225   0.511  1.4575 -0.0130  1.2730
19338SOL     OW59626   1.736   8.959   5.103 -0.3108  0.1096 -0.5651
19338SOL    HW159627   1.764   8.894   5.167  0.0417  0.7045 -0.1053
19338SOL    HW259628   1.654   8.993   5.138  0.1619  0.8285 -0.1381
19339SOL     OW59629   0.856   2.997   9.037  0.0229  0.4637 -0.6228
19339SOL    HW159630   0.836   2.924   9.095 -0.4381  1.6009  0.7116
19339SOL    HW259631   0.912   3.055   9.089  0.5632  0.9629 -1.7234
19340SOL     OW59632   6.514   6.311   8.642  0.3157  0.4459 -0.3695
19340SOL    HW159633   6.504   6.349   8.729  1.6309  0.7323 -0.3328
19340SOL    HW259634   6.489   6.219   8.652  0.4135  0.4906  0.2950
19341SOL     OW59635   9.418   4.307   4.682  0.2412  0.1010  0.1247
19341SOL    HW159636   9.504   4.349   4.677  0.7702 -0.9688 -0.1845
19341SOL    HW259637   9.438   4.214   4.692 -0.8889 -0.1405  0.2549
19342SOL     OW59638   2.482   4.830   3.510  0.3093  0.8045 -0.4128
19342SOL    HW159639   2.577   4.823   3.508  0.3460  1.0611  0.1191
19342SOL    HW259640   2.450   4.740   3.504  0.5134  0.8208 -2.8830
19343SOL     OW59641   5.899   1.481   4.438  0.6900  0.0064 -0.2099
19343SOL    HW159642   5.994   1.473   4.442  0.5740 -2.3484 -1.0132
19343SOL    HW259643   5.872   1.492   4.529  1.7778  2.4638 -0.0869
19344SOL     OW59644   9.225   3.671   1.398 -0.2334  0.0622 -0.4491
19344SOL    HW159645   9.199   3.762   1.387 -0.6109  0.4391  2.5903
19344SOL    HW259646   9.158   3.620   1.352 -1.7733  1.2486  0.4013
19345SOL     OW59647   0.128   2.990   2.026  0.0079 -0.5365 -0.1057
19345SOL    HW159648   0.077   2.949   1.956  1.4183  1.5748 -2.5248
19345SOL    HW259649   0.063   3.037   2.079 -0.8152  0.5169 -1.9783
19346SOL     OW59650   8.140   8.911   8.598 -0.0936 -0.3426 -0.3592
19346SOL    HW159651   8.052   8.936   8.624 -1.0321 -0.7795 -2.8244
19346SOL    HW259652   8.184   8.994   8.578 -1.0489 -0.2211 -2.1845
19347SOL     OW59653   5.904   6.110   9.387  0.4435 -0.0445  0.1931
19347SOL    HW159654   5.886   6.153   9.470  0.0767 -1.2276  0.7629
19347SOL    HW259655   5.998   6.093   9.388  0.5371  0.4692  0.0998
19348SOL     OW59656   5.790   4.348   7.175  0.4966  0.2294 -0.1207
19348SOL    HW159657   5.820   4.262   7.147  0.1703 -0.0671  0.4313
19348SOL    HW259658   5.769   4.394   7.094  1.9481  0.2667 -0.5092
19349SOL     OW59659   9.169   3.864   4.075  0.0788  0.7542 -0.0707
19349SOL    HW159660   9.259   3.833   4.078 -0.2588 -0.4704 -1.3531
19349SOL    HW259661   9.161   3.906   3.990 -0.4608  1.2491  0.2139
19350SOL     OW59662   7.460   5.583   2.575  0.0603 -0.1851 -0.1261
19350SOL    HW159663   7.400   5.535   2.632  0.1704  1.4848  1.5420
19350SOL    HW259664   7.410   5.601   2.496 -1.1694 -0.0841  0.6420
19351SOL     OW59665   4.025   6.563   7.104  0.7387 -0.9026 -0.8429
19351SOL    HW159666   4.082   6.512   7.046 -0.5812 -1.7745 -1.4336
19351SOL    HW259667   4.016   6.509   7.183  1.8224 -0.1220 -0.1608
19352SOL     OW59668   3.677   5.216   2.124 -0.0375  0.4050  0.2793
19352SOL    HW159669   3.771   5.201   2.110  0.1222  0.9076  0.7685
19352SOL    HW259670   3.658   5.298   2.078 -0.7697 -0.8742 -1.8410
19353SOL     OW59671   8.325   4.114   6.109 -0.3689  0.4959  0.1593
19353SOL    HW159672   8.357   4.024   6.104  2.6577  1.5088 -0.3905
19353SOL    HW259673   8.280   4.128   6.025  1.9937  0.4115 -1.2159
19354SOL     OW59674   1.767   2.246   5.732 -0.7956  1.1741 -0.1812
19354SOL    HW159675   1.855   2.271   5.762 -1.2295  0.3224  2.0317
19354SOL    HW259676   1.783   2.180   5.664  0.2685  1.7943 -0.5641
19355SOL     OW59677   0.814   7.158   5.389  0.4860 -0.0651  0.1593
19355SOL    HW159678   0.841   7.130   5.476 -0.2273  0.2185  0.4722
19355SOL    HW259679   0.860   7.241   5.375 -1.7752  1.5229  1.5556
19356SOL     OW59680   7.356   3.478   6.110  0.3322  0.3278  0.7596
19356SOL    HW159681   7.431   3.453   6.056  0.1635  2.9871 -0.8905
19356SOL    HW259682   7.291   3.409   6.095  0.9656  0.0690 -1.0908
19357SOL     OW59683   8.916   0.247   3.280  0.3582 -0.0008  0.2455
19357SOL    HW159684   8.863   0.201   3.215  0.7988  1.5454 -1.2897
19357SOL    HW259685   8.853   0.276   3.346 -0.3118 -0.4705 -0.1692
19358SOL     OW59686   7.428   7.424   5.453 -0.0270  0.8408  0.1418
19358SOL    HW159687   7.488   7.381   5.392 -2.4476 -1.0130 -1.1132
19358SOL    HW259688   7.469   7.413   5.539  2.0981  1.0048 -0.7913
19359SOL     OW59689   1.402   2.668   8.500 -0.0237  0.2483 -0.1833
19359SOL    HW159690   1.493   2.697   8.494  0.5311 -1.6663 -2.1804
19359SOL    HW259691   1.405   2.590   8.556 -0.3716 -0.0783 -0.6137
19360SOL     OW59692   6.447   6.297   7.174 -0.5278  0.0689 -0.6696
19360SOL    HW159693   6.376   6.252   7.220 -0.2859 -0.0906 -0.4464
19360SOL    HW259694   6.411   6.320   7.089 -0.2491 -1.7391 -1.3196
19361SOL     OW59695   3.941   9.132   6.073  0.5079 -0.1154  0.1129
19361SOL    HW159696   3.893   9.141   6.155 -0.6675 -1.0236 -0.4358
19361SOL    HW259697   3.938   9.038   6.054  1.0707  0.0371 -0.7921
19362SOL     OW59698   7.456   6.025   3.798 -0.4034  0.6332 -0.3986
19362SOL    HW159699   7.547   6.043   3.771  0.3222 -0.6700  1.0190
19362SOL    HW259700   7.464   5.952   3.860 -2.6367 -1.0924 -1.9858
19363SOL     OW59701   5.808   6.928   1.957 -0.0818  0.4519  0.7735
19363SOL    HW159702   5.856   6.856   1.916  1.2273  1.7052 -0.0046
19363SOL    HW259703   5.750   6.960   1.888 -3.0244 -1.7474  2.0208
19364SOL     OW59704   6.979   8.225   9.501 -0.0937 -0.2498 -0.2194
19364SOL    HW159705   6.923   8.237   9.424 -0.1737 -0.8199 -0.2510
19364SOL    HW259706   6.991   8.314   9.536  0.1251  0.0403 -1.0158
19365SOL     OW59707   8.585   0.403   2.172 -0.2303  0.5464  0.1436
19365SOL    HW159708   8.591   0.349   2.251  1.4952  0.4671  0.0014
19365SOL    HW259709   8.676   0.419   2.148 -0.7173 -0.0455 -2.2734
19366SOL     OW59710   4.858   4.653   1.740 -0.2886 -0.0804  0.2871
19366SOL    HW159711   4.839   4.663   1.646  1.3642  1.0179  0.0105
19366SOL    HW259712   4.874   4.742   1.770 -1.3034 -0.3691  1.7707
19367SOL     OW59713   4.813   4.135   4.147 -0.1753 -0.2090  0.0580
19367SOL    HW159714   4.842   4.110   4.235 -1.2946 -1.1252  0.1915
19367SOL    HW259715   4.889   4.118   4.091  1.4944  2.8768  1.1432
19368SOL     OW59716   4.167   7.192   2.841  0.6000 -0.3351  0.1191
19368SOL    HW159717   4.108   7.244   2.896  2.8771  1.5104  0.9921
19368SOL    HW259718   4.171   7.241   2.758  1.0007 -0.3855  0.1107
19369SOL     OW59719   8.028   9.694   7.287  0.0173  0.3669 -0.1679
19369SOL    HW159720   8.055   9.698   7.379  1.7809  0.8208 -0.6696
19369SOL    HW259721   7.936   9.670   7.290  0.1976 -0.2221  1.7012
19370SOL     OW59722   6.461   3.213   3.277  0.1674  0.1360 -0.2981
19370SOL    HW159723   6.548   3.196   3.242 -0.4176 -0.0349 -1.7500
19370SOL    HW259724   6.401   3.190   3.206 -1.0650  0.4079  0.6028
19371SOL     OW59725   1.636   5.881   5.491  0.2675 -0.0258  0.3635
19371SOL    HW159726   1.701   5.925   5.436  1.1398 -1.6430  0.0290
19371SOL    HW259727   1.634   5.932   5.572  2.0283  0.0542  0.4025
19372SOL     OW59728   2.547   1.388   5.046  0.3166 -0.2947  0.2854
19372SOL    HW159729   2.637   1.405   5.074  0.5316 -0.5733 -0.2256
19372SOL    HW259730   2.493   1.412   5.122  0.7596  0.6247  0.3236
19373SOL     OW59731   3.794   1.540   4.944 -0.1616  0.4747 -0.7329
19373SOL    HW159732   3.776   1.626   4.980  2.1508 -0.1294  2.3078
19373SOL    HW259733   3.888   1.540   4.926 -0.1522 -1.3196 -0.9426
19374SOL     OW59734   7.357   9.762   4.603  1.0942  0.3767  0.0856
19374SOL    HW159735   7.312   9.716   4.532  0.7020 -2.2219  1.8779
19374SOL    HW259736   7.352   9.854   4.579 -3.9811  0.2092 -0.5933
19375SOL     OW59737   5.675   8.670   1.356 -0.0620  0.1567  0.2727
19375SOL    HW159738   5.760   8.698   1.319 -0.3765 -1.0660 -1.4939
19375SOL    HW259739   5.689   8.579   1.381 -1.5735 -1.0509 -2.7853
19376SOL     OW59740   0.074   4.209   4.636 -0.5485 -0.1136 -0.1038
19376SOL    HW159741   0.013   4.212   4.563  0.5801  2.5602 -1.0654
19376SOL    HW259742   0.021   4.230   4.713 -1.0725  1.2059 -0.7830
19377SOL     OW59743   1.937   4.054   3.941  0.1341  0.4132 -0.2518
19377SOL    HW159744   1.856   4.021   3.900 -0.7805  0.6601  1.2860
19377SOL    HW259745   1.973   4.115   3.877 -0.4302 -0.3457 -1.3266
19378SOL     OW59746   6.952   8.467   0.958 -0.0331  0.0239  0.1405
19378SOL    HW159747   7.010   8.391   0.958 -1.1960 -0.9149  1.3741
19378SOL    HW259748   6.867   8.433   0.928 -0.5247  0.8662  0.5284
19379SOL     OW59749   2.203   6.162   7.721 -0.1952  1.0211 -0.0741
19379SOL    HW159750   2.115   6.194   7.741 -1.0493 -1.5311  0.6052
19379SOL    HW259751   2.214   6.085   7.778  2.9646  1.9293  0.7599
19380SOL     OW59752   9.001   7.698   1.923  0.1215 -0.0882 -0.4915
19380SOL    HW159753   8.926   7.757   1.908 -0.8524 -1.3563 -0.7429
19380SOL    HW259754   8.970   7.637   1.989  1.3062 -0.0236  0.1456
19381SOL     OW59755   6.143   7.664   6.124  0.2415 -0.0955  0.8164
19381SOL    HW159756   6.235   7.690   6.121  0.2322 -0.0717  0.7071
19381SOL    HW259757   6.146   7.569   6.133  0.2773 -0.0952  0.8091
19382SOL     OW59758   8.807   9.735   8.334  0.4074 -0.4670 -0.0816
19382SOL    HW159759   8.898   9.738   8.306  0.4013  0.2736 -0.0340
19382SOL    HW259760   8.779   9.826   8.335  0.0331 -0.5794  1.0963
19383SOL     OW59761   4.736   2.182   5.062 -0.0544 -0.1077  0.0841
19383SOL    HW159762   4.710   2.115   5.126 -1.4436  0.1025 -0.2349
19383SOL    HW259763   4.716   2.142   4.978 -0.1141  0.3934 -0.1378
19384SOL     OW59764   8.688   8.817   8.743 -0.5081  0.2812 -0.1195
19384SOL    HW159765   8.691   8.725   8.715 -1.6531 -0.0373  0.7405
19384SOL    HW259766   8.596   8.843   8.732 -0.4433  0.9515  0.7754
19385SOL     OW59767   7.415   5.138   4.862  0.5046  0.5811 -0.0840
19385SOL    HW159768   7.437   5.066   4.803  1.1296  0.9659 -0.3224
19385SOL    HW259769   7.319   5.142   4.860  0.3087 -1.4356  1.3499
19386SOL     OW59770   4.314   1.763   5.203 -0.1550 -0.0569  0.6443
19386SOL    HW159771   4.358   1.732   5.124 -0.4418  0.1687  0.3954
19386SOL    HW259772   4.266   1.841   5.175 -1.0123 -0.5121  0.8304
19387SOL     OW59773   3.286   7.316   6.170 -0.0586  0.9238  0.0927
19387SOL    HW159774   3.329   7.300   6.085 -0.1594  1.7595 -0.1168
19387SOL    HW259775   3.253   7.230   6.195  1.3936  0.3181  0.0724
19388SOL     OW59776   9.360   4.086   7.811  0.3583 -0.0053 -0.0528
19388SOL    HW159777   9.421   4.055   7.879 -1.5715  1.4150  2.4910
19388SOL    HW259778   9.366   4.181   7.816  0.9172  0.1685 -2.7168
19389SOL     OW59779   5.322   9.002   9.590  0.5795 -0.6269  0.1052
19389SOL    HW159780   5.382   8.931   9.572  1.7202  0.2813  0.2428
19389SOL    HW259781   5.333   9.063   9.517  1.4079  0.5503  1.1638
19390SOL     OW59782   7.626   9.681   2.087 -0.6238 -0.1314 -0.1029
19390SOL    HW159783   7.590   9.768   2.073 -1.7539  0.0430  3.1292
19390SOL    HW259784   7.704   9.695   2.140 -0.1872 -1.0366 -0.4846
19391SOL     OW59785   4.358   8.276   4.832  0.1213  0.2788 -0.4888
19391SOL    HW159786   4.443   8.293   4.791 -1.2237  0.8923 -3.2109
19391SOL    HW259787   4.320   8.204   4.782 -1.4394  0.7858 -0.0969
19392SOL     OW59788   1.350   4.559   3.992  0.6439  0.1962 -0.6553
19392SOL    HW159789   1.431   4.559   4.042  0.2681  2.0282  0.0260
19392SOL    HW259790   1.344   4.647   3.955 -0.7493 -0.0788 -1.1573
19393SOL     OW59791   6.827   1.533   4.100  0.1555 -0.5362 -0.3554
19393SOL    HW159792   6.833   1.553   4.006  0.9450  0.3329 -0.1434
19393SOL    HW259793   6.734   1.528   4.117 -0.0069 -0.4183 -1.1342
19394SOL     OW59794   1.292   9.083   2.109  0.1767  0.0931 -0.4597
19394SOL    HW159795   1.261   9.169   2.080  1.6675  0.6554 -0.4958
19394SOL    HW259796   1.247   9.067   2.191 -1.1646  0.2610 -1.1385
19395SOL     OW59797   5.934   6.383   6.412 -0.4505 -0.1745  0.5730
19395SOL    HW159798   6.019   6.360   6.375  0.4323  3.4480 -0.0360
19395SOL    HW259799   5.952   6.401   6.505 -1.4222 -3.1359  1.4276
19396SOL     OW59800   2.336   8.978   9.015  0.7877 -0.1041  0.5250
19396SOL    HW159801   2.298   9.050   9.065  2.6591  1.8563 -0.7170
19396SOL    HW259802   2.335   8.904   9.076 -0.3495  1.1820  2.1705
19397SOL     OW59803   2.143   5.086   2.568 -0.8021 -0.0868  0.2960
19397SOL    HW159804   2.083   5.038   2.625 -0.5289 -0.2076  0.4851
19397SOL    HW259805   2.134   5.177   2.595  0.9886 -0.3721  2.1279
19398SOL     OW59806   3.395   1.787   1.511  0.0500  0.4016 -0.3201
19398SOL    HW159807   3.310   1.776   1.552 -0.2408  2.8096 -0.1418
19398SOL    HW259808   3.457   1.793   1.585 -0.0833  1.7673 -0.2883
19399SOL     OW59809   6.850   1.050   6.312  0.7103  0.3421 -0.3860
19399SOL    HW159810   6.904   1.079   6.384 -0.4655 -1.7573  1.4905
19399SOL    HW259811   6.912   1.015   6.247  1.7196 -1.9855  1.6790
19400SOL     OW59812   8.920   9.584   3.559 -0.2347 -0.5517  0.1443
19400SOL    HW159813   8.983   9.548   3.621  0.6381  0.3698 -0.1784
19400SOL    HW259814   8.904   9.513   3.497 -0.1038 -1.0411  0.6589
19401SOL     OW59815   7.048   6.197   7.766 -0.3342 -0.4277 -0.3987
19401SOL    HW159816   7.029   6.118   7.715  0.4968 -1.7956  1.2995
19401SOL    HW259817   7.013   6.178   7.853  0.2287  0.9364  0.1530
19402SOL     OW59818   5.965   6.572   9.804 -0.5535  0.2241  0.2584
19402SOL    HW159819   5.882   6.593   9.848 -1.2455  0.2333 -1.0227
19402SOL    HW259820   5.943   6.569   9.711  0.4982 -1.5590  0.0148
19403SOL     OW59821   0.338   1.052   3.116  0.7752  0.5580  0.3169
19403SOL    HW159822   0.406   1.024   3.055  1.0188 -2.4627  1.8227
19403SOL    HW259823   0.268   0.988   3.105 -1.1994  2.6471 -0.0073
19404SOL     OW59824   0.017   3.927   4.573 -0.1129  0.4951 -0.0203
19404SOL    HW159825   0.072   4.000   4.602  1.1837 -0.9020  1.2007
19404SOL    HW259826   0.078   3.865   4.534 -1.0796 -0.3081 -0.2959
19405SOL     OW59827   4.627   4.396   3.668  0.0870 -1.1094  0.2937
19405SOL    HW159828   4.642   4.411   3.761  0.2654 -2.0699  0.4206
19405SOL    HW259829   4.574   4.471   3.641  1.1978 -0.0828  0.8476
19406SOL     OW59830   5.400   6.997   6.222  0.3918  0.2775  0.0105
19406SOL    HW159831   5.395   6.923   6.283 -1.2269 -0.9230 -1.4698
19406SOL    HW259832   5.396   6.957   6.135  1.4336  2.0069 -0.8884
19407SOL     OW59833   0.848   1.599   7.429 -0.6262  0.3488 -1.1919
19407SOL    HW159834   0.806   1.569   7.509  0.4804  1.2612 -0.2350
19407SOL    HW259835   0.776   1.605   7.365 -1.4184 -0.9675 -0.4591
19408SOL     OW59836   1.799   5.673   7.754 -0.1292 -0.0862  0.5957
19408SOL    HW159837   1.731   5.653   7.690 -1.2806 -0.5606  1.9157
19408SOL    HW259838   1.760   5.741   7.809  1.6256  1.8579 -0.4278
19409SOL     OW59839   7.952   8.791   6.409  0.0832  0.8492 -0.5286
19409SOL    HW159840   8.042   8.789   6.376  1.4476  0.5563  2.7789
19409SOL    HW259841   7.945   8.877   6.452 -1.9331  1.6544 -2.2913
19410SOL     OW59842   7.621   9.304   1.266 -0.2273  0.1884 -0.1992
19410SOL    HW159843   7.671   9.263   1.336 -0.8246 -0.1946  0.0042
19410SOL    HW259844   7.545   9.247   1.253 -0.6208  0.7681 -0.4952
19411SOL     OW59845   6.482   4.156   0.570  0.1607 -0.1304  0.2118
19411SOL    HW159846   6.560   4.102   0.584 -1.4932 -3.5936 -2.3357
19411SOL    HW259847   6.423   4.133   0.642 -1.1789 -3.3712 -1.7028
19412SOL     OW59848   8.684   1.694   7.579 -0.2787 -0.2587 -0.6291
19412SOL    HW159849   8.737   1.756   7.529  0.2960  0.1021  0.4004
19412SOL    HW259850   8.684   1.615   7.526 -1.4414  0.7413 -2.2088
19413SOL     OW59851   5.182   0.763   9.314 -0.4238  0.0678  0.6903
19413SOL    HW159852   5.257   0.760   9.254 -1.0002  0.6267 -0.0688
19413SOL    HW259853   5.205   0.831   9.378 -0.7237  0.9736 -0.1491
19414SOL     OW59854   3.386   5.028   0.038  0.5921 -0.3488  0.0253
19414SOL    HW159855   3.331   4.982   0.102  0.7691 -0.1192  0.3517
19414SOL    HW259856   3.333   5.103   0.012 -0.8335 -2.1222 -2.5559
19415SOL     OW59857   6.712   8.882   3.287 -0.0542  0.0012 -0.3528
19415SOL    HW159858   6.741   8.794   3.311 -1.5575 -0.1779  0.9826
19415SOL    HW259859   6.780   8.941   3.319  0.8645 -0.6490 -1.0752
19416SOL     OW59860   4.698   4.780   6.545  0.1416  0.0991 -0.4591
19416SOL    HW159861   4.773   4.835   6.522  1.4643  0.0406  3.0774
19416SOL    HW259862   4.737   4.696   6.570 -1.1016 -0.0946  0.9775
19417SOL     OW59863   3.064   0.345   8.694 -0.2543 -0.3735  0.2297
19417SOL    HW159864   2.972   0.351   8.718 -0.1692  0.7211  0.2928
19417SOL    HW259865   3.111   0.375   8.772  0.0791  1.4290 -0.6295
19418SOL     OW59866   0.841   7.881   1.128  0.3897 -0.3529  0.1966
19418SOL    HW159867   0.896   7.851   1.056  0.7203 -2.0635  1.1161
19418SOL    HW259868   0.896   7.943   1.176  0.4039  0.2802 -0.6070
19419SOL     OW59869   6.372   3.997   5.199 -0.0656 -0.2004  0.0174
19419SOL    HW159870   6.405   3.912   5.230  0.8494 -0.3824 -1.3385
19419SOL    HW259871   6.417   4.062   5.253 -0.3984 -0.5594  0.7365
19420SOL     OW59872   8.278   8.049   4.357 -0.0967  0.2935 -0.0855
19420SOL    HW159873   8.197   8.013   4.321 -0.3798  1.3326 -0.5307
19420SOL    HW259874   8.348   7.998   4.316 -0.5215 -1.2240  0.9892
19421SOL     OW59875   6.751   2.191   6.770  0.3361 -0.0655 -0.2225
19421SOL    HW159876   6.763   2.222   6.681  0.5227  0.9032  0.1358
19421SOL    HW259877   6.660   2.212   6.791  0.1454 -0.7348 -0.3457
19422SOL     OW59878   7.509   0.463   8.320 -0.3844  0.1144  0.2187
19422SOL    HW159879   7.434   0.404   8.329 -0.7086  0.4823 -0.0933
19422SOL    HW259880   7.485   0.540   8.371 -0.7898  0.7919 -0.9781
19423SOL     OW59881   2.692   3.331   3.484 -0.5170  0.8973 -0.1624
19423SOL    HW159882   2.672   3.385   3.561  1.6570  3.2307 -1.0726
19423SOL    HW259883   2.619   3.347   3.425 -0.2125  2.4928 -0.1755
19424SOL     OW59884   2.283   8.194   4.126 -0.4748 -0.0447  0.3878
19424SOL    HW159885   2.240   8.136   4.063 -0.8939  0.1173  0.5200
19424SOL    HW259886   2.352   8.237   4.076 -0.6377 -0.1090  0.1045
19425SOL     OW59887   7.619   5.589   0.665 -0.4999  0.0548  0.0747
19425SOL    HW159888   7.662   5.520   0.714  0.7137 -0.5675 -1.7679
19425SOL    HW259889   7.526   5.575   0.680 -0.3391 -2.5484 -0.9195
19426SOL     OW59890   1.102   3.140   7.048  0.3112 -0.1753 -0.1024
19426SOL    HW159891   1.023   3.192   7.067  0.1230 -0.7527  0.7588
19426SOL    HW259892   1.091   3.113   6.957 -0.0853  0.4344 -0.2489
19427SOL     OW59893   3.191   5.098   0.789  0.1815  0.5762 -0.6774
19427SOL    HW159894   3.188   5.138   0.702  0.1108 -0.7650 -1.3181
19427SOL    HW259895   3.116   5.039   0.792  0.1469  0.6464  0.3207
19428SOL     OW59896   4.215   6.058   1.707  0.1848  0.2796  0.4227
19428SOL    HW159897   4.184   6.028   1.622 -0.0189  1.1127  0.1869
19428SOL    HW259898   4.288   6.117   1.686  1.6971 -1.3116  0.9462
19429SOL     OW59899   2.533   0.141   3.044 -0.2267 -0.3027 -0.0747
19429SOL    HW159900   2.597   0.183   2.986 -1.1376  0.7414 -0.3518
19429SOL    HW259901   2.571   0.055   3.062  0.2823 -0.5064 -1.8758
19430SOL     OW59902   5.568   3.395   4.396 -0.8073 -0.5859  0.7690
19430SOL    HW159903   5.531   3.369   4.480 -0.6489 -2.8659  0.1875
19430SOL    HW259904   5.623   3.321   4.370  0.1512  0.6054 -0.7607
19431SOL     OW59905   8.737   1.690   9.294  0.0426 -0.4506 -0.7687
19431SOL    HW159906   8.651   1.649   9.306 -0.5963  1.2574  0.9944
19431SOL    HW259907   8.799   1.623   9.322 -0.9744 -0.3082  2.1762
19432SOL     OW59908   3.958   2.980   6.712 -0.0784  0.4113 -0.9602
19432SOL    HW159909   3.929   2.990   6.621  0.4329  0.5414 -1.1091
19432SOL    HW259910   4.036   3.035   6.719  1.5565 -1.7029 -1.2334
19433SOL     OW59911   6.723   6.412   4.039  0.7806  0.3017 -0.1399
19433SOL    HW159912   6.746   6.504   4.023  0.1100  0.5847  0.4747
19433SOL    HW259913   6.704   6.408   4.132 -2.7709  0.3876 -0.7188
19434SOL     OW59914   6.728   5.852   7.150  0.2514  0.1885  0.4632
19434SOL    HW159915   6.651   5.888   7.106 -0.1245 -0.4771  0.5623
19434SOL    HW259916   6.755   5.921   7.212  0.0577  0.6354  0.0544
19435SOL     OW59917   9.200   3.361   3.854  0.6373  0.2841  0.4522
19435SOL    HW159918   9.141   3.351   3.779  1.9843 -0.5381 -0.5409
19435SOL    HW259919   9.141   3.365   3.930 -0.6792 -0.8013 -0.4553
19436SOL     OW59920   6.042   9.166   8.215  0.1904 -0.2528 -0.2492
19436SOL    HW159921   5.953   9.144   8.241  0.6904 -1.3757  0.6048
19436SOL    HW259922   6.071   9.230   8.280 -0.4237  1.1575 -1.3099
19437SOL     OW59923   8.022   3.028   8.719  0.3083  0.0189  0.1614
19437SOL    HW159924   7.930   3.041   8.699  0.3411 -0.0526 -0.0407
19437SOL    HW259925   8.067   3.097   8.670  0.4843 -0.8367 -0.9022
19438SOL     OW59926   4.951   7.540   8.367 -0.4639 -0.2375  0.3900
19438SOL    HW159927   5.029   7.502   8.325 -0.4931 -0.1321  0.2376
19438SOL    HW259928   4.985   7.615   8.417 -0.7508  1.4171 -1.7202
19439SOL     OW59929   5.896   9.371   2.789 -0.2143  0.0378  0.2736
19439SOL    HW159930   5.966   9.346   2.729  0.6639  0.1285  1.2204
19439SOL    HW259931   5.889   9.466   2.779  0.6918  0.2090  1.0717
19440SOL     OW59932   0.022   7.744   8.508 -0.2763  0.2963  0.1600
19440SOL    HW159933   0.024   7.651   8.485 -1.3112  0.5766 -1.1814
19440SOL    HW259934   0.018   7.745   8.604 -0.9349 -1.0597  0.1725
19441SOL     OW59935   4.659   9.056   0.753  0.0254  0.3413  0.1734
19441SOL    HW159936   4.580   9.042   0.805  1.9381  0.5897  3.4491
19441SOL    HW259937   4.686   8.968   0.726 -0.1129 -0.0124  1.1350
19442SOL     OW59938   5.278   9.530   1.654 -0.1859  0.5414 -0.7728
19442SOL    HW159939   5.184   9.536   1.636 -0.2499  1.0507 -0.2886
19442SOL    HW259940   5.286   9.454   1.712 -0.3352  0.6710 -0.5799
19443SOL     OW59941   7.347   6.246   1.038  0.1456 -0.3978  0.0225
19443SOL    HW159942   7.389   6.332   1.046 -0.4629 -0.0325 -0.6656
19443SOL    HW259943   7.261   6.264   1.001  1.1110 -1.5447 -3.1038
19444SOL     OW59944   1.711   9.036   1.078 -0.4978  0.2910  0.6380
19444SOL    HW159945   1.683   8.996   1.161 -2.6685 -0.3776 -0.3417
19444SOL    HW259946   1.679   9.126   1.083 -0.8223  0.1885  0.4554
19445SOL     OW59947   6.218   1.614   4.570  0.6581  0.3473 -0.6382
19445SOL    HW159948   6.203   1.525   4.538  0.6669  0.0519  0.1363
19445SOL    HW259949   6.292   1.646   4.519  0.0356  0.2832 -1.6143
19446SOL     OW59950   0.849   6.829   9.277 -0.1829 -0.2261 -0.3422
19446SOL    HW159951   0.893   6.755   9.237  1.5035  0.3165  0.4265
19446SOL    HW259952   0.770   6.842   9.224  1.0367 -0.6369 -2.3684
19447SOL     OW59953   2.566   7.039   4.404  0.5628 -0.4058  0.0851
19447SOL    HW159954   2.649   6.991   4.400  0.1330 -1.1481 -0.3133
19447SOL    HW259955   2.523   7.006   4.483 -0.5897 -2.1901 -1.2057
19448SOL     OW59956   4.552   7.249   8.562 -0.1748 -0.2858  0.0809
19448SOL    HW159957   4.590   7.312   8.500 -0.7393  0.1443  0.1670
19448SOL    HW259958   4.504   7.187   8.507 -0.5832  0.0319  0.0744
19449SOL     OW59959   5.340   0.523   7.049 -0.6331 -0.3054 -0.4153
19449SOL    HW159960   5.361   0.601   6.998 -0.0893 -0.4845 -0.4713
19449SOL    HW259961   5.425   0.489   7.078 -0.9468 -0.0103  0.9169
19450SOL     OW59962   7.693   3.943   6.597 -0.1619 -0.3256  0.1799
19450SOL    HW159963   7.731   3.887   6.664  0.2138  0.9218  1.0577
19450SOL    HW259964   7.768   3.987   6.557 -0.3848 -1.0573 -1.0799
19451SOL     OW59965   0.109   4.712   5.604  0.1186  0.2259 -0.3178
19451SOL    HW159966   0.121   4.755   5.689 -2.0300 -1.9040  1.2153
19451SOL    HW259967   0.025   4.745   5.573 -0.4840 -1.1207 -0.1794
19452SOL     OW59968   4.734   4.648   2.923 -0.6690 -0.7808 -0.1504
19452SOL    HW159969   4.772   4.587   2.860 -0.3346 -0.9914  0.2451
19452SOL    HW259970   4.641   4.627   2.924 -0.4786 -1.6360  0.3537
19453SOL     OW59971   4.130   4.154   6.793 -0.0197 -0.5968  0.2462
19453SOL    HW159972   4.145   4.234   6.843  1.4320  0.8104 -2.2098
19453SOL    HW259973   4.216   4.134   6.754 -0.8490 -2.1133 -0.9344
19454SOL     OW59974   3.392   5.667   9.671 -0.0420  0.3520  0.3601
19454SOL    HW159975   3.387   5.688   9.764 -1.4439  0.7338  0.2263
19454SOL    HW259976   3.313   5.616   9.654  0.5198 -0.2657 -0.4999
19455SOL     OW59977   6.033   2.349   9.225 -0.1143  0.0312 -0.1154
19455SOL    HW159978   5.954   2.395   9.253  1.7279  2.2488  1.8541
19455SOL    HW259979   6.051   2.383   9.137 -2.2073 -1.8445 -1.3739
19456SOL     OW59980   9.656   0.981   9.267  0.0401  0.0493 -0.5397
19456SOL    HW159981   9.613   1.045   9.209  0.2075 -0.4994 -1.2790
19456SOL    HW259982   9.749   0.993   9.250  0.1061  0.0907 -0.1540
19457SOL     OW59983   6.256   8.852   6.493  0.5729 -0.8642  0.2147
19457SOL    HW159984   6.303   8.800   6.559  1.3381 -0.9915 -0.4129
19457SOL    HW259985   6.172   8.872   6.534 -0.1894 -3.4344  0.1333
19458SOL     OW59986   1.622   8.809   6.108  0.6962 -0.0327  0.1268
19458SOL    HW159987   1.685   8.737   6.109 -0.2761 -0.9189  1.4335
19458SOL    HW259988   1.662   8.875   6.052  1.6252 -1.5782 -1.1089
19459SOL     OW59989   0.011   5.305   1.153 -0.0289  0.0512 -0.3964
19459SOL    HW159990  -0.009   5.396   1.127  0.6348  0.5512  0.7701
19459SOL    HW259991   0.094   5.312   1.200  1.0199 -1.4540 -1.9324
19460SOL     OW59992   0.244   6.279   1.094  0.0066 -0.7552 -0.3490
19460SOL    HW159993   0.196   6.256   1.174  0.4180 -1.0578 -0.1845
19460SOL    HW259994   0.180   6.328   1.041  0.0465  0.3978  0.6220
19461SOL     OW59995   2.292   8.221   5.550 -0.0682  0.2769 -1.0013
19461SOL    HW159996   2.211   8.182   5.519 -0.0631  0.4253 -1.2090
19461SOL    HW259997   2.309   8.180   5.635 -0.1190 -0.0902 -1.1669
19462SOL     OW59998   6.231   4.443   6.775  0.4092  0.4765  0.1201
19462SOL    HW159999   6.180   4.366   6.749  0.4929 -0.2247  1.9214
19462SOL    HW260000   6.172   4.494   6.831  1.4400 -0.0176  1.7077
19463SOL     OW60001   0.569   4.680   2.178 -0.0182 -0.0595  0.1733
19463SOL    HW160002   0.597   4.739   2.108 -1.3058  0.3469 -0.0376
19463SOL    HW260003   0.571   4.735   2.257  0.9760 -0.3847  0.3819
19464SOL     OW60004   6.434   5.777   7.255  0.7386 -0.7950  0.0320
19464SOL    HW160005   6.359   5.828   7.224  0.5619 -1.8134 -1.2896
19464SOL    HW260006   6.420   5.771   7.349 -2.7483 -3.7548 -0.4386
19465SOL     OW60007   1.818   0.965   7.344 -0.2867 -0.3991  0.0713
19465SOL    HW160008   1.795   0.924   7.260 -1.8598  2.1334 -0.8340
19465SOL    HW260009   1.767   0.917   7.409 -0.5680 -1.1355 -0.6664
19466SOL     OW60010   9.839   2.004   4.372  0.3194 -0.6710 -0.2309
19466SOL    HW160011   9.932   2.023   4.381 -0.0992  0.7656  1.5357
19466SOL    HW260012   9.802   2.081   4.330 -0.0387 -1.4326 -1.3747
19467SOL     OW60013   0.619   8.574   6.515  0.1593  0.0547 -0.1789
19467SOL    HW160014   0.530   8.566   6.551 -0.5337 -0.6358 -1.9243
19467SOL    HW260015   0.676   8.565   6.591 -1.2460  3.2803  1.4805
19468SOL     OW60016   3.183   3.260   5.835  0.3302  0.2592  0.1570
19468SOL    HW160017   3.274   3.256   5.864  0.2792  0.6539  0.3877
19468SOL    HW260018   3.149   3.172   5.847  0.6924  0.1032  0.0383
19469SOL     OW60019   7.014   5.359   0.250 -0.2469  0.5721 -0.1574
19469SOL    HW160020   7.003   5.281   0.305 -0.1052  1.4265  1.1328
19469SOL    HW260021   6.934   5.363   0.197 -0.5559 -0.0728  0.2466
19470SOL     OW60022   6.050   5.015   6.568 -0.4995  0.0526 -0.0712
19470SOL    HW160023   6.131   5.020   6.518 -0.8326  1.9320 -0.5156
19470SOL    HW260024   5.981   5.009   6.502 -0.7350 -2.0863  0.3141
19471SOL     OW60025   8.541   8.402   0.328 -0.1635  0.6412 -0.5505
19471SOL    HW160026   8.537   8.393   0.233 -0.4160  0.9096 -0.5654
19471SOL    HW260027   8.634   8.393   0.349 -0.1827 -0.0818 -0.7522
19472SOL     OW60028   5.342   1.583   8.385  0.1149  0.2544 -0.1207
19472SOL    HW160029   5.280   1.517   8.416 -0.3868  1.9809  2.9467
19472SOL    HW260030   5.409   1.534   8.339 -1.8825 -2.0126 -0.8322
19473SOL     OW60031   3.279   4.724   9.333 -0.3522 -0.3056  0.5344
19473SOL    HW160032   3.241   4.774   9.261  0.9739  0.9572  0.6672
19473SOL    HW260033   3.204   4.694   9.384 -1.2342  0.6520 -0.1640
19474SOL     OW60034   8.761   3.817   8.010 -0.8214 -0.3598  0.4343
19474SOL    HW160035   8.751   3.875   7.935 -1.5611 -1.6719 -0.5214
19474SOL    HW260036   8.758   3.876   8.086 -1.2379  0.8796 -0.5021
19475SOL     OW60037   9.836   9.415   7.285  0.6241 -0.1455 -0.2153
19475SOL    HW160038   9.844   9.366   7.203  0.9259  0.1284 -0.3530
19475SOL    HW260039   9.767   9.479   7.268  0.3932 -0.3653 -0.1130
19476SOL     OW60040   4.098   2.201   0.542  0.0255  0.0513  0.1614
19476SOL    HW160041   4.062   2.288   0.562 -1.8059 -0.4629 -0.6446
19476SOL    HW260042   4.190   2.207   0.566 -0.0737  2.1836  0.2105
19477SOL     OW60043   5.377   8.073   0.295  0.1376 -0.2605 -0.3692
19477SOL    HW160044   5.397   8.004   0.232  0.3584 -1.1688  0.6554
19477SOL    HW260045   5.295   8.111   0.265 -0.1045 -1.1234 -0.8288
19478SOL     OW60046   9.175   1.109   3.025 -0.0094 -0.8407  0.5770
19478SOL    HW160047   9.267   1.126   3.048  0.9429 -3.4607 -0.8495
19478SOL    HW260048   9.139   1.195   3.004  1.6744  0.4529  2.5743
19479SOL     OW60049   4.506   8.134   2.312  0.3529 -0.0511  0.4436
19479SOL    HW160050   4.530   8.222   2.339 -0.1905  0.4772 -0.7376
19479SOL    HW260051   4.448   8.146   2.237  0.8980 -1.4258 -0.2499
19480SOL     OW60052   2.589   2.716   8.663 -0.2949  0.4653 -0.2887
19480SOL    HW160053   2.637   2.648   8.710 -2.6890 -1.5242 -0.5232
19480SOL    HW260054   2.603   2.697   8.571 -0.3513  0.7625 -0.3592
19481SOL     OW60055   0.382   8.798   8.765 -0.8124  0.0640 -0.0387
19481SOL    HW160056   0.347   8.878   8.724  2.3375  0.5180 -2.1591
19481SOL    HW260057   0.428   8.829   8.843  0.5628  0.4235 -0.9574
19482SOL     OW60058   9.627   2.305   9.090 -1.0224 -0.3253 -0.5266
19482SOL    HW160059   9.612   2.309   9.184  0.6692 -0.8190 -0.1943
19482SOL    HW260060   9.632   2.211   9.071 -1.7585 -0.2396 -1.1909
19483SOL     OW60061   3.113   2.013   1.730 -0.0866 -0.1153 -0.2477
19483SOL    HW160062   3.048   2.082   1.724 -0.7756 -0.7466 -0.1627
19483SOL    HW260063   3.188   2.046   1.679 -0.1760  0.9228  0.2654
19484SOL     OW60064   0.650   6.807   8.372 -0.1051  0.4055  0.3289
19484SOL    HW160065   0.735   6.832   8.335  0.1497 -2.4879 -1.2775
19484SOL    HW260066   0.600   6.775   8.297 -1.8205 -0.0204  1.6036
19485SOL     OW60067   5.995   4.070   0.441 -0.0574 -0.1290  0.5844
19485SOL    HW160068   6.021   4.023   0.520  1.3424 -0.3710  0.0236
19485SOL    HW260069   6.060   4.141   0.433  0.1435 -0.4200 -0.6083
19486SOL     OW60070   5.930   5.288   9.615 -0.1563 -0.2427 -0.0791
19486SOL    HW160071   5.909   5.201   9.582  1.5077 -0.7917  0.1888
19486SOL    HW260072   6.023   5.283   9.638  1.0682  2.6093 -3.4249
19487SOL     OW60073   1.852   6.409   4.833  0.1244 -0.1805 -0.1806
19487SOL    HW160074   1.893   6.322   4.838 -0.4743 -0.4761 -0.3185
19487SOL    HW260075   1.800   6.416   4.913 -1.1573 -0.6517 -0.9337
19488SOL     OW60076   4.198   6.247   8.966 -0.7924 -0.3236  0.0851
19488SOL    HW160077   4.255   6.240   9.043 -0.6541  1.4332  0.1787
19488SOL    HW260078   4.125   6.301   8.995 -1.0087 -0.0827 -0.8658
19489SOL     OW60079   5.771   2.958   0.880 -0.0729 -0.0774 -0.2730
19489SOL    HW160080   5.792   3.051   0.880 -2.7070  0.6355 -2.1454
19489SOL    HW260081   5.777   2.932   0.787  0.2749 -1.7005  0.1679
19490SOL     OW60082   5.688   0.322   8.941  0.2556  0.3888 -0.4188
19490SOL    HW160083   5.673   0.413   8.915  2.3064  0.5521 -1.2474
19490SOL    HW260084   5.717   0.278   8.861  0.9314 -0.5808  0.3281
19491SOL     OW60085   7.239   1.517   4.531 -0.1236 -0.4753  0.3502
19491SOL    HW160086   7.318   1.514   4.585  1.6006  1.0939 -1.9178
19491SOL    HW260087   7.230   1.428   4.498  2.2987 -0.1732 -1.4007
19492SOL     OW60088   4.886   8.594   4.496 -1.0609 -0.3911 -0.4910
19492SOL    HW160089   4.852   8.666   4.549 -0.5993 -0.3054 -0.3029
19492SOL    HW260090   4.979   8.614   4.485 -0.7693 -1.3035  0.1571
19493SOL     OW60091   6.312   2.513   6.718  0.6393  0.4819 -0.5705
19493SOL    HW160092   6.264   2.439   6.681  0.7470  0.5351 -0.8220
19493SOL    HW260093   6.253   2.588   6.705  0.7281  0.5216 -0.7452
19494SOL     OW60094   5.686   1.439   0.283 -0.1513 -0.4764  0.4208
19494SOL    HW160095   5.744   1.514   0.272 -0.1047 -0.0863  2.6943
19494SOL    HW260096   5.652   1.421   0.196  0.2769  1.8284 -0.2829
19495SOL     OW60097   4.456   5.621   0.302 -0.1949 -0.1348  0.0780
19495SOL    HW160098   4.363   5.627   0.327 -0.8465  0.9369 -2.3177
19495SOL    HW260099   4.454   5.602   0.208  1.9922  1.1386 -0.2908
19496SOL     OW60100   1.787   5.329   0.539  0.5102 -0.3682 -0.5097
19496SOL    HW160101   1.851   5.355   0.472  0.8496  0.2949  0.0583
19496SOL    HW260102   1.833   5.341   0.622 -0.2919 -0.0345 -0.1011
19497SOL     OW60103   8.459   7.776   4.990  0.1311  0.2238 -0.0226
19497SOL    HW160104   8.377   7.777   5.039  0.0334  0.0305 -0.1784
19497SOL    HW260105   8.514   7.712   5.036 -0.7540 -1.6289 -1.4112
19498SOL     OW60106   5.127   6.165   0.744 -0.0318 -0.1012  0.3974
19498SOL    HW160107   5.217   6.133   0.747 -0.1361 -0.3083  2.1561
19498SOL    HW260108   5.081   6.114   0.810 -1.5150 -0.1642 -0.6352
19499SOL     OW60109   3.538   6.062   8.363 -0.2743  0.2078 -0.3071
19499SOL    HW160110   3.591   6.107   8.429 -0.9954 -0.1706  0.5568
19499SOL    HW260111   3.502   5.986   8.410 -0.6305 -0.1883 -1.2032
19500SOL     OW60112   8.643   6.404   4.194  0.4389  0.1871  0.2185
19500SOL    HW160113   8.634   6.497   4.176  0.0946 -0.0806 -1.1052
19500SOL    HW260114   8.580   6.386   4.263 -1.1818  0.5269 -1.1024
19501SOL     OW60115   4.946   1.309   1.899 -0.5826 -0.0350  0.2060
19501SOL    HW160116   4.864   1.281   1.859  0.1277 -0.4111 -1.0528
19501SOL    HW260117   5.003   1.233   1.893  0.6142  0.9020 -1.1254
19502SOL     OW60118   6.887   1.185   2.599  0.3660  0.3655 -0.0851
19502SOL    HW160119   6.833   1.128   2.655 -2.4169  2.9129  0.0796
19502SOL    HW260120   6.924   1.249   2.659  0.2204  1.0447 -0.7126
19503SOL     OW60121   0.556   9.112   3.014 -0.6808  0.0329 -0.1139
19503SOL    HW160122   0.524   9.199   3.037 -2.5898 -0.6852  0.1455
19503SOL    HW260123   0.501   9.085   2.940  1.4040 -0.0869 -1.7013
19504SOL     OW60124   2.075   2.625   4.408  0.9550  0.1902 -0.3088
19504SOL    HW160125   1.984   2.611   4.382  1.5413 -2.1226 -1.3104
19504SOL    HW260126   2.070   2.690   4.479 -1.4043  0.4474 -0.6389
19505SOL     OW60127   5.328   2.533   8.307  0.1301 -0.0003  0.2823
19505SOL    HW160128   5.327   2.439   8.289  0.5893 -0.3749  2.0585
19505SOL    HW260129   5.393   2.568   8.245  0.1019 -0.8664 -0.2541
19506SOL     OW60130   6.205   5.757   9.737 -0.2827  0.4984  0.2213
19506SOL    HW160131   6.151   5.819   9.787  0.5078  0.8324  0.6839
19506SOL    HW260132   6.186   5.672   9.776 -0.2524  0.6553  0.5854
19507SOL     OW60133   7.821   5.382   0.499  0.3454  0.3005 -0.3038
19507SOL    HW160134   7.858   5.332   0.426  1.7109  1.4328 -0.4281
19507SOL    HW260135   7.779   5.457   0.457 -2.1054 -0.9022 -0.1548
19508SOL     OW60136   5.375   8.826   3.715 -0.5241 -0.6329  0.2439
19508SOL    HW160137   5.292   8.822   3.668 -0.0722 -0.2645 -0.6148
19508SOL    HW260138   5.408   8.736   3.713 -0.5859 -0.6498  0.0020
19509SOL     OW60139   8.962   7.253   4.607 -0.2756  0.3690  0.2713
19509SOL    HW160140   8.917   7.171   4.627 -0.3648  0.6434  1.2198
19509SOL    HW260141   9.029   7.261   4.674 -1.0775  1.6881  0.9712
19510SOL     OW60142   3.508   4.023   5.636 -0.2016 -0.1135 -0.5230
19510SOL    HW160143   3.430   4.079   5.644 -0.3462 -0.4679  0.7900
19510SOL    HW260144   3.571   4.076   5.588 -1.6512 -0.2579 -2.7018
19511SOL     OW60145   6.646   5.907   9.133  0.0360 -0.0588  0.2933
19511SOL    HW160146   6.589   5.950   9.069  0.6505 -0.5934 -0.6426
19511SOL    HW260147   6.594   5.834   9.165  0.2060 -0.5983 -0.6236
19512SOL     OW60148   4.695   2.113   5.338 -1.2607  0.3580  0.1638
19512SOL    HW160149   4.749   2.176   5.386 -0.2898  0.4010 -0.9270
19512SOL    HW260150   4.716   2.028   5.377 -3.2223  0.7329  2.2312
19513SOL     OW60151   1.225   5.944   5.992  0.6168 -0.2993  0.0674
19513SOL    HW160152   1.138   5.943   5.952  0.5552 -0.8330  0.2073
19513SOL    HW260153   1.276   6.004   5.938 -0.1227  0.8351  0.5865
19514SOL     OW60154   1.694   1.536   7.165 -0.3685  0.3260 -0.3748
19514SOL    HW160155   1.691   1.535   7.070  2.0804 -0.7610 -0.5175
19514SOL    HW260156   1.776   1.581   7.187  0.1091 -1.1251  1.1045
19515SOL     OW60157   4.835   3.051   7.360 -0.0490 -0.1256 -0.5160
19515SOL    HW160158   4.797   3.124   7.409 -1.2136  0.0806 -1.6793
19515SOL    HW260159   4.844   3.085   7.270  1.3450 -0.7334 -0.6300
19516SOL     OW60160   9.415   4.564   6.999  0.6185 -0.1076 -0.3907
19516SOL    HW160161   9.338   4.547   7.053 -0.0936  1.2763 -0.9172
19516SOL    HW260162   9.478   4.606   7.058  0.2782  0.3585 -0.3496
19517SOL     OW60163   3.925   4.050   6.899 -0.0007  0.5348  0.0328
19517SOL    HW160164   3.967   4.006   6.972  0.4027  3.1070  1.4741
19517SOL    HW260165   3.997   4.077   6.841 -0.0180  1.2476  0.3314
19518SOL     OW60166   5.740   7.233   9.073 -0.0118 -0.0800  0.0316
19518SOL    HW160167   5.673   7.178   9.113 -1.0934  0.7167 -0.6111
19518SOL    HW260168   5.755   7.303   9.137  0.3931 -0.3863  0.2770
19519SOL     OW60169   9.310   9.789   4.083  0.4599 -0.4943  0.2650
19519SOL    HW160170   9.381   9.795   4.019 -0.3784 -0.7746 -0.7164
19519SOL    HW260171   9.278   9.878   4.092  0.8620 -0.3828  0.6373
19520SOL     OW60172   3.923   1.210   1.392 -0.0788 -0.1924 -0.7258
19520SOL    HW160173   3.878   1.275   1.338 -1.3376 -1.1610 -0.8864
19520SOL    HW260174   3.876   1.211   1.475  0.2529 -0.4909 -0.5332
19521SOL     OW60175   5.777   4.099   2.553 -0.1312  0.1450 -1.2081
19521SOL    HW160176   5.687   4.084   2.582 -0.2401  3.1738  0.3949
19521SOL    HW260177   5.832   4.060   2.621 -0.3026  0.9033 -0.6252
19522SOL     OW60178   7.736   8.767   3.243  0.1303 -0.2773  0.2501
19522SOL    HW160179   7.703   8.678   3.254 -0.5346 -0.1628 -0.6944
19522SOL    HW260180   7.813   8.772   3.300  1.5310 -2.1717 -1.3393
19523SOL     OW60181   7.412   4.318   9.271  0.0364 -0.1661 -0.1056
19523SOL    HW160182   7.325   4.281   9.254  0.0405 -0.7092  0.9442
19523SOL    HW260183   7.471   4.243   9.268  0.4091  0.1348 -0.3885
19524SOL     OW60184   6.710   6.663   3.400  0.4863 -0.3697 -0.5130
19524SOL    HW160185   6.721   6.690   3.309  0.5724 -0.5939 -0.5693
19524SOL    HW260186   6.626   6.617   3.402  1.1807 -1.7027 -0.7958
19525SOL     OW60187   5.974   7.870   8.846  0.2404  0.1511  0.1336
19525SOL    HW160188   6.036   7.814   8.799 -1.7164  0.4779 -3.1212
19525SOL    HW260189   5.952   7.939   8.783 -0.4023  2.3628  2.6220
19526SOL     OW60190   2.946   1.563   2.505  0.3914 -0.1592 -0.0117
19526SOL    HW160191   2.992   1.580   2.423 -0.2551 -1.2176 -0.6287
19526SOL    HW260192   2.973   1.633   2.564  2.0884 -0.2505 -0.6264
19527SOL     OW60193   8.872   9.219   8.044 -0.2343  0.2895  0.2467
19527SOL    HW160194   8.949   9.276   8.046 -0.2393  0.2845  0.6595
19527SOL    HW260195   8.812   9.257   8.108 -0.9724  0.8393 -0.7530
19528SOL     OW60196   7.352   4.547   5.727 -0.0403 -0.1621 -0.5072
19528SOL    HW160197   7.441   4.582   5.734 -0.1649  0.0741 -0.0827
19528SOL    HW260198   7.305   4.585   5.801 -0.3060 -0.8421 -0.3134
19529SOL     OW60199   4.731   3.244   7.516 -0.2608  0.0130 -0.3276
19529SOL    HW160200   4.782   3.314   7.556  0.0534 -0.7310  0.5984
19529SOL    HW260201   4.684   3.203   7.588 -2.2092  0.6718 -1.1531
19530SOL     OW60202   5.366   1.174   6.698 -0.2924 -0.2672  0.0777
19530SOL    HW160203   5.445   1.168   6.645 -0.1864  3.6425 -0.4532
19530SOL    HW260204   5.314   1.098   6.671  2.0461 -1.3805 -1.6290
19531SOL     OW60205   7.358   9.361   9.771  0.0681 -0.3241  0.1956
19531SOL    HW160206   7.433   9.420   9.766 -0.8121  1.0852  2.4345
19531SOL    HW260207   7.307   9.380   9.692  0.9876  0.2000 -0.2873
19532SOL     OW60208   2.330   5.542   0.603  0.0942  0.3093  0.6866
19532SOL    HW160209   2.397   5.529   0.536 -0.6646 -1.1329  0.1584
19532SOL    HW260210   2.300   5.632   0.591  1.1084  0.5797  0.1561
19533SOL     OW60211   1.729   0.589   6.664  0.1817  0.1197 -0.1206
19533SOL    HW160212   1.727   0.683   6.683  0.3759 -0.0137  0.5827
19533SOL    HW260213   1.811   0.558   6.702 -0.8697 -0.7262  1.6394
19534SOL     OW60214   5.162   3.892   4.555  0.3194  0.6755 -0.1596
19534SOL    HW160215   5.145   3.915   4.646  1.1206 -2.4059  0.8941
19534SOL    HW260216   5.105   3.817   4.538  1.5484  0.0039 -1.5667
19535SOL     OW60217   7.917   9.696   0.128 -0.0151 -0.5142  0.2287
19535SOL    HW160218   8.012   9.708   0.131 -0.0865  0.3972 -0.5560
19535SOL    HW260219   7.889   9.708   0.218  0.6822 -1.4693  0.5845
19536SOL     OW60220   6.904   0.234   6.434 -0.0065  0.4347  0.4776
19536SOL    HW160221   6.870   0.278   6.357  0.4703  0.1389  0.0853
19536SOL    HW260222   6.999   0.230   6.419 -0.1032 -1.3916  0.1277
19537SOL     OW60223   7.535   2.313   9.110  0.2446  0.3543  0.3552
19537SOL    HW160224   7.515   2.250   9.041  1.1127  1.5011 -1.0112
19537SOL    HW260225   7.569   2.260   9.182 -2.8647 -1.1412  0.9005
19538SOL     OW60226   5.239   8.829   5.726  0.1640  0.0955  0.0479
19538SOL    HW160227   5.242   8.907   5.782 -0.8701 -0.3294  0.7153
19538SOL    HW260228   5.328   8.793   5.730  0.2645  0.4227  0.9059
19539SOL     OW60229   7.547   5.241   9.468  0.1629  0.2203  0.0061
19539SOL    HW160230   7.527   5.159   9.513  1.5679 -0.4302 -0.4689
19539SOL    HW260231   7.578   5.300   9.537 -1.4138  0.5831  0.4404
19540SOL     OW60232   0.904   7.737   6.737 -0.1478  0.4177  0.0241
19540SOL    HW160233   0.985   7.788   6.729 -0.7515  1.4463  0.2376
19540SOL    HW260234   0.933   7.648   6.755  0.9554  0.5763 -0.8563
19541SOL     OW60235   9.177   2.387   8.923 -0.1444 -0.0348  0.3181
19541SOL    HW160236   9.125   2.309   8.900  1.8057 -1.0081 -1.0819
19541SOL    HW260237   9.171   2.392   9.019 -1.9290 -0.6932  0.2837
19542SOL     OW60238   0.134   1.502   6.150 -0.2635 -0.2373 -0.8749
19542SOL    HW160239   0.212   1.464   6.110 -0.5562 -0.8361 -0.8866
19542SOL    HW260240   0.136   1.594   6.124  1.8382  0.4247  1.2675
19543SOL     OW60241   3.853   6.545   9.397  0.0830  0.3809 -0.1223
19543SOL    HW160242   3.893   6.620   9.353 -0.2042 -0.9946 -2.8982
19543SOL    HW260243   3.765   6.540   9.361 -0.1412 -0.9074  0.5613
19544SOL     OW60244   9.083   8.433   5.334 -0.0990 -0.0636 -0.3452
19544SOL    HW160245   9.130   8.458   5.413  1.4426  0.6550 -1.4376
19544SOL    HW260246   9.002   8.484   5.337  1.4574  2.6331 -0.8410
19545SOL     OW60247   8.789   6.617   5.795 -0.4528 -0.3638  0.1084
19545SOL    HW160248   8.753   6.674   5.863 -0.1241 -0.4097  0.3227
19545SOL    HW260249   8.745   6.533   5.808  1.0432 -0.9523  1.5251
19546SOL     OW60250   7.835   2.127   5.401 -0.0073 -0.2241  0.1246
19546SOL    HW160251   7.841   2.040   5.362  1.0951  0.0966 -0.4769
19546SOL    HW260252   7.846   2.112   5.495  0.7873 -0.6867 -0.0347
19547SOL     OW60253   4.868   2.338   6.539  0.3515  0.0024 -0.5502
19547SOL    HW160254   4.811   2.361   6.613 -0.2047 -0.1065 -0.9455
19547SOL    HW260255   4.812   2.343   6.462  0.6077 -1.1324 -0.8335
19548SOL     OW60256   3.229   9.492   7.529  0.6169  0.1286  0.2656
19548SOL    HW160257   3.134   9.498   7.538  0.5282  1.0845 -1.0519
19548SOL    HW260258   3.264   9.527   7.611 -0.1343 -2.0999  1.6383
19549SOL     OW60259   5.877   2.918   5.155 -0.0403  0.9894  0.0803
19549SOL    HW160260   5.893   2.834   5.198 -1.5424  0.7269  0.1802
19549SOL    HW260261   5.858   2.978   5.228  3.7369  2.1822  0.2851
19550SOL     OW60262   9.590   9.429   3.185 -0.4407  0.3170 -0.0205
19550SOL    HW160263   9.646   9.493   3.141  0.1032 -0.6420 -0.7562
19550SOL    HW260264   9.624   9.425   3.274  1.0240 -0.6349 -0.5982
19551SOL     OW60265   8.000   4.532   3.661  0.0134  0.0990  0.3466
19551SOL    HW160266   7.932   4.599   3.668  0.6325  0.7518  0.2100
19551SOL    HW260267   8.027   4.516   3.752  2.0455  2.3356  0.2201
19552SOL     OW60268   6.781   2.723   2.897 -0.0129  0.1168  0.0754
19552SOL    HW160269   6.799   2.777   2.974 -0.5633  1.9910 -1.0358
19552SOL    HW260270   6.860   2.729   2.844 -0.7523  1.5078 -0.9493
19553SOL     OW60271   8.993   5.205   8.766  0.2041  0.0965 -0.6234
19553SOL    HW160272   9.081   5.210   8.805 -0.5035  0.0757  1.0706
19553SOL    HW260273   8.934   5.227   8.838 -1.1087  2.6376 -2.3141
19554SOL     OW60274   8.182   6.090   7.779 -0.3130 -0.3770  0.4864
19554SOL    HW160275   8.091   6.102   7.807 -0.6861  1.6174 -1.3564
19554SOL    HW260276   8.222   6.175   7.792  1.2381 -1.1349  0.9228
19555SOL     OW60277   4.274   6.810   4.138 -0.1184  0.5112 -0.3708
19555SOL    HW160278   4.264   6.851   4.224  0.0213 -2.6304  1.2672
19555SOL    HW260279   4.188   6.774   4.118  0.1540  0.2073 -1.0294
19556SOL     OW60280   2.926   0.527   3.423 -0.1131  0.3940  0.5000
19556SOL    HW160281   2.887   0.599   3.373 -2.7486  0.3316  2.2698
19556SOL    HW260282   2.972   0.570   3.496 -1.7556  0.3444  1.6028
19557SOL     OW60283   7.900   4.235   6.009 -0.7668 -0.5092 -0.6509
19557SOL    HW160284   7.823   4.206   6.057  0.1534  0.0371  1.2578
19557SOL    HW260285   7.921   4.161   5.951 -1.4124 -1.5827  0.4267
19558SOL     OW60286   5.938   2.099   5.140 -0.4581 -0.2870 -0.4466
19558SOL    HW160287   5.965   2.142   5.222  0.5833  0.2275 -1.0377
19558SOL    HW260288   5.883   2.026   5.169  0.0870 -0.2630  0.7284
19559SOL     OW60289   7.790   8.941   7.671  0.5500 -0.2879 -0.1836
19559SOL    HW160290   7.864   8.928   7.730  1.4658 -0.6916 -1.3906
19559SOL    HW260291   7.784   8.859   7.622 -0.2839 -0.0037 -0.5659
19560SOL     OW60292   9.126   2.689   5.485  0.0980  0.3971 -0.2425
19560SOL    HW160293   9.058   2.709   5.549 -0.0453  0.9881 -0.5773
19560SOL    HW260294   9.207   2.723   5.525  0.2735 -0.6470  0.3287
19561SOL     OW60295   4.528   4.955   7.386  0.0485  0.8713 -0.4748
19561SOL    HW160296   4.610   4.965   7.435 -0.8028  3.5686  0.5867
19561SOL    HW260297   4.556   4.941   7.295  1.6472 -1.7683  0.3129
19562SOL     OW60298   2.042   2.003   5.854 -0.4760  0.6490  0.2056
19562SOL    HW160299   1.998   1.923   5.828 -0.2643  0.4267  0.5226
19562SOL    HW260300   2.068   2.044   5.772 -0.0275  0.0775  0.0541
19563SOL     OW60301   1.705   0.286   3.065 -0.3334 -0.2955  0.4952
19563SOL    HW160302   1.767   0.252   3.130 -0.5058  0.6425  1.1673
19563SOL    HW260303   1.638   0.218   3.058 -0.0560 -0.6170  0.9340
19564SOL     OW60304   4.698   0.323   2.559  0.1764  0.4309  0.3810
19564SOL    HW160305   4.692   0.228   2.563 -0.4957  0.5189  2.6561
19564SOL    HW260306   4.611   0.352   2.529 -0.7108  0.4025  2.7417
19565SOL     OW60307   9.010   6.801   4.188  0.3735  0.3026 -0.0363
19565SOL    HW160308   9.000   6.861   4.114 -0.0304  1.5470  0.9818
19565SOL    HW260309   8.928   6.810   4.236  0.8305 -0.0952  0.8292
19566SOL     OW60310   4.311   9.221   8.081  0.3583 -0.1736 -0.0448
19566SOL    HW160311   4.245   9.199   8.016 -0.2350  2.7625 -0.5942
19566SOL    HW260312   4.265   9.222   8.165  0.8606 -2.7963  0.3335
19567SOL     OW60313   1.782   2.325   4.248  0.2114 -0.1435 -0.1818
19567SOL    HW160314   1.851   2.269   4.284 -0.7194 -0.5663  1.0269
19567SOL    HW260315   1.776   2.301   4.156  0.1316 -1.7310  0.2202
19568SOL     OW60316   5.696   0.014   1.082 -0.2810  0.0973  0.3070
19568SOL    HW160317   5.739  -0.021   1.004 -0.0380 -0.9809  0.9098
19568SOL    HW260318   5.660  -0.063   1.126  0.3398  0.5681  1.7103
19569SOL     OW60319   7.844   3.160   7.024  0.4554 -0.2521 -0.0876
19569SOL    HW160320   7.930   3.123   7.004  0.2553 -0.0672 -1.3867
19569SOL    HW260321   7.800   3.165   6.939 -1.0091 -0.7461  0.6106
19570SOL     OW60322   7.454   1.013   3.037  0.0640 -0.1244  0.1747
19570SOL    HW160323   7.483   1.094   3.081  1.1919  0.5217 -1.6537
19570SOL    HW260324   7.417   0.960   3.107 -1.7872  2.4399  1.2733
19571SOL     OW60325   5.545   2.557   0.580  0.5886 -0.2639 -0.3023
19571SOL    HW160326   5.452   2.533   0.578  0.4438  0.2833 -1.8947
19571SOL    HW260327   5.570   2.550   0.672 -1.2899  0.5379  0.3109
19572SOL     OW60328   9.506   8.769   9.684  0.2731 -0.0593 -0.0372
19572SOL    HW160329   9.445   8.722   9.741  0.2697  0.9540  0.8311
19572SOL    HW260330   9.585   8.781   9.737  0.9946 -0.7580 -0.9140
19573SOL     OW60331   0.399   8.586   9.180  0.2796  0.2727  0.5196
19573SOL    HW160332   0.474   8.527   9.172 -0.2534 -0.6058  1.7423
19573SOL    HW260333   0.421   8.643   9.253 -0.4012 -0.2513  1.1464
19574SOL     OW60334   2.956   7.617   7.925  0.0575 -0.4113  0.3870
19574SOL    HW160335   2.987   7.615   7.835 -1.8310 -2.2697 -0.3145
19574SOL    HW260336   2.897   7.693   7.929 -0.5018 -0.8085 -0.2061
19575SOL     OW60337   8.686   5.550   3.107  0.1087  0.1047  0.4379
19575SOL    HW160338   8.653   5.460   3.108 -0.3348  0.2630  0.3778
19575SOL    HW260339   8.632   5.594   3.041  0.4991  0.3499  0.2829
19576SOL     OW60340   5.752   2.303   0.783 -0.3771  0.0527 -0.2732
19576SOL    HW160341   5.735   2.266   0.696 -1.7654 -2.4784  0.9497
19576SOL    HW260342   5.673   2.353   0.804  0.4047  1.5743 -0.8614
19577SOL     OW60343   0.322   3.168   4.940  0.0818 -0.6953 -0.0419
19577SOL    HW160344   0.357   3.243   4.987 -0.5532 -0.2914 -0.1924
19577SOL    HW260345   0.262   3.127   5.002  1.3910 -1.8602  0.5093
19578SOL     OW60346   9.467   2.696   1.244 -0.0099  0.3201 -0.1729
19578SOL    HW160347   9.557   2.667   1.235  0.0204 -0.4116  1.9991
19578SOL    HW260348   9.433   2.648   1.319 -1.5278  2.2187  0.4411
19579SOL     OW60349   2.623   0.256   8.583 -0.0918  0.3048  0.0891
19579SOL    HW160350   2.631   0.297   8.497 -0.7881 -1.2523 -0.7479
19579SOL    HW260351   2.636   0.162   8.567  1.6753  0.1473  1.9709
19580SOL     OW60352   0.865   8.909   4.814 -0.1975  0.0555 -0.0654
19580SOL    HW160353   0.950   8.948   4.795 -0.3984  0.9271  0.7480
19580SOL    HW260354   0.874   8.817   4.788  1.0682  0.0773  0.2512
19581SOL     OW60355   2.444   9.444   3.725  0.3396  0.4222 -0.1119
19581SOL    HW160356   2.447   9.350   3.706 -1.1336  0.5556 -1.2391
19581SOL    HW260357   2.529   9.477   3.697 -0.1495 -0.1402 -2.5441
19582SOL     OW60358   9.141   8.741   0.005 -0.7872  0.0620 -0.4139
19582SOL    HW160359   9.164   8.683   0.078 -1.6492 -0.4800 -0.5598
19582SOL    HW260360   9.048   8.760   0.017 -0.3611  2.0698  0.0605
19583SOL     OW60361   5.045   2.551   5.901 -0.6756 -0.3700  0.6993
19583SOL    HW160362   5.071   2.643   5.889 -1.2254 -0.3086 -0.1586
19583SOL    HW260363   4.958   2.556   5.939  0.1032 -0.5675  2.6108
19584SOL     OW60364   0.332   8.552   2.546 -0.6578  0.7974  0.0836
19584SOL    HW160365   0.260   8.608   2.574  0.0695  0.9846  1.6908
19584SOL    HW260366   0.361   8.590   2.463 -0.7098  2.3253  0.7373
19585SOL     OW60367   3.823   3.666   0.865 -0.0824  0.5088 -0.1572
19585SOL    HW160368   3.883   3.688   0.936 -0.0553  0.4152 -0.1511
19585SOL    HW260369   3.808   3.571   0.874 -1.1357  0.7268  0.5388
19586SOL     OW60370   5.693   3.277   6.641 -0.2889  0.0961  0.1280
19586SOL    HW160371   5.698   3.356   6.695  1.6758 -1.3435  2.2736
19586SOL    HW260372   5.754   3.293   6.569  0.7309  0.2614  1.0017
19587SOL     OW60373   0.547   0.014   8.930 -0.1631  0.2576  0.1981
19587SOL    HW160374   0.586   0.078   8.870 -0.7340 -1.0345 -1.6116
19587SOL    HW260375   0.573   0.045   9.017  1.4693  1.6821 -0.7254
19588SOL     OW60376   7.044   0.488   6.299  0.2356  0.4877  0.1722
19588SOL    HW160377   7.016   0.444   6.219  0.1601 -0.0879  0.5086
19588SOL    HW260378   7.085   0.569   6.269  0.4363  0.1569 -0.4631
19589SOL     OW60379   4.751   2.653   4.764 -0.1785 -0.5047 -0.2849
19589SOL    HW160380   4.753   2.732   4.709  1.8383  0.0462  0.5107
19589SOL    HW260381   4.752   2.686   4.853  0.2359 -1.4325  0.0624
19590SOL     OW60382   6.511   2.454   0.783 -0.1455 -0.1813  0.5664
19590SOL    HW160383   6.487   2.439   0.691 -1.2410 -0.5743  0.9076
19590SOL    HW260384   6.605   2.475   0.779  0.0029 -0.9216 -0.5689
19591SOL     OW60385   3.766   8.129   4.880  0.1683 -0.1375 -0.2894
19591SOL    HW160386   3.707   8.055   4.865 -0.6583 -0.1232  2.3900
19591SOL    HW260387   3.834   8.093   4.938  0.9409  0.6870 -0.6627
19592SOL     OW60388   2.811   8.110   4.700 -0.4560  0.0705  0.2884
19592SOL    HW160389   2.788   8.124   4.792 -1.3158  1.2010 -0.0648
19592SOL    HW260390   2.790   8.194   4.657 -2.7666 -1.2653 -1.4506
19593SOL     OW60391   2.226   2.778   3.660 -0.1669  0.1323  0.0926
19593SOL    HW160392   2.303   2.834   3.674  0.1800  0.7702 -3.3695
19593SOL    HW260393   2.233   2.753   3.568 -3.8435 -0.2179 -0.2003
19594SOL     OW60394   4.051   4.237   3.902  0.9222  0.7384  0.6309
19594SOL    HW160395   4.120   4.223   3.967 -0.1848  0.2213  1.7493
19594SOL    HW260396   4.039   4.153   3.860 -1.2657 -0.1635  2.8021
19595SOL     OW60397   5.591   2.397   8.834 -0.3451 -0.1543  0.2002
19595SOL    HW160398   5.531   2.469   8.855 -0.3340  1.1141 -3.3721
19595SOL    HW260399   5.663   2.407   8.896 -0.7785  2.3944  0.4129
19596SOL     OW60400   7.852   7.140   0.943  0.4449 -0.0114 -0.2503
19596SOL    HW160401   7.863   7.067   0.883  1.0543 -1.1393  1.1808
19596SOL    HW260402   7.901   7.212   0.903  1.7705 -1.0638 -0.5872
19597SOL     OW60403   4.449   9.226   8.802  0.3617  0.0981  0.2891
19597SOL    HW160404   4.504   9.149   8.786  0.5446  0.0001  1.3242
19597SOL    HW260405   4.390   9.229   8.727  0.2329 -1.1656  0.3159
19598SOL     OW60406   8.702   4.189   5.604  0.6185  0.2320  0.1257
19598SOL    HW160407   8.641   4.188   5.530  1.1524  0.8216 -0.3264
19598SOL    HW260408   8.788   4.182   5.565  0.9066  0.5227  0.6977
19599SOL     OW60409   8.864   7.878   1.420 -1.1956 -0.1295  0.0769
19599SOL    HW160410   8.804   7.804   1.416 -2.0939  0.4099  2.2701
19599SOL    HW260411   8.920   7.867   1.343 -1.4353 -2.9522  0.1901
19600SOL     OW60412   9.353   7.658   3.522  0.0016  0.3428  0.9009
19600SOL    HW160413   9.437   7.617   3.538 -0.6308  0.0212  4.0707
19600SOL    HW260414   9.299   7.634   3.597 -1.4259  4.3121  1.4270
19601SOL     OW60415   6.685   4.738   8.553  0.3988 -0.6967 -0.0072
19601SOL    HW160416   6.715   4.715   8.641  1.9640 -1.7847 -0.7536
19601SOL    HW260417   6.622   4.670   8.530 -0.3352 -0.1665  0.4256
19602SOL     OW60418   5.374   4.529   0.015  0.0697  0.0496  0.0368
19602SOL    HW160419   5.381   4.439  -0.015 -0.5236  0.1737 -0.5073
19602SOL    HW260420   5.452   4.543   0.069  0.5069 -0.5753 -0.4183
19603SOL     OW60421   5.764   2.284   0.269 -0.5817 -0.0434 -0.1839
19603SOL    HW160422   5.693   2.346   0.253  0.1902  1.4275  1.7935
19603SOL    HW260423   5.775   2.283   0.364  1.2880 -1.1023 -0.3628
19604SOL     OW60424   4.979   3.984   1.772  0.1448  0.4040  0.1845
19604SOL    HW160425   5.022   4.069   1.775  2.4393 -0.5551 -1.7105
19604SOL    HW260426   5.007   3.940   1.852  0.3713  0.7975  0.3240
19605SOL     OW60427   0.026   3.965   2.396 -0.9860  0.5264  0.2916
19605SOL    HW160428  -0.040   4.001   2.456 -1.4444  1.0235 -0.4919
19605SOL    HW260429   0.056   4.041   2.346  1.0394  0.5362  1.3911
19606SOL     OW60430   2.023   2.306   7.643 -0.3566 -0.0351 -0.3061
19606SOL    HW160431   2.081   2.262   7.705 -1.5541 -3.3679 -1.3141
19606SOL    HW260432   1.978   2.373   7.695  1.5089 -0.0226  1.4051
19607SOL     OW60433   4.458   9.700   3.208  0.1727 -0.5813 -0.6743
19607SOL    HW160434   4.481   9.694   3.301  0.8731 -0.5415 -0.8393
19607SOL    HW260435   4.452   9.794   3.191  0.1821 -0.5856 -0.7000
19608SOL     OW60436   5.455   0.638   4.809 -0.1101  0.5982 -0.0677
19608SOL    HW160437   5.388   0.674   4.867 -0.6945  1.9063 -1.4922
19608SOL    HW260438   5.435   0.675   4.723  2.3574  0.9307 -0.5775
19609SOL     OW60439   8.278   0.280   6.073 -0.5826  0.1401 -0.1989
19609SOL    HW160440   8.371   0.258   6.082 -0.8879 -1.4070 -0.5646
19609SOL    HW260441   8.268   0.359   6.125  1.0128  0.5404 -0.4397
19610SOL     OW60442   1.921   0.044   6.647 -0.0352 -0.7889  0.4185
19610SOL    HW160443   1.855   0.111   6.662  0.5674  0.1418 -0.8990
19610SOL    HW260444   1.950   0.018   6.735 -2.1226 -1.2369  1.0224
19611SOL     OW60445   6.262   9.378   6.073 -0.0254 -0.1170 -0.9329
19611SOL    HW160446   6.318   9.378   5.995  1.4468  0.9830  0.0771
19611SOL    HW260447   6.322   9.359   6.145 -1.2284 -0.3685  0.0228
19612SOL     OW60448   6.344   7.013   7.999 -0.1239 -0.2515  0.2298
19612SOL    HW160449   6.250   6.997   8.001 -0.2263  0.0245 -1.2770
19612SOL    HW260450   6.356   7.077   7.929  1.0730  0.5984  1.1687
19613SOL     OW60451   4.274   1.868   9.641  0.7539 -0.1482  0.5099
19613SOL    HW160452   4.361   1.887   9.605 -0.5091  1.5513 -1.8810
19613SOL    HW260453   4.225   1.831   9.568 -1.0833  0.6289  1.2833
19614SOL     OW60454   5.335   9.426   7.790 -0.1626 -0.4041 -0.4855
19614SOL    HW160455   5.426   9.401   7.807 -0.4807 -0.8006  0.6753
19614SOL    HW260456   5.339   9.520   7.770  0.1506  0.4419  2.9924
19615SOL     OW60457   1.490   1.267   4.255  0.3714  0.6907  0.3829
19615SOL    HW160458   1.433   1.317   4.312 -2.6273 -2.8090  0.8517
19615SOL    HW260459   1.477   1.305   4.168 -3.0740 -0.0939  0.4246
19616SOL     OW60460   2.315   1.504   5.552  0.0652 -0.4046 -0.6509
19616SOL    HW160461   2.401   1.514   5.592  0.1857  0.9023 -1.1842
19616SOL    HW260462   2.257   1.560   5.603 -0.5894 -1.6196 -0.0159
19617SOL     OW60463   9.303   6.672   7.853  0.3766 -0.6351  0.1430
19617SOL    HW160464   9.281   6.595   7.905 -1.1205  0.1720  0.7481
19617SOL    HW260465   9.333   6.636   7.769 -0.0893 -1.8711  0.4902
19618SOL     OW60466   0.917   7.926   0.687 -0.2957  0.4481  0.0764
19618SOL    HW160467   0.997   7.885   0.653  0.0163  0.7753  0.4215
19618SOL    HW260468   0.875   7.857   0.738  0.2871  0.5779  0.7506
19619SOL     OW60469   4.750   0.117   2.079  0.3224  0.0083  0.7142
19619SOL    HW160470   4.674   0.132   2.136 -0.8360 -1.1003 -0.4683
19619SOL    HW260471   4.795   0.043   2.118  1.3515  1.2381  1.9318
19620SOL     OW60472   5.769   3.098   0.563 -0.0073  0.1776 -0.2182
19620SOL    HW160473   5.700   3.051   0.516  1.2588 -0.1373 -1.8522
19620SOL    HW260474   5.780   3.180   0.515  0.6368  0.2975  0.1121
19621SOL     OW60475   9.210   8.192   9.171  0.0219  0.3045  0.4991
19621SOL    HW160476   9.153   8.129   9.126  0.7041 -0.0429  0.1084
19621SOL    HW260477   9.273   8.139   9.218  0.5930  0.6901  0.1816
19622SOL     OW60478   7.867   3.499   3.279 -0.4234 -0.1593  0.1072
19622SOL    HW160479   7.782   3.473   3.243 -0.0431  1.4588 -2.1839
19622SOL    HW260480   7.917   3.417   3.282 -0.5617 -0.5217 -3.1486
19623SOL     OW60481   6.818   1.105   0.239  0.2045  0.1173 -0.3289
19623SOL    HW160482   6.728   1.138   0.245 -0.0350 -0.5749 -0.1298
19623SOL    HW260483   6.820   1.028   0.295  0.6322 -0.5087 -1.1915
19624SOL     OW60484   1.980   4.699   1.635  0.1449  0.1704 -0.0937
19624SOL    HW160485   2.042   4.678   1.565 -1.6815 -0.0712 -1.7369
19624SOL    HW260486   2.004   4.787   1.664  0.9068  0.3009 -1.0779
19625SOL     OW60487   6.820   5.921   4.114  0.3131  0.3860 -0.1241
19625SOL    HW160488   6.759   5.848   4.125 -0.0105  0.7864  0.8318
19625SOL    HW260489   6.768   5.989   4.071  0.3210  0.4289 -0.0657
19626SOL     OW60490   3.699   5.722   3.726  0.0480 -0.4632 -0.3176
19626SOL    HW160491   3.680   5.815   3.716  0.6163 -0.3287 -0.1843
19626SOL    HW260492   3.783   5.709   3.681  0.5328 -0.6811  0.6077
19627SOL     OW60493   6.063   5.949   7.214 -0.3460  0.2640 -0.2329
19627SOL    HW160494   6.038   5.869   7.261  1.6767 -0.8321 -0.9350
19627SOL    HW260495   6.013   6.019   7.258 -2.5545 -1.3950  0.0788
19628SOL     OW60496   0.949   7.753   1.661  0.2392  0.5546  0.3957
19628SOL    HW160497   0.949   7.686   1.729  0.4559 -1.0153 -1.0893
19628SOL    HW260498   0.859   7.755   1.629  0.0684  1.4984  0.8971
19629SOL     OW60499   2.231   9.446   5.322  0.4178  0.0185 -0.0569
19629SOL    HW160500   2.167   9.377   5.305 -1.1268  0.8387  1.8858
19629SOL    HW260501   2.312   9.400   5.344 -0.2947 -1.1510  0.2022
19630SOL     OW60502   7.267   6.925   9.023 -0.1855  0.1785 -0.6401
19630SOL    HW160503   7.235   6.954   9.109 -0.3087 -1.3500 -0.1399
19630SOL    HW260504   7.337   6.986   9.002 -0.8158  1.1950  0.0718
19631SOL     OW60505   2.237   1.384   3.905  0.3654  0.0516  0.3587
19631SOL    HW160506   2.196   1.318   3.849  0.5293  1.8176 -1.9627
19631SOL    HW260507   2.188   1.378   3.987 -2.1824 -0.3661 -1.0840
19632SOL     OW60508   5.652   8.927   7.240 -0.0340 -0.2050  0.2607
19632SOL    HW160509   5.605   8.848   7.215 -0.3162 -0.0190  0.1999
19632SOL    HW260510   5.742   8.898   7.253  0.4132 -0.1089 -2.1437
19633SOL     OW60511   6.673   3.487   4.398 -0.4661 -0.4090  0.3437
19633SOL    HW160512   6.652   3.512   4.308  0.4992 -0.4061  0.1168
19633SOL    HW260513   6.746   3.543   4.423 -0.6143 -0.5297  1.0760
19634SOL     OW60514   2.685   0.918   0.462 -0.7590 -0.0698 -0.0300
19634SOL    HW160515   2.691   0.863   0.540 -2.1109  0.4545  0.4775
19634SOL    HW260516   2.761   0.977   0.468 -1.2220  0.4288  1.2743
19635SOL     OW60517   7.684   5.367   7.567 -0.4882  0.1610  0.0822
19635SOL    HW160518   7.690   5.460   7.544  1.6528 -0.2441 -1.3102
19635SOL    HW260519   7.754   5.355   7.631  0.4456 -0.7895 -1.0636
19636SOL     OW60520   2.301   0.579   0.103  0.1737 -0.2842 -0.2131
19636SOL    HW160521   2.357   0.526   0.047  0.2771 -1.2572  0.7624
19636SOL    HW260522   2.285   0.659   0.053  2.0097 -0.1882 -0.7182
19637SOL     OW60523   4.756   6.121   8.104 -0.5500  0.5472  0.1271
19637SOL    HW160524   4.748   6.036   8.061  1.0576  1.1993 -1.6230
19637SOL    HW260525   4.848   6.145   8.092 -0.4972  1.6851  2.2889
19638SOL     OW60526   7.319   5.545   0.237 -0.4664 -0.2946  0.4072
19638SOL    HW160527   7.304   5.586   0.322 -0.0443 -1.5225  1.0823
19638SOL    HW260528   7.283   5.457   0.245 -0.8907 -0.2557 -0.8590
19639SOL     OW60529   4.806   8.202   8.948  0.7517  0.2792  0.5918
19639SOL    HW160530   4.810   8.297   8.949  1.3165  0.2573  0.9931
19639SOL    HW260531   4.774   8.179   8.861  0.3823  0.8422  0.5778
19640SOL     OW60532   2.035   6.815   6.566 -0.3728  0.6810  0.3764
19640SOL    HW160533   2.051   6.897   6.519  0.3067  0.5074  0.3004
19640SOL    HW260534   1.939   6.810   6.573 -0.4209  1.4608  0.3518
19641SOL     OW60535   6.838   4.094   5.731  0.3284  0.7810  0.4086
19641SOL    HW160536   6.825   4.071   5.823 -1.0298 -0.5272 -0.0678
19641SOL    HW260537   6.930   4.075   5.714  1.1118  2.8245  1.9306
19642SOL     OW60538   0.154   4.948   0.018  0.2009  0.0120 -0.4487
19642SOL    HW160539   0.125   4.936   0.108 -1.5458  0.8285 -0.8495
19642SOL    HW260540   0.138   5.040  -0.000  0.5718 -0.1292 -1.5656
19643SOL     OW60541   3.244   5.795   2.943 -0.2277  0.5701  0.4721
19643SOL    HW160542   3.338   5.791   2.959  0.3169 -0.6182 -2.5088
19643SOL    HW260543   3.207   5.728   3.000  0.9184  0.0266  0.6019
19644SOL     OW60544   7.716   7.198   1.503 -0.3673 -0.5788 -0.7388
19644SOL    HW160545   7.801   7.238   1.486 -0.1976 -0.8212 -0.4767
19644SOL    HW260546   7.708   7.129   1.437 -0.7037 -0.0580 -1.2539
19645SOL     OW60547   5.926   3.078   3.583 -0.9757  0.0094 -0.1379
19645SOL    HW160548   5.932   2.983   3.589 -0.1548 -0.1062 -2.0326
19645SOL    HW260549   5.987   3.111   3.648  1.3459 -0.8574 -1.7493
19646SOL     OW60550   0.815   0.220   3.763 -0.4445  0.4313  0.8409
19646SOL    HW160551   0.767   0.245   3.842  0.2107  0.6422  1.1786
19646SOL    HW260552   0.888   0.281   3.758 -1.2051  1.2680 -0.6687
19647SOL     OW60553   9.057   2.116   4.491 -0.5903 -0.4985 -0.8045
19647SOL    HW160554   9.059   2.114   4.395 -1.2169 -0.0233 -0.8345
19647SOL    HW260555   8.986   2.177   4.512 -0.4666 -0.6119 -0.0371
19648SOL     OW60556   5.305   6.080   9.378  0.3744  0.0507  0.0602
19648SOL    HW160557   5.222   6.062   9.333  0.5878  0.9282 -0.6981
19648SOL    HW260558   5.353   5.997   9.374  0.5899  0.2370 -1.7719
19649SOL     OW60559   2.943   9.756   5.772  0.4429 -0.5227  0.0987
19649SOL    HW160560   2.904   9.733   5.688  1.3472 -0.7767 -0.2662
19649SOL    HW260561   2.991   9.838   5.755 -1.7128  1.0378  1.0778
19650SOL     OW60562   1.293   7.501   6.811  0.1190 -0.1019  0.1182
19650SOL    HW160563   1.227   7.559   6.849  1.3150  0.0860  2.0460
19650SOL    HW260564   1.354   7.559   6.767  0.6299  0.0127  0.9606
19651SOL     OW60565   7.682   7.864   3.515  0.1427  0.1298  0.1294
19651SOL    HW160566   7.736   7.911   3.451  0.8332 -0.2311  0.4348
19651SOL    HW260567   7.658   7.931   3.580  0.3951  0.2489  0.0996
19652SOL     OW60568   8.904   5.610   5.091  0.4760  0.0839 -0.0215
19652SOL    HW160569   8.895   5.573   5.003  1.1343 -0.0726 -0.0263
19652SOL    HW260570   8.958   5.547   5.138 -1.5651 -0.8877  1.1385
19653SOL     OW60571   6.406   9.184   4.765 -0.7273  0.1915 -0.4370
19653SOL    HW160572   6.404   9.273   4.732  0.5681 -0.3055 -1.9396
19653SOL    HW260573   6.498   9.160   4.766 -0.9831 -0.8502  0.7566
19654SOL     OW60574   7.812   6.596   0.619 -0.3696  0.1661  0.4119
19654SOL    HW160575   7.893   6.575   0.573 -0.9033  1.2411 -1.1381
19654SOL    HW260576   7.765   6.513   0.625 -0.3772  0.0076 -1.2781
19655SOL     OW60577   3.327   5.947   5.632  0.2580  0.0557  0.9184
19655SOL    HW160578   3.401   6.008   5.632 -0.0135  0.4252 -0.5830
19655SOL    HW260579   3.256   5.996   5.675  0.9482 -0.4531  2.7515
19656SOL     OW60580   9.648   9.073   5.728 -0.2024  0.3054 -0.0145
19656SOL    HW160581   9.649   9.059   5.822 -1.6787 -1.8759 -0.2492
19656SOL    HW260582   9.600   9.155   5.716  0.8015  1.0977  1.1282
19657SOL     OW60583   2.080   6.790   7.687  0.5540 -0.2851  0.3875
19657SOL    HW160584   2.105   6.717   7.743 -1.7858 -1.6759 -0.2580
19657SOL    HW260585   2.111   6.766   7.600  0.1092 -0.3503  0.2436
19658SOL     OW60586   1.960   2.754   9.451  0.0411 -0.0617 -0.9652
19658SOL    HW160587   1.874   2.771   9.411 -0.2393  1.0295  0.0577
19658SOL    HW260588   1.952   2.666   9.488 -1.3955  0.8330  0.9735
19659SOL     OW60589   8.729   7.166   7.392  0.2150 -0.0481  0.4702
19659SOL    HW160590   8.795   7.111   7.349 -1.1117 -0.0009 -1.7588
19659SOL    HW260591   8.645   7.130   7.364 -0.6992  2.1462  0.2028
19660SOL     OW60592   0.464   2.090   8.176 -0.1546 -0.6121  0.0773
19660SOL    HW160593   0.509   2.053   8.100 -0.3794 -0.0004 -0.3631
19660SOL    HW260594   0.447   2.182   8.152 -0.0937 -0.3722  0.9245
19661SOL     OW60595   5.967   6.690   6.637 -0.0797 -0.4275  0.6183
19661SOL    HW160596   5.926   6.771   6.667  1.6099  0.4451  0.7011
19661SOL    HW260597   5.995   6.709   6.547 -0.0175 -1.0703  0.4944
19662SOL     OW60598   9.136   5.109   9.596  0.6883  0.6554 -0.7205
19662SOL    HW160599   9.096   5.180   9.547 -1.9752 -0.5192 -0.3841
19662SOL    HW260600   9.110   5.124   9.687  1.6946  0.2712 -0.3493
19663SOL     OW60601   8.332   4.943   8.046 -0.2052  0.3465 -0.0379
19663SOL    HW160602   8.275   5.021   8.043  0.4672  0.9216  1.1979
19663SOL    HW260603   8.409   4.972   8.095  0.1558 -1.0518  0.2627
19664SOL     OW60604   8.930   2.983   7.087  0.3029 -0.1389 -0.5381
19664SOL    HW160605   8.936   3.077   7.073 -0.4448 -0.2006 -1.3523
19664SOL    HW260606   8.913   2.946   7.000 -0.4505 -0.9265 -0.0779
19665SOL     OW60607   0.484   8.301   7.342  0.1402 -0.0242  0.2071
19665SOL    HW160608   0.511   8.262   7.259  0.8594  0.2808  0.2917
19665SOL    HW260609   0.554   8.363   7.364 -0.6178  0.7802  0.4387
19666SOL     OW60610   4.094   3.556   2.802 -0.0622 -0.1911  0.3016
19666SOL    HW160611   4.087   3.506   2.883  1.9002  0.2304  0.7904
19666SOL    HW260612   4.097   3.491   2.733 -2.9982 -0.5308  0.3912
19667SOL     OW60613   0.135   9.267   0.978  0.0859  0.4350 -0.1219
19667SOL    HW160614   0.098   9.185   0.944 -1.8225  0.7907  0.9876
19667SOL    HW260615   0.211   9.283   0.923  0.0840 -1.7028 -0.8407
19668SOL     OW60616   7.040   3.982   8.070  0.4890  0.1155  0.0574
19668SOL    HW160617   7.101   4.046   8.034 -1.4616  1.6868 -0.6504
19668SOL    HW260618   7.054   3.985   8.165  0.8932  1.1322 -0.0262
19669SOL     OW60619   5.151   6.105   2.377 -0.0764  0.2144  0.4075
19669SOL    HW160620   5.233   6.057   2.363  0.1761  0.1833  1.8051
19669SOL    HW260621   5.157   6.135   2.468 -0.1931  2.9400 -0.3914
19670SOL     OW60622   4.253   8.300   6.401 -0.4527 -0.5473 -0.3094
19670SOL    HW160623   4.324   8.325   6.461 -1.0620  0.7285 -0.0915
19670SOL    HW260624   4.178   8.286   6.459 -1.3289  1.7117 -0.7823
19671SOL     OW60625   3.827   9.009   1.601 -0.3505  0.4141 -0.5630
19671SOL    HW160626   3.894   9.077   1.599  1.2033 -0.9433  1.1669
19671SOL    HW260627   3.782   9.022   1.685 -0.4126 -0.3383 -0.4726
19672SOL     OW60628   2.010   1.301   2.255 -0.7481 -0.5456 -0.3311
19672SOL    HW160629   2.083   1.253   2.217  0.2909  0.8580 -0.2032
19672SOL    HW260630   1.972   1.241   2.319  1.8398 -0.5180  1.4073
19673SOL     OW60631   9.214   7.496   8.616 -0.1621  0.0203 -0.1091
19673SOL    HW160632   9.149   7.559   8.587 -0.7102 -1.3960 -2.2308
19673SOL    HW260633   9.298   7.536   8.593 -0.3250  1.1300  1.1133
19674SOL     OW60634   7.102   5.560   5.305  0.1269 -0.5457 -0.0199
19674SOL    HW160635   7.147   5.613   5.370  1.3149 -1.2126 -0.2561
19674SOL    HW260636   7.158   5.565   5.227 -0.7094 -0.6281 -0.6339
19675SOL     OW60637   1.926   6.120   0.133  0.2925 -0.1900  0.3281
19675SOL    HW160638   2.004   6.066   0.120 -0.1829 -0.8012 -0.0204
19675SOL    HW260639   1.876   6.076   0.200  0.5926  0.6080  1.1024
19676SOL     OW60640   5.310   6.869   1.246 -0.0805 -0.0082  0.3968
19676SOL    HW160641   5.323   6.871   1.341 -1.1496  0.8429  0.5467
19676SOL    HW260642   5.310   6.961   1.220  0.8118 -0.2573 -0.5331
19677SOL     OW60643   0.244   2.333   0.007 -0.1400  0.1202  0.0688
19677SOL    HW160644   0.297   2.376  -0.059 -0.7499 -0.8023 -1.0644
19677SOL    HW260645   0.301   2.326   0.084  0.4505  1.5427 -0.2087
19678SOL     OW60646   3.882   2.504   2.021 -0.1069 -0.1083 -0.2667
19678SOL    HW160647   3.950   2.442   2.048  0.5220 -0.6686 -2.8916
19678SOL    HW260648   3.913   2.589   2.051  1.5661 -0.4294 -0.9993
19679SOL     OW60649   4.161   4.002   7.283 -0.6197 -0.0496 -0.6014
19679SOL    HW160650   4.183   4.095   7.283 -1.6417  0.2305  1.1051
19679SOL    HW260651   4.245   3.957   7.294 -0.1769  0.6737 -0.9602
19680SOL     OW60652   7.535   0.537   4.409 -0.5287 -0.1987 -0.3402
19680SOL    HW160653   7.620   0.556   4.370 -0.2910  0.8513  0.6513
19680SOL    HW260654   7.482   0.503   4.336  0.7318 -0.8826 -0.9572
19681SOL     OW60655   3.850   7.565   3.850 -0.2124  0.2729 -0.0490
19681SOL    HW160656   3.891   7.643   3.887 -0.9483  0.5483  0.2042
19681SOL    HW260657   3.904   7.543   3.774  0.7118  0.3112  0.5726
19682SOL     OW60658   3.751   9.146   0.792  1.2496  0.0765  0.3821
19682SOL    HW160659   3.747   9.239   0.772  0.8405  0.5401  2.4087
19682SOL    HW260660   3.669   9.110   0.759  1.7311  0.2586 -1.0714
19683SOL     OW60661   9.230   4.782   3.637 -0.2714 -0.1128  0.8406
19683SOL    HW160662   9.250   4.689   3.650 -1.3732 -0.2915  1.3386
19683SOL    HW260663   9.202   4.788   3.546 -1.3552 -0.5010  1.1327
19684SOL     OW60664   6.183   6.140   6.923 -0.1597 -0.3917  0.3834
19684SOL    HW160665   6.241   6.067   6.900 -1.1004 -0.6211 -1.3980
19684SOL    HW260666   6.107   6.099   6.963  0.1277 -0.2156  1.1352
19685SOL     OW60667   0.251   8.896   1.164  0.6448 -0.1544  0.2142
19685SOL    HW160668   0.211   8.822   1.117  1.7008 -0.4663 -0.2167
19685SOL    HW260669   0.345   8.886   1.149  0.8194  1.1758  0.3056
19686SOL     OW60670   7.253   2.412   1.476 -0.4182 -0.2318 -0.1000
19686SOL    HW160671   7.347   2.422   1.460  0.2158 -0.1315  2.9887
19686SOL    HW260672   7.237   2.318   1.466 -0.0881 -0.2136 -0.9212
19687SOL     OW60673   6.461   6.520   4.201 -0.4070  0.6495  0.7647
19687SOL    HW160674   6.449   6.455   4.270  1.0905 -0.9456 -0.3944
19687SOL    HW260675   6.372   6.546   4.176 -1.0225 -0.5835  1.6114
19688SOL     OW60676   8.566   5.844   7.771 -0.0428  0.3539 -0.2323
19688SOL    HW160677   8.517   5.767   7.798  1.7813 -1.2057 -1.1258
19688SOL    HW260678   8.539   5.861   7.681 -0.1392  0.5130 -0.1744
19689SOL     OW60679   2.577   7.194   0.034 -0.6368  0.4642  0.4788
19689SOL    HW160680   2.669   7.196   0.009 -0.4779  0.3675  1.0442
19689SOL    HW260681   2.568   7.115   0.086 -1.1873  0.1287 -0.1135
19690SOL     OW60682   2.062   4.333   4.218 -0.3447 -0.2048 -0.3696
19690SOL    HW160683   1.976   4.297   4.198 -0.5908  0.7061 -1.0607
19690SOL    HW260684   2.116   4.257   4.240 -1.4469 -0.7371  0.5967
19691SOL     OW60685   7.519   9.144   2.221 -0.2098  0.1373 -0.4002
19691SOL    HW160686   7.493   9.165   2.132  0.9192  1.4282 -0.4546
19691SOL    HW260687   7.489   9.218   2.273 -0.5849 -0.4618  0.2652
19692SOL     OW60688   1.600   8.849   4.502  0.0435  0.1234  0.2961
19692SOL    HW160689   1.529   8.890   4.453  0.3922 -1.1820 -1.3837
19692SOL    HW260690   1.556   8.790   4.563 -0.3293  0.1656  0.0705
19693SOL     OW60691   4.825   9.794   6.080 -0.3664  0.1949 -0.4887
19693SOL    HW160692   4.800   9.869   6.027 -0.2312  0.2932 -0.4139
19693SOL    HW260693   4.748   9.737   6.079 -0.8791  0.8593  0.3980
19694SOL     OW60694   3.436   7.765   8.564  0.1285  0.2967 -0.3368
19694SOL    HW160695   3.342   7.777   8.571  0.1955  0.7077 -0.0855
19694SOL    HW260696   3.460   7.717   8.644  0.1366  0.2318 -0.3784
19695SOL     OW60697   0.776   5.446   4.765  0.0503 -0.0508 -0.4330
19695SOL    HW160698   0.732   5.452   4.681  0.5995 -1.8968 -0.8972
19695SOL    HW260699   0.792   5.352   4.778  0.8270  0.2689  1.2771
19696SOL     OW60700   0.883   5.129   0.701  0.0089 -0.1328 -0.1994
19696SOL    HW160701   0.952   5.152   0.763 -2.0247 -0.1579  2.2570
19696SOL    HW260702   0.910   5.043   0.667  1.2737 -0.0587  0.5269
19697SOL     OW60703   5.554   1.391   3.729  0.0493  0.0695  0.4858
19697SOL    HW160704   5.621   1.329   3.758  0.6241 -0.0056 -0.9327
19697SOL    HW260705   5.544   1.452   3.803  2.1585  0.4713  0.4958
19698SOL     OW60706   7.000   1.101   3.002  0.2273 -0.4545  0.2293
19698SOL    HW160707   6.935   1.151   2.953  1.7221  1.1959 -0.1696
19698SOL    HW260708   6.958   1.085   3.087 -1.9489 -2.3491 -1.0863
19699SOL     OW60709   4.031   6.729   4.025 -0.1774 -1.0974 -0.0242
19699SOL    HW160710   3.962   6.665   4.038 -0.7755 -0.6592 -0.8991
19699SOL    HW260711   3.984   6.811   4.007  0.4828 -1.1802 -2.6347
19700SOL     OW60712   4.035   9.754   3.088  0.1457  0.6209  0.1322
19700SOL    HW160713   4.025   9.748   3.183 -1.5940 -0.2310 -0.0772
19700SOL    HW260714   4.078   9.672   3.063  0.7184  0.9007  0.1854
19701SOL     OW60715   8.443   3.818   0.822 -0.1367  0.1079  0.7637
19701SOL    HW160716   8.351   3.795   0.806 -0.5595  2.9478 -1.8757
19701SOL    HW260717   8.492   3.740   0.799 -1.7997 -1.2027  1.4432
19702SOL     OW60718   9.387   2.530   9.617  0.1842 -0.0749 -0.7163
19702SOL    HW160719   9.455   2.582   9.658 -0.1117 -0.5908  0.4543
19702SOL    HW260720   9.422   2.508   9.531  0.6187  1.4165 -0.9475
19703SOL     OW60721   4.150   1.771   7.772 -0.0148  0.0410 -0.7193
19703SOL    HW160722   4.097   1.745   7.847  0.0546  0.0656 -0.6611
19703SOL    HW260723   4.097   1.837   7.727  0.5249  1.0585  0.0915
19704SOL     OW60724   7.613   7.503   5.219 -0.0574  0.3071 -0.1515
19704SOL    HW160725   7.597   7.442   5.147 -0.4704 -0.6894  0.7538
19704SOL    HW260726   7.568   7.583   5.193 -4.3742 -1.4391  0.9444
19705SOL     OW60727   1.761   0.590   3.826 -0.3560  0.5593 -0.0589
19705SOL    HW160728   1.781   0.497   3.819  1.4411  0.9675 -0.8948
19705SOL    HW260729   1.744   0.618   3.736 -1.9253  0.8686  0.2963
19706SOL     OW60730   0.687   0.148   8.736  0.2079 -0.2049 -0.1631
19706SOL    HW160731   0.774   0.175   8.707  0.6832  0.0219  1.4308
19706SOL    HW260732   0.680   0.056   8.710 -0.2685  0.5192 -2.9370
19707SOL     OW60733   3.750   5.912   4.269 -0.1912  0.2702  0.2565
19707SOL    HW160734   3.807   5.858   4.213 -1.7953 -0.0032 -1.1891
19707SOL    HW260735   3.721   5.982   4.211 -2.1985 -0.2250  0.6034
19708SOL     OW60736   2.606   4.332   2.996  0.6408  0.3168  0.7836
19708SOL    HW160737   2.656   4.253   3.017 -0.0879 -0.1588  0.7444
19708SOL    HW260738   2.541   4.339   3.066 -0.4114 -0.0795 -0.1338
19709SOL     OW60739   4.006   3.877   8.173 -0.3660  0.1904 -0.3586
19709SOL    HW160740   4.098   3.876   8.145  0.3219 -1.0879  1.7283
19709SOL    HW260741   3.976   3.966   8.155  1.2380  0.6009 -1.1699
19710SOL     OW60742   4.644   0.665   7.443  0.6276 -0.1288  0.1592
19710SOL    HW160743   4.643   0.598   7.375 -1.7096 -0.2012  0.1578
19710SOL    HW260744   4.594   0.626   7.515 -0.5175  1.4314  0.2786
19711SOL     OW60745   9.671   7.367   9.420  0.5305 -0.4383  0.3388
19711SOL    HW160746   9.690   7.441   9.478  0.1697  0.0145 -0.1060
19711SOL    HW260747   9.741   7.304   9.437  2.6950  1.2934 -1.4785
19712SOL     OW60748   3.886   4.990   0.182  0.1706 -0.6120 -0.3012
19712SOL    HW160749   3.908   4.926   0.250  1.3538  0.4333  0.3321
19712SOL    HW260750   3.791   4.981   0.171 -0.1099 -0.5784  1.7305
19713SOL     OW60751   9.402   7.687   6.117 -0.3414  0.0876 -0.3248
19713SOL    HW160752   9.362   7.623   6.177 -1.0199  0.8655  0.0604
19713SOL    HW260753   9.344   7.762   6.120 -0.5040  0.0566 -2.1652
19714SOL     OW60754   6.217   2.561   7.421 -0.1678  0.1961  0.3130
19714SOL    HW160755   6.313   2.561   7.419 -0.1559  1.0368 -1.2962
19714SOL    HW260756   6.193   2.468   7.419  0.6085 -0.0145  0.5180
19715SOL     OW60757   0.566   9.120   4.732  0.3805  0.3134 -0.0782
19715SOL    HW160758   0.564   9.046   4.672 -1.8765 -1.4210  1.9571
19715SOL    HW260759   0.608   9.087   4.811  0.1930  1.4797  0.5335
19716SOL     OW60760   0.680   9.724   8.120  0.5049  0.0139 -0.3392
19716SOL    HW160761   0.714   9.803   8.163  1.0144 -1.1934  1.6323
19716SOL    HW260762   0.591   9.715   8.155  0.5211 -0.3884 -0.4046
19717SOL     OW60763   3.744   7.176   6.852 -0.5244 -0.5622 -0.4833
19717SOL    HW160764   3.801   7.219   6.788 -1.8560  0.6601 -0.8842
19717SOL    HW260765   3.662   7.226   6.849 -0.8227 -0.8198  1.7675
19718SOL     OW60766   7.215   8.536   2.906 -0.0167 -0.7097  0.4171
19718SOL    HW160767   7.210   8.624   2.944 -0.1811 -1.6857  2.8833
19718SOL    HW260768   7.291   8.496   2.949  2.3430 -0.6999 -3.3252
19719SOL     OW60769   8.602   7.949   6.160 -0.6967 -0.3964 -0.7621
19719SOL    HW160770   8.638   8.023   6.208 -2.7405 -0.3230  0.7896
19719SOL    HW260771   8.523   7.984   6.118 -1.2622 -1.4694 -0.6374
19720SOL     OW60772   6.556   5.391   8.135  0.9017 -0.2652  0.5654
19720SOL    HW160773   6.530   5.482   8.147 -0.1079 -0.3816 -0.5606
19720SOL    HW260774   6.596   5.388   8.048  2.3491 -0.6240  1.2066
19721SOL     OW60775   6.418   9.025   5.704 -0.0946 -0.4743  0.2310
19721SOL    HW160776   6.362   8.949   5.689  1.0999 -1.3230 -0.0789
19721SOL    HW260777   6.429   9.063   5.617  1.3897 -1.4795 -0.0589
19722SOL     OW60778   3.680   5.131   6.752 -0.2972 -0.0679 -0.6115
19722SOL    HW160779   3.662   5.052   6.804  0.5047  0.3917  0.3895
19722SOL    HW260780   3.685   5.099   6.662 -1.0735 -0.9862 -0.3511
19723SOL     OW60781   5.024   4.069   4.002  0.3214  0.1472 -0.0421
19723SOL    HW160782   5.047   3.977   3.994 -2.4725 -0.5553 -1.5593
19723SOL    HW260783   5.057   4.110   3.922  0.3860  0.1681 -0.0050
19724SOL     OW60784   9.163   6.406   4.618  0.2034  0.2158  0.2719
19724SOL    HW160785   9.237   6.432   4.672  0.3658 -0.1219  0.2116
19724SOL    HW260786   9.148   6.314   4.640 -1.2885  0.7125  1.5674
19725SOL     OW60787   8.488   8.735   8.195  0.8511 -1.0375  0.0965
19725SOL    HW160788   8.463   8.654   8.150 -0.1295  0.2495 -1.8192
19725SOL    HW260789   8.582   8.745   8.175  1.0314 -1.8013  0.5373
19726SOL     OW60790   6.477   6.643   3.868 -0.4107  0.2714 -0.2482
19726SOL    HW160791   6.493   6.735   3.887 -0.7509  0.2554  0.1635
19726SOL    HW260792   6.505   6.597   3.948 -0.8557  0.0890 -0.1899
19727SOL     OW60793   1.297   7.639   9.406 -0.0992  0.1444  0.2422
19727SOL    HW160794   1.257   7.570   9.353  0.4253 -0.3576  0.4972
19727SOL    HW260795   1.224   7.697   9.428 -1.0353 -1.5677  1.9870
19728SOL     OW60796   4.518   5.693   2.195  0.4636  0.1956 -0.1288
19728SOL    HW160797   4.456   5.764   2.179  0.0673 -0.2326 -0.5384
19728SOL    HW260798   4.531   5.693   2.290 -1.2747 -0.5896  0.1490
19729SOL     OW60799   4.071   0.380   1.787  0.3169 -0.2195  0.1603
19729SOL    HW160800   4.118   0.448   1.835 -0.1494  0.8494 -0.8425
19729SOL    HW260801   4.055   0.419   1.700  0.9795 -2.0000 -0.8064
19730SOL     OW60802   5.192   5.850   4.643  0.0697  0.3110 -0.0657
19730SOL    HW160803   5.105   5.825   4.673  0.5559 -0.3597  0.8486
19730SOL    HW260804   5.215   5.926   4.697  1.4265 -1.6041  2.2814
19731SOL     OW60805   3.736   0.288   5.712 -0.2579 -0.3933  0.3748
19731SOL    HW160806   3.652   0.333   5.712 -1.1421 -1.9401  1.8608
19731SOL    HW260807   3.752   0.269   5.619 -1.7338 -0.4007  0.0960
19732SOL     OW60808   6.924   6.973   6.931  0.3121  1.0543 -0.2109
19732SOL    HW160809   6.880   6.889   6.945 -0.6984  1.2828 -1.7210
19732SOL    HW260810   6.892   7.002   6.845  4.1211  0.8301 -1.8707
19733SOL     OW60811   5.936   5.162   5.785  0.0322  0.4335 -0.0117
19733SOL    HW160812   5.993   5.114   5.845  0.6321  1.4355  0.2435
19733SOL    HW260813   5.931   5.250   5.822  0.0170  0.9417 -1.1716
19734SOL     OW60814   0.489   4.243   6.171 -0.0221 -0.2193 -0.0244
19734SOL    HW160815   0.443   4.283   6.245  0.9268 -1.4080  1.2541
19734SOL    HW260816   0.419   4.215   6.112 -0.8005  0.6822  0.4344
19735SOL     OW60817   0.136   4.779   8.892 -0.1515 -0.5587  0.1106
19735SOL    HW160818   0.060   4.807   8.840 -1.4290  0.4957  2.3990
19735SOL    HW260819   0.194   4.854   8.892 -1.2355  0.3604  2.0236
19736SOL     OW60820   7.160   5.139   6.113  0.2353 -0.1892  0.1738
19736SOL    HW160821   7.229   5.202   6.090  2.8699 -2.2543  1.8622
19736SOL    HW260822   7.140   5.094   6.031  0.1892  1.0715 -0.5276
19737SOL     OW60823   2.663   2.823   5.738 -0.7892  0.0315  0.4778
19737SOL    HW160824   2.692   2.733   5.732 -0.4660  0.1657 -0.0246
19737SOL    HW260825   2.609   2.826   5.818  0.8998 -0.1155  1.6710
19738SOL     OW60826   7.016   3.648   0.518 -0.0067  0.0360 -0.4693
19738SOL    HW160827   7.085   3.704   0.553 -1.2261  0.3219  1.6773
19738SOL    HW260828   6.984   3.693   0.440  0.3809  1.3012  0.0880
19739SOL     OW60829   8.690   5.013   2.119  0.2581  0.5745  0.0010
19739SOL    HW160830   8.603   5.014   2.158  0.3306  0.1844  0.1750
19739SOL    HW260831   8.749   4.998   2.193  0.3486 -0.8191 -0.3365
19740SOL     OW60832   9.533   6.473   5.117  0.3195 -0.1706 -0.0497
19740SOL    HW160833   9.559   6.494   5.027 -0.3226 -1.4372 -0.5472
19740SOL    HW260834   9.612   6.490   5.169  1.6410 -2.1702 -1.2696
19741SOL     OW60835   7.381   7.035   2.352 -0.7039 -0.3951  0.4316
19741SOL    HW160836   7.347   6.951   2.321 -0.9734  0.1923 -0.9350
19741SOL    HW260837   7.385   7.089   2.274  0.1443  0.6480  1.1754
19742SOL     OW60838   8.257   9.024   4.642  0.3233 -0.2044  0.6637
19742SOL    HW160839   8.174   8.985   4.615 -0.0721  0.8038  0.3376
19742SOL    HW260840   8.295   9.057   4.560  0.3925  0.5264  0.9779
19743SOL     OW60841   2.962   6.080   9.773 -0.2142 -0.1121  0.6828
19743SOL    HW160842   2.986   6.157   9.824 -1.4647  0.1319  0.9453
19743SOL    HW260843   2.867   6.072   9.784 -0.5722  0.0492 -1.7245
19744SOL     OW60844   9.656   8.267   6.799 -0.3614 -0.4913 -0.5098
19744SOL    HW160845   9.669   8.179   6.833 -2.4503 -0.9599 -0.7753
19744SOL    HW260846   9.664   8.325   6.875  0.4518 -0.9602 -0.2346
19745SOL     OW60847   3.662   8.348   8.645 -0.1233 -0.1644 -0.1796
19745SOL    HW160848   3.656   8.441   8.666 -0.3826 -0.7706  2.9192
19745SOL    HW260849   3.572   8.316   8.651  0.3779 -1.3150  3.1376
19746SOL     OW60850   9.662   3.725   4.333  0.5600 -0.4557  0.0935
19746SOL    HW160851   9.581   3.715   4.283  0.2909 -1.8485  0.7524
19746SOL    HW260852   9.642   3.793   4.397  0.1231 -0.3473 -0.1483
19747SOL     OW60853   5.554   5.662   1.356  0.0757 -0.2101  0.5601
19747SOL    HW160854   5.619   5.715   1.401  0.5518  0.9718 -1.3942
19747SOL    HW260855   5.513   5.609   1.425  2.6101 -0.5015  1.9412
19748SOL     OW60856   1.404   7.939   8.397  0.2575 -0.2453  0.2665
19748SOL    HW160857   1.472   7.920   8.461  0.4722  2.7653  1.0592
19748SOL    HW260858   1.452   7.958   8.316  0.0690 -2.2155 -0.3691
19749SOL     OW60859   8.240   1.331   0.488  0.3911  1.1469  0.1762
19749SOL    HW160860   8.178   1.396   0.456 -0.8589  0.1262  0.4474
19749SOL    HW260861   8.203   1.300   0.570  0.3640 -0.6926 -0.4844
19750SOL     OW60862   5.042   6.489   1.152  0.1430 -0.1105  0.2235
19750SOL    HW160863   5.118   6.485   1.210  0.8562 -0.0226 -0.6712
19750SOL    HW260864   5.009   6.578   1.163  0.5886  0.0729  0.1259
19751SOL     OW60865   6.127   0.408   2.184 -0.4207 -0.9311  0.4846
19751SOL    HW160866   6.031   0.411   2.191 -0.4628 -0.1249 -0.2547
19751SOL    HW260867   6.144   0.419   2.090  0.3388 -3.0943  0.3077
19752SOL     OW60868   6.256   6.858   8.410  0.7864  0.5250 -0.4750
19752SOL    HW160869   6.315   6.796   8.366  1.0617  0.5141 -0.0974
19752SOL    HW260870   6.212   6.805   8.476  1.2236  0.7891  0.0317
19753SOL     OW60871   7.001   5.688   7.521  0.4103 -0.2727 -0.1127
19753SOL    HW160872   6.935   5.668   7.455  0.0598 -0.7864  0.3793
19753SOL    HW260873   7.044   5.767   7.490 -2.9395  2.3874  1.3512
19754SOL     OW60874   5.026   4.481   0.440  0.1554  0.8484 -0.3574
19754SOL    HW160875   5.047   4.472   0.533 -0.0145  1.1989 -0.2840
19754SOL    HW260876   5.022   4.391   0.407  0.8478  0.7416 -0.1684
19755SOL     OW60877   0.546   3.465   6.719  0.6148 -0.0787  0.5690
19755SOL    HW160878   0.607   3.392   6.732  1.5362  0.6342  0.3320
19755SOL    HW260879   0.549   3.481   6.624  0.5118  0.3445  0.6359
19756SOL     OW60880   5.751   4.289   8.438  0.3348 -0.0689 -0.7008
19756SOL    HW160881   5.722   4.345   8.511  0.1548 -1.3185  0.2218
19756SOL    HW260882   5.725   4.201   8.464  2.3778 -0.8681 -1.1866
19757SOL     OW60883   7.607   1.741   1.677  0.0654  0.2953 -0.4053
19757SOL    HW160884   7.558   1.790   1.743 -1.7408  0.5799 -1.8788
19757SOL    HW260885   7.612   1.652   1.713 -0.1420  0.6239  0.4802
19758SOL     OW60886   0.172   7.671   6.031  0.1986 -0.2781 -0.0072
19758SOL    HW160887   0.200   7.581   6.049  0.9011 -0.0038  0.3200
19758SOL    HW260888   0.115   7.664   5.955 -1.7441 -1.3257  1.4610
19759SOL     OW60889   0.647   4.466   6.220  0.0734 -0.2937  0.2195
19759SOL    HW160890   0.612   4.379   6.199  0.8195 -0.7960  0.9722
19759SOL    HW260891   0.727   4.448   6.270 -0.7486  0.8127  2.0464
19760SOL     OW60892   7.146   4.688   5.078  0.4092  0.2933  0.1101
19760SOL    HW160893   7.212   4.736   5.028  0.3597  1.7418  1.3518
19760SOL    HW260894   7.184   4.679   5.166  0.6251 -2.4554 -0.1732
19761SOL     OW60895   8.447   7.985   7.877 -0.1293  0.0325 -0.1399
19761SOL    HW160896   8.482   7.908   7.921  2.2980  0.3858 -1.2345
19761SOL    HW260897   8.386   7.951   7.812 -0.7858 -0.7541  0.8633
19762SOL     OW60898   4.710   4.979   4.596 -0.6694  0.2514 -0.2340
19762SOL    HW160899   4.683   4.892   4.567 -0.9241  0.5102 -0.7819
19762SOL    HW260900   4.790   4.964   4.646 -0.6960 -0.2936 -0.3524
19763SOL     OW60901   0.266   1.827   5.092  0.6534 -0.1382  0.2990
19763SOL    HW160902   0.257   1.733   5.075 -0.3944 -0.4150  2.0767
19763SOL    HW260903   0.184   1.851   5.136  0.7772  1.6927 -0.3906
19764SOL     OW60904   3.900   4.257   2.572 -0.1299 -0.1378 -0.0449
19764SOL    HW160905   3.988   4.278   2.604 -0.3053 -0.5513  0.7202
19764SOL    HW260906   3.876   4.331   2.516  0.7640 -0.0915 -0.3849
19765SOL     OW60907   3.792   8.041   3.774 -0.4723 -0.0603  0.1689
19765SOL    HW160908   3.720   8.004   3.826 -0.2334  2.1017  2.2062
19765SOL    HW260909   3.749   8.080   3.698 -1.3697  0.4045  0.8954
19766SOL     OW60910   4.983   2.326   2.250 -0.1437  0.0767  0.1519
19766SOL    HW160911   4.977   2.266   2.324  0.8002  2.2058  2.0789
19766SOL    HW260912   5.076   2.346   2.243 -0.0932 -0.7033 -2.2222
19767SOL     OW60913   6.931   2.757   5.216  0.2158  0.0925 -0.1688
19767SOL    HW160914   6.872   2.810   5.269  2.2252  1.5340  0.7891
19767SOL    HW260915   6.940   2.675   5.264 -0.1740  0.2763  0.2252
19768SOL     OW60916   7.279   0.945   5.953 -0.0450 -0.4214  0.3240
19768SOL    HW160917   7.265   0.925   5.860 -0.4822  0.4719  0.1875
19768SOL    HW260918   7.357   0.894   5.976  1.7620  1.4021 -1.2658
19769SOL     OW60919   0.328   5.268   0.519 -0.2400  0.6356 -0.0318
19769SOL    HW160920   0.274   5.326   0.574 -1.7316  0.3997 -1.1807
19769SOL    HW260921   0.406   5.252   0.572 -1.5789  0.4394  2.0264
19770SOL     OW60922   7.175   2.572   5.824  0.1255 -0.6977 -0.6618
19770SOL    HW160923   7.237   2.558   5.752  0.7829  0.1009 -0.2686
19770SOL    HW260924   7.204   2.513   5.893  0.0409 -0.8027 -0.7145
19771SOL     OW60925   8.295   7.790   0.923 -0.7050  0.2706 -0.0816
19771SOL    HW160926   8.372   7.770   0.976 -1.3148  0.0976  0.7651
19771SOL    HW260927   8.323   7.859   0.864 -0.1676  0.8756  0.8682
19772SOL     OW60928   3.278   2.623   7.219 -0.6635  0.3045 -0.1330
19772SOL    HW160929   3.235   2.605   7.135 -0.6292  0.7567 -0.2480
19772SOL    HW260930   3.271   2.540   7.267 -2.1854  0.5355  0.0881
19773SOL     OW60931   3.323   3.143   2.395  0.2956  0.4183 -0.1407
19773SOL    HW160932   3.269   3.208   2.441  0.6079  0.5557  0.0297
19773SOL    HW260933   3.273   3.124   2.315  0.6355  1.5631 -0.6599
19774SOL     OW60934   8.100   1.785   7.765 -0.1391  0.4326  0.1927
19774SOL    HW160935   8.032   1.742   7.713 -0.1218  1.5779 -0.8229
19774SOL    HW260936   8.106   1.733   7.845  1.4336 -2.8399 -1.8229
19775SOL     OW60937   0.690   5.563   8.019  0.4416  0.1374 -0.4375
19775SOL    HW160938   0.757   5.520   7.967  1.4846  0.3076  0.7179
19775SOL    HW260939   0.686   5.652   7.984 -1.0088 -0.5286 -2.1615
19776SOL     OW60940   9.348   4.271   2.006 -0.3704 -0.1035 -0.1076
19776SOL    HW160941   9.329   4.363   2.021 -0.7667 -0.3296  0.8698
19776SOL    HW260942   9.435   4.271   1.967 -0.0551  0.6577  0.5513
19777SOL     OW60943   3.901   9.126   7.484 -0.1810 -0.4962 -0.5219
19777SOL    HW160944   3.908   9.052   7.545  0.8795 -0.0818 -0.1088
19777SOL    HW260945   3.833   9.182   7.522 -0.8944 -1.1762 -0.7658
19778SOL     OW60946   6.662   1.137   0.621  0.0629  0.1530  0.0502
19778SOL    HW160947   6.568   1.124   0.615  0.0032  0.7272 -0.4693
19778SOL    HW260948   6.698   1.087   0.547  0.0067  1.2422 -0.7431
19779SOL     OW60949   5.980   9.252   0.026 -0.2271 -0.4326  0.7365
19779SOL    HW160950   6.018   9.336   0.001  0.0580 -0.2363  1.7629
19779SOL    HW260951   5.970   9.258   0.121  0.7572 -1.9396  0.9729
19780SOL     OW60952   9.048   9.011   5.975  0.9705 -0.0140 -0.2654
19780SOL    HW160953   9.007   8.962   6.046  1.4069  0.2219  0.1580
19780SOL    HW260954   8.995   8.991   5.898 -2.0165  2.8197  0.8119
19781SOL     OW60955   9.653   0.925   0.837 -0.0858  0.0647 -0.3538
19781SOL    HW160956   9.724   0.882   0.885 -1.0624 -0.2901  0.8081
19781SOL    HW260957   9.694   1.003   0.800  0.1997  1.7128  3.0970
19782SOL     OW60958   5.719   8.931   8.364 -0.5341  0.3457 -0.4034
19782SOL    HW160959   5.656   8.958   8.431 -1.1620 -3.2214  0.6838
19782SOL    HW260960   5.800   8.917   8.411 -0.0651  0.8912 -1.0287
19783SOL     OW60961   4.757   1.649   6.076  0.8177  0.4292 -0.0738
19783SOL    HW160962   4.792   1.561   6.061 -0.0786 -0.0023  0.3258
19783SOL    HW260963   4.709   1.669   5.995 -0.7722 -0.3314  0.6498
19784SOL     OW60964   5.759   0.613   5.026  0.1597  0.2535 -0.0344
19784SOL    HW160965   5.742   0.559   4.948  2.0729 -0.7251  0.1737
19784SOL    HW260966   5.853   0.626   5.025  0.0633  1.1841  1.5293
19785SOL     OW60967   7.059   5.449   8.448  0.3090  0.2890  0.3264
19785SOL    HW160968   7.134   5.462   8.390  0.0525 -1.4066 -0.4447
19785SOL    HW260969   7.090   5.479   8.534  1.3497  1.0041 -0.2663
19786SOL     OW60970   7.504   8.657   2.104  0.1048  0.3171 -0.3909
19786SOL    HW160971   7.424   8.671   2.053  0.7915  0.8189 -1.3686
19786SOL    HW260972   7.486   8.700   2.187 -0.4159  0.9775 -0.8264
19787SOL     OW60973   3.183   2.345   6.536 -0.1939  0.1273 -0.2397
19787SOL    HW160974   3.225   2.305   6.460 -0.7602 -0.0639 -0.4569
19787SOL    HW260975   3.202   2.285   6.609 -0.9996 -0.5216 -0.5543
19788SOL     OW60976   9.381   9.437   3.609 -0.5612 -0.4638  0.7423
19788SOL    HW160977   9.297   9.416   3.651 -0.3372  1.4776  2.3029
19788SOL    HW260978   9.439   9.461   3.682  1.2757 -1.4321 -0.3305
19789SOL     OW60979   7.474   2.706   1.779 -0.2866 -0.4679 -0.2814
19789SOL    HW160980   7.484   2.690   1.873  0.6590 -1.4300 -0.5224
19789SOL    HW260981   7.407   2.774   1.773  0.2523  0.2305  1.1291
19790SOL     OW60982   1.844   7.166   0.677  0.3022  0.4721  0.5054
19790SOL    HW160983   1.799   7.102   0.621  0.4901 -1.4857  2.4526
19790SOL    HW260984   1.826   7.137   0.766  1.3794  2.5149  1.4642
19791SOL     OW60985   4.605   2.943   1.606 -0.1589  0.0922  0.3846
19791SOL    HW160986   4.534   2.947   1.671 -0.6720 -1.0704 -0.0799
19791SOL    HW260987   4.560   2.947   1.522  0.0590 -2.9130  0.0204
19792SOL     OW60988   8.128   4.293   4.862  0.6328 -0.4947  0.2026
19792SOL    HW160989   8.081   4.232   4.919  0.6376 -0.8009 -0.1206
19792SOL    HW260990   8.099   4.380   4.890 -1.1610 -0.6978 -0.8769
19793SOL     OW60991   3.129   8.102   2.080 -0.1889 -0.0720 -0.4204
19793SOL    HW160992   3.115   8.181   2.131 -0.6423 -1.7808  2.3244
19793SOL    HW260993   3.064   8.106   2.009 -0.2306  1.9213 -0.3117
19794SOL     OW60994   8.251   6.592   2.055  0.6341 -0.4326  0.1131
19794SOL    HW160995   8.169   6.641   2.055  2.1177  2.4072  2.4562
19794SOL    HW260996   8.274   6.583   2.148  3.5467  0.1129 -0.4394
19795SOL     OW60997   1.400   2.663   5.063  0.1163  0.6035  0.0247
19795SOL    HW160998   1.441   2.590   5.110 -0.8891 -1.0424 -1.5465
19795SOL    HW260999   1.416   2.739   5.119  1.0103 -0.8396  1.8361
19796SOL     OW61000   8.884   7.010   5.318  0.1807 -0.3553 -0.0511
19796SOL    HW161001   8.900   7.026   5.411  0.4370 -0.9238  0.0071
19796SOL    HW261002   8.963   6.964   5.288  0.5366  0.6947 -0.7820
19797SOL     OW61003   5.667   7.005   6.973 -0.3021  0.0624  0.3743
19797SOL    HW161004   5.716   6.951   7.034 -1.8273 -1.1032  0.6164
19797SOL    HW261005   5.579   6.968   6.972 -1.3063  2.2623  0.2089
19798SOL     OW61006   7.153   7.946   1.635 -0.0607  0.1106 -0.1332
19798SOL    HW161007   7.083   7.898   1.679  0.3142  0.4281  0.8171
19798SOL    HW261008   7.220   7.879   1.619  0.1810  0.1735  0.5927
19799SOL     OW61009   0.060   1.678   1.842  0.1609 -0.2674  0.1597
19799SOL    HW161010   0.087   1.695   1.752  0.5939 -0.0147  0.3317
19799SOL    HW261011  -0.002   1.747   1.862 -1.2936 -1.3293 -0.5129
19800SOL     OW61012   4.669   6.008   2.503  0.7798 -0.1342  0.4787
19800SOL    HW161013   4.641   6.055   2.581 -2.2503 -0.8116 -0.0685
19800SOL    HW261014   4.698   5.922   2.535 -3.0928 -1.4997  0.8253
19801SOL     OW61015   8.934   7.038   7.247 -0.1816  0.2994 -0.7891
19801SOL    HW161016   8.982   7.109   7.289  1.3811 -1.3987  0.4460
19801SOL    HW261017   8.976   7.027   7.162 -0.1466  0.5389 -0.8047
19802SOL     OW61018   1.848   0.298   8.544 -0.5723  0.1050 -0.3735
19802SOL    HW161019   1.868   0.297   8.450  0.1747 -0.5511 -0.2159
19802SOL    HW261020   1.931   0.320   8.586 -0.6592 -0.5995  0.1844
19803SOL     OW61021   7.589   1.629   4.125 -0.3699  0.5131 -0.5307
19803SOL    HW161022   7.545   1.715   4.125 -2.4557 -0.4737 -1.3499
19803SOL    HW261023   7.546   1.581   4.055 -0.7336 -1.9106  1.2365
19804SOL     OW61024   2.820   0.938   2.241  0.1589  0.3208  0.1268
19804SOL    HW161025   2.855   1.027   2.232  0.1181  0.1201 -2.8203
19804SOL    HW261026   2.896   0.885   2.267  0.2290  1.1199  1.7032
19805SOL     OW61027   8.268   5.425   9.021  0.1005 -0.3033 -0.1280
19805SOL    HW161028   8.345   5.393   8.974  0.7525 -0.7477  1.1808
19805SOL    HW261029   8.271   5.379   9.106 -0.7140  0.8628  0.5629
19806SOL     OW61030   2.596   9.461   7.925 -0.2962  0.4780 -0.4356
19806SOL    HW161031   2.527   9.526   7.939 -0.5006  0.3401 -0.7774
19806SOL    HW261032   2.671   9.513   7.894  0.0959  0.7593  0.9008
19807SOL     OW61033   3.817   0.856   2.927 -0.4569 -0.3898 -0.0893
19807SOL    HW161034   3.789   0.940   2.891  3.2506  0.4331 -1.5597
19807SOL    HW261035   3.769   0.790   2.877 -0.4376  0.8386 -1.8175
19808SOL     OW61036   1.236   8.313   6.410  0.2121 -0.3027 -0.3134
19808SOL    HW161037   1.227   8.219   6.395 -0.5225 -0.4196  0.6945
19808SOL    HW261038   1.146   8.347   6.403  0.6814  0.6854 -2.6545
19809SOL     OW61039   3.273   9.054   5.185  0.8192  0.3687 -0.0350
19809SOL    HW161040   3.196   9.054   5.241  1.3939  2.9182  0.8843
19809SOL    HW261041   3.312   8.967   5.198 -1.1439 -0.4989  0.4624
19810SOL     OW61042   8.955   1.716   2.771 -0.7684  0.2409  0.1997
19810SOL    HW161043   8.901   1.742   2.846 -0.2486  0.6745  0.4279
19810SOL    HW261044   9.029   1.669   2.809 -1.2010 -0.7405 -0.1478
19811SOL     OW61045   4.174   3.987   9.161  0.4105 -0.3350 -0.1557
19811SOL    HW161046   4.112   4.022   9.097 -0.3594 -1.1739  0.1113
19811SOL    HW261047   4.195   3.899   9.127 -0.0160 -0.7927  0.7438
19812SOL     OW61048   4.339   1.941   0.054  0.6156  0.0646 -0.0655
19812SOL    HW161049   4.361   2.034   0.048 -0.4574  0.2534 -2.0873
19812SOL    HW261050   4.312   1.917  -0.035 -0.0089 -1.9667  0.6100
19813SOL     OW61051   6.433   0.862   7.894  0.1211  0.2003 -0.7094
19813SOL    HW161052   6.355   0.868   7.838 -1.3759 -0.9028  1.1213
19813SOL    HW261053   6.460   0.954   7.906 -1.6340  0.7263 -0.4566
19814SOL     OW61054   6.552   2.850   0.679  0.2828 -0.0590  0.2722
19814SOL    HW161055   6.475   2.874   0.628  0.9453 -0.4644 -0.9528
19814SOL    HW261056   6.541   2.756   0.696  1.1852 -0.4449 -1.1519
19815SOL     OW61057   1.782   1.886   0.236  0.5940  0.2779  0.1710
19815SOL    HW161058   1.778   1.795   0.210  2.6997  0.2650 -0.2840
19815SOL    HW261059   1.828   1.930   0.164  0.7215  1.4492  0.9371
19816SOL     OW61060   4.970   4.575   4.208 -0.4323 -0.1557 -0.1392
19816SOL    HW161061   4.908   4.529   4.152 -0.7448 -0.7591  0.6849
19816SOL    HW261062   4.952   4.542   4.296 -0.0533  0.8842  0.3459
19817SOL     OW61063   5.356   7.023   0.196  0.3453 -0.0813 -0.3975
19817SOL    HW161064   5.354   6.934   0.161 -1.2334 -0.0400 -0.5001
19817SOL    HW261065   5.272   7.032   0.242  1.9775  0.1013  2.8471
19818SOL     OW61066   0.429   7.412   1.812 -0.6638  0.0302 -0.0472
19818SOL    HW161067   0.443   7.318   1.823 -1.0314  0.0031  0.2076
19818SOL    HW261068   0.490   7.438   1.744  1.0366  0.0261  1.4119
19819SOL     OW61069   2.449   5.482   7.704 -0.1818  0.4764  0.0153
19819SOL    HW161070   2.431   5.440   7.620 -0.0995 -1.2568  0.8192
19819SOL    HW261071   2.364   5.520   7.731 -0.8807 -1.2551  0.3588
19820SOL     OW61072   7.705   5.565   2.865  0.3103  0.0642  0.6781
19820SOL    HW161073   7.635   5.505   2.841 -0.1705  1.2928 -1.2091
19820SOL    HW261074   7.660   5.648   2.885  1.1415  0.5350  0.6400
19821SOL     OW61075   1.100   2.193   9.287  0.0940  0.0487  0.7989
19821SOL    HW161076   1.131   2.102   9.286 -0.2152 -0.0560  0.4581
19821SOL    HW261077   1.006   2.186   9.305 -0.2275  0.2038 -0.7000
19822SOL     OW61078   6.893   6.592   3.043  0.7105  0.1334 -0.0978
19822SOL    HW161079   6.821   6.632   3.092  0.7105  0.0588 -0.0363
19822SOL    HW261080   6.888   6.632   2.956 -0.4848 -1.1311 -0.6484
19823SOL     OW61081   5.801   4.228   0.811 -0.3468 -0.4150  0.2558
19823SOL    HW161082   5.804   4.133   0.823  1.8909 -0.1605  2.8456
19823SOL    HW261083   5.763   4.262   0.893  0.0439  0.9556 -0.0973
19824SOL     OW61084   2.477   7.351   3.059 -0.1573 -0.0332 -0.6956
19824SOL    HW161085   2.487   7.445   3.049  1.4557 -0.2503 -1.4077
19824SOL    HW261086   2.532   7.313   2.990 -1.9443 -1.4977 -1.4387
19825SOL     OW61087   5.191   1.831   4.736 -0.1348  0.2027  0.1354
19825SOL    HW161088   5.195   1.890   4.661  0.3392  0.2045  0.1583
19825SOL    HW261089   5.246   1.757   4.711 -0.2097  0.0684  0.3655
19826SOL     OW61090   4.347   3.260   7.284  0.0577 -0.3200 -0.5581
19826SOL    HW161091   4.347   3.165   7.291  1.1826 -0.3176 -0.3092
19826SOL    HW261092   4.274   3.280   7.225 -0.4905 -1.2941 -0.2326
19827SOL     OW61093   0.671   1.883   4.672 -0.0457  0.0444  0.6834
19827SOL    HW161094   0.576   1.867   4.676 -0.0724  0.4188  3.0911
19827SOL    HW261095   0.678   1.974   4.645 -0.5110  0.6415  2.4143
19828SOL     OW61096   7.247   5.021   6.423  0.0031  0.2334  1.2481
19828SOL    HW161097   7.229   5.068   6.342 -2.2962  1.2256  2.2291
19828SOL    HW261098   7.329   5.058   6.455 -0.1197  1.2972  0.3720
19829SOL     OW61099   4.842   5.656   1.248 -0.0958  0.3016 -0.6746
19829SOL    HW161100   4.829   5.727   1.311 -1.3971 -0.4080 -0.0996
19829SOL    HW261101   4.925   5.616   1.273 -0.0774  0.7004 -0.0852
19830SOL     OW61102   4.400   0.352   1.564  0.3483 -0.5858 -0.2516
19830SOL    HW161103   4.415   0.394   1.649  0.2226  0.4364 -0.7183
19830SOL    HW261104   4.374   0.424   1.506 -3.8454 -1.7723 -0.1704
19831SOL     OW61105   7.441   3.346   3.608 -0.5561 -0.6367  0.6681
19831SOL    HW161106   7.535   3.347   3.591 -0.2287  1.9108  2.1739
19831SOL    HW261107   7.423   3.256   3.635  1.3705 -1.2587  0.0537
19832SOL     OW61108   9.272   5.995   2.344  0.2237 -0.2746  0.2681
19832SOL    HW161109   9.216   5.938   2.291  0.1524  0.9588 -1.0259
19832SOL    HW261110   9.360   5.983   2.308  0.2959  0.0419  0.3409
19833SOL     OW61111   4.520   6.617   6.038 -0.4064 -0.1207 -0.0431
19833SOL    HW161112   4.583   6.577   6.098  0.3877 -0.8377 -1.3242
19833SOL    HW261113   4.568   6.626   5.955 -1.1819  1.6901 -0.3386
19834SOL     OW61114   8.923   1.471   2.369  0.4382 -0.5840 -0.2843
19834SOL    HW161115   8.922   1.439   2.279  0.2102 -2.3905  0.3243
19834SOL    HW261116   8.841   1.518   2.378  0.4742 -0.3614 -1.0186
19835SOL     OW61117   5.508   7.894   7.287 -0.3407 -0.2881  0.0249
19835SOL    HW161118   5.511   7.806   7.249  1.0105 -0.5592  0.6984
19835SOL    HW261119   5.529   7.881   7.379  2.6794  0.9829 -0.3856
19836SOL     OW61120   7.418   1.535   7.971  0.1518 -0.5674 -0.0274
19836SOL    HW161121   7.335   1.487   7.967  0.2016 -0.7553  0.9605
19836SOL    HW261122   7.392   1.627   7.970 -0.2608 -0.5860  2.6808
19837SOL     OW61123   7.282   4.183   4.059  0.4021 -0.2480  0.0765
19837SOL    HW161124   7.304   4.104   4.011  0.3742 -0.2656  0.0921
19837SOL    HW261125   7.366   4.215   4.093  0.3470 -0.5955  0.5644
19838SOL     OW61126   1.885   6.830   7.247 -0.0990 -0.4070 -0.9866
19838SOL    HW161127   1.881   6.754   7.189 -0.4610 -0.2383 -1.1855
19838SOL    HW261128   1.803   6.828   7.296 -0.4662  0.2951 -1.5545
19839SOL     OW61129   7.564   4.439   6.611 -0.3357 -0.1042 -0.4147
19839SOL    HW161130   7.511   4.499   6.664  0.6436  1.0686 -0.7031
19839SOL    HW261131   7.557   4.355   6.655 -0.0545  0.6978  1.2479
19840SOL     OW61132   0.971   8.033   9.567  0.1215  0.1780 -0.5594
19840SOL    HW161133   0.908   7.972   9.530 -1.5941 -0.0071  2.3770
19840SOL    HW261134   1.056   7.997   9.542 -0.8656 -1.8022 -1.2969
19841SOL     OW61135   7.148   5.849   4.708  0.1449  0.4805 -0.2258
19841SOL    HW161136   7.184   5.937   4.698  0.4629  0.2530 -1.2030
19841SOL    HW261137   7.142   5.835   4.803  3.2061  0.3001  0.0250
19842SOL     OW61138   4.198   0.771   7.074 -0.2991  0.0680 -0.0897
19842SOL    HW161139   4.158   0.708   7.014 -0.8342  0.3945 -0.0746
19842SOL    HW261140   4.124   0.818   7.112  0.1052  0.7807 -0.1764
19843SOL     OW61141   1.072   1.463   6.566  0.1693 -1.3463 -0.1834
19843SOL    HW161142   0.998   1.515   6.534  0.2503 -1.3282 -0.3403
19843SOL    HW261143   1.058   1.458   6.661 -0.1525 -1.5255 -0.2392
19844SOL     OW61144   3.282   1.187   8.138  0.2353 -0.4990 -0.8687
19844SOL    HW161145   3.309   1.259   8.082 -0.1907 -0.9078 -1.6097
19844SOL    HW261146   3.321   1.207   8.223  0.3520  0.4573 -1.1373
19845SOL     OW61147   9.447   0.582   6.290 -0.0935 -0.7802  0.1000
19845SOL    HW161148   9.530   0.612   6.253 -0.5768  1.0373  0.3999
19845SOL    HW261149   9.410   0.659   6.332 -3.1031 -0.8602 -2.0883
19846SOL     OW61150   2.323   9.603   6.215 -0.0065 -0.1423  0.2706
19846SOL    HW161151   2.413   9.581   6.190  0.2298 -0.3654  1.2745
19846SOL    HW261152   2.316   9.573   6.305 -1.1014 -0.1458  0.1910
19847SOL     OW61153   1.824   6.644   1.099 -0.1137 -0.3533 -0.0790
19847SOL    HW161154   1.913   6.667   1.127  0.5711 -1.9781 -0.7762
19847SOL    HW261155   1.779   6.620   1.180  0.5172 -0.8374  0.1383
19848SOL     OW61156   3.169   8.451   9.156 -0.5469  0.0382  0.0481
19848SOL    HW161157   3.254   8.470   9.117 -0.0629 -1.6727  0.1764
19848SOL    HW261158   3.150   8.527   9.211  1.4937 -0.0535  0.9823
19849SOL     OW61159   8.309   8.093   1.295  0.6247  0.0045  0.1923
19849SOL    HW161160   8.224   8.107   1.254  0.1833 -0.0154  1.0758
19849SOL    HW261161   8.289   8.058   1.382  1.5576 -0.7145  0.1388
19850SOL     OW61162   0.985   9.449   5.629 -0.1993  0.1483 -0.1029
19850SOL    HW161163   0.952   9.502   5.701  2.2004 -0.2032  1.3856
19850SOL    HW261164   0.955   9.360   5.648 -0.1860  0.1788  0.0560
19851SOL     OW61165   4.474   7.520   2.254  0.2059  0.2715 -0.0831
19851SOL    HW161166   4.381   7.506   2.273 -0.3103  3.0119 -0.1154
19851SOL    HW261167   4.474   7.580   2.180  2.0460 -0.3977 -0.6597
19852SOL     OW61168   5.485   1.343   2.352  0.2678  0.2595  0.0472
19852SOL    HW161169   5.407   1.398   2.355  1.7038  2.7069 -2.6237
19852SOL    HW261170   5.454   1.261   2.313 -0.7543  1.9066 -2.9546
19853SOL     OW61171   7.462   3.141   0.765  0.3570  0.6371 -0.0774
19853SOL    HW161172   7.377   3.100   0.782 -0.5006  0.7058 -3.5075
19853SOL    HW261173   7.522   3.068   0.755  0.8283  0.5882  2.4130
19854SOL     OW61174   2.184   7.609   1.081 -0.4379  0.0433 -0.7003
19854SOL    HW161175   2.173   7.616   1.176  0.0982 -0.6681 -0.5713
19854SOL    HW261176   2.276   7.631   1.066  0.2286 -2.3841 -0.7109
19855SOL     OW61177   8.300   8.395   8.355 -0.3814 -0.0848  0.0714
19855SOL    HW161178   8.353   8.372   8.278  0.6588 -0.6502  0.9363
19855SOL    HW261179   8.271   8.485   8.337 -1.5758 -0.7600 -1.7338
19856SOL     OW61180   8.345   1.383   1.951 -0.4672 -0.0267 -0.0345
19856SOL    HW161181   8.437   1.390   1.924 -0.0403 -1.0725  1.0729
19856SOL    HW261182   8.301   1.453   1.903  0.7423 -0.0660 -1.2841
19857SOL     OW61183   8.164   4.424   1.324 -0.5185  0.5439 -0.1826
19857SOL    HW161184   8.239   4.483   1.319 -0.0765  0.0814  0.7645
19857SOL    HW261185   8.105   4.467   1.386 -1.7072  1.6008 -1.9449
19858SOL     OW61186   4.371   0.404   8.228 -0.8157  0.1435  0.0019
19858SOL    HW161187   4.367   0.309   8.238  0.0790  0.2601  1.7132
19858SOL    HW261188   4.419   0.417   8.146 -1.1884 -0.8759 -0.3886
19859SOL     OW61189   7.073   2.488   0.157 -0.4128  0.1284 -0.4831
19859SOL    HW161190   6.993   2.438   0.143  0.7561 -2.3254  0.8918
19859SOL    HW261191   7.140   2.443   0.105  0.3223  1.4694 -0.7544
19860SOL     OW61192   2.860   1.986   9.276 -0.4011  0.1420  0.5129
19860SOL    HW161193   2.786   2.008   9.219 -0.1786  0.4452  0.3396
19860SOL    HW261194   2.820   1.967   9.361 -0.5583  1.8228  0.8372
19861SOL     OW61195   6.295   7.754   4.971 -0.3796 -0.4984 -0.1470
19861SOL    HW161196   6.322   7.823   4.911 -0.1758  1.5604  2.1137
19861SOL    HW261197   6.199   7.757   4.970 -0.3729  0.0801  0.1549
19862SOL     OW61198   5.487   3.207   1.446  0.1175 -0.4920 -0.2168
19862SOL    HW161199   5.427   3.174   1.513  1.3568 -0.5637  0.8918
19862SOL    HW261200   5.511   3.295   1.476  1.2812 -0.8228 -0.1508
19863SOL     OW61201   5.783   5.213   0.012  0.2184  0.0131 -0.3056
19863SOL    HW161202   5.797   5.294  -0.036 -3.3314 -0.2806 -2.1147
19863SOL    HW261203   5.802   5.144  -0.051 -1.0434 -0.4480 -0.2070
19864SOL     OW61204   5.809   2.011   0.222 -0.0360 -0.3530 -0.4791
19864SOL    HW161205   5.757   2.084   0.256 -0.9076 -0.2205 -2.0225
19864SOL    HW261206   5.895   2.023   0.261 -0.7147  0.3327  0.8944
19865SOL     OW61207   4.432   3.995   8.399  0.1544 -0.5240  0.4552
19865SOL    HW161208   4.483   4.020   8.323  0.9816 -0.1017  1.1311
19865SOL    HW261209   4.369   4.066   8.411  0.4417 -0.2805  0.5340
19866SOL     OW61210   9.349   2.961   8.656  0.1065 -0.0679  0.9965
19866SOL    HW161211   9.337   2.911   8.576 -0.5371  0.3921  0.7897
19866SOL    HW261212   9.275   3.023   8.657  1.3949  1.5424  0.7437
19867SOL     OW61213   0.594   9.444   6.671 -0.0925 -0.2085  0.0101
19867SOL    HW161214   0.617   9.445   6.764 -1.3882 -0.3236  0.3579
19867SOL    HW261215   0.641   9.518   6.634  0.7351 -0.3801  0.6807
19868SOL     OW61216   0.725   0.663   1.120  0.1069  0.0919  0.1339
19868SOL    HW161217   0.740   0.593   1.183 -0.2449 -0.7564 -0.7000
19868SOL    HW261218   0.645   0.638   1.074  0.0641  0.9583 -0.2893
19869SOL     OW61219   3.995   3.966   2.010 -0.2817 -0.5413  0.1890
19869SOL    HW161220   4.040   4.050   2.017 -1.1806 -0.1074  1.0876
19869SOL    HW261221   3.946   3.958   2.092  0.2880 -2.2519  0.3941
19870SOL     OW61222   4.606   9.154   5.292  0.0544 -0.1399 -0.1193
19870SOL    HW161223   4.644   9.241   5.293  1.8695 -0.8628  1.3272
19870SOL    HW261224   4.651   9.108   5.221 -1.2420  0.2115 -1.1938
19871SOL     OW61225   1.673   5.274   4.602 -0.5321  0.2131  0.3355
19871SOL    HW161226   1.761   5.267   4.564 -1.1122 -1.0847 -0.8684
19871SOL    HW261227   1.685   5.325   4.682  1.0267  1.6144 -0.7272
19872SOL     OW61228   2.337   1.618   6.948  0.9546  0.2131  0.3473
19872SOL    HW161229   2.426   1.646   6.965  2.0693 -0.9280 -2.9103
19872SOL    HW261230   2.287   1.700   6.939  1.8602  0.8770  1.1668
19873SOL     OW61231   4.442   3.282   3.489  0.5721 -0.0489 -0.6739
19873SOL    HW161232   4.532   3.315   3.486  1.1436 -0.7472  3.3003
19873SOL    HW261233   4.389   3.358   3.510  0.6573 -0.1685 -0.0327
19874SOL     OW61234   8.789   5.336   1.004  0.0635  0.0163  0.3011
19874SOL    HW161235   8.777   5.279   1.080  0.7861  0.3597  0.6867
19874SOL    HW261236   8.828   5.279   0.938 -0.9842 -0.3946  0.0242
19875SOL     OW61237   0.633   4.979   9.164  0.3572  1.0171  0.2818
19875SOL    HW161238   0.660   5.067   9.136 -1.8608  1.6493 -0.0298
19875SOL    HW261239   0.560   4.993   9.224 -0.6698 -0.6098 -0.5005
19876SOL     OW61240   3.442   1.852   4.590  0.0040  0.4613 -0.4891
19876SOL    HW161241   3.432   1.941   4.624  1.2956  0.3407  0.2997
19876SOL    HW261242   3.514   1.858   4.527 -2.0070  0.5670 -2.9174
19877SOL     OW61243   3.508   3.747   3.542 -0.4000  0.0742  0.3367
19877SOL    HW161244   3.459   3.765   3.461  0.8132  0.3501 -0.3530
19877SOL    HW261245   3.443   3.757   3.612 -1.0641  1.6308 -0.4529
19878SOL     OW61246   0.862   1.484   3.120  0.0107  0.1010  0.6584
19878SOL    HW161247   0.828   1.412   3.067 -2.4364  2.6924 -1.6494
19878SOL    HW261248   0.945   1.508   3.078 -1.1731  1.1560 -1.2016
19879SOL     OW61249   1.352   4.843   2.176  0.4846  1.0615 -0.3833
19879SOL    HW161250   1.344   4.816   2.268 -0.4226  1.3900 -0.3526
19879SOL    HW261251   1.409   4.919   2.178  0.7949  0.8267 -0.1410
19880SOL     OW61252   2.518   4.305   4.280  0.0439  0.0999  0.1914
19880SOL    HW161253   2.460   4.293   4.355  1.1270  1.0878  1.2248
19880SOL    HW261254   2.518   4.220   4.236 -1.7426 -0.0729  0.4539
19881SOL     OW61255   3.185   2.056   0.215  0.2191 -0.0795  0.3347
19881SOL    HW161256   3.211   2.043   0.306  0.1228  1.1088  0.5473
19881SOL    HW261257   3.214   1.977   0.170  1.6093 -0.0360  1.1033
19882SOL     OW61258   0.528   2.399   5.767 -0.1857 -0.2021 -0.0953
19882SOL    HW161259   0.491   2.369   5.849 -0.3657  0.7369  0.1786
19882SOL    HW261260   0.542   2.319   5.716  0.0678 -0.7997  0.8970
19883SOL     OW61261   6.730   4.905   6.975 -0.2620 -0.0192 -0.3721
19883SOL    HW161262   6.817   4.912   6.935  0.2500 -1.4899  0.4280
19883SOL    HW261263   6.691   4.828   6.933  0.1155 -1.3384  1.5482
19884SOL     OW61264   6.467   2.717   2.193  0.0610  0.2732  0.0579
19884SOL    HW161265   6.429   2.641   2.148 -0.2202  0.7501 -0.5245
19884SOL    HW261266   6.427   2.792   2.150  1.7694  0.7939 -0.6563
19885SOL     OW61267   6.896   2.535   8.952  0.4285 -0.2374  0.2784
19885SOL    HW161268   6.905   2.569   9.041 -0.3101 -0.6995  0.5286
19885SOL    HW261269   6.980   2.492   8.935  0.4364 -0.4647  0.8774
19886SOL     OW61270   6.322   1.657   0.721  0.0611 -0.1096  0.3421
19886SOL    HW161271   6.242   1.622   0.760  0.2418  0.0752  0.8836
19886SOL    HW261272   6.293   1.729   0.666 -0.1604 -0.1334  0.4282
19887SOL     OW61273   9.280   1.089   1.700  0.3126  0.0651  0.2149
19887SOL    HW161274   9.314   1.048   1.621  0.2590 -0.0235  0.2382
19887SOL    HW261275   9.313   1.179   1.696  0.7559 -0.0857  0.3594
19888SOL     OW61276   9.063   9.180   1.699  0.6195 -0.3224 -0.0922
19888SOL    HW161277   8.982   9.224   1.725 -0.4890 -1.5998 -1.1506
19888SOL    HW261278   9.108   9.160   1.781 -1.5983 -2.1511  0.7922
19889SOL     OW61279   5.878   7.310   2.267 -0.4417 -0.3823  0.2044
19889SOL    HW161280   5.804   7.370   2.259 -0.5828 -0.5286  0.4288
19889SOL    HW261281   5.849   7.231   2.221  0.1662  0.1077 -1.0929
19890SOL     OW61282   3.413   2.839   1.293  0.2675  0.3621  0.3199
19890SOL    HW161283   3.430   2.863   1.384 -0.7128  0.6550  0.4429
19890SOL    HW261284   3.328   2.795   1.296  0.1804  0.4638 -0.4677
19891SOL     OW61285   8.656   5.579   8.957  0.1839  0.2494 -0.4126
19891SOL    HW161286   8.704   5.559   9.037  0.2190 -0.1327 -0.5283
19891SOL    HW261287   8.627   5.670   8.968  1.4897  0.7039 -0.6201
19892SOL     OW61288   8.079   6.591   0.548  0.5776 -0.3424 -0.3854
19892SOL    HW161289   8.138   6.647   0.599 -0.5665 -0.0882  0.7130
19892SOL    HW261290   8.120   6.505   0.548  1.8643  0.2291 -1.2486
19893SOL     OW61291   5.492   4.513   5.089  0.8131  0.3895  0.5765
19893SOL    HW161292   5.529   4.572   5.155 -0.4542 -1.0698  2.7340
19893SOL    HW261293   5.442   4.571   5.031  0.3927  1.5737  2.0436
19894SOL     OW61294   5.897   7.872   7.549 -0.5852  0.2456 -0.5085
19894SOL    HW161295   5.911   7.865   7.643  0.7740 -2.8272 -0.8121
19894SOL    HW261296   5.982   7.900   7.515 -0.3790 -0.8505 -0.9462
19895SOL     OW61297   2.051   1.064   3.927  0.0089 -0.2144 -0.4404
19895SOL    HW161298   1.987   1.130   3.953  1.1742  1.7673 -2.2310
19895SOL    HW261299   1.998   0.994   3.887 -1.1706  0.3527  0.0731
19896SOL     OW61300   8.142   5.747   1.698 -0.3338 -0.0842  0.5893
19896SOL    HW161301   8.106   5.665   1.732 -1.2966 -0.0109 -0.2415
19896SOL    HW261302   8.192   5.721   1.621 -1.3955  0.2001 -0.2135
19897SOL     OW61303   3.996   0.105   8.252  0.2052  0.1807  0.1967
19897SOL    HW161304   3.948   0.029   8.217  2.0463 -0.7991 -0.3384
19897SOL    HW261305   4.030   0.149   8.175  1.3847  0.0075  0.6073
19898SOL     OW61306   1.962   0.541   6.768 -0.0002  0.3296  0.6649
19898SOL    HW161307   2.002   0.551   6.854 -0.4983 -0.7832  1.0389
19898SOL    HW261308   2.034   0.515   6.710  0.0976 -0.1851  1.0160
19899SOL     OW61309   7.336   8.642   0.741  1.0198 -0.0968 -0.5172
19899SOL    HW161310   7.289   8.726   0.739 -0.5588 -0.9578 -2.3265
19899SOL    HW261311   7.318   8.606   0.828  0.2330  0.6398 -0.3634
19900SOL     OW61312   2.764   9.209   1.185 -0.1511 -0.2003 -0.0859
19900SOL    HW161313   2.816   9.139   1.224 -0.3238  0.3431  1.1572
19900SOL    HW261314   2.775   9.283   1.244 -0.9011  0.4745 -0.7641
19901SOL     OW61315   0.737   0.336   2.105 -0.5469 -0.2582  0.0715
19901SOL    HW161316   0.689   0.369   2.181 -0.6546  1.3368 -0.6499
19901SOL    HW261317   0.710   0.393   2.033  1.8275  0.2386 -0.5145
19902SOL     OW61318   0.655   8.626   2.470 -0.0009  0.1472 -0.3545
19902SOL    HW161319   0.739   8.616   2.425 -0.2528 -3.3192 -0.2900
19902SOL    HW261320   0.591   8.635   2.400  0.1424 -0.0280 -0.5080
19903SOL     OW61321   9.254   2.750   9.487 -0.2780  0.0208 -0.1420
19903SOL    HW161322   9.332   2.758   9.433 -1.1991 -1.1610 -1.7143
19903SOL    HW261323   9.257   2.826   9.545  1.2886  0.7602 -1.1344
19904SOL     OW61324   2.018   3.150   5.461 -0.4190  0.3125 -0.2462
19904SOL    HW161325   2.032   3.112   5.374  1.8660 -1.4911  0.7928
19904SOL    HW261326   2.102   3.138   5.506 -1.2804  1.8918  1.9706
19905SOL     OW61327   7.288   7.320   4.382  0.5421  0.1076  0.8565
19905SOL    HW161328   7.333   7.366   4.453  1.0299  0.3964  0.3638
19905SOL    HW261329   7.349   7.323   4.308 -0.1050  0.1177  0.3124
19906SOL     OW61330   0.078   2.090   0.071  0.1941 -0.1200  0.0698
19906SOL    HW161331   0.002   2.139   0.040  0.2536 -0.7420 -1.1113
19906SOL    HW261332   0.150   2.153   0.067  0.2547 -0.2464 -1.3477
19907SOL     OW61333   1.667   7.708   4.935  0.2219 -0.3814  0.0114
19907SOL    HW161334   1.748   7.680   4.977 -0.2131 -0.2095  0.9940
19907SOL    HW261335   1.685   7.702   4.841  0.6385 -2.4739  0.1795
19908SOL     OW61336   1.813   5.332   7.417 -0.0996 -0.1895 -0.4482
19908SOL    HW161337   1.746   5.396   7.441 -0.1760 -0.4781  0.1089
19908SOL    HW261338   1.896   5.379   7.429 -0.1342 -0.3440  0.4250
19909SOL     OW61339   4.617   6.543   8.058 -0.7407  0.2335 -0.0932
19909SOL    HW161340   4.712   6.555   8.057 -0.8842  1.5807  0.0788
19909SOL    HW261341   4.585   6.601   7.989 -1.4949  0.4322  0.4102
19910SOL     OW61342   6.378   8.357   5.002  0.2203 -0.3838  0.1346
19910SOL    HW161343   6.431   8.382   4.926 -1.1680  2.6726  0.0310
19910SOL    HW261344   6.433   8.376   5.078  0.3170  0.0416 -0.0405
19911SOL     OW61345   1.296   0.641   4.434  0.2035 -0.3403 -0.1771
19911SOL    HW161346   1.278   0.613   4.344 -0.0196 -3.2559  0.6672
19911SOL    HW261347   1.358   0.713   4.425  3.0128 -2.7863 -2.6507
19912SOL     OW61348   9.059   5.760   7.530 -0.5771  0.0485 -0.8891
19912SOL    HW161349   9.082   5.667   7.529 -1.6166 -0.2356 -0.3189
19912SOL    HW261350   9.120   5.801   7.470  0.9645 -0.7448  0.0728
19913SOL     OW61351   4.594   4.498   9.666 -0.2404 -0.5632  0.1543
19913SOL    HW161352   4.650   4.451   9.603  1.4836  0.5718  0.7677
19913SOL    HW261353   4.624   4.469   9.752 -0.3429  0.3303  0.5061
19914SOL     OW61354   0.517   0.075   6.718  0.5320 -0.3647  0.5645
19914SOL    HW161355   0.436   0.052   6.765 -0.7424  0.9977 -0.8271
19914SOL    HW261356   0.558  -0.009   6.699 -0.7693 -1.1235  0.9457
19915SOL     OW61357   3.006   9.469   8.149  0.7278  0.0371  0.6102
19915SOL    HW161358   2.966   9.390   8.111  1.5455 -1.0100  1.8226
19915SOL    HW261359   3.040   9.517   8.074  0.2974 -0.8158 -0.1614
19916SOL     OW61360   4.835   3.275   0.730 -0.4788 -0.1264  0.5065
19916SOL    HW161361   4.759   3.217   0.742 -0.3226  0.0107  2.4820
19916SOL    HW261362   4.876   3.278   0.816  1.5850  0.1067 -0.4353
19917SOL     OW61363   2.645   9.197   5.690  0.3347 -0.5003  0.6967
19917SOL    HW161364   2.739   9.207   5.676  0.2700  0.1364  0.6892
19917SOL    HW261365   2.626   9.247   5.768  0.1598 -1.4722  1.3004
19918SOL     OW61366   1.652   0.416   5.076 -0.0008  0.0888 -0.2078
19918SOL    HW161367   1.633   0.473   5.002 -1.4311 -1.9681 -1.5070
19918SOL    HW261368   1.710   0.349   5.040 -2.1143 -1.9492  0.0006
19919SOL     OW61369   7.919   3.934   0.132 -0.1749 -0.6621 -0.4162
19919SOL    HW161370   7.837   3.983   0.119  0.8140  1.0572 -0.5640
19919SOL    HW261371   7.942   3.903   0.044 -0.3172 -0.5542 -0.4931
19920SOL     OW61372   4.119   7.436   9.412  0.4867 -0.0951  0.0994
19920SOL    HW161373   4.142   7.522   9.375 -0.8019 -0.6357 -2.1982
19920SOL    HW261374   4.202   7.392   9.425  1.1049 -0.0714 -2.9284
19921SOL     OW61375   5.941   4.609   9.489 -0.3229  0.0793  0.2143
19921SOL    HW161376   6.014   4.617   9.428 -2.2311 -0.9979 -2.3962
19921SOL    HW261377   5.932   4.515   9.503 -1.3198  0.1855  0.3308
19922SOL     OW61378   1.163   6.900   7.532 -0.1717  0.2511  0.4359
19922SOL    HW161379   1.086   6.868   7.580 -0.3024  1.6399  1.2247
19922SOL    HW261380   1.191   6.977   7.582  0.3124  1.1526 -1.1677
19923SOL     OW61381   2.876   5.388   0.366 -0.5039 -0.0153  0.3256
19923SOL    HW161382   2.862   5.309   0.419 -0.2508  0.2461  0.7920
19923SOL    HW261383   2.964   5.379   0.330 -0.1048  0.4762  1.1379
19924SOL     OW61384   9.233   7.308   5.120  0.0586  0.1102  0.3902
19924SOL    HW161385   9.245   7.335   5.211  0.4761  0.2324  0.3025
19924SOL    HW261386   9.205   7.388   5.075 -2.1973 -0.4029  0.7907
19925SOL     OW61387   4.082   6.020   8.422  0.1281 -0.0619 -0.0145
19925SOL    HW161388   4.160   6.044   8.472 -0.7510 -0.1477  1.4596
19925SOL    HW261389   4.106   6.034   8.331  1.5168  0.9071  0.4787
19926SOL     OW61390   2.744   6.311   3.040  0.2715  0.1987 -0.3963
19926SOL    HW161391   2.787   6.383   2.994 -0.4026  2.0556  1.7148
19926SOL    HW261392   2.651   6.322   3.019 -0.0018  0.8515  1.0522
19927SOL     OW61393   5.936   1.613   2.787  0.1553  0.0220  0.8167
19927SOL    HW161394   5.909   1.681   2.848  1.2054 -0.4630  1.8752
19927SOL    HW261395   6.031   1.609   2.796  0.4782  0.5465 -1.5453
19928SOL     OW61396   8.197   9.436   9.091  0.3521  0.0672 -0.2187
19928SOL    HW161397   8.261   9.370   9.065  0.3222  0.0781 -0.3195
19928SOL    HW261398   8.135   9.389   9.148  1.2161  0.3566  0.9974
19929SOL     OW61399   5.490   1.124   1.188 -0.6727  0.1963 -0.3977
19929SOL    HW161400   5.412   1.140   1.134 -0.1117  0.5192 -1.1343
19929SOL    HW261401   5.564   1.141   1.129 -0.0131  1.5871  0.7556
19930SOL     OW61402   2.898   2.011   5.311  0.0319 -0.1699 -0.0365
19930SOL    HW161403   2.809   2.006   5.347  0.4998  0.2343  1.2715
19930SOL    HW261404   2.898   2.090   5.257 -0.1327  0.4612  0.8540
19931SOL     OW61405   8.028   8.491   1.884 -0.2257  0.4542  0.2371
19931SOL    HW161406   7.940   8.490   1.922 -0.4241  1.3118 -0.1677
19931SOL    HW261407   8.013   8.509   1.791  0.2050 -2.0412 -0.3881
19932SOL     OW61408   3.777   5.615   5.925  0.7481 -0.7790 -0.2434
19932SOL    HW161409   3.782   5.610   5.830 -0.1599  0.2903 -0.3699
19932SOL    HW261410   3.864   5.590   5.955  1.2323 -0.5385 -1.3846
19933SOL     OW61411   4.517   6.107   3.353  0.5054 -0.1956  0.1422
19933SOL    HW161412   4.540   6.200   3.347 -0.4658 -0.0499 -2.5130
19933SOL    HW261413   4.595   6.062   3.322  0.3802 -0.1651 -0.2228
19934SOL     OW61414   5.952   1.237   4.225  0.1816  0.6421 -0.5041
19934SOL    HW161415   5.949   1.261   4.132 -0.9108  0.5215 -0.5207
19934SOL    HW261416   5.997   1.310   4.268 -2.5453  2.5487 -0.6276
19935SOL     OW61417   2.481   7.557   6.666  0.2295 -0.0845 -0.3728
19935SOL    HW161418   2.482   7.494   6.738 -0.6716 -0.1142 -0.3837
19935SOL    HW261419   2.544   7.624   6.693 -0.6242  0.2803  0.7945
19936SOL     OW61420   1.134   5.897   1.347 -0.2447 -0.4909 -0.4643
19936SOL    HW161421   1.082   5.964   1.301 -2.4028 -1.1369  0.8619
19936SOL    HW261422   1.204   5.945   1.389 -1.0427  0.7797 -0.5360
19937SOL     OW61423   2.731   1.654   4.564 -0.6140  0.1549  0.3290
19937SOL    HW161424   2.824   1.648   4.541 -0.6720 -0.3406  0.2050
19937SOL    HW261425   2.726   1.724   4.629 -0.4848  1.8750 -1.4216
19938SOL     OW61426   7.621   1.354   6.606  0.6720 -0.6015 -0.0711
19938SOL    HW161427   7.686   1.423   6.620  0.9639 -0.9609  0.3350
19938SOL    HW261428   7.543   1.401   6.576  1.1272 -0.1736 -0.6045
19939SOL     OW61429   3.879   1.248   6.414  0.0103  0.4222 -0.0714
19939SOL    HW161430   3.862   1.327   6.465  2.1514  0.1759  1.1637
19939SOL    HW261431   3.817   1.183   6.449  0.1689  0.7824  0.9071
19940SOL     OW61432   9.347   9.448   3.327  0.3135 -0.1298  0.1582
19940SOL    HW161433   9.430   9.475   3.287  0.1656  0.1250  0.0190
19940SOL    HW261434   9.366   9.443   3.420  0.3712  0.3557  0.1733
19941SOL     OW61435   8.716   1.560   2.065 -0.2230  0.4786 -0.0057
19941SOL    HW161436   8.804   1.523   2.061 -0.5016 -0.0953 -0.8787
19941SOL    HW261437   8.664   1.494   2.111 -0.7367 -0.2755 -1.6318
19942SOL     OW61438   3.429   8.056   1.260  0.5291  0.1110  0.1119
19942SOL    HW161439   3.419   8.104   1.178 -0.1653  0.2556  0.2713
19942SOL    HW261440   3.523   8.043   1.270  0.5696 -0.7471 -1.1892
19943SOL     OW61441   6.843   6.444   0.035  0.9291 -0.2937  0.0698
19943SOL    HW161442   6.755   6.464   0.004  0.1996 -0.2956  2.0632
19943SOL    HW261443   6.901   6.481  -0.032 -0.5575 -1.6347 -2.0769
19944SOL     OW61444   2.828   0.312   4.331 -0.1288 -0.2099 -0.3220
19944SOL    HW161445   2.888   0.321   4.406  0.9278 -1.1852 -1.0262
19944SOL    HW261446   2.781   0.396   4.329  2.3785  1.2780 -0.7255
19945SOL     OW61447   2.576   1.215   5.742 -0.1644  0.6258  0.0851
19945SOL    HW161448   2.640   1.243   5.807  0.0921  1.4361 -0.5086
19945SOL    HW261449   2.550   1.295   5.697  0.0914  0.0204 -1.1948
19946SOL     OW61450   4.395   7.341   9.563  0.0714 -0.1727  0.1984
19946SOL    HW161451   4.417   7.408   9.498 -0.5434 -1.2506 -1.2007
19946SOL    HW261452   4.474   7.331   9.616  0.2730  1.4046  0.2311
19947SOL     OW61453   3.525   6.323   8.165 -0.1155  0.4065  0.3072
19947SOL    HW161454   3.499   6.407   8.203  0.4512 -0.3453  2.5321
19947SOL    HW261455   3.576   6.281   8.234 -0.3036 -1.7276 -0.7809
19948SOL     OW61456   9.065   3.438   2.733 -0.3973 -1.1075  0.3710
19948SOL    HW161457   8.995   3.466   2.674 -0.2028 -2.3027 -0.4737
19948SOL    HW261458   9.038   3.468   2.820 -0.1055  1.7811 -0.4503
19949SOL     OW61459   7.229   6.189   2.626  0.1889 -0.0171  0.5728
19949SOL    HW161460   7.208   6.204   2.718 -0.0970  0.5558  0.4156
19949SOL    HW261461   7.172   6.249   2.578  0.1631 -0.4838  0.0084
19950SOL     OW61462   1.810   2.501   2.388 -0.6008 -0.1995 -0.2050
19950SOL    HW161463   1.904   2.482   2.399 -0.5982 -0.6339 -0.8780
19950SOL    HW261464   1.794   2.577   2.443  0.4862  0.8076 -1.2137
19951SOL     OW61465   7.548   8.187   9.836  0.4665 -0.3435  0.1982
19951SOL    HW161466   7.604   8.189   9.913  0.9368  1.2132 -0.1528
19951SOL    HW261467   7.477   8.248   9.856 -1.0213 -2.0845  0.5332
19952SOL     OW61468   2.074   1.545   2.493 -0.4480 -0.0657 -0.1763
19952SOL    HW161469   2.141   1.493   2.538 -0.5244  0.5757  0.7030
19952SOL    HW261470   2.039   1.603   2.560 -3.3004 -1.7166 -0.0852
19953SOL     OW61471   0.476   0.080   4.583  0.0683  0.4739 -0.5603
19953SOL    HW161472   0.401   0.129   4.551  0.6813  1.2793 -0.7930
19953SOL    HW261473   0.532   0.069   4.507  0.2509 -0.0237 -0.3618
19954SOL     OW61474   5.453   6.796   2.083  0.1796  0.1137  0.8253
19954SOL    HW161475   5.427   6.708   2.056  1.9603 -0.6526  1.4172
19954SOL    HW261476   5.386   6.854   2.047  1.1872 -0.9889 -3.3281
19955SOL     OW61477   1.566   8.330   5.571 -0.2237  0.3641 -0.3118
19955SOL    HW161478   1.605   8.409   5.608 -0.4053 -0.5036  1.8651
19955SOL    HW261479   1.516   8.291   5.643 -0.9322 -1.2375 -1.5898
19956SOL     OW61480   2.948   3.926   8.566  0.6294 -0.5674 -0.6490
19956SOL    HW161481   2.866   3.967   8.537 -0.3112 -0.6952  1.6364
19956SOL    HW261482   2.922   3.838   8.594  1.6739 -0.8350 -0.4913
19957SOL     OW61483   4.790   0.844   7.012 -0.1750  0.0471  0.1902
19957SOL    HW161484   4.774   0.882   7.098 -0.7465  1.4209 -0.5059
19957SOL    HW261485   4.885   0.836   7.007  0.1328  2.9201 -0.2362
19958SOL     OW61486   8.137   8.040   5.872  0.0496  0.6863  0.1306
19958SOL    HW161487   8.058   8.094   5.870 -0.7321 -0.4428 -1.8362
19958SOL    HW261488   8.108   7.956   5.908  1.1472  1.2905  2.6685
19959SOL     OW61489   0.913   0.309   3.356 -0.1404  0.2053  0.1825
19959SOL    HW161490   0.901   0.391   3.404  0.5030 -0.0795  0.8579
19959SOL    HW261491   1.003   0.313   3.322  0.0754 -0.4211  0.6481
19960SOL     OW61492   3.151   1.707   5.623 -0.3989 -0.3730  0.1427
19960SOL    HW161493   3.089   1.778   5.606  0.1480 -0.3862 -2.3033
19960SOL    HW261494   3.097   1.633   5.649 -1.0277  0.7070  2.1379
19961SOL     OW61495   1.429   1.124   3.005 -0.5742 -0.2805 -0.2476
19961SOL    HW161496   1.384   1.047   3.039  0.0088 -0.6593 -0.3165
19961SOL    HW261497   1.360   1.178   2.967 -1.2996  0.3547  1.8786
19962SOL     OW61498   0.231   5.793   8.460 -0.2642  0.2655 -0.5359
19962SOL    HW161499   0.264   5.826   8.376 -0.3275  1.1316 -0.2346
19962SOL    HW261500   0.171   5.861   8.489 -2.3023 -1.2406 -1.0409
19963SOL     OW61501   3.597   9.597   3.718  0.1389  0.0691 -0.2984
19963SOL    HW161502   3.601   9.576   3.624  1.5419  2.1064 -0.7611
19963SOL    HW261503   3.532   9.667   3.723  0.4678  0.3384  0.1770
19964SOL     OW61504   0.802   0.962   9.538  0.1334  0.2571  0.0774
19964SOL    HW161505   0.723   1.015   9.528  1.0751  1.4954 -1.1098
19964SOL    HW261506   0.780   0.879   9.495 -1.2433 -0.2736  1.6779
19965SOL     OW61507   3.769   3.834   7.747 -0.0821  0.2385  0.1972
19965SOL    HW161508   3.811   3.770   7.804 -0.6771  0.7551  1.2317
19965SOL    HW261509   3.831   3.907   7.743  0.1872 -0.0075 -0.2466
19966SOL     OW61510   6.745   2.117   8.881 -0.0505  0.4264 -0.0171
19966SOL    HW161511   6.692   2.039   8.895  1.5727 -0.4904  1.3921
19966SOL    HW261512   6.736   2.168   8.962  1.3969  0.1138  0.3624
19967SOL     OW61513   9.162   0.173   6.683 -0.1759 -0.2839 -0.5199
19967SOL    HW161514   9.202   0.235   6.623 -0.2954  0.9463  0.6143
19967SOL    HW261515   9.070   0.171   6.658  0.1006 -1.1611 -1.5061
19968SOL     OW61516   6.644   1.249   8.932 -0.0242  0.0014  0.1256
19968SOL    HW161517   6.585   1.253   8.856  1.1593 -3.2691 -1.1401
19968SOL    HW261518   6.723   1.294   8.903  0.1367 -0.5466 -0.2961
19969SOL     OW61519   0.150   0.080   3.695  0.4868  0.5466 -0.6415
19969SOL    HW161520   0.240   0.067   3.723 -0.4470 -2.4284  1.4801
19969SOL    HW261521   0.141   0.026   3.616  0.3464  0.0724 -0.3055
19970SOL     OW61522   2.740   8.213   4.995  0.1615 -0.6283 -0.0327
19970SOL    HW161523   2.795   8.286   5.024 -0.1232 -0.2567 -0.4168
19970SOL    HW261524   2.651   8.237   5.023  0.0429 -0.7487 -0.3013
19971SOL     OW61525   5.446   2.565   2.882 -0.1890 -0.3824 -0.4825
19971SOL    HW161526   5.509   2.496   2.903 -0.5076 -0.8225 -0.9415
19971SOL    HW261527   5.470   2.594   2.794 -0.0292  0.1273 -0.2748
19972SOL     OW61528   2.167   7.380   0.642 -0.1339  0.2675 -0.7373
19972SOL    HW161529   2.171   7.330   0.723 -0.9576  0.6701 -0.4477
19972SOL    HW261530   2.078   7.414   0.638 -0.3451 -0.3655 -2.1862
19973SOL     OW61531   4.113   9.212   0.520 -0.5517  0.3296  0.2817
19973SOL    HW161532   4.146   9.273   0.587 -0.7880 -0.1513  0.8436
19973SOL    HW261533   4.030   9.181   0.555  0.3991 -1.7248  0.8907
19974SOL     OW61534   6.522   3.880   9.839  0.4428  0.5624 -0.3786
19974SOL    HW161535   6.461   3.812   9.813  1.2423 -0.5696  0.5804
19974SOL    HW261536   6.583   3.887   9.765  1.4991 -1.1804  0.2590
19975SOL     OW61537   0.235   8.946   5.412  0.3935  0.3641 -0.3683
19975SOL    HW161538   0.159   8.972   5.464 -0.5495 -0.5398 -1.2338
19975SOL    HW261539   0.215   8.856   5.384  1.4639  0.3597 -1.2008
19976SOL     OW61540   6.048   8.893   3.682  0.1883  0.6970 -0.1039
19976SOL    HW161541   6.054   8.936   3.597 -0.2801  2.3674  0.6591
19976SOL    HW261542   6.012   8.960   3.740 -2.3133 -1.3024  0.8023
19977SOL     OW61543   9.713   9.834   4.554  0.3556  0.3983  0.1896
19977SOL    HW161544   9.774   9.907   4.545  0.1264  0.5066 -0.5264
19977SOL    HW261545   9.748   9.765   4.497 -1.5819  1.4118 -2.4326
19978SOL     OW61546   1.589   5.499   8.981 -0.0738 -0.1566  0.2568
19978SOL    HW161547   1.563   5.473   8.893  1.6440  0.1989 -0.3855
19978SOL    HW261548   1.506   5.518   9.026 -0.9680 -0.2275 -1.3015
19979SOL     OW61549   7.816   9.121   8.064  0.0562  0.3162 -0.8890
19979SOL    HW161550   7.810   9.081   7.977 -1.1854  0.4435 -0.8858
19979SOL    HW261551   7.857   9.206   8.049  1.8157 -0.5115 -1.0318
19980SOL     OW61552   8.849   2.002   3.256 -0.2779  0.2505 -0.9941
19980SOL    HW161553   8.789   2.027   3.186 -0.5774  1.4247 -0.3428
19980SOL    HW261554   8.806   1.929   3.299  0.0974 -0.7520 -2.2669
19981SOL     OW61555   9.832   9.755   1.347  0.4882 -0.4774  0.4215
19981SOL    HW161556   9.913   9.709   1.323 -0.4257 -2.3225  0.7050
19981SOL    HW261557   9.774   9.686   1.379 -1.0653  0.8658  0.6176
19982SOL     OW61558   8.833   4.703   1.243  0.0757  0.2881 -0.0159
19982SOL    HW161559   8.783   4.664   1.315  1.3345  0.3947  0.9719
19982SOL    HW261560   8.882   4.629   1.205 -0.4938  0.2537 -0.6979
19983SOL     OW61561   7.376   4.811   2.267 -0.1912 -0.7453 -0.6914
19983SOL    HW161562   7.429   4.890   2.275  0.6512 -1.2938 -0.8039
19983SOL    HW261563   7.439   4.739   2.263 -0.9689 -1.5155  0.4112
19984SOL     OW61564   6.168   9.426   1.302 -0.3503 -0.4352  0.3070
19984SOL    HW161565   6.253   9.384   1.319 -1.0315 -1.3284  1.7046
19984SOL    HW261566   6.134   9.448   1.389 -1.1283  0.7975 -0.2860
19985SOL     OW61567   5.192   7.493   4.522  0.1954 -0.9374 -0.3175
19985SOL    HW161568   5.164   7.457   4.438  0.5358 -2.6973  0.2684
19985SOL    HW261569   5.286   7.478   4.525  0.1432 -1.1600  0.4867
19986SOL     OW61570   1.190   5.087   6.485  0.2264  0.3410  0.5296
19986SOL    HW161571   1.125   5.021   6.460  0.1812  1.2071 -1.8642
19986SOL    HW261572   1.267   5.065   6.433  0.7646  1.2196  0.9415
19987SOL     OW61573   0.508   8.481   3.992  0.2121  0.2011 -0.3522
19987SOL    HW161574   0.546   8.397   4.017 -0.8004  0.3834  2.0669
19987SOL    HW261575   0.416   8.475   4.019  0.5671  2.7622  1.8034
19988SOL     OW61576   4.961   8.703   3.039  0.1354 -0.7170  0.0425
19988SOL    HW161577   5.038   8.719   3.094 -0.7565 -0.0761  1.1265
19988SOL    HW261578   4.914   8.631   3.082  0.5208 -1.6737 -1.0637
19989SOL     OW61579   8.296   7.487   5.044  0.6859 -0.0966 -0.2955
19989SOL    HW161580   8.373   7.509   4.992  0.9942 -1.9451 -0.6881
19989SOL    HW261581   8.309   7.533   5.127  0.7939  1.8922 -1.3488
19990SOL     OW61582   7.764   7.968   0.667 -0.3488  0.6444 -0.3650
19990SOL    HW161583   7.820   7.923   0.604 -1.0884 -0.7222 -0.0747
19990SOL    HW261584   7.800   8.057   0.672  1.3779 -0.0064 -0.6836
19991SOL     OW61585   8.926   3.825   9.210 -0.4057  0.3372 -0.2315
19991SOL    HW161586   8.938   3.919   9.225 -2.1808  0.8661 -1.7828
19991SOL    HW261587   8.865   3.797   9.278 -0.8201  0.5896 -0.4944
19992SOL     OW61588   2.179   4.896   5.993 -0.4732  0.2589  0.4286
19992SOL    HW161589   2.123   4.952   6.047 -1.2925 -1.2270  1.1819
19992SOL    HW261590   2.151   4.807   6.014  1.6925 -0.5143  0.2663
19993SOL     OW61591   5.347   6.271   4.350 -0.2314  0.5673 -0.5680
19993SOL    HW161592   5.297   6.258   4.269  0.6433  1.3129 -1.2585
19993SOL    HW261593   5.434   6.238   4.330 -0.2577 -0.1548  0.4199
19994SOL     OW61594   2.376   4.496   1.840  0.4040  0.0995 -0.6013
19994SOL    HW161595   2.339   4.584   1.834 -0.6716 -0.2936  0.0928
19994SOL    HW261596   2.361   4.458   1.754 -0.6350  0.0161 -0.3906
19995SOL     OW61597   0.991   2.487   5.672  0.1228  0.0938  0.0078
19995SOL    HW161598   1.009   2.417   5.608 -1.4687 -0.3313 -0.0238
19995SOL    HW261599   0.967   2.562   5.618  0.0538  0.1215  0.0779
19996SOL     OW61600   5.280   8.098   3.172 -0.5937  0.3970  0.1864
19996SOL    HW161601   5.223   8.149   3.230  0.9383  1.0935  1.1451
19996SOL    HW261602   5.285   8.149   3.092 -0.4576  0.8820  0.4996
19997SOL     OW61603   0.556   3.478   7.744  0.1876  0.3790 -0.1314
19997SOL    HW161604   0.563   3.395   7.696 -1.0355  1.2977 -2.0672
19997SOL    HW261605   0.511   3.456   7.825 -0.4420 -0.8363 -0.7811
19998SOL     OW61606   4.542   9.514   0.178  0.5717 -0.1080 -1.0017
19998SOL    HW161607   4.611   9.561   0.130  0.5760  1.0102  0.0388
19998SOL    HW261608   4.461   9.557   0.150  0.6789  1.4977  0.9354
19999SOL     OW61609   9.028   9.299   5.922 -0.8475 -0.0213  0.2662
19999SOL    HW161610   8.987   9.254   5.848 -0.4191  0.3216 -0.1824
19999SOL    HW261611   9.050   9.229   5.983 -0.1702 -0.4273 -0.4315
20000SOL     OW61612   8.046   4.913   7.271  0.2355  0.6682  0.1771
20000SOL    HW161613   7.971   4.853   7.273  0.6156 -0.0183 -2.3243
20000SOL    HW261614   8.020   4.985   7.328 -1.5310 -0.4383  0.8713
20001SOL     OW61615   0.796   3.986   6.630  0.2760  0.5100 -0.7694
20001SOL    HW161616   0.754   4.033   6.702 -1.4615 -2.3589  0.2918
20001SOL    HW261617   0.867   3.937   6.671 -1.6001 -2.2545 -0.5555
20002SOL     OW61618   0.688   0.067   5.625 -0.2831 -0.1287 -0.0218
20002SOL    HW161619   0.687   0.007   5.550 -1.3991 -0.2799  0.0990
20002SOL    HW261620   0.757   0.034   5.682  1.2990  0.5894 -1.4503
20003SOL     OW61621   8.618   2.997   8.441  0.0836 -0.1141 -0.0180
20003SOL    HW161622   8.684   3.017   8.375  0.7846  0.8258  0.9355
20003SOL    HW261623   8.571   3.080   8.454 -1.5383 -0.8463 -0.9212
20004SOL     OW61624   5.021   9.183   5.201  0.3973 -0.1459 -0.0572
20004SOL    HW161625   4.942   9.193   5.147  1.0177 -1.9116 -1.4117
20004SOL    HW261626   5.033   9.268   5.242 -3.5245 -0.4146  2.1196
20005SOL     OW61627   1.250   0.588   6.402 -0.0774 -0.2705 -0.1977
20005SOL    HW161628   1.252   0.541   6.319  1.5318 -0.5491 -0.0366
20005SOL    HW261629   1.158   0.610   6.415 -0.5722 -1.5569 -1.2973
20006SOL     OW61630   0.153   3.802   5.702  0.1948 -0.3213  0.2093
20006SOL    HW161631   0.199   3.798   5.618  0.7140  0.1615  0.4602
20006SOL    HW261632   0.091   3.874   5.692 -0.9086 -1.3271 -0.3175
20007SOL     OW61633   6.360   6.916   9.353  0.4391  0.8769 -0.4171
20007SOL    HW161634   6.291   6.979   9.335  1.4458  2.2022  0.1910
20007SOL    HW261635   6.440   6.957   9.320  1.3402  0.5678  1.2616
20008SOL     OW61636   3.410   2.683   9.298  0.6703 -0.1725 -0.3416
20008SOL    HW161637   3.484   2.628   9.322  0.8289  0.5577  0.9230
20008SOL    HW261638   3.372   2.640   9.221  1.5984 -1.2828 -0.2041
20009SOL     OW61639   3.640   0.765   8.651 -0.0724  0.2889  0.4492
20009SOL    HW161640   3.612   0.700   8.715 -0.5619  1.2390  1.2302
20009SOL    HW261641   3.566   0.773   8.591 -0.0543  0.2029  0.4151
20010SOL     OW61642   2.864   5.534   7.360  0.0347  0.4047  0.3560
20010SOL    HW161643   2.867   5.449   7.403 -0.7587  0.1587 -0.0406
20010SOL    HW261644   2.916   5.523   7.280 -0.0422  0.2960  0.3208
20011SOL     OW61645   3.905   5.297   4.208 -0.8406 -0.1154 -0.2017
20011SOL    HW161646   3.921   5.229   4.142  0.3640 -0.7704  0.7187
20011SOL    HW261647   3.880   5.249   4.286 -0.9298  0.5693  0.2005
20012SOL     OW61648   1.497   5.421   4.177  0.3188 -0.4715 -0.6140
20012SOL    HW161649   1.543   5.338   4.175  3.1707  0.9755 -0.7402
20012SOL    HW261650   1.550   5.479   4.122 -0.9777  1.6986  0.2851
20013SOL     OW61651   3.755   6.197   4.406  0.2106 -0.4200 -0.0021
20013SOL    HW161652   3.768   6.292   4.413  1.7050 -0.7115  2.1126
20013SOL    HW261653   3.668   6.187   4.367 -0.7299  1.8290  1.3329
20014SOL     OW61654   1.283   4.220   5.014  0.5557 -0.3291 -0.2819
20014SOL    HW161655   1.303   4.251   5.103 -1.9095 -1.6590  0.8265
20014SOL    HW261656   1.188   4.211   5.013  0.6084 -1.2261 -2.7903
20015SOL     OW61657   1.561   5.030   5.309  0.8952 -0.4495  0.6796
20015SOL    HW161658   1.493   5.041   5.376 -1.7482 -0.2904 -1.8258
20015SOL    HW261659   1.550   4.940   5.278  0.4916  0.1613 -1.0617
20016SOL     OW61660   5.791   8.349   7.581  0.0013  0.4743  0.4005
20016SOL    HW161661   5.736   8.271   7.587 -1.7274  1.6711  1.0939
20016SOL    HW261662   5.812   8.357   7.488 -0.6189 -0.2623  0.1826
20017SOL     OW61663   4.066   5.043   2.169  0.0241 -0.2188 -0.1007
20017SOL    HW161664   4.004   5.109   2.137  0.8534  0.1965 -0.9056
20017SOL    HW261665   4.041   4.963   2.124  0.5956  0.1500 -1.1034
20018SOL     OW61666   7.942   7.685   0.020 -0.3413  0.1247 -0.2317
20018SOL    HW161667   7.952   7.624  -0.053 -0.6807 -0.5689  0.2987
20018SOL    HW261668   7.930   7.770  -0.022  1.4408  0.0569 -0.9744
20019SOL     OW61669   0.883   8.555   2.300  0.2695 -0.1460  0.5895
20019SOL    HW161670   0.885   8.464   2.330  0.5006 -0.1267  0.6351
20019SOL    HW261671   0.829   8.553   2.221  0.4726 -0.3632  0.4531
20020SOL     OW61672   6.233   3.078   9.530  0.6315  1.0513  0.8842
20020SOL    HW161673   6.286   3.158   9.523  0.3288  1.2275  0.5944
20020SOL    HW261674   6.243   3.052   9.622  0.6238  1.4992  1.0167
20021SOL     OW61675   8.943   6.420   6.837  0.4760  0.1794  0.4743
20021SOL    HW161676   8.952   6.344   6.896  0.6132 -0.1957 -0.0201
20021SOL    HW261677   8.878   6.476   6.879 -0.2670 -0.6279  0.4293
20022SOL     OW61678   7.427   8.117   4.244 -0.2229  0.4159  0.1352
20022SOL    HW161679   7.449   8.205   4.214  0.0691 -0.0609 -1.0951
20022SOL    HW261680   7.500   8.090   4.299  0.9402 -0.0374 -1.5748
20023SOL     OW61681   6.657   8.445   8.356  0.0497 -0.2306 -0.4862
20023SOL    HW161682   6.695   8.529   8.330  1.9208 -0.6395  0.7486
20023SOL    HW261683   6.669   8.390   8.279 -0.7731  0.4904 -1.1469
20024SOL     OW61684   4.011   8.843   1.383  0.1287 -0.8193 -0.1088
20024SOL    HW161685   4.017   8.903   1.458  2.1825 -2.1182  0.8898
20024SOL    HW261686   4.071   8.880   1.318 -1.1659 -0.0391 -0.8983
20025SOL     OW61687   1.761   7.670   7.487  0.3086 -0.0235  0.8705
20025SOL    HW161688   1.752   7.591   7.541  0.7163 -1.3955 -0.9893
20025SOL    HW261689   1.671   7.694   7.464  0.1024  0.7901  2.3882
20026SOL     OW61690   1.587   1.060   6.441 -0.3678  0.1993 -0.1682
20026SOL    HW161691   1.501   1.030   6.470 -0.3706  1.7176  1.5824
20026SOL    HW261692   1.645   1.041   6.515 -0.0414  2.8150  0.3354
20027SOL     OW61693   5.801   2.977   3.896  0.3989 -0.4584 -0.2693
20027SOL    HW161694   5.844   2.962   3.811  0.1614 -1.5497 -0.2133
20027SOL    HW261695   5.817   3.069   3.915 -1.1587  0.3478 -2.4070
20028SOL     OW61696   3.900   3.868   8.928  0.0172  0.5673 -0.7592
20028SOL    HW161697   3.873   3.914   8.848 -3.3265  0.4824  0.1675
20028SOL    HW261698   3.900   3.937   8.995 -0.0489  0.1444 -0.3241
20029SOL     OW61699   7.812   4.241   7.878  0.2839 -0.3583 -0.4675
20029SOL    HW161700   7.763   4.186   7.817  0.5479 -0.4713 -0.5771
20029SOL    HW261701   7.876   4.182   7.918 -0.6668 -0.5866  0.8145
20030SOL     OW61702   4.869   2.940   6.755 -0.3498 -0.5732 -0.5874
20030SOL    HW161703   4.824   2.861   6.725 -1.4623 -0.4576  0.7059
20030SOL    HW261704   4.956   2.934   6.715 -1.0578 -1.4503 -2.0914
20031SOL     OW61705   9.822   3.025   6.964  0.6166  0.2854 -0.6178
20031SOL    HW161706   9.790   2.936   6.980  0.4341  0.3089 -0.8477
20031SOL    HW261707   9.897   3.014   6.905  1.1226  0.2199  0.0195
20032SOL     OW61708   4.637   8.325   2.627 -0.3914 -0.0510 -0.0160
20032SOL    HW161709   4.673   8.236   2.636 -0.9726 -0.2891 -0.0388
20032SOL    HW261710   4.613   8.332   2.535  0.2606  0.3668 -0.1579
20033SOL     OW61711   2.547   0.242   6.206 -0.5819  0.1736 -0.2840
20033SOL    HW161712   2.617   0.266   6.267 -1.3553  0.6225  0.4408
20033SOL    HW261713   2.493   0.181   6.255  0.2833 -1.5998 -1.4570
20034SOL     OW61714   4.331   1.641   4.544 -0.5964 -0.0166 -0.0099
20034SOL    HW161715   4.243   1.616   4.574 -0.5224  0.8530  0.9600
20034SOL    HW261716   4.348   1.724   4.587  0.9745 -0.4831  0.3157
20035SOL     OW61717   9.395   8.782   1.875  0.1948  0.2568 -0.6196
20035SOL    HW161718   9.446   8.701   1.878 -0.6047 -0.2480 -0.1278
20035SOL    HW261719   9.323   8.767   1.937 -0.3038  1.1094 -0.9711
20036SOL     OW61720   4.335   4.554   2.137  0.1224  0.1935 -0.2735
20036SOL    HW161721   4.333   4.504   2.055 -1.4901  1.9415 -1.3655
20036SOL    HW261722   4.291   4.636   2.116 -0.6006  0.5833  2.4477
20037SOL     OW61723   5.763   8.788   4.650  0.7416 -0.0200  0.4539
20037SOL    HW161724   5.828   8.856   4.632  0.4084  0.2140  0.1162
20037SOL    HW261725   5.712   8.782   4.569  1.5350 -1.5287  0.0193
20038SOL     OW61726   0.658   5.121   3.180  0.1789 -0.1816 -0.0010
20038SOL    HW161727   0.645   5.073   3.098  2.0179  0.2246 -0.5696
20038SOL    HW261728   0.577   5.172   3.191  0.0528  0.0564 -1.7594
20039SOL     OW61729   2.256   5.539   4.554  0.1356  0.3644  0.4657
20039SOL    HW161730   2.183   5.512   4.500 -0.5848  0.4403  1.3774
20039SOL    HW261731   2.261   5.634   4.542 -1.1184  0.6384  1.8066
20040SOL     OW61732   0.622   9.262   9.172  0.2099  0.6211 -0.3269
20040SOL    HW161733   0.694   9.280   9.232  0.5956 -0.8787 -0.2866
20040SOL    HW261734   0.598   9.347   9.136 -0.9818  1.8190  2.9412
20041SOL     OW61735   5.671   9.339   0.372  0.0148 -0.0200 -0.4476
20041SOL    HW161736   5.600   9.286   0.336 -0.3658  0.5365 -0.5235
20041SOL    HW261737   5.688   9.405   0.306 -0.0381  0.4209 -0.0227
20042SOL     OW61738   8.372   5.117   8.360 -0.4360  0.0731  0.1382
20042SOL    HW161739   8.313   5.043   8.356 -0.4340  0.1197 -1.2490
20042SOL    HW261740   8.330   5.178   8.421 -1.4262 -0.2267 -0.2216
20043SOL     OW61741   3.763   4.097   6.556 -0.1070  0.1069  0.9284
20043SOL    HW161742   3.812   4.175   6.529 -1.9536  0.6732 -1.1234
20043SOL    HW261743   3.683   4.132   6.596 -1.1399 -0.6658 -0.3789
20044SOL     OW61744   6.727   1.008   7.346 -0.2113 -0.0815 -0.1224
20044SOL    HW161745   6.750   0.980   7.258 -1.0275  1.1707 -0.7498
20044SOL    HW261746   6.810   1.033   7.386 -0.0253  0.9576 -1.1220
20045SOL     OW61747   0.460   4.687   9.099  0.3163 -0.1033 -0.2912
20045SOL    HW161748   0.553   4.708   9.099  0.2490  0.2535  0.7758
20045SOL    HW261749   0.434   4.690   9.191 -0.8485  0.2497 -0.6051
20046SOL     OW61750   4.082   0.857   5.589  0.4462  0.6753 -0.2291
20046SOL    HW161751   4.132   0.914   5.530  2.2385 -0.5489 -0.0001
20046SOL    HW261752   4.145   0.835   5.659 -0.6385 -0.4134  0.4379
20047SOL     OW61753   5.293   0.928   9.507 -0.1681  0.1301 -0.1894
20047SOL    HW161754   5.386   0.923   9.484 -0.2986  1.1193 -1.0021
20047SOL    HW261755   5.285   0.875   9.586  1.3652  1.2530  0.7684
20048SOL     OW61756   8.210   6.327   3.830  0.6793  0.1144 -0.2291
20048SOL    HW161757   8.149   6.347   3.901 -1.6315  0.0729 -2.0758
20048SOL    HW261758   8.215   6.231   3.829 -0.8322  0.0129 -1.2680
20049SOL     OW61759   1.043   8.273   0.534 -0.1834  0.0872  0.7671
20049SOL    HW161760   1.100   8.206   0.573 -0.3208  0.0260  0.8622
20049SOL    HW261761   0.957   8.255   0.571 -0.3320 -0.0210  0.3751
20050SOL     OW61762   4.101   7.048   2.492  0.0203  0.1054  0.0812
20050SOL    HW161763   4.191   7.079   2.505  0.1970 -0.7675  1.1571
20050SOL    HW261764   4.099   7.018   2.401  1.3726 -1.4800  0.5111
20051SOL     OW61765   8.767   8.550   1.997 -0.4413 -0.2840  0.0137
20051SOL    HW161766   8.792   8.458   1.987  0.2058 -0.0192 -0.8454
20051SOL    HW261767   8.812   8.595   1.926 -2.6160  0.3537 -1.0562
20052SOL     OW61768   3.335   1.910   6.687  0.2686 -0.3874  0.2264
20052SOL    HW161769   3.359   1.990   6.640  2.6155  0.1443  2.0644
20052SOL    HW261770   3.263   1.936   6.744 -0.7582 -0.3204 -1.0827
20053SOL     OW61771   6.138   3.999   4.617  0.1818 -0.2348  0.4046
20053SOL    HW161772   6.113   4.081   4.661  0.1956  0.9292 -1.6541
20053SOL    HW261773   6.063   3.979   4.561  0.8031 -0.8225 -0.2280
20054SOL     OW61774   2.593   3.205   4.356 -0.1216 -0.5089  0.2053
20054SOL    HW161775   2.680   3.222   4.319 -0.4049 -0.4441 -0.4579
20054SOL    HW261776   2.609   3.189   4.449  0.3999  1.4135  0.5037
20055SOL     OW61777   4.672   7.373   9.093 -0.5499  0.3575 -0.2713
20055SOL    HW161778   4.705   7.365   9.183  0.1187 -0.6904 -0.5890
20055SOL    HW261779   4.746   7.348   9.038 -1.3910 -0.4950 -1.0572
20056SOL     OW61780   2.656   2.098   3.837  0.0851 -0.1923 -1.0951
20056SOL    HW161781   2.687   2.157   3.905  1.5318 -2.0345 -0.0636
20056SOL    HW261782   2.561   2.108   3.838 -0.0083 -0.5405  1.6315
20057SOL     OW61783   1.719   6.091   5.238 -0.0418 -0.0820 -0.2332
20057SOL    HW161784   1.632   6.065   5.207 -0.5255  0.6033  0.5156
20057SOL    HW261785   1.769   6.010   5.239 -0.7990 -0.5592 -0.2593
20058SOL     OW61786   5.151   0.292   3.945  0.0384  0.5237 -0.3517
20058SOL    HW161787   5.060   0.272   3.923  0.3540 -0.6093 -0.6858
20058SOL    HW261788   5.187   0.209   3.977  1.2952  0.6154 -1.4423
20059SOL     OW61789   5.013   3.062   4.082  0.3238 -0.1708 -0.2410
20059SOL    HW161790   4.965   3.142   4.104  0.9121 -0.3141  1.7211
20059SOL    HW261791   5.097   3.093   4.047 -0.7572  0.0640 -2.8501
20060SOL     OW61792   2.295   1.960   4.656 -0.2897  0.2493 -0.2680
20060SOL    HW161793   2.307   1.970   4.562  0.6372 -0.1347 -0.1998
20060SOL    HW261794   2.200   1.963   4.669 -0.4393 -0.0576 -1.2481
20061SOL     OW61795   4.636   3.619   6.416 -0.5712 -0.5457  0.4787
20061SOL    HW161796   4.593   3.540   6.383  0.9472 -0.9559 -0.6533
20061SOL    HW261797   4.730   3.601   6.406 -0.1915  1.4279  0.1300
20062SOL     OW61798   5.072   3.112   5.275  0.0395 -0.1174 -0.2494
20062SOL    HW161799   5.097   3.082   5.188 -2.7235 -1.0162 -0.8531
20062SOL    HW261800   5.002   3.176   5.259 -1.4864 -1.3091  1.2749
20063SOL     OW61801   2.580   0.096   7.564 -0.2943 -0.5097 -0.1154
20063SOL    HW161802   2.565   0.122   7.655 -0.7221 -1.4121  0.0806
20063SOL    HW261803   2.507   0.134   7.516  0.6222  1.0966 -0.3268
20064SOL     OW61804   8.209   1.445   1.227 -0.4865 -0.4396 -1.3269
20064SOL    HW161805   8.278   1.379   1.234 -1.4025 -1.4683 -1.7057
20064SOL    HW261806   8.252   1.520   1.186  0.1658 -1.4592 -2.5770
20065SOL     OW61807   6.922   2.573   4.348 -0.0311 -0.0687 -0.3527
20065SOL    HW161808   6.898   2.505   4.411 -0.0800  0.3567  0.0905
20065SOL    HW261809   7.017   2.570   4.343 -0.1014 -1.5837 -1.9171
20066SOL     OW61810   4.639   2.390   9.829 -0.1132 -0.0347  0.5281
20066SOL    HW161811   4.584   2.466   9.851 -0.7412 -0.5641  0.8230
20066SOL    HW261812   4.672   2.409   9.741 -0.9713  0.1826  0.2421
20067SOL     OW61813   2.498   0.590   1.779  0.2567  0.5039  0.3050
20067SOL    HW161814   2.543   0.605   1.863  0.1335  0.2153  0.4255
20067SOL    HW261815   2.470   0.498   1.784 -1.2269  0.9428  0.6617
20068SOL     OW61816   3.965   2.116   0.271  0.4071  0.8022 -0.4838
20068SOL    HW161817   3.941   2.027   0.244 -1.5782  1.3321 -0.6448
20068SOL    HW261818   4.055   2.108   0.302  0.1786 -1.3216 -0.1945
20069SOL     OW61819   5.823   1.636   3.937  0.2694  0.3878  0.1055
20069SOL    HW161820   5.806   1.597   4.023  0.7664  0.1041  0.0793
20069SOL    HW261821   5.862   1.721   3.957  0.2834  0.3687  0.1608
20070SOL     OW61822   4.036   3.260   6.291  0.0447  0.4338  0.4058
20070SOL    HW161823   3.979   3.184   6.303  0.7106  0.1398  1.8498
20070SOL    HW261824   3.993   3.330   6.341  0.0370  0.6992  0.0326
20071SOL     OW61825   6.878   5.050   7.847 -0.5704  0.4251  0.1612
20071SOL    HW161826   6.888   5.143   7.864  0.2693 -0.0130  2.4120
20071SOL    HW261827   6.823   5.018   7.919  1.4435 -1.2516  1.0807
20072SOL     OW61828   7.898   6.301   9.393  0.3301  0.0953  0.8706
20072SOL    HW161829   7.946   6.277   9.473 -0.7768  0.0795  1.5506
20072SOL    HW261830   7.815   6.335   9.425  0.7023  2.1255 -0.1902
20073SOL     OW61831   3.774   5.667   5.221 -0.0808  0.6190  0.1137
20073SOL    HW161832   3.869   5.658   5.229 -0.0297 -1.7280 -1.8242
20073SOL    HW261833   3.759   5.673   5.126 -1.8873  0.2269  0.3359
20074SOL     OW61834   8.716   8.019   7.178 -0.0863  0.2896  0.6232
20074SOL    HW161835   8.798   8.025   7.227  0.1374 -1.0048  0.4518
20074SOL    HW261836   8.708   8.104   7.135  1.2772  0.3691  0.4665
20075SOL     OW61837   8.356   5.875   0.219 -0.7074 -0.0478  0.7639
20075SOL    HW161838   8.344   5.839   0.307  0.6961  1.4510  1.6162
20075SOL    HW261839   8.388   5.964   0.233  1.0497 -0.2704 -1.2695
20076SOL     OW61840   3.515   4.308   5.325 -0.8444  0.3243  0.2895
20076SOL    HW161841   3.467   4.227   5.345  0.6351 -0.5813  0.3674
20076SOL    HW261842   3.582   4.312   5.393  0.1532  0.7215 -0.6983
20077SOL     OW61843   1.678   3.633   8.599  0.4648 -0.1717 -0.2654
20077SOL    HW161844   1.726   3.656   8.678  1.0740 -0.3084 -0.5944
20077SOL    HW261845   1.672   3.714   8.549  0.7123 -0.2480 -0.4172
20078SOL     OW61846   9.584   6.492   3.970  0.3127 -0.0322 -0.1509
20078SOL    HW161847   9.520   6.422   3.962 -0.4082  0.7559 -1.5197
20078SOL    HW261848   9.665   6.454   3.934 -0.0699 -0.1638 -0.8805
20079SOL     OW61849   6.430   4.801   9.499 -0.1733  0.2344  0.2619
20079SOL    HW161850   6.480   4.846   9.568 -0.2693  0.8934 -0.0898
20079SOL    HW261851   6.472   4.830   9.418 -0.8644  0.4685 -0.0171
20080SOL     OW61852   0.093   5.422   8.705 -0.0817 -0.5380  0.1484
20080SOL    HW161853   0.064   5.411   8.615 -1.4000  0.4943  0.4271
20080SOL    HW261854   0.015   5.450   8.753  0.6421 -0.8510  1.5786
20081SOL     OW61855   0.905   5.225   1.440 -0.0325 -0.0382  0.2354
20081SOL    HW161856   0.993   5.228   1.402  0.3530  0.0942  1.1150
20081SOL    HW261857   0.893   5.312   1.480 -1.1713  0.4948 -1.1808
20082SOL     OW61858   6.883   4.460   4.970 -0.0011  0.5979 -0.0585
20082SOL    HW161859   6.845   4.533   4.920 -1.1425  0.6804  0.8929
20082SOL    HW261860   6.842   4.465   5.056 -0.4158 -1.4082 -0.0852
20083SOL     OW61861   6.897   9.238   7.844  0.4801 -0.1098 -0.1524
20083SOL    HW161862   6.979   9.257   7.799  0.0714  0.7001 -0.5891
20083SOL    HW261863   6.868   9.154   7.809  1.5572 -0.8443  0.6600
20084SOL     OW61864   0.399   5.952   2.407  0.2748  0.4273 -0.1361
20084SOL    HW161865   0.472   5.901   2.442 -0.3318 -0.0768  0.4078
20084SOL    HW261866   0.429   5.979   2.320  1.3998  0.8461  0.3576
20085SOL     OW61867   2.715   0.385   2.366 -0.5011 -0.5179  0.6356
20085SOL    HW161868   2.688   0.335   2.443 -3.0841 -0.2692 -0.0149
20085SOL    HW261869   2.647   0.369   2.302 -0.8684  2.8762 -0.0251
20086SOL     OW61870   9.736   7.194   3.013 -0.3320 -0.3969 -0.1584
20086SOL    HW161871   9.825   7.197   3.048 -0.3544 -1.0816 -0.0247
20086SOL    HW261872   9.685   7.252   3.070  0.1086  0.3242 -0.4893
20087SOL     OW61873   3.072   7.576   7.675  0.1267  0.0178  0.7018
20087SOL    HW161874   2.990   7.537   7.643 -0.0022  0.9032 -0.1184
20087SOL    HW261875   3.139   7.513   7.653 -0.3199 -0.6744  1.2856
20088SOL     OW61876   6.681   1.969   8.056  0.2140 -0.4249  0.3333
20088SOL    HW161877   6.759   1.971   8.002  0.1295 -0.3688  0.2135
20088SOL    HW261878   6.712   1.942   8.142  0.6070  1.0197  0.6843
20089SOL     OW61879   8.951   1.399   9.721  0.5111 -0.0233  0.5450
20089SOL    HW161880   8.886   1.354   9.666  0.7121  0.0103  0.2837
20089SOL    HW261881   9.020   1.425   9.661  0.9540 -0.3987  0.8839
20090SOL     OW61882   9.087   6.701   1.778  0.0114 -0.4459 -0.0736
20090SOL    HW161883   9.138   6.694   1.859 -2.0763 -0.0661  1.3767
20090SOL    HW261884   8.997   6.679   1.805 -0.5952 -1.3356 -2.5302
20091SOL     OW61885   9.301   7.978   1.763  0.5667  0.4099  0.4531
20091SOL    HW161886   9.228   7.944   1.711  0.4700  2.9295 -1.2280
20091SOL    HW261887   9.370   7.912   1.753 -0.0882 -0.0672 -1.3820
20092SOL     OW61888   2.053   6.200   1.386 -0.2340 -0.0426  0.1238
20092SOL    HW161889   1.965   6.173   1.412  0.0074 -0.2497  0.7383
20092SOL    HW261890   2.098   6.220   1.469  0.6993 -1.1636 -0.0871
20093SOL     OW61891   5.138   4.514   1.694 -0.0082  0.0404 -0.0081
20093SOL    HW161892   5.192   4.588   1.720  0.0173  0.3402 -0.8685
20093SOL    HW261893   5.089   4.546   1.618 -0.0167 -0.8133 -0.3733
20094SOL     OW61894   1.568   9.712   7.325  0.2841 -0.4384 -0.2571
20094SOL    HW161895   1.494   9.695   7.267 -0.4098 -0.9561  0.7499
20094SOL    HW261896   1.532   9.765   7.396  1.2950  0.8741 -0.6836
20095SOL     OW61897   4.998   5.951   3.935 -0.6383  0.3262  0.2850
20095SOL    HW161898   5.089   5.922   3.940 -0.3167  1.5021  3.7535
20095SOL    HW261899   4.947   5.870   3.941  0.2008 -0.2025  0.5179
20096SOL     OW61900   2.275   1.525   4.216 -0.2334  0.0982  0.0133
20096SOL    HW161901   2.266   1.535   4.311 -0.0109 -1.3051  0.2106
20096SOL    HW261902   2.185   1.523   4.183 -0.4659 -2.5142  0.6047
20097SOL     OW61903   2.443   2.456   2.138 -0.5345 -0.1642  0.1824
20097SOL    HW161904   2.438   2.463   2.233 -0.8813 -0.2641  0.1723
20097SOL    HW261905   2.408   2.369   2.118 -0.1331 -0.2853 -0.0098
20098SOL     OW61906   6.366   7.029   5.347 -0.5508 -0.3915 -0.1354
20098SOL    HW161907   6.408   7.115   5.342 -1.0404 -0.0791  0.9835
20098SOL    HW261908   6.291   7.036   5.289  1.5276 -1.3722 -3.2394
20099SOL     OW61909   1.614   0.405   3.420 -0.5588 -0.1051  0.4657
20099SOL    HW161910   1.604   0.437   3.330 -0.6480 -0.5816  0.3075
20099SOL    HW261911   1.528   0.369   3.442 -0.3116 -0.6933  0.4684
20100SOL     OW61912   5.399   1.503   0.159 -0.1167  0.0896 -0.6900
20100SOL    HW161913   5.455   1.577   0.133 -0.6137  0.3385 -1.0722
20100SOL    HW261914   5.342   1.538   0.227 -1.1903  0.4300 -1.7150
20101SOL     OW61915   4.149   2.302   9.552  0.0756 -0.1001 -0.1497
20101SOL    HW161916   4.080   2.255   9.599  0.8039  0.8328  2.0227
20101SOL    HW261917   4.177   2.243   9.482 -2.4345 -0.7570 -0.6743
20102SOL     OW61918   8.997   8.314   6.649  0.2406 -0.2360  0.0273
20102SOL    HW161919   8.987   8.223   6.621 -0.2205 -0.9184  2.2156
20102SOL    HW261920   9.068   8.312   6.713  0.7696  1.1140 -0.4852
20103SOL     OW61921   6.525   4.211   7.973 -0.4484 -0.4826  0.3760
20103SOL    HW161922   6.581   4.262   7.914 -0.7893 -0.7127 -0.1497
20103SOL    HW261923   6.577   4.134   7.994 -1.0413 -1.3329 -1.1380
20104SOL     OW61924   5.643   6.627   1.915  0.4310  0.1769  0.1623
20104SOL    HW161925   5.569   6.684   1.894 -0.0446 -0.8044 -0.9599
20104SOL    HW261926   5.603   6.542   1.931  0.9756  0.3903  3.2362
20105SOL     OW61927   4.963   8.112   9.509 -0.5926  0.1599 -0.0531
20105SOL    HW161928   5.056   8.127   9.526 -0.3394  1.8891 -2.3913
20105SOL    HW261929   4.919   8.175   9.566 -0.4043 -0.8956  1.3124
20106SOL     OW61930   7.592   6.041   8.780  0.0287  0.5619  0.0923
20106SOL    HW161931   7.595   5.946   8.772  0.7681  0.6438 -0.8606
20106SOL    HW261932   7.503   6.065   8.756  0.0156  0.1567 -0.2716
20107SOL     OW61933   7.984   8.080   1.686 -0.5609  0.4916  0.1297
20107SOL    HW161934   7.998   8.139   1.761  0.0232 -0.1652  0.5494
20107SOL    HW261935   7.985   7.992   1.724 -0.0441  0.1385 -0.6821
20108SOL     OW61936   0.530   9.234   9.765 -0.4446 -0.3564 -0.5510
20108SOL    HW161937   0.479   9.157   9.788 -0.0866 -0.4994 -0.2219
20108SOL    HW261938   0.540   9.282   9.848  1.1234 -1.0310 -0.3171
20109SOL     OW61939   1.679   9.630   4.613 -0.3543 -0.3943 -0.1289
20109SOL    HW161940   1.645   9.663   4.529 -1.8441 -0.1606  0.5303
20109SOL    HW261941   1.606   9.579   4.649  0.7915 -1.7518  0.3624
20110SOL     OW61942   7.210   4.994   9.287 -0.5727 -0.4745  0.0001
20110SOL    HW161943   7.278   5.038   9.236  1.0086  0.2246  2.5014
20110SOL    HW261944   7.257   4.956   9.361 -2.8408 -0.3597  1.6117
20111SOL     OW61945   8.681   0.896   7.065 -0.1328  0.2562 -0.1222
20111SOL    HW161946   8.694   0.957   6.992 -0.7763 -0.6436 -1.0250
20111SOL    HW261947   8.743   0.826   7.048 -1.3557 -0.7352 -0.7167
20112SOL     OW61948   6.791   6.743   6.981 -0.1143 -0.1871  0.4576
20112SOL    HW161949   6.696   6.741   6.983 -0.1128 -1.4065  0.0010
20112SOL    HW261950   6.818   6.694   7.059  0.1358 -0.1475  0.3992
20113SOL     OW61951   9.360   5.223   7.180 -0.2006  0.1808  0.5186
20113SOL    HW161952   9.364   5.264   7.094 -1.9295 -1.3985 -0.3908
20113SOL    HW261953   9.374   5.130   7.163 -2.2444 -0.3931  1.6581
20114SOL     OW61954   6.372   6.367   0.896  1.0268  0.1475  0.6983
20114SOL    HW161955   6.324   6.289   0.923 -0.4835  1.2745  1.4603
20114SOL    HW261956   6.428   6.337   0.825 -0.6900 -1.3076 -0.1317
20115SOL     OW61957   2.214   3.056   2.097  0.1363  0.1283 -0.3587
20115SOL    HW161958   2.186   3.146   2.111  0.4024  0.2421 -0.5513
20115SOL    HW261959   2.157   3.004   2.154  0.5757  0.4963  0.4234
20116SOL     OW61960   3.761   8.565   5.706 -0.0599 -0.0030 -0.1628
20116SOL    HW161961   3.799   8.636   5.758  1.5423 -0.6006 -0.4359
20116SOL    HW261962   3.770   8.594   5.616 -0.8069  0.0965 -0.2041
20117SOL     OW61963   7.567   9.759   1.350  0.1770  0.2306 -0.0753
20117SOL    HW161964   7.641   9.820   1.352  0.1385  0.2721  1.2042
20117SOL    HW261965   7.604   9.677   1.385  0.0002 -0.2201 -0.9165
20118SOL     OW61966   2.479   1.217   9.032 -0.9853 -0.2126  0.4183
20118SOL    HW161967   2.483   1.188   8.941 -1.8512  0.9065 -0.0073
20118SOL    HW261968   2.398   1.179   9.066 -0.4822 -0.9213  0.8381
20119SOL     OW61969   7.700   7.095   8.702  0.5836 -0.4461  0.1346
20119SOL    HW161970   7.725   7.032   8.768  0.5300  0.0380  0.6237
20119SOL    HW261971   7.739   7.062   8.621 -1.1633 -2.2059 -0.0643
20120SOL     OW61972   7.968   2.286   7.863 -0.7348  0.0581  0.2018
20120SOL    HW161973   8.035   2.348   7.835 -0.2294 -0.5661  0.0000
20120SOL    HW261974   7.916   2.269   7.784 -1.8358  1.3635  0.5954
20121SOL     OW61975   7.393   0.706   6.696  0.2676  0.2748  0.5316
20121SOL    HW161976   7.463   0.724   6.760  1.2771 -1.5935  0.0338
20121SOL    HW261977   7.367   0.616   6.714 -1.4073  0.6452  0.0927
20122SOL     OW61978   6.120   3.842   3.785  0.2649 -0.5434 -0.1846
20122SOL    HW161979   6.037   3.870   3.825  0.4861 -0.9363  0.5701
20122SOL    HW261980   6.187   3.882   3.840  0.5848 -0.3547 -0.7028
20123SOL     OW61981   0.173   6.903   4.512 -0.2796  0.1524 -0.1264
20123SOL    HW161982   0.106   6.861   4.565  0.8462 -0.9561  0.4754
20123SOL    HW261983   0.183   6.847   4.435  1.6890 -1.1554  0.9933
20124SOL     OW61984   2.234   0.648   3.223 -0.2221 -0.2799  0.4450
20124SOL    HW161985   2.303   0.587   3.252 -0.9103 -0.1069  2.6595
20124SOL    HW261986   2.245   0.725   3.280 -2.4644 -0.4252  1.1872
20125SOL     OW61987   2.038   4.274   3.342 -0.8590 -0.2051 -0.2557
20125SOL    HW161988   2.058   4.229   3.424 -1.3830  0.1646  0.0814
20125SOL    HW261989   2.098   4.235   3.279 -0.4253 -0.4747  0.3064
20126SOL     OW61990   4.845   3.064   3.619  0.0955 -0.5849  0.3136
20126SOL    HW161991   4.920   3.124   3.625 -0.2680  0.1228 -1.6535
20126SOL    HW261992   4.857   3.019   3.536 -1.2341 -1.0670  0.3644
20127SOL     OW61993   8.044   7.123   5.336 -0.9208 -0.0932 -0.2091
20127SOL    HW161994   7.975   7.139   5.271  0.7505  1.0986 -1.8181
20127SOL    HW261995   8.108   7.069   5.290 -0.5561 -0.7994  1.0909
20128SOL     OW61996   4.136   4.271   5.783 -0.1658  0.1987 -0.0298
20128SOL    HW161997   4.145   4.331   5.710 -0.6454  0.7724  0.3750
20128SOL    HW261998   4.041   4.257   5.792 -0.0891 -0.1951  0.2135
20129SOL     OW61999   0.270   2.524   4.875  0.0392 -0.0612  0.1635
20129SOL    HW162000   0.364   2.534   4.859 -0.0293 -0.1103 -0.2743
20129SOL    HW262001   0.250   2.591   4.941  0.5181 -0.5319  0.7923
20130SOL     OW62002   2.294   1.070   6.362 -0.7140 -0.1534  0.1148
20130SOL    HW162003   2.325   0.980   6.366 -0.2803 -0.1378 -1.8306
20130SOL    HW262004   2.213   1.065   6.311  0.5814  0.7938 -2.1723
20131SOL     OW62005   0.910   4.234   1.044 -0.0484 -0.1808  0.0188
20131SOL    HW162006   0.833   4.285   1.070 -0.4873 -0.3358 -0.9159
20131SOL    HW262007   0.935   4.186   1.123  0.0834  1.0960  0.7813
20132SOL     OW62008   6.221   8.266   2.119  0.6919 -0.5414  0.2148
20132SOL    HW162009   6.287   8.223   2.172 -0.4045 -1.2804  1.0338
20132SOL    HW262010   6.139   8.222   2.142  0.2525 -1.5222 -2.6835
20133SOL     OW62011   8.397   6.008   4.476 -0.3647  0.3354 -0.2857
20133SOL    HW162012   8.421   5.944   4.542  0.7760  1.0090 -0.0231
20133SOL    HW262013   8.468   6.007   4.412 -1.1515  0.1385 -1.1952
20134SOL     OW62014   4.252   9.562   0.150 -0.2775  0.2082  0.6326
20134SOL    HW162015   4.210   9.563   0.064 -0.0575 -0.1265  0.5228
20134SOL    HW262016   4.241   9.472   0.181 -3.1253  0.9939  2.3011
20135SOL     OW62017   5.085   4.491   6.705  0.5150 -0.3747  0.1795
20135SOL    HW162018   5.130   4.477   6.788  0.0986 -0.0841  0.4563
20135SOL    HW262019   5.126   4.429   6.644  2.3276  0.9068  0.0336
20136SOL     OW62020   6.053   5.433   4.211 -0.1526  0.6688  0.2993
20136SOL    HW162021   6.096   5.413   4.128 -0.0702 -1.8718  0.8850
20136SOL    HW262022   5.966   5.395   4.203 -0.3418  0.8859  1.1776
20137SOL     OW62023   7.251   6.443   1.970  0.0209  0.2062 -0.8732
20137SOL    HW162024   7.290   6.527   1.992  1.3997 -0.8072  0.8806
20137SOL    HW262025   7.316   6.399   1.915  1.0638 -1.1189  1.2878
20138SOL     OW62026   7.197   8.107   1.221  0.8591 -0.2558  0.0117
20138SOL    HW162027   7.133   8.094   1.291  0.5293  0.8825 -0.0558
20138SOL    HW262028   7.280   8.079   1.258  0.6504  0.1296  0.7858
20139SOL     OW62029   8.386   5.090   5.901  0.4186 -0.2420  0.6506
20139SOL    HW162030   8.375   4.998   5.875  1.3509 -0.3672  0.6829
20139SOL    HW262031   8.361   5.091   5.994  2.2835 -0.8671  1.1955
20140SOL     OW62032   2.772   5.432   6.359 -0.4225 -0.2288  0.4701
20140SOL    HW162033   2.789   5.440   6.265  0.4172 -0.9620  0.5373
20140SOL    HW262034   2.704   5.365   6.365  0.1493 -0.8316  0.4104
20141SOL     OW62035   5.098   2.244   1.359  0.3279  0.2355 -0.3607
20141SOL    HW162036   5.165   2.193   1.314  1.3937  0.3481  1.0292
20141SOL    HW262037   5.015   2.203   1.333  0.9486 -0.2474 -1.6789
20142SOL     OW62038   9.331   5.048   2.776  0.0461 -0.6307  0.6880
20142SOL    HW162039   9.359   5.042   2.867 -2.2026  1.1779  1.6064
20142SOL    HW262040   9.238   5.023   2.777 -0.6502  1.5868 -0.6302
20143SOL     OW62041   0.030   9.407   8.755 -0.0242 -0.1232 -0.0434
20143SOL    HW162042   0.083   9.484   8.732 -1.3535  0.7461 -0.3059
20143SOL    HW262043   0.060   9.339   8.695  0.4582  0.4966 -0.5232
20144SOL     OW62044   7.935   3.296   1.626  0.3614  0.5419  0.1104
20144SOL    HW162045   7.919   3.204   1.606 -2.3547  0.7671  0.8528
20144SOL    HW262046   8.003   3.295   1.693 -0.8295 -1.0708  1.3763
20145SOL     OW62047   5.234   1.964   9.289  0.5067  0.1098 -0.0333
20145SOL    HW162048   5.295   2.002   9.353 -0.1180  0.2528  0.4915
20145SOL    HW262049   5.160   1.933   9.342  0.0191  0.1542 -0.6793
20146SOL     OW62050   4.463   5.748   7.592  0.7595  0.1427  0.1685
20146SOL    HW162051   4.436   5.665   7.632  0.1496 -0.0995 -0.7074
20146SOL    HW262052   4.520   5.788   7.657 -0.0123 -0.3378  1.1766
20147SOL     OW62053   7.207   2.818   5.235 -0.0555 -0.0068  0.3006
20147SOL    HW162054   7.116   2.790   5.233 -0.0509  0.0142 -0.2703
20147SOL    HW262055   7.231   2.814   5.328 -0.2014 -1.4462  0.3039
20148SOL     OW62056   7.607   1.974   7.387 -0.4917  0.0732 -0.5191
20148SOL    HW162057   7.591   1.954   7.480  0.9471  1.2273  0.0146
20148SOL    HW262058   7.534   2.032   7.363  1.1473  3.0474  1.0970
20149SOL     OW62059   8.351   3.529   7.850  0.3709  0.0055  0.2506
20149SOL    HW162060   8.354   3.478   7.931  1.7037  0.7139  0.6752
20149SOL    HW262061   8.432   3.579   7.851 -0.4096  1.3292 -0.6780
20150SOL     OW62062   9.817   2.704   8.480 -0.5877 -0.1965  0.5443
20150SOL    HW162063   9.867   2.648   8.421 -0.9200 -0.3833  0.4366
20150SOL    HW262064   9.726   2.679   8.465 -0.8287  1.0549 -0.2256
20151SOL     OW62065   4.336   1.005   0.926 -0.2692 -0.5850 -0.1128
20151SOL    HW162066   4.344   0.991   1.021  1.2393 -0.2427 -0.1536
20151SOL    HW262067   4.273   0.940   0.897 -0.8096 -0.6411  1.1455
20152SOL     OW62068   7.278   7.076   5.379 -0.0562  0.3085  0.3042
20152SOL    HW162069   7.217   7.134   5.333  0.3713  0.9088  0.4859
20152SOL    HW262070   7.279   7.109   5.468  1.9071  1.4688 -0.0928
20153SOL     OW62071   9.026   5.234   0.320 -0.0728  0.0725  0.5600
20153SOL    HW162072   9.071   5.176   0.259  0.8386  0.2741  1.0312
20153SOL    HW262073   8.972   5.290   0.264  0.9481  0.4337 -0.0912
20154SOL     OW62074   6.021   4.300   2.983  0.0953 -0.2862  0.3186
20154SOL    HW162075   5.965   4.268   3.053 -1.6654  1.6071 -0.1087
20154SOL    HW262076   5.992   4.253   2.905 -0.9580  0.6951  0.0973
20155SOL     OW62077   5.601   7.252   3.096 -0.1879 -0.1835  0.4424
20155SOL    HW162078   5.663   7.249   3.024 -1.6974 -2.8896 -0.8871
20155SOL    HW262079   5.535   7.316   3.068  0.1616  0.0931  0.2456
20156SOL     OW62080   5.406   9.028   8.325  0.7905 -0.0028  0.0939
20156SOL    HW162081   5.379   8.943   8.361 -1.2271 -0.5866 -2.5358
20156SOL    HW262082   5.371   9.030   8.237  1.5118  3.2680 -0.2684
20157SOL     OW62083   1.372   6.602   5.823 -0.0506  0.0783 -0.2196
20157SOL    HW162084   1.314   6.628   5.894  0.1669  1.9060 -0.6613
20157SOL    HW262085   1.458   6.592   5.864  0.2735  2.0177 -0.2981
20158SOL     OW62086   8.218   5.590   1.073 -0.0356 -0.5331  0.2974
20158SOL    HW162087   8.176   5.513   1.034  1.5545 -1.8738  1.1173
20158SOL    HW262088   8.290   5.555   1.124  1.6328  1.6113 -0.4295
20159SOL     OW62089   5.433   7.740   3.311 -0.4506  0.5453 -0.4761
20159SOL    HW162090   5.505   7.684   3.282 -1.2670 -1.3927  0.9494
20159SOL    HW262091   5.467   7.829   3.305  1.2202 -0.1416 -2.0561
20160SOL     OW62092   7.081   7.330   5.321  0.6167 -0.2959 -0.0203
20160SOL    HW162093   7.155   7.382   5.288  1.0978 -1.1361 -0.2905
20160SOL    HW262094   7.095   7.327   5.416 -1.1815  2.7708  0.5003
20161SOL     OW62095   1.446   9.653   6.451 -0.5104 -0.3180 -0.1748
20161SOL    HW162096   1.410   9.570   6.480  0.0382  0.0051  1.4980
20161SOL    HW262097   1.489   9.633   6.368 -2.2452 -1.2313 -0.9073
20162SOL     OW62098   3.095   1.182   8.942 -0.1633  0.3505  0.0980
20162SOL    HW162099   3.023   1.235   8.906 -0.8647  1.3057  2.6622
20162SOL    HW262100   3.054   1.098   8.964 -0.6198  0.9380  1.6775
20163SOL     OW62101   2.334   3.045   5.806  0.4837  0.2661  0.2496
20163SOL    HW162102   2.308   2.974   5.747 -0.0654  2.4039 -2.2664
20163SOL    HW262103   2.283   3.120   5.777  2.0618  2.0605  1.8771
20164SOL     OW62104   9.627   8.087   1.195 -0.3863  0.1714 -0.0032
20164SOL    HW162105   9.718   8.080   1.223 -1.0135 -1.5609  1.8652
20164SOL    HW262106   9.590   8.155   1.251 -0.6586 -0.4099  0.5346
20165SOL     OW62107   9.392   4.128   0.961  0.1643  0.2297 -0.4507
20165SOL    HW162108   9.401   4.212   0.917 -0.3719  0.8923  0.6497
20165SOL    HW262109   9.369   4.151   1.051 -2.1670 -1.1285 -0.6281
20166SOL     OW62110   9.610   7.906   4.911 -0.1012 -0.4366 -0.5517
20166SOL    HW162111   9.701   7.918   4.939 -0.0466  0.6396 -1.1312
20166SOL    HW262112   9.566   7.987   4.938 -1.3958 -1.7733  1.5768
20167SOL     OW62113   9.587   8.925   6.158 -0.4115 -0.2248 -0.1333
20167SOL    HW162114   9.621   8.985   6.091 -0.2752  0.1436  0.2530
20167SOL    HW262115   9.551   8.851   6.109 -1.7625  0.7619 -0.6917
20168SOL     OW62116   7.325   0.046   8.422 -0.0589  0.1130  0.2877
20168SOL    HW162117   7.233   0.050   8.446 -0.0105 -0.0684  0.5064
20168SOL    HW262118   7.345   0.133   8.388 -0.1604  0.3316  0.7892
20169SOL     OW62119   5.165   8.841   9.283 -0.2021  0.3414 -0.2058
20169SOL    HW162120   5.260   8.831   9.280 -0.2840 -0.4075 -0.6077
20169SOL    HW262121   5.142   8.875   9.196 -0.0087  3.5612  0.8887
20170SOL     OW62122   0.334   2.552   4.304  0.4484  0.4101 -0.1220
20170SOL    HW162123   0.410   2.589   4.259  0.0567  1.4326  0.0361
20170SOL    HW262124   0.260   2.568   4.245  0.0490  1.1350  0.5491
20171SOL     OW62125   2.995   0.535   7.758  0.3495 -0.3196  0.1331
20171SOL    HW162126   3.029   0.581   7.835 -0.3094  0.5898 -0.1087
20171SOL    HW262127   3.029   0.584   7.684 -1.0612  0.3182 -0.1194
20172SOL     OW62128   4.576   8.880   3.509 -0.5825  0.3974 -0.2318
20172SOL    HW162129   4.618   8.964   3.528 -1.3573  0.9579 -0.9678
20172SOL    HW262130   4.616   8.851   3.427 -2.1565  1.3267 -1.3752
20173SOL     OW62131   2.152   9.816   2.410 -0.7417 -0.0694 -0.6975
20173SOL    HW162132   2.084   9.812   2.477 -1.9598  0.0582 -1.8672
20173SOL    HW262133   2.108   9.785   2.330 -0.0428  1.9530 -1.9468
20174SOL     OW62134   8.082   8.893   7.509 -0.4884  0.1819  0.5432
20174SOL    HW162135   8.046   8.808   7.483  0.0043  0.0366  0.3231
20174SOL    HW262136   8.145   8.914   7.441  1.4523 -0.6002  2.0171
20175SOL     OW62137   1.332   2.788   3.357  0.2137  0.1229  0.6590
20175SOL    HW162138   1.379   2.863   3.394 -0.5519  0.4201  1.0598
20175SOL    HW262139   1.400   2.724   3.339  1.2098  1.7050 -1.7265
20176SOL     OW62140   6.570   4.462   7.104  0.1645  0.0683 -0.5104
20176SOL    HW162141   6.522   4.400   7.158  0.0556 -0.3505 -1.0784
20176SOL    HW262142   6.544   4.441   7.014  0.4375  0.6692 -0.7375
20177SOL     OW62143   2.899   6.703   6.624 -0.4885  0.2363  0.0123
20177SOL    HW162144   2.982   6.660   6.645 -0.5418 -0.5943 -1.2957
20177SOL    HW262145   2.880   6.675   6.534 -2.1296  0.4919  0.2399
20178SOL     OW62146   0.950   0.396   6.197  0.0060 -0.2855 -0.1733
20178SOL    HW162147   0.893   0.445   6.138 -0.2377 -2.9175 -2.3247
20178SOL    HW262148   1.036   0.437   6.186 -0.7838  1.7455  0.7342
20179SOL     OW62149   3.935   8.709   8.518  0.9839 -0.1268 -0.1464
20179SOL    HW162150   3.905   8.779   8.461  0.5332  1.0789  1.5037
20179SOL    HW262151   3.974   8.645   8.459  2.8802  2.2203 -1.6290
20180SOL     OW62152   1.774   5.298   3.968 -0.3641  0.0507 -0.1930
20180SOL    HW162153   1.823   5.251   3.900  2.3549  2.1190  0.1615
20180SOL    HW262154   1.804   5.260   4.050 -0.9942 -0.0834 -0.0193
20181SOL     OW62155   4.931   4.719   7.435  0.7469  0.0598  0.4452
20181SOL    HW162156   4.885   4.797   7.405 -0.7342 -0.3530  1.4869
20181SOL    HW262157   4.993   4.751   7.501  1.3928  0.5303 -0.3733
20182SOL     OW62158   9.812   5.008   5.134  0.2828  0.6095  0.1141
20182SOL    HW162159   9.747   4.938   5.133  0.5731  0.3271  0.6773
20182SOL    HW262160   9.790   5.062   5.058 -0.4766  0.3974  0.1740
20183SOL     OW62161   2.066   6.445   2.169 -0.2410 -0.3520 -0.0245
20183SOL    HW162162   2.054   6.476   2.259 -2.3458 -0.2505 -0.2862
20183SOL    HW262163   2.161   6.445   2.156  0.1310 -0.4492  2.2117
20184SOL     OW62164   5.809   8.201   6.507  0.2766  0.0573  0.5761
20184SOL    HW162165   5.752   8.124   6.501  0.5578 -0.1019 -0.1670
20184SOL    HW262166   5.897   8.164   6.517  0.4284  0.2745  0.0857
20185SOL     OW62167   5.381   3.209   9.019 -0.1589  0.1767  0.1272
20185SOL    HW162168   5.386   3.114   9.022 -1.4882  0.0973  1.0388
20185SOL    HW262169   5.303   3.230   9.071  0.7903  1.8293  0.9585
20186SOL     OW62170   7.542   9.279   3.160 -0.3195 -0.2681 -0.4126
20186SOL    HW162171   7.587   9.199   3.133  0.2954  0.4966 -1.7439
20186SOL    HW262172   7.593   9.312   3.234  1.2522  0.4778 -1.7717
20187SOL     OW62173   4.711   7.853   0.343  0.1413 -0.2965  0.2459
20187SOL    HW162174   4.755   7.937   0.350 -0.7572  0.1411  0.8615
20187SOL    HW262175   4.679   7.850   0.252  0.6298 -0.2200  0.0687
20188SOL     OW62176   6.509   1.842   3.486 -0.4911  0.5296  0.0070
20188SOL    HW162177   6.509   1.816   3.394 -0.0766  0.0758  0.1300
20188SOL    HW262178   6.487   1.762   3.534 -2.2913  1.1098  0.2279
20189SOL     OW62179   1.704   4.949   7.972 -0.4699 -0.1150  0.3937
20189SOL    HW162180   1.681   4.922   8.061  2.1768  0.3076  1.2931
20189SOL    HW262181   1.798   4.933   7.965 -0.2749  1.4430 -1.7471
20190SOL     OW62182   7.559   3.617   0.865 -0.2299 -0.6704  0.3200
20190SOL    HW162183   7.635   3.562   0.883 -0.0528 -0.4553  0.2233
20190SOL    HW262184   7.485   3.557   0.872  0.0829 -1.3540 -1.6311
20191SOL     OW62185   4.224   1.964   8.707  0.3926 -0.4556 -0.1251
20191SOL    HW162186   4.192   1.874   8.698 -2.2141  0.3011  0.4751
20191SOL    HW262187   4.190   2.009   8.629  0.0204  0.3933  0.5107
20192SOL     OW62188   6.376   2.858   7.184 -0.0124 -0.1354 -0.2857
20192SOL    HW162189   6.284   2.883   7.181  0.2358  0.6915 -1.6871
20192SOL    HW262190   6.420   2.931   7.227  0.1795  0.1035 -0.8831
20193SOL     OW62191   0.336   0.697   9.001 -0.2092 -0.0944  0.1128
20193SOL    HW162192   0.346   0.640   9.077  2.5095  0.4815  0.2867
20193SOL    HW262193   0.424   0.730   8.984 -1.4078  2.9500 -0.8550
20194SOL     OW62194   6.706   4.135   4.859  0.1872 -0.4210  1.1880
20194SOL    HW162195   6.771   4.187   4.813  0.1913 -1.4298  0.0140
20194SOL    HW262196   6.631   4.194   4.871  0.2097 -0.1225 -0.0601
20195SOL     OW62197   0.651   7.805   6.810 -0.3669  0.0346 -0.3610
20195SOL    HW162198   0.666   7.878   6.870 -1.8205  0.4422 -0.4682
20195SOL    HW262199   0.739   7.778   6.783  0.2278  1.0545  0.4964
20196SOL     OW62200   6.840   0.675   6.360 -0.3205  0.2724 -0.0893
20196SOL    HW162201   6.890   0.716   6.289 -1.0594 -0.1796 -0.8900
20196SOL    HW262202   6.861   0.582   6.353 -0.9383  0.1373 -0.1668
20197SOL     OW62203   0.198   6.000   6.864  0.3855 -0.3262 -0.3284
20197SOL    HW162204   0.187   5.931   6.930 -1.6849  0.0513 -0.2021
20197SOL    HW262205   0.135   5.977   6.796  1.6604 -0.0479 -1.6386
20198SOL     OW62206   4.747   8.678   2.685 -0.3448  0.1072 -0.0465
20198SOL    HW162207   4.737   8.611   2.753 -0.2433  0.8409  0.7080
20198SOL    HW262208   4.659   8.690   2.649 -0.4399 -0.1267  0.1099
20199SOL     OW62209   7.143   1.029   2.588  0.1295 -0.2397  0.4061
20199SOL    HW162210   7.116   0.969   2.657  0.5808  0.1508  0.9298
20199SOL    HW262211   7.067   1.086   2.573  0.2850  0.1656  1.1208
20200SOL     OW62212   6.328   0.506   2.613 -0.0304  0.1885 -0.4730
20200SOL    HW162213   6.250   0.459   2.583 -0.1238  0.8615 -1.3427
20200SOL    HW262214   6.360   0.552   2.535 -0.8274  2.7748  0.6032
20201SOL     OW62215   8.336   8.132   4.633 -0.1419 -0.0189  0.0568
20201SOL    HW162216   8.320   8.076   4.557  3.2261  0.4727 -1.1931
20201SOL    HW262217   8.321   8.221   4.601 -2.8279  0.0726  1.2845
20202SOL     OW62218   7.361   8.775   8.147  0.0286  0.3573 -0.0344
20202SOL    HW162219   7.337   8.790   8.238  1.9090  1.4905  0.3358
20202SOL    HW262220   7.401   8.688   8.146 -1.6672 -0.4430 -0.1668
20203SOL     OW62221   5.018   5.259   1.750  0.1820  0.0496  0.5522
20203SOL    HW162222   4.933   5.237   1.789 -0.1761 -1.1032 -0.7922
20203SOL    HW262223   5.082   5.227   1.814 -0.3934 -0.4132  0.9129
20204SOL     OW62224   6.788   3.539   3.613 -0.0611  0.4047  0.1942
20204SOL    HW162225   6.707   3.590   3.613 -0.6008 -0.3624  1.8737
20204SOL    HW262226   6.857   3.602   3.595 -0.9220  1.3283  0.0845
20205SOL     OW62227   6.688   8.442   5.641  0.6600  0.0697 -0.1401
20205SOL    HW162228   6.597   8.414   5.625  0.6655 -0.5115  0.7664
20205SOL    HW262229   6.682   8.536   5.654 -0.2430 -0.2935  2.6287
20206SOL     OW62230   4.351   6.343   2.793  0.0156  0.3633 -0.4428
20206SOL    HW162231   4.314   6.255   2.797  1.8756 -0.4117  1.0411
20206SOL    HW262232   4.405   6.351   2.872  1.9559  1.8627 -1.8114
20207SOL     OW62233   8.233   9.497   9.787  0.1447  0.1688 -0.3374
20207SOL    HW162234   8.221   9.429   9.853 -1.4726  0.5782 -0.1763
20207SOL    HW262235   8.315   9.541   9.812  0.8042 -1.1954 -0.0122
20208SOL     OW62236   2.857   6.736   8.643  0.3344  0.4991  0.8798
20208SOL    HW162237   2.788   6.762   8.583  0.3991 -0.1809  0.5060
20208SOL    HW262238   2.936   6.777   8.607  0.1677  1.1346  1.2125
20209SOL     OW62239   6.543   3.202   9.735  0.3831  0.0830  0.4134
20209SOL    HW162240   6.589   3.184   9.653 -1.3371 -0.4922 -0.5000
20209SOL    HW262241   6.539   3.297   9.741 -0.2455  0.1426 -0.6757
20210SOL     OW62242   9.807   0.701   6.838  0.6593  0.3961  0.5332
20210SOL    HW162243   9.751   0.632   6.874  0.0075  1.8006  2.3863
20210SOL    HW262244   9.746   0.770   6.813  1.0285 -0.4989 -3.6760
20211SOL     OW62245   6.046   9.061   2.334 -0.1169 -0.3942 -0.6979
20211SOL    HW162246   6.029   9.084   2.243 -1.1046  2.1546  0.0533
20211SOL    HW262247   6.137   9.088   2.349 -0.3794  0.4614 -0.5919
20212SOL     OW62248   3.298   5.027   1.777  1.1187 -0.1055 -0.2702
20212SOL    HW162249   3.206   5.005   1.797  1.5051 -0.4100  1.3249
20212SOL    HW262250   3.331   4.950   1.731 -0.2797  1.2903 -4.0642
20213SOL     OW62251   6.029   3.024   7.696  0.0091 -0.1785  0.2290
20213SOL    HW162252   6.099   3.077   7.658  0.2418 -0.5134  0.1862
20213SOL    HW262253   5.952   3.044   7.641 -0.2104  1.0003  0.9290
20214SOL     OW62254   1.550   4.769   9.219  0.1096  0.1034  0.5237
20214SOL    HW162255   1.541   4.858   9.254 -1.6312  0.0908  0.2174
20214SOL    HW262256   1.478   4.761   9.157  1.1165 -1.0431 -0.5342
20215SOL     OW62257   2.648   9.716   8.334 -0.9591  0.1773 -0.1781
20215SOL    HW162258   2.715   9.648   8.335 -0.8639  0.2771  0.7089
20215SOL    HW262259   2.692   9.792   8.298 -0.6589  0.1757  0.1816
20216SOL     OW62260   4.177   3.227   3.953 -0.4830  0.0541 -0.9024
20216SOL    HW162261   4.129   3.308   3.936 -1.2868 -0.7445 -2.6118
20216SOL    HW262262   4.216   3.204   3.869  1.8135 -0.0599  0.1194
20217SOL     OW62263   6.003   2.844   2.295 -0.1309 -0.9853 -0.3185
20217SOL    HW162264   5.927   2.897   2.270  0.3326 -0.7021 -1.1807
20217SOL    HW262265   6.078   2.901   2.278  0.2965 -1.4197  0.1033
20218SOL     OW62266   2.196   3.458   3.873  0.3873  0.8495 -0.1300
20218SOL    HW162267   2.185   3.364   3.857  1.2585  0.9151 -1.3094
20218SOL    HW262268   2.107   3.493   3.879  0.0557 -0.0389  0.2016
20219SOL     OW62269   0.461   9.293   0.370  0.1142 -0.3233  0.0934
20219SOL    HW162270   0.371   9.301   0.339  0.1414  2.2282  0.4608
20219SOL    HW262271   0.455   9.235   0.446 -0.8578 -1.7990 -1.0428
20220SOL     OW62272   5.809   7.592   2.513 -0.0362 -0.5926 -0.2448
20220SOL    HW162273   5.892   7.549   2.490  0.4473  0.2953 -0.1811
20220SOL    HW262274   5.744   7.546   2.461  0.4274 -1.5918  0.0237
20221SOL     OW62275   6.044   0.299   8.333 -0.3165 -0.1859 -0.3385
20221SOL    HW162276   5.973   0.308   8.270 -0.1494  1.0064 -0.3755
20221SOL    HW262277   6.119   0.268   8.281  0.1400  1.8556 -0.9870
20222SOL     OW62278   1.366   3.881   2.395  0.3281  0.5056 -0.6478
20222SOL    HW162279   1.445   3.908   2.348 -0.0409  1.3217 -0.8098
20222SOL    HW262280   1.377   3.919   2.483  0.8822 -0.7714 -0.1444
20223SOL     OW62281   6.581   7.675   2.991 -0.1338 -0.3060 -0.1967
20223SOL    HW162282   6.642   7.612   3.030  1.3615  0.8900 -0.5319
20223SOL    HW262283   6.588   7.753   3.046  0.8778  0.8742 -1.8910
20224SOL     OW62284   0.687   7.747   4.412 -0.4420 -0.4038  0.0088
20224SOL    HW162285   0.686   7.839   4.388 -1.3611  0.0149  1.4823
20224SOL    HW262286   0.739   7.704   4.344  0.0940  1.2062 -0.6367
20225SOL     OW62287   1.050   5.374   2.562  0.2514 -0.4391  0.2059
20225SOL    HW162288   0.970   5.354   2.611  0.5375 -1.0810  0.4285
20225SOL    HW262289   1.061   5.299   2.504  0.9952 -0.6196  0.5774
20226SOL     OW62290   6.018   3.131   6.329 -0.3632 -0.1214  0.3438
20226SOL    HW162291   6.035   3.195   6.398 -0.1103 -1.1583  1.2717
20226SOL    HW262292   5.931   3.152   6.297 -1.1258 -0.5376  2.0324
20227SOL     OW62293   8.631   0.342   3.878 -0.4267 -0.3680 -0.4957
20227SOL    HW162294   8.624   0.392   3.960 -0.4923  0.2525 -0.8729
20227SOL    HW262295   8.596   0.256   3.900 -0.4224 -0.2159  0.1380
20228SOL     OW62296   5.511   7.233   5.387 -0.1545 -0.0102  0.5568
20228SOL    HW162297   5.496   7.297   5.456 -0.1101 -0.3815  0.9198
20228SOL    HW262298   5.462   7.156   5.415  1.5233 -0.8848  1.2486
20229SOL     OW62299   5.646   7.322   3.806 -0.0096  0.4581 -0.3693
20229SOL    HW162300   5.571   7.262   3.811  1.4140 -1.3838 -0.2798
20229SOL    HW262301   5.671   7.323   3.714  0.9329 -0.3350 -0.1307
20230SOL     OW62302   8.365   7.315   2.481 -0.0845  0.1532 -0.3011
20230SOL    HW162303   8.294   7.309   2.545  0.2134 -0.2465  0.0027
20230SOL    HW262304   8.441   7.340   2.533 -0.3928  2.5258 -0.9096
20231SOL     OW62305   2.826   8.882   7.630 -0.2369 -0.0758  0.9350
20231SOL    HW162306   2.827   8.795   7.589  0.4756  0.0704  0.6289
20231SOL    HW262307   2.839   8.864   7.723  0.0413 -0.2934  0.8566
20232SOL     OW62308   6.547   3.674   1.158  0.3536 -0.0494 -0.0826
20232SOL    HW162309   6.630   3.626   1.156 -0.3594 -1.3456  0.0741
20232SOL    HW262310   6.489   3.624   1.100 -0.3342  0.8067 -0.1502
20233SOL     OW62311   6.240   5.388   6.697 -0.2874  0.3345  0.2954
20233SOL    HW162312   6.195   5.322   6.749 -1.6288  1.3827  0.5075
20233SOL    HW262313   6.333   5.367   6.707 -0.6731 -1.8233 -0.0780
20234SOL     OW62314   1.336   7.568   5.882 -0.1594  0.4097  0.0379
20234SOL    HW162315   1.334   7.578   5.787 -1.0655 -1.4128 -0.1906
20234SOL    HW262316   1.388   7.489   5.897 -1.1522 -0.1051  0.9361
20235SOL     OW62317   0.685   9.606   1.514 -0.6019  0.0115 -0.2462
20235SOL    HW162318   0.715   9.563   1.434  0.9494  0.6497 -0.0501
20235SOL    HW262319   0.694   9.540   1.582 -4.6266 -1.5199 -0.9189
20236SOL     OW62320   0.800   6.347   8.609  0.4440  0.0255  0.0096
20236SOL    HW162321   0.780   6.390   8.526 -0.2244 -1.4984 -0.6642
20236SOL    HW262322   0.849   6.412   8.659 -0.2949  1.4535 -1.0473
20237SOL     OW62323   7.498   8.999   5.811  0.0882  0.4411 -0.8839
20237SOL    HW162324   7.425   8.988   5.750 -0.8256  0.3520  0.1902
20237SOL    HW262325   7.475   9.076   5.863 -0.0001 -0.4811  0.4888
20238SOL     OW62326   0.356   8.285   4.322 -0.2199 -1.1647  0.1753
20238SOL    HW162327   0.440   8.270   4.279 -0.0428  2.3678 -1.0832
20238SOL    HW262328   0.291   8.272   4.252 -0.1066  2.2767 -0.7417
20239SOL     OW62329   9.807   2.286   3.103  0.0736  0.3051  0.0353
20239SOL    HW162330   9.865   2.269   3.029 -0.2971  1.6145 -0.5809
20239SOL    HW262331   9.721   2.259   3.072 -0.2139  1.5644 -0.3115
20240SOL     OW62332   9.188   7.901   7.118  0.6298  0.0440 -0.3155
20240SOL    HW162333   9.107   7.948   7.141  0.9467  0.2525  0.4275
20240SOL    HW262334   9.227   7.952   7.048 -0.5188 -0.7631 -1.5866
20241SOL     OW62335   6.294   7.667   5.828 -0.0530 -0.4015  0.4025
20241SOL    HW162336   6.377   7.641   5.787 -1.2918  0.7231 -3.1940
20241SOL    HW262337   6.320   7.724   5.900  2.3315  0.7507 -1.2329
20242SOL     OW62338   8.812   2.053   9.407  0.0221 -0.4056 -0.3544
20242SOL    HW162339   8.875   2.124   9.396 -0.8420  0.2850 -0.9727
20242SOL    HW262340   8.811   2.008   9.323 -1.3238  0.4602 -0.8320
20243SOL     OW62341   3.253   9.537   6.826  0.4397 -0.3747  0.7403
20243SOL    HW162342   3.227   9.566   6.739  1.5351  0.0511  0.5327
20243SOL    HW262343   3.348   9.549   6.828  0.5417 -1.1982  1.6938
20244SOL     OW62344   6.057   1.031   1.480  0.3024 -0.3134 -0.3991
20244SOL    HW162345   5.994   1.028   1.409  0.4369 -1.4184 -0.4866
20244SOL    HW262346   6.096   1.118   1.475 -0.3909 -0.0395 -1.0558
20245SOL     OW62347   5.819   9.368   5.077  0.3179 -0.1185 -0.3622
20245SOL    HW162348   5.751   9.398   5.138  0.2748 -0.9181 -0.0013
20245SOL    HW262349   5.899   9.365   5.129  0.4618  0.0197 -0.5720
20246SOL     OW62350   4.581   1.095   8.640 -0.1851  0.2228  0.7986
20246SOL    HW162351   4.493   1.080   8.675  0.1116 -3.0436  0.5371
20246SOL    HW262352   4.637   1.106   8.717 -0.2843 -1.8583  1.2298
20247SOL     OW62353   9.357   8.503   0.910  0.3495 -0.2747 -0.2499
20247SOL    HW162354   9.426   8.465   0.965 -0.2903 -1.9909 -0.5699
20247SOL    HW262355   9.279   8.452   0.930 -0.5552  0.8515 -0.7794
20248SOL     OW62356   1.388   5.280   7.363  0.0787  0.6388  0.2240
20248SOL    HW162357   1.453   5.219   7.328 -0.9226  0.2708 -1.0410
20248SOL    HW262358   1.382   5.257   7.456  0.2336 -0.7162 -0.0791
20249SOL     OW62359   0.810   4.488   6.686  0.3354  0.3223 -0.1168
20249SOL    HW162360   0.859   4.542   6.748  0.6615  0.6844 -0.6792
20249SOL    HW262361   0.857   4.404   6.684 -0.7266 -0.3574  1.4864
20250SOL     OW62362   5.791   4.102   5.010  0.7740  0.3935 -0.0411
20250SOL    HW162363   5.865   4.064   5.058  0.7088  0.9590  0.5173
20250SOL    HW262364   5.772   4.184   5.055 -0.5710 -0.0133  0.1870
20251SOL     OW62365   6.584   4.739   4.461 -0.3481  0.0376  0.3308
20251SOL    HW162366   6.652   4.807   4.468  0.1554 -0.4200 -0.0634
20251SOL    HW262367   6.589   4.709   4.371 -1.0891  0.0038  0.2975
20252SOL     OW62368   2.412   5.256   3.698 -0.1192 -0.4516 -0.3196
20252SOL    HW162369   2.469   5.268   3.622 -0.2472 -1.5076 -0.6061
20252SOL    HW262370   2.422   5.163   3.720  0.4605 -0.0173  1.3893
20253SOL     OW62371   0.771   8.043   7.539  0.2368  0.8677 -0.5690
20253SOL    HW162372   0.802   8.030   7.629  1.0869  0.0037 -0.9676
20253SOL    HW262373   0.700   8.106   7.547  0.9592  1.5774  0.5947
20254SOL     OW62374   0.119   1.772   6.053 -0.0822 -0.7845  0.2690
20254SOL    HW162375   0.207   1.755   6.020 -0.2593 -0.5678 -0.3254
20254SOL    HW262376   0.079   1.828   5.986  0.6470  2.5237  2.3511
20255SOL     OW62377   4.836   7.235   7.649 -0.4311 -0.6746 -0.3943
20255SOL    HW162378   4.855   7.308   7.590 -1.3364 -0.7027 -0.7274
20255SOL    HW262379   4.915   7.181   7.645  0.0591  0.0340 -0.5097
20256SOL     OW62380   6.922   3.794   9.717 -0.6389 -0.0935  0.6550
20256SOL    HW162381   6.835   3.812   9.682 -0.1956 -0.7468 -0.8817
20256SOL    HW262382   6.932   3.857   9.789 -2.6496 -0.5108  1.3725
20257SOL     OW62383   2.742   1.893   9.539 -0.6411  0.2161 -0.0974
20257SOL    HW162384   2.726   1.800   9.521 -1.2384  0.3909 -0.5021
20257SOL    HW262385   2.668   1.938   9.499 -0.4468  0.8574  0.2552
20258SOL     OW62386   5.151   8.339   4.474 -0.2218  0.4231  0.3348
20258SOL    HW162387   5.153   8.322   4.380 -2.5594  1.0076  0.1070
20258SOL    HW262388   5.209   8.415   4.485  1.0518 -0.4040 -0.4090
20259SOL     OW62389   6.197   3.094   8.215 -0.4199 -0.7784 -0.4738
20259SOL    HW162390   6.133   3.156   8.248 -0.4608 -1.5898  1.0469
20259SOL    HW262391   6.247   3.144   8.150 -0.2333  0.9555  0.9253
20260SOL     OW62392   7.321   4.834   4.932  0.2446  0.0037  0.1026
20260SOL    HW162393   7.385   4.889   4.976 -1.2728  0.9697  1.2117
20260SOL    HW262394   7.373   4.775   4.877  1.9787  2.2192 -0.7995
20261SOL     OW62395   1.999   9.823   2.634 -0.4186  0.0635 -1.0607
20261SOL    HW162396   2.055   9.863   2.700  0.2520 -3.2374  0.5691
20261SOL    HW262397   1.912   9.860   2.651  0.4018  2.0761 -0.8756
20262SOL     OW62398   5.205   5.066   0.060  0.1718 -0.2358  0.8164
20262SOL    HW162399   5.150   4.997   0.023 -0.6547  0.8457 -0.0218
20262SOL    HW262400   5.281   5.071   0.002 -1.1967  1.5682 -0.9550
20263SOL     OW62401   6.919   5.993   9.520 -0.2921 -0.2778 -0.2281
20263SOL    HW162402   6.992   6.051   9.543  0.4898 -0.7836 -1.3257
20263SOL    HW262403   6.845   6.026   9.570 -0.1375  2.3117 -1.5293
20264SOL     OW62404   2.525   4.271   1.171  0.3748 -0.1361  0.7406
20264SOL    HW162405   2.498   4.259   1.080  0.4915  0.4986  0.6181
20264SOL    HW262406   2.538   4.365   1.180  1.7198 -0.3246  1.0360
20265SOL     OW62407   1.491   1.354   3.484  0.1867  0.0225  0.1295
20265SOL    HW162408   1.441   1.417   3.432  0.2089  0.9040  1.1334
20265SOL    HW262409   1.543   1.408   3.543  1.4119 -0.9126 -0.0522
20266SOL     OW62410   1.513   4.042   3.916  0.2103  0.1353  0.1786
20266SOL    HW162411   1.537   4.056   4.008  0.9316  0.8730 -0.1104
20266SOL    HW262412   1.465   3.959   3.917  0.3171  0.0618  1.2015
20267SOL     OW62413   8.770   0.814   3.678  0.1509  0.0477  0.4728
20267SOL    HW162414   8.836   0.875   3.646  0.4536 -1.1881 -1.4009
20267SOL    HW262415   8.704   0.809   3.609  0.2152 -1.8444  0.4711
20268SOL     OW62416   4.756   3.167   2.406 -0.2698 -0.2749 -0.2323
20268SOL    HW162417   4.684   3.112   2.375 -0.1568 -0.6931  0.2401
20268SOL    HW262418   4.713   3.234   2.460 -0.2352 -1.0197  0.7401
20269SOL     OW62419   3.834   5.942   8.745  0.1865  0.0457 -0.6543
20269SOL    HW162420   3.908   5.977   8.794  1.8887 -1.8775 -1.6707
20269SOL    HW262421   3.777   5.903   8.811  0.6543  0.5586  0.0642
20270SOL     OW62422   1.572   8.084   6.155 -0.1346 -0.1817 -0.7117
20270SOL    HW162423   1.532   8.171   6.156  2.3952  1.1556 -2.9505
20270SOL    HW262424   1.636   8.086   6.226 -0.8292 -0.6623 -0.0552
20271SOL     OW62425   6.358   7.299   0.905 -0.3367 -0.3194 -0.4806
20271SOL    HW162426   6.291   7.293   0.836 -0.7424  0.1704 -0.1372
20271SOL    HW262427   6.338   7.381   0.951 -0.3576 -0.8641  0.5127
20272SOL     OW62428   7.869   1.323   3.393 -0.0114  0.2760  0.0658
20272SOL    HW162429   7.955   1.328   3.351  1.3080 -0.1971  2.4642
20272SOL    HW262430   7.825   1.404   3.370  0.3380 -0.1924 -2.5955
20273SOL     OW62431   6.368   9.015   1.317  0.3962  0.1257  0.4621
20273SOL    HW162432   6.362   9.087   1.253 -1.5722 -0.2592  0.1398
20273SOL    HW262433   6.400   8.941   1.267  1.1807  0.4325  0.4960
20274SOL     OW62434   9.046   6.714   3.325  0.5156 -0.2431  0.0295
20274SOL    HW162435   9.035   6.631   3.371 -1.9564  0.2663  0.4624
20274SOL    HW262436   9.030   6.693   3.233 -0.5501 -0.1963  0.1931
20275SOL     OW62437   1.211   7.151   4.119 -0.5285  0.4420  0.0631
20275SOL    HW162438   1.245   7.219   4.061  0.0785 -0.0365 -0.1476
20275SOL    HW262439   1.259   7.072   4.096 -0.7006  0.1022  0.8093
20276SOL     OW62440   0.004   4.868   5.384  0.3316  0.1117  0.1621
20276SOL    HW162441  -0.027   4.909   5.304 -0.4851 -0.0162  0.4091
20276SOL    HW262442   0.087   4.913   5.403  2.5329 -2.2990 -2.7374
20277SOL     OW62443   7.014   4.716   2.924  0.3739  0.2210  0.0521
20277SOL    HW162444   7.033   4.635   2.878 -0.7778 -0.0006 -0.0662
20277SOL    HW262445   7.024   4.694   3.017  0.4998  0.0611 -0.0003
20278SOL     OW62446   0.946   1.810   9.217 -0.7676 -0.6479  0.0757
20278SOL    HW162447   0.895   1.865   9.276 -0.3542 -0.7870  0.5675
20278SOL    HW262448   1.033   1.804   9.257 -0.9616 -2.1288  0.3525
20279SOL     OW62449   0.364   8.841   3.412 -0.0652  0.1622  0.7040
20279SOL    HW162450   0.452   8.871   3.388  0.6577 -1.0422  1.7036
20279SOL    HW262451   0.371   8.745   3.410 -1.0091  0.0462  1.9739
20280SOL     OW62452   3.667   5.284   8.260  0.0062  0.1635 -0.4020
20280SOL    HW162453   3.747   5.284   8.313 -0.1264 -1.2533 -0.1511
20280SOL    HW262454   3.629   5.371   8.273  0.5316  0.2103  0.9850
20281SOL     OW62455   0.545   0.578   0.888  0.0728 -0.0237 -0.4984
20281SOL    HW162456   0.554   0.495   0.841 -0.2155 -0.3689  0.0484
20281SOL    HW262457   0.488   0.631   0.833  1.2135  0.2617 -1.4399
20282SOL     OW62458   7.667   0.833   1.995 -0.3603  0.3083 -0.2758
20282SOL    HW162459   7.612   0.894   1.945 -0.9490 -0.6182 -0.7898
20282SOL    HW262460   7.659   0.750   1.948 -0.1540 -0.3482  0.8152
20283SOL     OW62461   2.868   1.362   5.962  0.2965 -0.3694 -0.1614
20283SOL    HW162462   2.868   1.266   5.961 -3.9646 -0.6274  1.6710
20283SOL    HW262463   2.907   1.386   6.046  0.5221 -0.5440 -0.2167
20284SOL     OW62464   0.795   0.239   7.047 -0.0939 -0.1672  0.3490
20284SOL    HW162465   0.841   0.320   7.070  0.1007  0.1195 -0.9459
20284SOL    HW262466   0.831   0.173   7.107 -0.1773  0.6631  1.3459
20285SOL     OW62467   4.704   6.039   4.176  0.1570 -0.5301 -0.0084
20285SOL    HW162468   4.783   6.089   4.157 -0.8079  0.3886 -1.8759
20285SOL    HW262469   4.633   6.102   4.168 -0.7246 -0.9525  3.1975
20286SOL     OW62470   2.646   7.621   1.761 -0.2604 -0.6745  0.0151
20286SOL    HW162471   2.561   7.665   1.771 -0.6170 -1.3119 -0.1405
20286SOL    HW262472   2.653   7.565   1.837  0.0014 -0.6634  0.0007
20287SOL     OW62473   3.192   6.796   5.710  0.7611 -0.4328  0.3584
20287SOL    HW162474   3.174   6.756   5.795  2.3502  0.8993  1.3932
20287SOL    HW262475   3.157   6.734   5.646 -0.7877 -1.3074  1.9683
20288SOL     OW62476   7.524   8.870   4.554  0.3412  0.2528  0.2736
20288SOL    HW162477   7.446   8.860   4.500 -0.8666  1.5381  1.6653
20288SOL    HW262478   7.499   8.935   4.621  2.1875 -0.2347  1.5307
20289SOL     OW62479   8.501   1.886   3.087 -0.2697  0.4038  0.1232
20289SOL    HW162480   8.492   1.889   3.182  0.0091 -0.0796  0.1683
20289SOL    HW262481   8.443   1.955   3.055 -0.1083  0.7975  0.6594
20290SOL     OW62482   3.930   2.154   5.582  0.5403 -0.0869 -0.1537
20290SOL    HW162483   3.938   2.190   5.670 -1.1372 -0.2845  0.0980
20290SOL    HW262484   3.911   2.061   5.595  2.3134 -0.5860 -0.7793
20291SOL     OW62485   0.180   7.643   0.982 -0.3300  0.4548  0.3524
20291SOL    HW162486   0.086   7.622   0.976 -1.0555  3.0451  1.2111
20291SOL    HW262487   0.193   7.710   0.915  0.1056  2.4265  2.3054
20292SOL     OW62488   7.386   5.196   9.217 -0.2273 -0.0803  1.0342
20292SOL    HW162489   7.446   5.235   9.281 -0.6924  1.0409  0.8065
20292SOL    HW262490   7.437   5.190   9.136 -1.1708  3.6196 -0.0158
20293SOL     OW62491   3.755   3.781   4.471 -0.1076 -0.1062 -0.3079
20293SOL    HW162492   3.709   3.717   4.416 -0.9689  0.5362 -0.3638
20293SOL    HW262493   3.704   3.783   4.552  0.1389  0.2338 -0.1605
20294SOL     OW62494   4.861   7.990   0.033  0.2844  0.2018 -0.5331
20294SOL    HW162495   4.891   8.029   0.115  0.6171  0.4362 -0.7639
20294SOL    HW262496   4.781   8.038   0.012  1.0192  1.2110 -1.1356
20295SOL     OW62497   6.158   0.914   2.457  0.2152 -0.2298 -0.0537
20295SOL    HW162498   6.079   0.864   2.440 -0.3695  0.5846  0.2296
20295SOL    HW262499   6.133   0.978   2.524  1.3489 -0.5653  0.7373
20296SOL     OW62500   7.129   3.140   1.229 -0.5079 -0.6637 -0.5304
20296SOL    HW162501   7.103   3.227   1.258  0.3623 -1.1693  2.0165
20296SOL    HW262502   7.207   3.155   1.174  0.0351  0.1456  0.4328
20297SOL     OW62503   1.210   2.567   2.768  0.2013 -0.3676  0.3527
20297SOL    HW162504   1.225   2.521   2.850 -1.3512 -1.4838  0.0738
20297SOL    HW262505   1.297   2.580   2.731  0.7473 -3.6434  0.1812
20298SOL     OW62506   9.719   1.101   6.620 -0.5878 -0.3450 -0.3562
20298SOL    HW162507   9.644   1.153   6.648  1.2897  1.7366  1.2316
20298SOL    HW262508   9.737   1.130   6.531 -1.7117 -1.0096 -0.8275
20299SOL     OW62509   4.468   5.306   3.609 -0.0503 -0.6998  0.7559
20299SOL    HW162510   4.535   5.370   3.632 -0.3316  0.6826 -1.8717
20299SOL    HW262511   4.385   5.350   3.627 -0.3059  0.7026 -2.9588
20300SOL     OW62512   1.885   5.521   6.248  0.4434 -0.0465 -0.4549
20300SOL    HW162513   1.929   5.556   6.325  0.3758 -0.5535 -0.1754
20300SOL    HW262514   1.792   5.528   6.268  0.4296 -1.7690  0.2766
20301SOL     OW62515   8.193   2.060   4.471  0.3102  0.1997  0.4060
20301SOL    HW162516   8.234   2.083   4.388 -2.3449 -0.6720 -1.2637
20301SOL    HW262517   8.110   2.108   4.471 -0.5994 -1.2899  1.6720
20302SOL     OW62518   9.216   8.624   1.625  0.1450  0.5765 -0.1880
20302SOL    HW162519   9.241   8.562   1.694 -1.4139  0.3416  0.1992
20302SOL    HW262520   9.193   8.704   1.671 -1.5273  0.2188 -0.3465
20303SOL     OW62521   8.684   8.293   8.581 -0.3523 -0.0993  0.0163
20303SOL    HW162522   8.696   8.278   8.675 -0.5323  0.1678  0.0841
20303SOL    HW262523   8.718   8.214   8.540 -1.4807 -0.7906  0.3706
20304SOL     OW62524   3.928   6.705   7.506 -0.0325  0.1241 -0.3550
20304SOL    HW162525   3.845   6.742   7.536 -0.3446 -0.7410 -0.1363
20304SOL    HW262526   3.922   6.612   7.525  1.0145  0.0530 -0.2822
20305SOL     OW62527   9.686   7.748   9.555 -0.3756  0.5044  0.5394
20305SOL    HW162528   9.760   7.710   9.508 -2.5332  0.1571 -2.9591
20305SOL    HW262529   9.721   7.828   9.593  1.5750  1.1031 -2.1616
20306SOL     OW62530   1.786   9.028   5.400  0.4861 -0.2169 -0.7183
20306SOL    HW162531   1.757   9.049   5.312 -0.0139  1.5226 -0.1642
20306SOL    HW262532   1.720   8.967   5.434  1.0202 -1.4078 -1.7301
20307SOL     OW62533   4.494   0.052   6.472 -0.3145 -0.2189  0.0819
20307SOL    HW162534   4.456   0.132   6.436 -0.7849  0.4189  1.8643
20307SOL    HW262535   4.582   0.050   6.436 -0.4215  0.9009 -0.3074
20308SOL     OW62536   5.306   3.137   0.535 -0.2433  0.7105 -0.3874
20308SOL    HW162537   5.283   3.064   0.477 -1.0103  0.4749  0.1887
20308SOL    HW262538   5.367   3.100   0.598 -3.0797 -0.3750  1.9226
20309SOL     OW62539   7.998   0.327   3.764  0.2354  0.2162  0.2750
20309SOL    HW162540   7.914   0.292   3.793 -0.3139  1.0916 -0.2001
20309SOL    HW262541   8.037   0.257   3.711 -0.2572 -0.1431  0.3887
20310SOL     OW62542   9.291   1.856   9.304  0.0242 -0.1078  0.8256
20310SOL    HW162543   9.355   1.903   9.357 -0.9100  0.8981  1.1219
20310SOL    HW262544   9.325   1.862   9.215  1.1861 -1.0836  1.1840
20311SOL     OW62545   9.091   7.598   8.873  0.1794 -0.3735  0.5562
20311SOL    HW162546   9.159   7.591   8.806 -1.5797 -0.2577 -1.3587
20311SOL    HW262547   9.009   7.591   8.824 -1.2075  0.2223  2.6655
20312SOL     OW62548   5.209   7.607   8.780  0.0176 -0.4198  0.3492
20312SOL    HW162549   5.115   7.593   8.786  0.2244 -1.3647  2.4281
20312SOL    HW262550   5.219   7.702   8.776 -1.0243 -0.3376 -0.6253
20313SOL     OW62551   8.761   3.422   4.245 -0.7860  0.1672 -0.3239
20313SOL    HW162552   8.684   3.419   4.189  0.4187 -0.0756 -2.0289
20313SOL    HW262553   8.761   3.510   4.283 -0.8401  0.8655 -1.8878
20314SOL     OW62554   9.625   7.406   7.445 -0.3364  0.3437 -0.1279
20314SOL    HW162555   9.606   7.480   7.504 -1.0384  0.4458 -0.4763
20314SOL    HW262556   9.718   7.416   7.424 -0.2175  0.6386  0.5026
20315SOL     OW62557   6.987   3.059   9.803  0.0958  0.2515 -0.0868
20315SOL    HW162558   6.982   3.114   9.725  2.4421  0.2449 -0.3176
20315SOL    HW262559   6.983   3.120   9.876 -1.8281  0.2826 -0.1668
20316SOL     OW62560   8.139   2.575   3.352  0.5425 -0.0361 -0.6501
20316SOL    HW162561   8.191   2.653   3.330  1.7253 -0.4409  0.5615
20316SOL    HW262562   8.128   2.581   3.447 -0.1512 -0.8912 -0.6682
20317SOL     OW62563   1.970   7.830   0.760 -0.3394  0.0130 -0.5580
20317SOL    HW162564   2.041   7.882   0.797  0.4365 -0.3610 -1.4841
20317SOL    HW262565   1.986   7.741   0.792 -1.6012  0.2833  0.9348
20318SOL     OW62566   9.757   4.381   6.776 -0.5726 -0.6373  0.3241
20318SOL    HW162567   9.711   4.335   6.707 -2.9739  3.2811 -1.0015
20318SOL    HW262568   9.846   4.393   6.742 -0.8625 -1.2994 -0.7152
20319SOL     OW62569   8.024   2.156   4.180  0.5395  0.1005 -0.2270
20319SOL    HW162570   8.104   2.115   4.147  0.7798  1.4448 -1.4406
20319SOL    HW262571   7.990   2.204   4.105 -1.2239 -0.1434  0.3784
20320SOL     OW62572   6.291   2.179   5.393 -0.3284  0.0393  0.3357
20320SOL    HW162573   6.322   2.214   5.309 -0.1238 -1.0799 -0.0642
20320SOL    HW262574   6.315   2.247   5.456  1.3094  0.0447 -0.2259
20321SOL     OW62575   5.584   0.999   4.270 -0.0012  0.5209  0.6724
20321SOL    HW162576   5.673   0.975   4.244 -0.7471 -0.5955 -0.9923
20321SOL    HW262577   5.595   1.038   4.357  1.9932 -0.5281  0.9672
20322SOL     OW62578   6.720   0.936   5.714 -0.5075  0.7765 -0.0516
20322SOL    HW162579   6.811   0.909   5.699 -0.6372  0.7729 -0.8553
20322SOL    HW262580   6.721   0.973   5.802  0.1214  0.1069  0.2364
20323SOL     OW62581   1.062   6.732   2.063 -0.8388  0.3828  0.1785
20323SOL    HW162582   1.103   6.819   2.062 -2.1607  1.0322 -1.7929
20323SOL    HW262583   1.121   6.677   2.012 -1.3459  0.8025 -0.8746
20324SOL     OW62584   7.862   2.402   2.271 -0.0213  0.5580  0.2537
20324SOL    HW162585   7.878   2.428   2.361  1.3273  0.5636  0.0349
20324SOL    HW262586   7.901   2.314   2.264  2.1560  1.5245 -0.9222
20325SOL     OW62587   3.525   5.540   2.588  0.2242  0.4193  0.1584
20325SOL    HW162588   3.545   5.507   2.676  1.8043  0.5231 -0.1330
20325SOL    HW262589   3.590   5.608   2.573  0.2984  0.0605 -1.2886
20326SOL     OW62590   9.044   1.822   7.900 -0.0524 -0.1417 -0.1803
20326SOL    HW162591   9.069   1.730   7.890  0.9317  0.1251 -0.2642
20326SOL    HW262592   8.971   1.833   7.840  0.3285 -0.6795 -0.7605
20327SOL     OW62593   6.757   3.208   6.245 -0.5102  0.1238 -0.1641
20327SOL    HW162594   6.746   3.295   6.206  1.1660 -0.0323 -1.0826
20327SOL    HW262595   6.753   3.223   6.339  0.2418  1.2896 -0.2992
20328SOL     OW62596   6.702   4.545   3.633 -0.2993  0.0204  0.2636
20328SOL    HW162597   6.662   4.617   3.684 -1.8263 -0.4922 -0.1405
20328SOL    HW262598   6.710   4.473   3.696  0.8924  0.4061  0.5766
20329SOL     OW62599   4.714   0.235   4.040  0.1781 -0.3312  0.0336
20329SOL    HW162600   4.770   0.234   3.963 -1.5058 -0.7290 -1.2296
20329SOL    HW262601   4.649   0.303   4.022 -1.6295 -1.9917  0.0384
20330SOL     OW62602   8.826   0.496   3.588 -0.3247  0.4099  0.1269
20330SOL    HW162603   8.920   0.497   3.608 -0.3868 -0.3729  0.4698
20330SOL    HW262604   8.821   0.468   3.497 -0.3535 -3.2646  1.0990
20331SOL     OW62605   3.270   8.819   7.451 -0.0273 -0.1782  0.0387
20331SOL    HW162606   3.268   8.739   7.399 -0.3275  0.0831 -0.3555
20331SOL    HW262607   3.242   8.792   7.538 -1.1828 -0.3096 -0.3630
20332SOL     OW62608   7.286   2.228   5.708 -0.5984 -0.3263  0.4189
20332SOL    HW162609   7.286   2.280   5.628  0.3212 -1.3965 -0.3185
20332SOL    HW262610   7.197   2.193   5.714 -0.5329 -0.6860 -0.4606
20333SOL     OW62611   1.789   4.033   7.343  0.2654 -0.1669  0.3699
20333SOL    HW162612   1.836   4.067   7.419  1.1306 -0.5938  0.0324
20333SOL    HW262613   1.843   4.059   7.268  0.3238 -1.2550  0.0257
20334SOL     OW62614   5.746   9.093   2.353  0.6454 -0.1732  0.7683
20334SOL    HW162615   5.770   9.073   2.263  0.8129 -0.6993  0.9255
20334SOL    HW262616   5.812   9.157   2.382  1.5426 -1.1941  1.0190
20335SOL     OW62617   5.860   0.771   9.385  0.4048  0.8756 -0.2147
20335SOL    HW162618   5.858   0.863   9.358  3.6811  1.4480  1.0926
20335SOL    HW262619   5.951   0.754   9.406 -0.3306 -2.3366  0.8951
20336SOL     OW62620   6.666   8.242   3.352  0.2470  0.0488  0.1107
20336SOL    HW162621   6.616   8.169   3.317  1.2270 -0.4675 -0.2480
20336SOL    HW262622   6.602   8.295   3.399 -0.9139  0.1936 -1.5697
20337SOL     OW62623   3.516   3.505   9.120 -0.4256 -0.3604 -0.2539
20337SOL    HW162624   3.611   3.511   9.129 -0.1946  1.3368 -2.8836
20337SOL    HW262625   3.499   3.412   9.109  1.0930 -0.5864 -0.9533
20338SOL     OW62626   6.737   8.776   8.792  0.1354  0.3811 -0.3269
20338SOL    HW162627   6.733   8.741   8.881  1.4830  0.2522 -0.2940
20338SOL    HW262628   6.685   8.857   8.796 -0.4139  0.0041  0.3872
20339SOL     OW62629   3.283   5.128   5.209  0.0023 -0.2704  0.1732
20339SOL    HW162630   3.333   5.054   5.243 -0.0873 -0.6303 -0.4614
20339SOL    HW262631   3.349   5.189   5.176  0.0528 -1.3037 -1.8334
20340SOL     OW62632   4.894   7.736   3.356 -0.2149  0.5854  0.2755
20340SOL    HW162633   4.825   7.689   3.403 -0.2447 -1.8692 -2.0171
20340SOL    HW262634   4.893   7.824   3.394 -1.1075 -0.8048  3.8329
20341SOL     OW62635   1.259   7.199   1.123  0.5092 -0.1026  0.4641
20341SOL    HW162636   1.282   7.289   1.143 -0.7550 -0.1497  2.3874
20341SOL    HW262637   1.314   7.146   1.181 -1.8814 -0.3205  2.7058
20342SOL     OW62638   0.022   0.613   0.327  0.1671 -0.2936 -0.5032
20342SOL    HW162639  -0.066   0.598   0.293 -1.1501  3.4863  0.7873
20342SOL    HW262640   0.080   0.567   0.265 -2.5148 -0.3135 -3.2043
20343SOL     OW62641   0.440   7.271   7.297 -0.4066  0.3864 -0.3823
20343SOL    HW162642   0.398   7.219   7.228 -0.5283  0.9349 -0.7325
20343SOL    HW262643   0.389   7.352   7.301 -0.6707  0.1836  0.6662
20344SOL     OW62644   3.449   0.760   7.936 -0.1075  0.1279  0.3363
20344SOL    HW162645   3.541   0.779   7.952  0.1042 -0.9789  0.4747
20344SOL    HW262646   3.412   0.844   7.909  1.6610 -0.0469 -3.0997
20345SOL     OW62647   3.563   8.630   5.936 -0.8287  0.3554  0.0516
20345SOL    HW162648   3.594   8.548   5.974 -1.4120  0.3261  0.4842
20345SOL    HW262649   3.639   8.665   5.889 -0.8668 -0.9589 -1.0590
20346SOL     OW62650   8.543   7.502   3.432 -0.3114 -0.7294  0.8974
20346SOL    HW162651   8.612   7.483   3.494 -0.5070 -0.6983  1.1246
20346SOL    HW262652   8.480   7.556   3.480  0.0281  0.1444  0.3837
20347SOL     OW62653   5.938   6.954   7.227 -0.2943 -0.3992 -0.4698
20347SOL    HW162654   5.888   7.031   7.198  1.6330  1.6326  1.1992
20347SOL    HW262655   5.983   6.924   7.148 -1.4529 -0.1551 -1.2555
20348SOL     OW62656   1.954   1.625   0.763  0.0254  0.5361 -0.4455
20348SOL    HW162657   2.002   1.601   0.842  1.4303  0.3331 -1.3087
20348SOL    HW262658   1.955   1.546   0.709 -0.7070  0.7368 -0.7652
20349SOL     OW62659   7.047   3.129   8.401 -0.1066  0.0699 -0.1651
20349SOL    HW162660   7.021   3.115   8.310 -0.2838 -1.2167  0.0680
20349SOL    HW262661   7.094   3.212   8.399  0.7355 -0.3940 -1.6141
20350SOL     OW62662   5.537   1.823   1.176  0.3459 -0.0894  0.1324
20350SOL    HW162663   5.581   1.807   1.260  0.9777 -1.4932 -0.4305
20350SOL    HW262664   5.504   1.737   1.150  0.3787  0.2750 -1.1884
20351SOL     OW62665   6.835   3.695   7.086  0.2193  0.3970  0.0749
20351SOL    HW162666   6.872   3.656   7.007  0.3969  1.7004 -0.5151
20351SOL    HW262667   6.911   3.716   7.140  0.3847  2.4989 -0.8658
20352SOL     OW62668   6.531   4.316   2.183 -0.4182  0.0476 -0.1970
20352SOL    HW162669   6.461   4.344   2.242 -0.4442  0.4761 -0.4257
20352SOL    HW262670   6.567   4.237   2.223  1.2516  1.6901  1.7072
20353SOL     OW62671   0.064   3.965   1.026 -0.1624  0.2766  0.5735
20353SOL    HW162672  -0.023   3.946   0.989  0.4246 -0.6078 -0.4067
20353SOL    HW262673   0.086   4.051   0.990  1.2139 -1.3378 -2.9005
20354SOL     OW62674   3.400   4.606   2.150 -0.5473 -0.0452 -0.2857
20354SOL    HW162675   3.309   4.615   2.178 -0.9023  0.5994 -1.5989
20354SOL    HW262676   3.409   4.666   2.077  0.9484 -0.0998 -0.1733
20355SOL     OW62677   6.162   4.663   1.421 -0.1970  0.8402 -0.5370
20355SOL    HW162678   6.163   4.568   1.430 -2.0066  0.6551 -1.7404
20355SOL    HW262679   6.096   4.693   1.484  0.3069  1.3006 -0.2173
20356SOL     OW62680   0.158   7.431   2.639  0.0445 -0.0273 -0.0899
20356SOL    HW162681   0.163   7.521   2.606 -1.0307 -0.0071 -0.2434
20356SOL    HW262682   0.178   7.376   2.563  2.1074  0.0748  0.3238
20357SOL     OW62683   0.197   7.133   4.356 -0.2824 -0.0813 -0.0647
20357SOL    HW162684   0.275   7.184   4.378  0.1368 -0.7152 -0.0270
20357SOL    HW262685   0.203   7.055   4.413 -1.3067  0.1879  0.4364
20358SOL     OW62686   7.003   1.770   8.968  0.0592 -0.1262 -0.9225
20358SOL    HW162687   6.968   1.822   9.040  2.2088  0.5611 -0.3068
20358SOL    HW262688   7.005   1.830   8.894 -0.4370 -0.3005 -1.0852
20359SOL     OW62689   3.733   7.504   5.995 -0.7706  0.3426  0.2562
20359SOL    HW162690   3.805   7.567   5.999 -1.1195  0.7720 -0.1971
20359SOL    HW262691   3.695   7.517   5.909 -1.4360  0.1614  0.5216
20360SOL     OW62692   6.432   7.302   5.676  0.4900 -0.0954  0.3168
20360SOL    HW162693   6.386   7.221   5.653  0.6828 -1.4442  4.0267
20360SOL    HW262694   6.523   7.286   5.648  0.1553 -0.3445 -0.6751
20361SOL     OW62695   8.842   7.663   1.649  0.1652  0.1668  0.4269
20361SOL    HW162696   8.838   7.744   1.701  1.1060 -0.4776  1.5778
20361SOL    HW262697   8.924   7.622   1.677 -0.9331 -1.8393  0.8805
20362SOL     OW62698   4.584   1.937   5.595 -0.0167  0.0343 -0.6681
20362SOL    HW162699   4.552   1.869   5.537 -0.1964 -0.8423  0.4250
20362SOL    HW262700   4.510   1.995   5.609  0.0083  0.2072 -1.2451
20363SOL     OW62701   4.599   8.400   2.377  0.5783 -0.0719 -0.2544
20363SOL    HW162702   4.638   8.435   2.297 -0.5676 -0.9806 -1.2506
20363SOL    HW262703   4.532   8.464   2.402  1.8210  0.8833  0.7752
20364SOL     OW62704   5.969   4.383   5.544 -0.5215  0.5734  0.4540
20364SOL    HW162705   6.019   4.367   5.624 -1.0585  0.4155  0.7655
20364SOL    HW262706   5.997   4.313   5.484 -0.9432  0.0023  0.9065
20365SOL     OW62707   0.901   2.383   5.932 -0.1586 -0.5524  0.1643
20365SOL    HW162708   0.897   2.430   5.849 -2.6890 -1.1996 -0.1553
20365SOL    HW262709   0.976   2.325   5.924  0.6540  0.6090 -0.9773
20366SOL     OW62710   8.032   2.132   6.006  0.4314  0.1975 -0.0499
20366SOL    HW162711   8.074   2.075   5.942 -1.6123  1.3099 -2.5457
20366SOL    HW262712   8.093   2.205   6.016  2.0536 -1.2539  1.5308
20367SOL     OW62713   7.982   2.837   3.558 -0.4803  0.0309 -0.0379
20367SOL    HW162714   7.992   2.930   3.581 -0.3464 -0.0597  0.2811
20367SOL    HW262715   8.069   2.800   3.573 -0.5885 -0.1905  0.0342
20368SOL     OW62716   6.853   1.378   8.846 -0.1238 -0.0688 -0.2672
20368SOL    HW162717   6.915   1.367   8.918 -0.9234 -0.1151  0.4295
20368SOL    HW262718   6.908   1.377   8.767  0.7378 -0.2735  0.3153
20369SOL     OW62719   0.243   7.643   2.398  0.1041 -0.1776  0.1213
20369SOL    HW162720   0.171   7.701   2.372  0.7746 -0.4992 -2.8048
20369SOL    HW262721   0.245   7.575   2.330  1.1664 -2.0335  1.8831
20370SOL     OW62722   6.537   6.001   6.772  0.6082 -0.2558 -0.8339
20370SOL    HW162723   6.556   5.968   6.859 -1.1581 -0.1271 -0.3732
20370SOL    HW262724   6.573   6.090   6.772 -0.5962  0.2521  0.2543
20371SOL     OW62725   2.062   9.221   5.265 -0.4358  0.1814  0.4897
20371SOL    HW162726   2.019   9.239   5.349 -1.7331 -1.3933  0.2116
20371SOL    HW262727   2.070   9.126   5.263 -0.7326  0.1701 -1.3132
20372SOL     OW62728   6.129   5.496   9.797 -0.4202 -0.1073  0.4128
20372SOL    HW162729   6.042   5.500   9.758 -0.4822  0.5309  0.5958
20372SOL    HW262730   6.134   5.410   9.839 -1.5573  0.4528  1.7580
20373SOL     OW62731   0.614   8.498   4.769  0.0314  0.4677 -0.2765
20373SOL    HW162732   0.689   8.447   4.737  0.2244  0.9570 -0.6212
20373SOL    HW262733   0.619   8.492   4.864  0.6032  0.6297 -0.2947
20374SOL     OW62734   1.941   6.862   7.953  0.2741 -0.0740  0.1669
20374SOL    HW162735   1.994   6.907   7.887 -0.8230  0.8810 -0.0972
20374SOL    HW262736   1.904   6.932   8.007  2.4482 -0.8408  2.9317
20375SOL     OW62737   0.756   1.387   4.877  0.0155  1.0630 -0.3719
20375SOL    HW162738   0.752   1.304   4.925 -0.9720  1.7579  0.8158
20375SOL    HW262739   0.808   1.445   4.933  0.6126  1.2992 -1.1443
20376SOL     OW62740   4.471   5.254   6.788  0.2279  0.5722  0.7080
20376SOL    HW162741   4.521   5.294   6.860 -2.1205 -0.9832  3.3908
20376SOL    HW262742   4.386   5.234   6.827 -0.3093 -2.7120 -1.8113
20377SOL     OW62743   3.633   5.000   5.022 -0.5226 -0.1656 -0.3581
20377SOL    HW162744   3.721   5.012   4.988 -0.9293  1.4207 -0.9512
20377SOL    HW262745   3.645   4.963   5.109  0.7752  0.8745 -0.0681
20378SOL     OW62746   1.278   3.281   7.561 -0.3717 -0.0005 -0.4050
20378SOL    HW162747   1.351   3.337   7.587 -0.7187  0.0830  0.4471
20378SOL    HW262748   1.242   3.322   7.483 -1.0460  1.3851  0.5909
20379SOL     OW62749   7.380   6.459   0.064 -0.0391  0.1449 -0.3284
20379SOL    HW162750   7.391   6.498   0.150 -2.1462 -3.0152  1.6036
20379SOL    HW262751   7.329   6.523   0.015 -2.9562  0.2583  2.4820
20380SOL     OW62752   9.444   1.517   1.591  0.4737 -0.3085  0.3307
20380SOL    HW162753   9.538   1.527   1.606  0.6489 -1.5287  0.1622
20380SOL    HW262754   9.421   1.435   1.635  0.0000 -1.3616 -1.7650
20381SOL     OW62755   9.789   0.371   1.549  0.0464  0.5175 -0.0937
20381SOL    HW162756   9.831   0.295   1.508 -1.6574 -0.0105 -0.9539
20381SOL    HW262757   9.720   0.334   1.603 -0.4862  1.4272 -0.1286
20382SOL     OW62758   5.329   7.503   9.005 -0.0143  0.3236 -0.6571
20382SOL    HW162759   5.292   7.437   9.064  0.4914  1.5615  1.1066
20382SOL    HW262760   5.272   7.501   8.928 -1.2926 -0.6530  0.2758
20383SOL     OW62761   7.839   2.248   5.082  0.0419 -0.2857  0.4046
20383SOL    HW162762   7.803   2.327   5.123  2.1240  2.0243 -1.8424
20383SOL    HW262763   7.855   2.188   5.155 -0.4284  1.8762  2.3990
20384SOL     OW62764   0.304   5.064   5.940  0.1123 -0.1634 -0.8917
20384SOL    HW162765   0.301   5.011   6.019 -0.3385 -1.1229 -1.5242
20384SOL    HW262766   0.378   5.124   5.952 -0.7115  0.5805  0.7768
20385SOL     OW62767   2.528   0.278   3.656 -0.1019  0.1052 -0.1531
20385SOL    HW162768   2.543   0.359   3.606 -0.4486  0.8118  0.8608
20385SOL    HW262769   2.603   0.273   3.715 -0.4566  0.0782  0.2967
20386SOL     OW62770   8.186   5.894   9.470 -0.1148 -0.7982 -0.0967
20386SOL    HW162771   8.120   5.951   9.431  0.1435  0.6632  1.5037
20386SOL    HW262772   8.180   5.813   9.419 -2.0364 -0.1595 -0.9923
20387SOL     OW62773   5.523   7.683   8.308 -0.3489  0.6819  0.1074
20387SOL    HW162774   5.520   7.648   8.219  1.8705  1.9469 -0.5575
20387SOL    HW262775   5.541   7.607   8.364 -2.8858 -0.3179 -0.2988
20388SOL     OW62776   3.704   2.647   3.427 -0.1576  0.4976 -0.0344
20388SOL    HW162777   3.725   2.599   3.347 -0.4357  0.3119  0.0002
20388SOL    HW262778   3.611   2.630   3.441  0.0340  0.0025  0.6770
20389SOL     OW62779   4.843   2.469   2.438 -0.2843  0.0701 -0.4751
20389SOL    HW162780   4.906   2.435   2.503 -0.1168 -0.3481 -0.8486
20389SOL    HW262781   4.887   2.457   2.354 -0.9067 -0.3173 -0.7521
20390SOL     OW62782   1.523   7.016   2.595  0.2943 -0.4149  0.0434
20390SOL    HW162783   1.523   7.112   2.590 -3.0313 -0.3143 -0.0126
20390SOL    HW262784   1.481   6.987   2.515  0.2224 -1.8711  0.5737
20391SOL     OW62785   5.491   2.354   3.910  0.2978  0.1416  0.5909
20391SOL    HW162786   5.422   2.420   3.910  0.4633  0.3333  1.3905
20391SOL    HW262787   5.487   2.314   3.824  0.6633  1.7077 -0.1977
20392SOL     OW62788   4.726   9.837   0.259  0.3208 -0.2920  0.3225
20392SOL    HW162789   4.706   9.784   0.182 -1.4507  0.4862  0.1922
20392SOL    HW262790   4.643   9.842   0.307  0.6398  1.5974  0.7771
20393SOL     OW62791   4.847   7.221   7.048 -0.0334  0.0881  0.2938
20393SOL    HW162792   4.825   7.131   7.024 -0.1599  0.8544 -2.7876
20393SOL    HW262793   4.762   7.264   7.060 -0.0174  0.2761 -0.2502
20394SOL     OW62794   4.917   4.800   6.139 -0.3440  0.1643  0.0275
20394SOL    HW162795   4.871   4.733   6.090  1.1475 -1.2616  0.4898
20394SOL    HW262796   4.948   4.861   6.072 -0.7518 -0.2187 -0.5185
20395SOL     OW62797   6.403   3.776   2.605  0.2388  0.1395  0.0025
20395SOL    HW162798   6.445   3.796   2.522 -1.7962  0.0880 -1.0836
20395SOL    HW262799   6.346   3.851   2.623 -0.1754 -0.3436  0.7938
20396SOL     OW62800   6.677   4.311   3.820  0.4535 -0.0998 -0.0521
20396SOL    HW162801   6.631   4.232   3.791  3.1547 -0.6635 -3.3361
20396SOL    HW262802   6.707   4.290   3.908 -3.5037 -0.4524  1.4557
20397SOL     OW62803   9.837   1.610   2.368 -0.3878  0.1809 -0.1481
20397SOL    HW162804   9.876   1.594   2.282  0.9200  1.3157  0.1880
20397SOL    HW262805   9.811   1.702   2.366 -2.5043 -0.3651 -0.1021
20398SOL     OW62806   6.849   7.564   4.659  0.7485 -0.1603 -0.3878
20398SOL    HW162807   6.914   7.494   4.666 -1.0440 -2.0190 -1.3823
20398SOL    HW262808   6.888   7.627   4.598  1.8332 -0.9221 -0.5134
20399SOL     OW62809   0.391   0.766   2.648  0.0202 -0.0421 -0.0236
20399SOL    HW162810   0.476   0.756   2.605 -0.1121 -0.0629 -0.2802
20399SOL    HW262811   0.339   0.818   2.586 -0.1563 -0.0359  0.1300
20400SOL     OW62812   5.730   6.176   2.362  0.1479 -0.0522 -0.2204
20400SOL    HW162813   5.779   6.247   2.320  1.1716 -0.0390  0.9306
20400SOL    HW262814   5.723   6.204   2.454  0.5850 -1.4263  0.2568
20401SOL     OW62815   5.791   6.776   2.198 -0.6502  0.1928 -0.1082
20401SOL    HW162816   5.813   6.846   2.136 -1.4731 -0.8068 -1.6181
20401SOL    HW262817   5.789   6.697   2.144  0.6868 -1.1010  1.6311
20402SOL     OW62818   6.783   2.917   7.992  0.1254 -0.0469 -0.3926
20402SOL    HW162819   6.745   2.845   8.043 -2.1263  0.8060 -0.7722
20402SOL    HW262820   6.811   2.875   7.911 -2.2963 -0.3824 -1.1360
20403SOL     OW62821   0.670   1.534   6.957  0.1440 -0.0160 -0.0870
20403SOL    HW162822   0.718   1.544   6.874  0.4956 -0.5930  0.0421
20403SOL    HW262823   0.630   1.447   6.950 -1.3164  0.6643 -0.4115
20404SOL     OW62824   3.889   9.621   6.387 -0.1737 -0.2320 -0.2598
20404SOL    HW162825   3.849   9.535   6.400  0.8013 -0.8206 -0.9588
20404SOL    HW262826   3.959   9.605   6.324 -2.4153  1.7533 -3.5712
20405SOL     OW62827   8.613   9.620   2.734 -0.4066  0.2057 -0.1866
20405SOL    HW162828   8.688   9.590   2.785 -0.4766 -2.5970 -1.5553
20405SOL    HW262829   8.545   9.637   2.799 -0.1706 -2.2448  0.7906
20406SOL     OW62830   3.948   1.118   8.192  0.3547 -0.1072 -0.2912
20406SOL    HW162831   4.003   1.051   8.152  1.2068  0.0037  0.6708
20406SOL    HW262832   4.009   1.189   8.213 -0.7851  1.9093 -3.1403
20407SOL     OW62833   7.988   7.417   3.321 -0.0738  0.6545  0.2498
20407SOL    HW162834   7.962   7.462   3.402 -0.4229  1.3289 -0.2328
20407SOL    HW262835   8.011   7.329   3.350 -2.1486  0.2403  0.8445
20408SOL     OW62836   3.897   2.743   7.537  0.4185  0.5642 -0.3545
20408SOL    HW162837   3.938   2.673   7.587  2.4139  0.9781 -1.2745
20408SOL    HW262838   3.859   2.801   7.603 -0.0579 -0.6717  0.4782
20409SOL     OW62839   7.621   7.328   4.960 -0.5711  0.5743 -0.1698
20409SOL    HW162840   7.653   7.267   4.894  1.6241  2.1383 -0.6431
20409SOL    HW262841   7.648   7.414   4.929 -2.6230  1.7404  1.0108
20410SOL     OW62842   0.505   9.045   7.470 -0.3744 -0.6574 -0.5752
20410SOL    HW162843   0.496   8.951   7.484 -0.4753 -0.4023  1.3379
20410SOL    HW262844   0.474   9.059   7.381 -1.8051 -2.2349 -0.3740
20411SOL     OW62845   9.440   9.665   5.614 -0.1724 -0.2788  0.0561
20411SOL    HW162846   9.369   9.600   5.613 -0.0473 -0.5938 -3.5025
20411SOL    HW262847   9.403   9.740   5.568  0.7234  0.9401  1.2787
20412SOL     OW62848   1.136   2.364   9.081  0.5607  0.3790 -0.1495
20412SOL    HW162849   1.093   2.445   9.108  2.6785  1.6336 -0.2682
20412SOL    HW262850   1.123   2.304   9.155  0.1275  1.2986  0.5427
20413SOL     OW62851   3.734   6.861   4.041  0.1371 -0.2822  0.7518
20413SOL    HW162852   3.782   6.943   4.031  0.2930 -0.3699  0.7719
20413SOL    HW262853   3.643   6.887   4.055 -0.6015 -0.1143 -3.1353
20414SOL     OW62854   4.926   3.574   3.090  0.3819  0.3940 -0.2726
20414SOL    HW162855   5.001   3.531   3.049  0.5268  2.0639 -1.9110
20414SOL    HW262856   4.862   3.582   3.019 -0.1951  1.5487  0.3472
20415SOL     OW62857   1.964   7.965   1.728  0.4271 -0.0184  0.5207
20415SOL    HW162858   1.908   8.036   1.697 -0.3332 -0.1979  1.4305
20415SOL    HW262859   1.942   7.956   1.821 -1.9039 -3.5885 -0.2005
20416SOL     OW62860   2.965   1.755   4.367  0.4832 -0.0312  0.3133
20416SOL    HW162861   2.919   1.696   4.307 -0.6029  1.0864  0.0106
20416SOL    HW262862   3.058   1.741   4.348  0.2537 -1.6303  0.2605
20417SOL     OW62863   1.212   0.588   2.666  0.5674  0.3293 -0.2464
20417SOL    HW162864   1.165   0.507   2.686  0.5847  0.3554 -0.0979
20417SOL    HW262865   1.252   0.573   2.580 -1.5802  1.1321 -1.4433
20418SOL     OW62866   7.548   6.283   5.532 -0.8665 -0.4585  0.0479
20418SOL    HW162867   7.536   6.360   5.588 -0.0926 -1.1880  1.2774
20418SOL    HW262868   7.515   6.211   5.585  1.1903 -1.3714  0.1724
20419SOL     OW62869   0.201   5.200   9.717 -0.5277  0.1076 -0.1014
20419SOL    HW162870   0.217   5.279   9.666 -0.6091 -0.0752 -0.4112
20419SOL    HW262871   0.280   5.188   9.770 -0.4191  0.2629 -0.2290
20420SOL     OW62872   4.701   0.179   0.006 -0.3590  0.3736  0.0843
20420SOL    HW162873   4.712   0.103   0.063  2.7726 -0.8767 -1.9226
20420SOL    HW262874   4.764   0.243   0.040  0.2214  0.3147 -0.8462
20421SOL     OW62875   9.052   2.507   6.444  0.8606  0.7093  0.1400
20421SOL    HW162876   9.078   2.535   6.356  0.4676  0.7610  0.0378
20421SOL    HW262877   9.007   2.424   6.430  0.4418  0.9195  0.2518
20422SOL     OW62878   6.720   2.962   6.275 -0.4940 -0.4458 -0.1481
20422SOL    HW162879   6.632   2.963   6.315  0.1917  0.7016  1.4545
20422SOL    HW262880   6.738   3.053   6.255  1.5070 -0.1705  2.4167
20423SOL     OW62881   0.869   5.886   6.754  0.1407 -0.6927  0.0810
20423SOL    HW162882   0.808   5.904   6.682  0.9459  2.3188 -0.0039
20423SOL    HW262883   0.814   5.887   6.833 -0.1944  0.3391 -0.1455
20424SOL     OW62884   0.026   6.299   8.959  0.3460 -0.1582 -0.0358
20424SOL    HW162885   0.013   6.379   9.009  0.5229 -0.9842  1.3726
20424SOL    HW262886   0.067   6.238   9.020 -1.0593 -1.7975 -0.6326
20425SOL     OW62887   6.915   5.997   1.391 -0.2393  0.1343  0.8290
20425SOL    HW162888   6.936   5.966   1.479  0.6240  0.7295  0.8414
20425SOL    HW262889   6.993   6.045   1.363 -0.5429  0.0322 -0.2245
20426SOL     OW62890   5.861   2.986   8.312 -0.3313  0.2431  0.5073
20426SOL    HW162891   5.937   2.999   8.254 -0.1171 -1.4122  0.3565
20426SOL    HW262892   5.840   3.074   8.344 -0.8704  1.3765 -2.5711
20427SOL     OW62893   7.427   7.676   3.168 -0.2546  0.7414 -0.1308
20427SOL    HW162894   7.406   7.661   3.261 -1.8936  0.7064 -0.4741
20427SOL    HW262895   7.343   7.701   3.129 -0.0125 -1.1373 -1.9977
20428SOL     OW62896   8.010   2.561   3.755  0.1090 -0.3508 -0.7611
20428SOL    HW162897   7.921   2.585   3.728  0.4054  1.2058 -0.4409
20428SOL    HW262898   8.047   2.641   3.792  1.4538 -1.1237 -0.3388
20429SOL     OW62899   9.270   9.305   6.548 -0.2798 -0.1596  0.3492
20429SOL    HW162900   9.318   9.223   6.540 -3.1818 -1.9553 -0.3352
20429SOL    HW262901   9.180   9.282   6.524 -1.2579  3.2209  0.2926
20430SOL     OW62902   3.212   9.378   3.549 -0.0988  0.7040 -0.0996
20430SOL    HW162903   3.207   9.430   3.630  0.7648 -0.7568  0.9307
20430SOL    HW262904   3.128   9.334   3.544 -0.2216  0.9352 -0.0990
20431SOL     OW62905   1.805   6.363   8.674  0.2515  0.3687 -0.2741
20431SOL    HW162906   1.757   6.435   8.633 -0.4622 -0.0238 -0.1413
20431SOL    HW262907   1.739   6.316   8.725  1.3070  1.5288  2.3439
20432SOL     OW62908   9.124   9.325   3.648 -0.2795 -0.4067 -0.2365
20432SOL    HW162909   9.102   9.244   3.602  1.2351 -2.3184  2.1139
20432SOL    HW262910   9.111   9.304   3.740  1.2053  1.6743  0.5287
20433SOL     OW62911   8.341   5.183   1.314 -0.4206  0.2063  0.0603
20433SOL    HW162912   8.288   5.146   1.244  0.0013 -1.9828  0.8268
20433SOL    HW262913   8.429   5.150   1.298 -0.0646  0.6930  0.9271
20434SOL     OW62914   5.070   9.708   1.849  0.2660 -0.7789  0.3221
20434SOL    HW162915   5.123   9.760   1.788  1.5085 -2.9414 -0.5624
20434SOL    HW262916   5.134   9.666   1.906 -0.8242  0.1933  2.3449
20435SOL     OW62917   6.765   9.789   1.367 -0.6387 -0.0669 -0.5912
20435SOL    HW162918   6.839   9.837   1.328  1.5392 -2.0045  0.9100
20435SOL    HW262919   6.732   9.735   1.295  0.4999 -0.3809 -0.9116
20436SOL     OW62920   9.559   5.259   4.363  0.3246  0.2546  0.3267
20436SOL    HW162921   9.560   5.266   4.458  0.7016 -0.2261  0.3603
20436SOL    HW262922   9.482   5.204   4.344 -1.0055  2.0559  0.2182
20437SOL     OW62923   2.498   7.591   7.274 -0.2830 -0.3705 -0.2765
20437SOL    HW162924   2.431   7.535   7.314 -0.4084  1.5990  2.5521
20437SOL    HW262925   2.571   7.532   7.255 -1.3248 -1.8841  0.2778
20438SOL     OW62926   4.304   0.675   5.003 -0.5853 -0.2326  0.2497
20438SOL    HW162927   4.326   0.583   5.016  1.8921  0.2046 -0.3945
20438SOL    HW262928   4.218   0.685   5.046 -0.6236 -2.6534  0.9049
20439SOL     OW62929   4.344   3.401   7.535  0.3250  0.4563 -0.2754
20439SOL    HW162930   4.335   3.358   7.449  0.4961  0.3613 -0.2474
20439SOL    HW262931   4.270   3.368   7.586 -0.2965  1.2107 -0.6755
20440SOL     OW62932   8.570   1.070   2.743  0.8634 -0.1174  0.8228
20440SOL    HW162933   8.632   1.093   2.813  3.0921  0.0556 -1.0873
20440SOL    HW262934   8.611   0.996   2.698  0.3414  0.8285 -1.3308
20441SOL     OW62935   9.145   5.171   3.583  0.0674  0.0634  0.0406
20441SOL    HW162936   9.118   5.101   3.524  0.4053 -0.7834  0.8595
20441SOL    HW262937   9.082   5.241   3.568 -0.6198 -0.6362 -0.3975
20442SOL     OW62938   0.354   2.273   6.470  0.0575  0.0284 -0.0392
20442SOL    HW162939   0.273   2.323   6.467  0.0711  0.0956  0.5469
20442SOL    HW262940   0.326   2.182   6.481  0.0506 -0.0016 -0.3074
20443SOL     OW62941   4.971   3.369   7.521  0.1670 -0.0107  0.6702
20443SOL    HW162942   5.038   3.349   7.586  0.4883 -0.1417  0.3002
20443SOL    HW262943   5.007   3.337   7.438  0.3051  1.2554  0.2199
20444SOL     OW62944   0.645   6.122   8.065  0.0486  0.7752  0.3249
20444SOL    HW162945   0.602   6.200   8.100  0.8649  1.1177  0.5823
20444SOL    HW262946   0.612   6.051   8.120 -0.6687  0.9392  0.1162
20445SOL     OW62947   8.363   9.065   4.074 -0.0813 -0.2810 -0.3656
20445SOL    HW162948   8.294   9.038   4.135  0.7190  0.1655  0.7597
20445SOL    HW262949   8.437   9.008   4.094  0.4944  0.4890 -0.2781
20446SOL     OW62950   8.908   7.475   9.161 -0.0632 -0.7625 -0.3438
20446SOL    HW162951   8.908   7.410   9.090  0.1599 -1.9226  0.6940
20446SOL    HW262952   8.925   7.424   9.240 -1.5261  0.3233  0.7175
20447SOL     OW62953   1.911   8.191   0.278  0.2149 -0.1903 -0.6019
20447SOL    HW162954   1.990   8.244   0.292 -0.0287  0.1987 -0.6686
20447SOL    HW262955   1.880   8.216   0.191  1.1874 -1.8977 -1.4688
20448SOL     OW62956   5.287   6.031   9.834 -0.8262  0.1454 -0.1469
20448SOL    HW162957   5.326   5.960   9.783  0.6319  0.5754  0.3148
20448SOL    HW262958   5.209   5.992   9.873 -0.3860 -1.0393 -0.3894
20449SOL     OW62959   8.718   3.438   5.955  0.0499 -0.0004 -0.0223
20449SOL    HW162960   8.673   3.390   6.024  0.3227 -0.5303 -0.2097
20449SOL    HW262961   8.663   3.426   5.878  0.0506  0.0981 -0.0375
20450SOL     OW62962   8.046   5.496   1.702  0.0595 -0.0135 -0.6636
20450SOL    HW162963   8.080   5.423   1.649 -0.8887 -0.0094 -1.2923
20450SOL    HW262964   7.969   5.526   1.654  0.5776  1.5760 -0.5427
20451SOL     OW62965   3.059   7.040   8.062  0.3119  0.3363  0.1888
20451SOL    HW162966   3.055   7.072   8.152  0.1790 -0.7584  0.5863
20451SOL    HW262967   3.146   7.068   8.031  0.4803  0.4558  0.7525
20452SOL     OW62968   0.084   2.129   3.556 -0.0281 -0.5682 -0.5067
20452SOL    HW162969   0.032   2.115   3.635 -0.3340 -1.8452 -0.9097
20452SOL    HW262970   0.055   2.214   3.523 -1.1396 -0.7954 -0.1738
20453SOL     OW62971   9.442   6.393   3.576 -0.2031 -0.2089 -0.0595
20453SOL    HW162972   9.531   6.386   3.610 -0.8918 -0.2569  1.8106
20453SOL    HW262973   9.408   6.474   3.614 -0.4501  0.7219 -2.0935
20454SOL     OW62974   6.235   6.068   3.606  0.0854 -0.3808  0.1902
20454SOL    HW162975   6.208   6.067   3.697 -0.0830 -0.5812  0.1400
20454SOL    HW262976   6.219   6.158   3.576  1.8743  0.1982  0.8612
20455SOL     OW62977   3.278   4.937   6.461 -0.2101 -0.0638 -0.0586
20455SOL    HW162978   3.189   4.951   6.428 -0.0868  2.2045  0.4278
20455SOL    HW262979   3.280   4.981   6.545  2.2107  2.7250 -1.4180
20456SOL     OW62980   1.008   6.534   6.084 -0.0885  0.7302  0.6072
20456SOL    HW162981   0.968   6.543   6.171  0.2550 -0.4561  0.9068
20456SOL    HW262982   1.090   6.582   6.090  0.4653 -0.2715  1.3092
20457SOL     OW62983   5.896   7.926   9.279 -0.3417 -0.0795  0.2108
20457SOL    HW162984   5.801   7.937   9.288 -0.4103  0.2400 -0.7679
20457SOL    HW262985   5.919   7.981   9.204  0.7465  0.4763  0.9345
20458SOL     OW62986   5.304   3.970   8.661 -0.3047  0.6233  0.3405
20458SOL    HW162987   5.288   3.877   8.645  0.5882  0.5359 -0.0738
20458SOL    HW262988   5.316   3.975   8.756 -0.1947  0.2913  0.3477
20459SOL     OW62989   1.201   2.515   6.218 -0.6131  0.1143 -0.3702
20459SOL    HW162990   1.141   2.551   6.153 -0.8348  0.5784  0.0885
20459SOL    HW262991   1.274   2.482   6.167 -0.7489  0.5460 -0.8498
20460SOL     OW62992   4.109   7.757   3.965 -0.2830  0.2389  0.2568
20460SOL    HW162993   4.153   7.687   4.011 -0.3021  1.0758  1.5980
20460SOL    HW262994   4.117   7.734   3.872  0.3895 -1.1053  0.6307
20461SOL     OW62995   5.384   4.378   7.246 -0.2228  0.4438  0.4730
20461SOL    HW162996   5.459   4.423   7.285  0.6787 -0.7744  0.2379
20461SOL    HW262997   5.319   4.374   7.317 -0.1783  1.7218  0.6069
20462SOL     OW62998   8.650   3.654   4.399 -0.3602  0.1990 -0.1712
20462SOL    HW162999   8.694   3.678   4.480 -0.3586 -0.8491  0.1588
20462SOL    HW263000   8.636   3.737   4.353  1.3677  0.6203  0.0072
20463SOL     OW63001   6.712   0.009   3.020 -0.9690 -0.3835 -0.1638
20463SOL    HW163002   6.773  -0.062   3.040  1.9090  0.9705 -3.2136
20463SOL    HW263003   6.681  -0.011   2.931 -3.1290  0.2580  0.4040
20464SOL     OW63004   3.950   0.703   1.976  0.5035 -0.5063  0.2326
20464SOL    HW163005   3.934   0.742   1.890  0.3496  1.0998  0.9580
20464SOL    HW263006   4.025   0.645   1.962  2.2122  1.7158 -0.4597
20465SOL     OW63007   7.164   1.671   9.531  0.2262  0.1332 -0.0641
20465SOL    HW163008   7.083   1.623   9.515 -0.2117  0.8363 -0.0183
20465SOL    HW263009   7.139   1.737   9.596  1.0445 -0.1971  0.5928
20466SOL     OW63010   6.365   3.851   4.976  0.4661 -0.1494  0.6528
20466SOL    HW163011   6.348   3.913   5.047 -1.7948  0.2989 -0.2174
20466SOL    HW263012   6.347   3.765   5.015  1.1912 -0.0818  1.1583
20467SOL     OW63013   1.666   5.223   2.970 -0.1928 -0.5031 -0.2334
20467SOL    HW163014   1.618   5.143   2.951 -1.9203  0.1860  0.9273
20467SOL    HW263015   1.601   5.280   3.011  1.4546  0.7727  0.7257
20468SOL     OW63016   6.048   9.285   7.896  0.4914  0.6268 -0.0565
20468SOL    HW163017   6.055   9.332   7.980  0.2213 -2.0102  1.5485
20468SOL    HW263018   6.128   9.234   7.890  0.3663  0.5519 -1.3060
20469SOL     OW63019   4.403   6.380   7.159  0.5763 -0.7186 -0.2095
20469SOL    HW163020   4.443   6.456   7.116  0.7695  0.0605  1.2925
20469SOL    HW263021   4.322   6.365   7.110  0.8986 -0.0177 -0.9850
20470SOL     OW63022   6.695   3.484   9.625 -0.2847  0.5716  0.4714
20470SOL    HW163023   6.681   3.523   9.539  0.2501  0.4624  0.3311
20470SOL    HW263024   6.610   3.489   9.667 -0.2340  1.9415  0.4816
20471SOL     OW63025   7.347   5.696   2.339 -0.5086  0.3470  0.6822
20471SOL    HW163026   7.264   5.718   2.296  0.4344  2.3578 -0.1990
20471SOL    HW263027   7.405   5.769   2.318  0.8960 -0.0390  2.9523
20472SOL     OW63028   0.626   6.570   2.424 -0.0290  0.5623 -0.1477
20472SOL    HW163029   0.637   6.478   2.399  0.2548 -0.4281  3.1239
20472SOL    HW263030   0.533   6.579   2.443 -0.2887  1.3588 -1.6740
20473SOL     OW63031   2.318   7.315   1.109  0.3915  0.1134 -0.1678
20473SOL    HW163032   2.368   7.379   1.161 -1.8326  1.6792  0.1889
20473SOL    HW263033   2.347   7.331   1.019 -0.1146  1.6961 -0.0902
20474SOL     OW63034   9.071   4.057   6.891  0.0070  0.1687  0.3163
20474SOL    HW163035   9.035   4.089   6.808  1.3640  0.1726 -0.2833
20474SOL    HW263036   9.003   3.998   6.924 -0.3426 -0.2394 -1.0444
20475SOL     OW63037   3.589   2.187   5.853 -0.4072  0.0400 -0.0615
20475SOL    HW163038   3.582   2.156   5.763 -1.2533  2.4410 -0.9160
20475SOL    HW263039   3.509   2.156   5.896 -0.9599  0.5213 -0.7220
20476SOL     OW63040   6.182   1.639   3.553 -0.0259 -0.1051  0.2503
20476SOL    HW163041   6.243   1.567   3.537 -2.4310 -2.1796 -0.2217
20476SOL    HW263042   6.123   1.637   3.478 -1.6392  0.7203  1.4315
20477SOL     OW63043   1.561   8.174   0.033  0.1063  0.1163 -0.3253
20477SOL    HW163044   1.517   8.090   0.045 -0.2600  0.5587  1.7572
20477SOL    HW263045   1.510   8.219  -0.035  0.1921 -1.2203 -1.3238
20478SOL     OW63046   2.727   8.337   4.575 -0.4786  0.1203 -0.4291
20478SOL    HW163047   2.769   8.353   4.490  0.9256 -3.1697 -0.4873
20478SOL    HW263048   2.644   8.295   4.552 -0.6031  0.2337 -0.1854
20479SOL     OW63049   6.660   9.759   2.758  0.0911 -0.0756 -0.2959
20479SOL    HW163050   6.696   9.683   2.712 -0.1061  0.3849 -1.2255
20479SOL    HW263051   6.710   9.833   2.725 -1.1511  0.4710 -1.0188
20480SOL     OW63052   0.831   7.794   2.017  0.1474  0.2790  0.3174
20480SOL    HW163053   0.839   7.710   1.972 -0.2157  0.7184 -0.5983
20480SOL    HW263054   0.803   7.771   2.105 -2.8853 -0.4913 -0.7002
20481SOL     OW63055   5.692   7.585   8.807  0.5681 -0.3981 -0.3613
20481SOL    HW163056   5.753   7.522   8.767  1.6545 -0.3761  1.1536
20481SOL    HW263057   5.748   7.640   8.862 -0.4577  1.4977 -1.1397
20482SOL     OW63058   0.309   9.308   8.211 -0.1861  0.1226 -0.0248
20482SOL    HW163059   0.278   9.300   8.121  0.0957 -1.6089  0.0128
20482SOL    HW263060   0.384   9.367   8.205  0.3190 -0.6025 -1.0404
20483SOL     OW63061   9.086   8.675   8.773  0.5636  0.0038 -0.2707
20483SOL    HW163062   9.050   8.763   8.789 -0.2635 -0.5259  0.9918
20483SOL    HW263063   9.177   8.680   8.802 -0.3348 -0.3631  3.1115
20484SOL     OW63064   8.488   3.097   4.175 -0.4980 -0.0260 -0.1723
20484SOL    HW163065   8.454   3.186   4.173  0.0687  0.2328  0.7940
20484SOL    HW263066   8.531   3.090   4.261 -1.4883 -1.5815  0.2468
20485SOL     OW63067   7.934   5.325   7.705  0.4518 -0.7249  0.0192
20485SOL    HW163068   7.870   5.301   7.772 -0.3922 -2.7023 -1.3778
20485SOL    HW263069   8.018   5.297   7.740  0.1545 -0.7950  0.6824
20486SOL     OW63070   8.170   4.273   7.116  0.5506 -0.1188 -0.2064
20486SOL    HW163071   8.215   4.346   7.160  1.1769 -0.7496  0.2305
20486SOL    HW263072   8.236   4.238   7.056  1.0756 -1.7637  1.2411
20487SOL     OW63073   3.522   2.638   8.087 -0.2630 -0.0161 -0.0895
20487SOL    HW163074   3.605   2.647   8.040 -0.9065  1.2967 -1.0482
20487SOL    HW263075   3.547   2.611   8.176  0.9821 -2.8750 -1.1711
20488SOL     OW63076   0.150   4.326   5.758 -1.0122 -0.1191 -0.1485
20488SOL    HW163077   0.153   4.335   5.663  1.1579  0.2603 -0.1096
20488SOL    HW263078   0.078   4.383   5.786 -0.3017  1.4905 -1.4250
20489SOL     OW63079   9.545   5.981   3.636 -0.5661  0.1305  0.6470
20489SOL    HW163080   9.451   5.978   3.621 -0.7595 -0.3560  1.8868
20489SOL    HW263081   9.570   5.891   3.655  0.3876  0.0239 -0.8545
20490SOL     OW63082   1.459   5.434   8.735  0.1927 -0.1592 -0.2938
20490SOL    HW163083   1.446   5.504   8.672  1.7535 -0.2739 -0.7937
20490SOL    HW263084   1.495   5.361   8.684 -0.7078 -1.0759  0.3400
20491SOL     OW63085   8.370   3.743   2.238 -0.3231 -0.6011  0.2439
20491SOL    HW163086   8.365   3.838   2.239 -0.3550 -0.5769 -0.9401
20491SOL    HW263087   8.290   3.715   2.193 -0.5553 -1.2190  1.0034
20492SOL     OW63088   5.991   1.627   7.902 -0.1668 -0.0628  0.2848
20492SOL    HW163089   5.936   1.673   7.965 -1.4142 -1.0184 -0.0637
20492SOL    HW263090   6.027   1.696   7.847  0.8197  0.7802  1.9014
20493SOL     OW63091   1.855   1.373   8.419  0.5685  0.3522  0.2118
20493SOL    HW163092   1.873   1.330   8.335  1.3071 -0.3713  0.7217
20493SOL    HW263093   1.785   1.435   8.399  0.7409  0.2113 -0.9463
20494SOL     OW63094   6.197   7.062   3.104  0.6960  0.3312  0.1670
20494SOL    HW163095   6.189   7.048   3.010 -2.5088  0.0122  0.3868
20494SOL    HW263096   6.147   7.142   3.121  1.0464  0.2720  1.6366
20495SOL     OW63097   2.671   7.354   3.263  0.6653 -0.4357 -0.2434
20495SOL    HW163098   2.628   7.295   3.201  1.5901 -0.5761 -0.7526
20495SOL    HW263099   2.674   7.304   3.345 -2.5601  0.5287  0.6445
20496SOL     OW63100   8.835   3.842   2.229  0.1084 -0.7642  0.8266
20496SOL    HW163101   8.864   3.812   2.143 -1.4360 -1.7009  0.5950
20496SOL    HW263102   8.826   3.937   2.220  1.8735 -0.5783  0.5864
20497SOL     OW63103   5.698   4.123   5.648  0.9227 -0.0067  0.1040
20497SOL    HW163104   5.644   4.133   5.727  0.6646 -0.7357  0.0298
20497SOL    HW263105   5.739   4.036   5.658  1.6596  0.3054 -0.1009
20498SOL     OW63106   5.499   1.975   8.906 -0.2363 -0.4596  0.0283
20498SOL    HW163107   5.532   2.023   8.983 -0.0457  0.3106 -0.5218
20498SOL    HW263108   5.490   2.042   8.839 -0.6849 -1.0813 -0.5392
20499SOL     OW63109   0.088   3.829   8.796  0.4450  0.0004  0.1871
20499SOL    HW163110   0.142   3.753   8.772  0.4364 -0.2515  0.9635
20499SOL    HW263111   0.109   3.846   8.888 -0.7216 -0.0316  0.4697
20500SOL     OW63112   4.395   0.291   3.747 -0.1802  0.4143 -0.1373
20500SOL    HW163113   4.360   0.232   3.813 -0.0796 -0.2255 -0.6422
20500SOL    HW263114   4.488   0.268   3.742 -0.0627  0.8672 -0.0806
20501SOL     OW63115   8.419   8.625   3.732  0.1532  0.0518 -0.0210
20501SOL    HW163116   8.500   8.650   3.777 -0.2746 -1.2465  1.5564
20501SOL    HW263117   8.387   8.550   3.781 -2.2005  0.7209 -0.4417
20502SOL     OW63118   3.078   7.074   6.784  0.3411  0.1625  0.4891
20502SOL    HW163119   3.014   7.044   6.719  0.0748 -1.0661  1.2655
20502SOL    HW263120   3.162   7.043   6.752  0.1135 -1.1799  1.0897
20503SOL     OW63121   9.547   3.827   6.962 -0.1619 -0.1809  0.1921
20503SOL    HW163122   9.567   3.866   7.047 -0.5954  0.2811  0.0858
20503SOL    HW263123   9.594   3.882   6.899 -0.8333  0.2179  0.0346
20504SOL     OW63124   5.492   8.311   2.831 -0.0096  0.2075 -0.1448
20504SOL    HW163125   5.531   8.226   2.852 -0.8699 -0.2425 -0.3273
20504SOL    HW263126   5.410   8.289   2.786 -0.9340  1.1005  1.0484
20505SOL     OW63127   4.971   1.688   5.324  0.6422  0.5255  0.3646
20505SOL    HW163128   5.021   1.757   5.281  0.3728  0.7304  0.3818
20505SOL    HW263129   4.919   1.733   5.390  0.0188  0.3830 -0.0204
20506SOL     OW63130   3.815   0.640   3.635  0.0632 -0.8438 -0.1822
20506SOL    HW163131   3.757   0.590   3.692 -0.6882  0.5340  0.2941
20506SOL    HW263132   3.877   0.681   3.694 -0.3837  0.1551 -0.3896
20507SOL     OW63133   3.971   2.012   1.139  0.3975  0.3588  0.2821
20507SOL    HW163134   4.061   2.001   1.169  0.6690  0.9980 -0.2952
20507SOL    HW263135   3.965   1.960   1.059  0.1851  0.1407  0.4355
20508SOL     OW63136   1.984   5.163   9.375 -0.1868  0.6526 -0.2609
20508SOL    HW163137   2.057   5.106   9.351 -2.2848 -2.4099  0.0164
20508SOL    HW263138   1.980   5.159   9.470  0.3489  2.3662 -0.1239
20509SOL     OW63139   4.001   8.073   2.560  0.2005  0.3069 -0.5604
20509SOL    HW163140   4.094   8.070   2.580  0.0718  1.2625  0.2162
20509SOL    HW263141   3.973   8.161   2.586 -0.6565  0.4750 -1.9550
20510SOL     OW63142   6.483   9.677   3.651  0.6344  0.2240 -0.0263
20510SOL    HW163143   6.521   9.762   3.628  2.5954 -0.8053 -0.8080
20510SOL    HW263144   6.511   9.619   3.580  0.6781 -1.4304  1.3032
20511SOL     OW63145   4.586   6.785   4.596  0.1583  0.1451  0.1639
20511SOL    HW163146   4.543   6.844   4.534 -0.2639  0.4893  0.7739
20511SOL    HW263147   4.651   6.840   4.640 -0.0661  0.0961  0.5611
20512SOL     OW63148   3.280   0.554   7.124 -0.3032 -0.6862 -0.1545
20512SOL    HW163149   3.292   0.606   7.044 -1.4619  0.4744  0.3853
20512SOL    HW263150   3.250   0.617   7.189 -1.6077 -1.9996  0.5799
20513SOL     OW63151   1.990   7.823   5.642  0.0114 -0.5701 -0.0271
20513SOL    HW163152   2.035   7.826   5.558 -0.3494  0.0128 -0.2089
20513SOL    HW263153   1.930   7.898   5.639 -2.1599 -2.2104 -0.4779
20514SOL     OW63154   9.549   1.431   0.588 -0.2540  0.4140  0.0910
20514SOL    HW163155   9.502   1.366   0.640 -1.6505  0.1687 -1.4181
20514SOL    HW263156   9.550   1.509   0.642 -2.5931  0.4824  0.1267
20515SOL     OW63157   0.453   5.885   0.352 -0.2090  0.2417 -0.1985
20515SOL    HW163158   0.511   5.941   0.301 -0.7740  1.0173 -0.0247
20515SOL    HW263159   0.511   5.832   0.406  0.3448  1.1805  0.1593
20516SOL     OW63160   8.113   9.155   6.239  0.5209  0.3341  0.2251
20516SOL    HW163161   8.192   9.210   6.247  0.4663  0.6444 -1.1788
20516SOL    HW263162   8.088   9.136   6.330  1.7202  0.9366  0.7036
20517SOL     OW63163   7.907   5.457   2.207  0.2721 -0.3706  0.4854
20517SOL    HW163164   7.821   5.494   2.186  0.0308 -1.1068  0.1767
20517SOL    HW263165   7.952   5.528   2.253 -0.2669  0.2366  0.0956
20518SOL     OW63166   0.816   9.283   3.449  0.2085 -0.0670 -0.0076
20518SOL    HW163167   0.787   9.372   3.467  0.2495 -0.1652  0.5678
20518SOL    HW263168   0.740   9.229   3.470  0.8077 -0.3361  1.6040
20519SOL     OW63169   8.165   7.759   9.476 -0.3794 -0.5502 -0.5251
20519SOL    HW163170   8.251   7.728   9.449 -0.3819  0.5344 -1.8763
20519SOL    HW263171   8.182   7.820   9.547  0.1624  1.0323 -1.9571
20520SOL     OW63172   0.290   6.775   5.536 -0.8044 -0.1375 -0.2930
20520SOL    HW163173   0.247   6.846   5.488  0.2795  0.9772  0.3180
20520SOL    HW263174   0.258   6.785   5.626 -1.1440 -0.8347 -0.3360
20521SOL     OW63175   4.742   7.840   5.043 -0.4259  0.1466 -0.2590
20521SOL    HW163176   4.776   7.811   5.128  0.7024 -2.0372 -1.3820
20521SOL    HW263177   4.713   7.930   5.059 -1.7048 -0.6535  2.8134
20522SOL     OW63178   7.827   3.507   0.844 -0.3279 -0.2306 -0.2047
20522SOL    HW163179   7.896   3.507   0.910 -0.9742  0.2380  0.4706
20522SOL    HW263180   7.817   3.599   0.819 -1.7728 -0.0722  0.8351
20523SOL     OW63181   3.899   8.128   2.846 -0.4717  0.3902 -0.2422
20523SOL    HW163182   3.962   8.171   2.904  0.4741 -0.5540 -0.5552
20523SOL    HW263183   3.897   8.184   2.768  0.4792  0.0716 -0.5010
20524SOL     OW63184   4.043   3.558   3.365  0.2297 -0.1474  0.2290
20524SOL    HW163185   3.964   3.583   3.317  0.4749 -0.9391 -0.6269
20524SOL    HW263186   4.091   3.640   3.377 -0.0080  0.1249 -0.5833
20525SOL     OW63187   4.278   5.460   7.278 -0.4162 -0.8414  0.1621
20525SOL    HW163188   4.264   5.546   7.319 -1.6007  0.2505 -2.3415
20525SOL    HW263189   4.199   5.410   7.300 -1.4238  0.0214 -1.3704
20526SOL     OW63190   7.631   5.521   8.930 -0.1123  0.0921  0.6387
20526SOL    HW163191   7.720   5.490   8.945  0.1104  0.3655 -0.0539
20526SOL    HW263192   7.583   5.497   9.009  0.0103 -2.1302  0.0962
20527SOL     OW63193   4.682   1.094   9.409  0.2651  0.3334  0.5849
20527SOL    HW163194   4.641   1.087   9.323  0.2437 -1.0997  0.6862
20527SOL    HW263195   4.638   1.168   9.450  0.3110  1.0749 -0.6405
20528SOL     OW63196   5.622   0.441   5.181  0.0786  0.0886  0.3163
20528SOL    HW163197   5.588   0.418   5.094  0.3355 -3.1330  0.9450
20528SOL    HW263198   5.681   0.515   5.164  0.8612 -1.0096 -2.4667
20529SOL     OW63199   4.665   7.317   0.501 -0.6631  0.1724  0.2931
20529SOL    HW163200   4.575   7.314   0.468 -0.6477 -0.0262  0.2680
20529SOL    HW263201   4.711   7.376   0.440 -0.5026 -0.6240 -0.3715
20530SOL     OW63202   6.981   0.354   4.158 -0.0594  0.0922  0.3855
20530SOL    HW163203   6.996   0.263   4.181  0.8383  0.1523  0.0894
20530SOL    HW263204   7.033   0.368   4.079  1.4257  1.3607  1.5119
20531SOL     OW63205   5.313   9.692   7.746  0.3129  0.3757  0.1099
20531SOL    HW163206   5.368   9.734   7.812 -0.8162  1.9558  0.1242
20531SOL    HW263207   5.251   9.761   7.720 -2.5010 -1.6301  1.0172
20532SOL     OW63208   2.812   9.613   1.074  0.1577  0.4456  0.7868
20532SOL    HW163209   2.822   9.563   1.154 -0.7177 -1.2270 -0.0867
20532SOL    HW263210   2.893   9.598   1.026  0.8433  1.7585  1.4797
20533SOL     OW63211   8.394   2.828   0.719 -0.2050  0.1870  0.1632
20533SOL    HW163212   8.339   2.897   0.683 -1.1672 -2.0767 -3.1537
20533SOL    HW263213   8.483   2.862   0.711 -0.7716  1.9411  0.9217
20534SOL     OW63214   7.400   3.393   0.874  0.1133  0.2561  0.2299
20534SOL    HW163215   7.401   3.298   0.877  0.4533  0.2839  1.2780
20534SOL    HW263216   7.325   3.419   0.928 -0.0235  0.5817 -0.1078
20535SOL     OW63217   9.510   5.421   4.889  0.1234  0.1515 -0.3313
20535SOL    HW163218   9.425   5.457   4.863  1.0723  1.5862 -1.6664
20535SOL    HW263219   9.514   5.433   4.984 -0.5881  1.4134 -0.4471
20536SOL     OW63220   1.926   9.440   8.058  0.2388  0.2627  0.7502
20536SOL    HW163221   2.010   9.402   8.033 -1.1292 -3.7780  1.4766
20536SOL    HW263222   1.870   9.428   7.982 -0.1544  1.4670  0.8226
20537SOL     OW63223   0.284   5.398   6.748 -0.3562 -0.3955  0.2672
20537SOL    HW163224   0.360   5.352   6.711 -0.4676 -1.3263  1.1373
20537SOL    HW263225   0.218   5.329   6.758 -0.8029  0.1111  0.8733
20538SOL     OW63226   2.548   1.100   2.996  0.0766  0.1348 -0.9493
20538SOL    HW163227   2.453   1.111   2.985 -0.1592 -0.7822  0.0219
20538SOL    HW263228   2.585   1.130   2.914 -0.9502  1.9116 -0.8035
20539SOL     OW63229   2.426   0.501   3.334  0.2339 -0.5320 -0.4276
20539SOL    HW163230   2.503   0.471   3.286 -0.7356 -2.1043 -1.0835
20539SOL    HW263231   2.367   0.426   3.335 -0.5370  0.0116  1.7134
20540SOL     OW63232   3.959   4.824   2.052  0.3952  0.0530 -0.5112
20540SOL    HW163233   3.876   4.794   2.089  0.8132 -2.8117 -1.6028
20540SOL    HW263234   3.941   4.833   1.959  0.9484  0.8693 -0.5437
20541SOL     OW63235   6.513   5.494   6.105 -0.1078  0.5620 -0.3236
20541SOL    HW163236   6.468   5.578   6.103  0.4536  0.8597 -0.6517
20541SOL    HW263237   6.457   5.438   6.159  0.0919  1.4767  0.8611
20542SOL     OW63238   0.278   0.589   2.031  0.1559  0.0803 -0.2782
20542SOL    HW163239   0.258   0.529   1.959 -1.4579  0.8729 -0.5433
20542SOL    HW263240   0.341   0.651   1.994 -0.3395  0.2305 -0.8776
20543SOL     OW63241   8.023   5.963   5.523 -0.0656  0.2537 -0.7275
20543SOL    HW163242   8.039   5.870   5.543  1.8753  0.5750 -0.6260
20543SOL    HW263243   7.996   6.001   5.607  1.1041  0.1667 -0.2991
20544SOL     OW63244   8.837   5.862   5.990  0.5746 -0.4306 -0.2215
20544SOL    HW163245   8.745   5.847   5.968  1.0112  0.0510 -2.5744
20544SOL    HW263246   8.876   5.775   5.987  0.6350 -0.3767 -1.5679
20545SOL     OW63247   7.691   0.296   2.185  0.1111 -0.4436  0.0971
20545SOL    HW163248   7.600   0.270   2.197  0.5618 -1.5132  1.4997
20545SOL    HW263249   7.711   0.350   2.262  0.1649  1.3071 -1.1030
20546SOL     OW63250   3.768   7.787   5.978  0.1415 -0.7601  0.3235
20546SOL    HW163251   3.778   7.876   6.014  1.7835  0.1729 -2.1454
20546SOL    HW263252   3.678   7.785   5.945  0.6010  0.6682 -1.1345
20547SOL     OW63253   8.245   0.012   6.340 -0.3954 -0.2870  0.5635
20547SOL    HW163254   8.337  -0.011   6.357  0.8163  1.5056 -2.6048
20547SOL    HW263255   8.228  -0.023   6.252 -2.5806 -0.0171  0.8237
20548SOL     OW63256   4.942   5.024   5.628  0.4045 -0.0778  0.4235
20548SOL    HW163257   4.966   5.021   5.536 -0.8128  1.4463  0.0241
20548SOL    HW263258   4.877   5.094   5.634  1.1977  0.5547  2.6137
20549SOL     OW63259   4.335   1.371   6.792 -0.4316 -0.8220 -0.1314
20549SOL    HW163260   4.403   1.367   6.859 -0.1184  0.4127 -0.3649
20549SOL    HW263261   4.254   1.389   6.841 -0.5564 -1.9668  0.1106
20550SOL     OW63262   8.939   7.133   5.835  0.0821 -0.1437  0.3483
20550SOL    HW163263   8.987   7.101   5.911 -0.7618 -1.9223  0.1916
20550SOL    HW263264   8.880   7.200   5.870  0.4359 -0.2010  1.0683
20551SOL     OW63265   7.007   6.061   3.274  0.5195  0.3097  0.0801
20551SOL    HW163266   7.090   6.046   3.320 -0.2895  2.5072  2.5014
20551SOL    HW263267   7.016   6.149   3.237  0.0046 -0.2563 -1.4762
20552SOL     OW63268   6.059   1.378   6.212 -0.6672  0.1193 -0.0751
20552SOL    HW163269   6.150   1.403   6.228 -0.7548 -0.4418  1.4270
20552SOL    HW263270   6.059   1.341   6.123  0.0117  2.6796 -1.2363
20553SOL     OW63271   7.273   1.827   7.957 -0.4310 -0.3131 -0.4521
20553SOL    HW163272   7.289   1.920   7.974 -2.2567  0.0993 -0.7892
20553SOL    HW263273   7.286   1.817   7.863 -0.6472 -0.3150 -0.4808
20554SOL     OW63274   7.097   0.425   5.262  0.3077  0.0371 -0.2272
20554SOL    HW163275   7.028   0.425   5.329  0.9072  0.2353  0.3997
20554SOL    HW263276   7.165   0.368   5.297  0.4712 -0.1525 -0.8386
20555SOL     OW63277   9.340   5.657   8.839 -0.0945 -0.2273  0.7065
20555SOL    HW163278   9.391   5.707   8.775 -1.2072  1.0116  0.7378
20555SOL    HW263279   9.249   5.674   8.816 -0.5202 -1.8780  1.0440
20556SOL     OW63280   5.037   7.742   2.419 -0.0188 -0.6584  0.0186
20556SOL    HW163281   4.972   7.800   2.379  1.7183  1.0460 -0.5558
20556SOL    HW263282   5.020   7.747   2.513 -0.6323 -0.1316 -0.1131
20557SOL     OW63283   5.687   9.284   9.810  0.2718 -0.3408 -0.2505
20557SOL    HW163284   5.775   9.258   9.836  0.0436 -1.2074 -0.2972
20557SOL    HW263285   5.668   9.231   9.732 -0.6921 -1.0016  0.3980
20558SOL     OW63286   7.057   2.447   3.569 -0.2615  0.0492 -0.0400
20558SOL    HW163287   7.113   2.372   3.589  1.8152  1.8181  1.2441
20558SOL    HW263288   7.032   2.482   3.654 -0.0013  1.5972 -0.5646
20559SOL     OW63289   7.574   6.656   4.003  0.6864  0.2603 -0.1356
20559SOL    HW163290   7.479   6.657   3.997  0.7564  0.4949 -1.4691
20559SOL    HW263291   7.595   6.568   4.034  0.0750  0.0026 -0.4413
20560SOL     OW63292   8.962   6.978   1.554  0.2035 -0.6710  0.0601
20560SOL    HW163293   8.979   6.991   1.647 -1.5958  1.2227  0.2051
20560SOL    HW263294   8.869   6.958   1.549 -0.0730  0.7138 -1.4092
20561SOL     OW63295   7.634   8.739   8.454  0.2636  0.0863 -0.0412
20561SOL    HW163296   7.665   8.818   8.409  1.0074 -0.8459 -1.2385
20561SOL    HW263297   7.677   8.667   8.407 -0.3741 -1.0281  1.0420
20562SOL     OW63298   7.369   3.111   7.500 -0.1392 -0.5938  0.1934
20562SOL    HW163299   7.383   3.145   7.589  1.2469 -1.1187  0.2029
20562SOL    HW263300   7.279   3.134   7.479  0.0280  1.0322  1.0975
20563SOL     OW63301   8.131   8.150   0.575  0.5716 -0.4573  0.3579
20563SOL    HW163302   8.203   8.201   0.612  0.8494  0.4029 -1.2558
20563SOL    HW263303   8.174   8.074   0.535  0.6826  0.3146 -1.0508
20564SOL     OW63304   0.746   0.799   9.803  0.0748 -0.0810 -0.2500
20564SOL    HW163305   0.703   0.831   9.724  0.9857 -0.5944 -0.9740
20564SOL    HW263306   0.834   0.773   9.774  0.5647  0.1079  1.0147
20565SOL     OW63307   8.222   3.602   7.060 -0.0127 -0.0067 -0.1025
20565SOL    HW163308   8.208   3.535   6.994  0.3061 -1.1933  0.9936
20565SOL    HW263309   8.142   3.654   7.058 -0.8206 -1.2138 -0.0875
20566SOL     OW63310   9.455   4.467   5.415  0.2579 -0.5081 -0.3469
20566SOL    HW163311   9.440   4.486   5.508  1.0711 -1.6951  0.0556
20566SOL    HW263312   9.536   4.515   5.394 -0.5207  0.6781 -0.7810
20567SOL     OW63313   9.683   5.291   6.217 -0.8622  0.1615 -0.1109
20567SOL    HW163314   9.683   5.378   6.255  0.3192 -0.2136  0.7873
20567SOL    HW263315   9.614   5.244   6.265 -0.2138  0.0522  0.7266
20568SOL     OW63316   8.119   3.250   7.631 -0.4854 -0.0688  0.3509
20568SOL    HW163317   8.050   3.234   7.567 -1.5392  1.2131  1.1073
20568SOL    HW263318   8.077   3.233   7.716 -0.7215  3.1895  0.9921
20569SOL     OW63319   3.236   1.266   0.335 -0.4331 -0.0429  0.4132
20569SOL    HW163320   3.281   1.325   0.396 -1.5140  0.5846  0.6353
20569SOL    HW263321   3.182   1.211   0.391 -0.4632 -0.3336  0.0998
20570SOL     OW63322   3.553   9.083   0.413 -0.0269 -0.6752  0.6035
20570SOL    HW163323   3.515   9.137   0.483 -0.1132 -0.1793  0.1834
20570SOL    HW263324   3.556   9.141   0.337 -3.3396 -2.1671 -0.8814
20571SOL     OW63325   3.985   2.781   3.463 -0.0505 -0.5737 -0.1027
20571SOL    HW163326   3.910   2.751   3.514 -1.3208 -0.3313 -1.7246
20571SOL    HW263327   3.958   2.767   3.372  2.0984 -0.9724 -0.7247
20572SOL     OW63328   7.235   0.238   4.932  0.2665 -0.2625 -0.5914
20572SOL    HW163329   7.171   0.305   4.954  1.1926  0.4839 -0.0692
20572SOL    HW263330   7.184   0.166   4.897 -0.9642 -0.1861  0.9851
20573SOL     OW63331   0.369   2.886   6.050 -1.0883  0.4180  0.2593
20573SOL    HW163332   0.446   2.833   6.070 -1.7227 -1.1140 -1.1667
20573SOL    HW263333   0.403   2.957   5.995 -0.5607  0.2953  0.4154
20574SOL     OW63334   0.553   4.963   8.769  0.0158 -0.3773 -0.4889
20574SOL    HW163335   0.470   4.958   8.722  0.1794 -0.8674 -0.7380
20574SOL    HW263336   0.535   5.017   8.846 -0.5739 -0.6191 -0.4588
20575SOL     OW63337   5.544   2.429   0.184 -0.2923  0.6452 -0.3967
20575SOL    HW163338   5.563   2.466   0.098 -1.9045  0.0582 -1.0536
20575SOL    HW263339   5.458   2.466   0.207  0.1198  0.8106  0.9866
20576SOL     OW63340   6.797   6.837   3.678 -0.1687 -0.3754 -0.0056
20576SOL    HW163341   6.712   6.793   3.673  0.9710 -2.8224  0.9039
20576SOL    HW263342   6.861   6.770   3.655  1.6369  0.9934  0.7724
20577SOL     OW63343   0.456   5.134   8.936 -0.1945  0.6488 -0.1846
20577SOL    HW163344   0.371   5.157   8.899 -0.5286 -0.0276  0.1394
20577SOL    HW263345   0.504   5.216   8.939  1.3314  0.3475 -5.7107
20578SOL     OW63346   0.316   4.031   2.137 -0.1264  0.5613 -0.6515
20578SOL    HW163347   0.225   4.009   2.115 -0.8768  1.1865  1.5749
20578SOL    HW263348   0.347   4.083   2.062 -1.9105  1.1184 -1.0515
20579SOL     OW63349   0.120   2.222   8.269 -0.3829 -0.0402 -0.3625
20579SOL    HW163350   0.192   2.254   8.324 -0.8358  0.7012 -0.1762
20579SOL    HW263351   0.090   2.300   8.222 -1.4424 -0.2145  0.0043
20580SOL     OW63352   0.222   8.426   1.980  0.4263 -0.4531 -0.2370
20580SOL    HW163353   0.191   8.483   1.910  0.7263 -0.1315 -0.1120
20580SOL    HW263354   0.274   8.359   1.935 -2.0195 -2.1935 -0.6865
20581SOL     OW63355   6.197   7.985   1.998 -1.2143  0.7182  0.2523
20581SOL    HW163356   6.250   8.015   2.071 -0.9142  1.2761 -0.1866
20581SOL    HW263357   6.230   8.033   1.922 -2.0672  0.7640 -0.1064
20582SOL     OW63358   8.291   2.166   9.513  0.1237 -0.1661  0.4374
20582SOL    HW163359   8.285   2.240   9.573  0.1414 -0.4572  0.8003
20582SOL    HW263360   8.370   2.118   9.540  0.8873  0.4254 -0.6523
20583SOL     OW63361   0.512   3.066   6.679  0.5475  0.1201  0.0718
20583SOL    HW163362   0.491   2.981   6.719 -2.4752  1.0580  0.7479
20583SOL    HW263363   0.511   3.050   6.585 -1.4771 -0.3748  0.1360
20584SOL     OW63364   5.109   9.769   8.445  0.1502 -0.3250  0.1880
20584SOL    HW163365   5.075   9.842   8.497 -0.7277  0.6484 -1.6420
20584SOL    HW263366   5.060   9.774   8.363  0.2787 -2.8252 -0.1034
20585SOL     OW63367   6.728   3.688   2.710 -0.4873 -0.7669  0.2751
20585SOL    HW163368   6.742   3.674   2.804 -0.0394 -1.0966  0.1620
20585SOL    HW263369   6.817   3.693   2.674 -0.6399  0.4437  0.0265
20586SOL     OW63370   6.499   3.454   6.438 -0.3152  0.0619 -0.2230
20586SOL    HW163371   6.535   3.529   6.390 -1.4546  1.1693  0.5573
20586SOL    HW263372   6.538   3.461   6.525  1.1218 -1.4667 -0.6888
20587SOL     OW63373   6.388   8.659   3.460  0.0567  0.2930  0.1823
20587SOL    HW163374   6.398   8.754   3.451 -0.8574  0.4877  1.0497
20587SOL    HW263375   6.300   8.648   3.496 -0.3831 -0.9608 -1.1713
20588SOL     OW63376   8.707   2.894   3.352 -0.6400 -0.1206 -0.6018
20588SOL    HW163377   8.612   2.904   3.358 -0.8526 -2.3201  1.3729
20588SOL    HW263378   8.721   2.849   3.269 -1.6445 -1.9821  0.1755
20589SOL     OW63379   6.536   4.987   1.593  0.3808  0.3504 -0.1166
20589SOL    HW163380   6.552   4.985   1.688  1.4420 -0.6589 -0.2946
20589SOL    HW263381   6.530   5.080   1.572  2.0031  0.6773  0.6769
20590SOL     OW63382   4.471   3.570   9.030 -0.0881 -0.0228  0.2519
20590SOL    HW163383   4.450   3.497   8.973  3.5559 -0.4984 -0.7261
20590SOL    HW263384   4.465   3.647   8.974 -2.0607  0.2764  0.7990
20591SOL     OW63385   9.114   2.055   8.007 -0.2669 -0.0389 -0.3450
20591SOL    HW163386   9.089   1.980   7.952  0.1934 -0.2295 -0.3013
20591SOL    HW263387   9.103   2.024   8.097 -1.0996  0.3004 -0.3219
20592SOL     OW63388   4.579   6.605   7.465  0.0183  0.1997  0.0932
20592SOL    HW163389   4.545   6.535   7.410 -0.1712  0.2858  0.1002
20592SOL    HW263390   4.649   6.564   7.516 -0.9847 -0.3250  1.0958
20593SOL     OW63391   6.588   8.648   7.268  0.8034  0.5193 -0.5059
20593SOL    HW163392   6.672   8.629   7.227  0.8149 -1.8347  0.4209
20593SOL    HW263393   6.578   8.580   7.335 -1.8387  0.6899 -0.5941
20594SOL     OW63394   9.097   7.012   2.603  0.1052 -0.0046  0.4504
20594SOL    HW163395   9.023   7.064   2.634  0.8026  3.0158 -2.3442
20594SOL    HW263396   9.169   7.036   2.661 -0.4592 -0.9267  1.5610
20595SOL     OW63397   4.084   1.467   3.800  0.4605  0.3665  0.3048
20595SOL    HW163398   3.998   1.504   3.819 -0.1558 -0.4755 -0.7814
20595SOL    HW263399   4.084   1.451   3.706  0.2914 -3.3338  0.7877
20596SOL     OW63400   1.105   7.483   0.915 -0.2120 -0.0462  0.0625
20596SOL    HW163401   1.125   7.546   0.984  0.4126  2.1270 -1.9795
20596SOL    HW263402   1.191   7.452   0.886 -0.5105 -2.3780  1.3809
20597SOL     OW63403   5.128   8.487   2.552  0.6313 -0.2152 -0.4281
20597SOL    HW163404   5.094   8.529   2.631 -0.5803  1.5221 -1.7932
20597SOL    HW263405   5.200   8.544   2.524  0.2790 -0.1192 -1.1900
20598SOL     OW63406   1.282   7.513   2.225  0.6378  0.5077  0.2388
20598SOL    HW163407   1.366   7.478   2.197  0.3079  0.0709 -0.2128
20598SOL    HW263408   1.292   7.608   2.218  1.7900  0.5814  2.2066
20599SOL     OW63409   5.769   6.554   0.201  0.2297  0.4780 -0.0068
20599SOL    HW163410   5.738   6.465   0.212  1.1944  0.1885  0.4550
20599SOL    HW263411   5.691   6.605   0.181 -0.6802 -0.0689  1.9869
20600SOL     OW63412   4.743   2.231   4.673 -0.3175  0.6893 -0.0409
20600SOL    HW163413   4.798   2.308   4.655  0.4596  0.6323  1.8678
20600SOL    HW263414   4.803   2.168   4.712 -1.5423  0.2514  1.1910
20601SOL     OW63415   3.847   7.061   9.290 -0.2856 -0.5305 -0.0638
20601SOL    HW163416   3.756   7.069   9.262 -0.5210 -0.1306  0.7640
20601SOL    HW263417   3.897   7.113   9.228 -0.9677  1.6348  1.0926
20602SOL     OW63418   5.579   2.553   4.979 -0.1139 -0.2649 -0.4298
20602SOL    HW163419   5.648   2.619   4.971  0.3357 -0.8203 -1.3339
20602SOL    HW263420   5.553   2.534   4.888  0.8905 -2.4684 -0.3394
20603SOL     OW63421   3.958   2.876   6.990 -0.0050  0.3261 -0.0951
20603SOL    HW163422   3.871   2.836   6.999 -0.9714  2.3461 -0.0795
20603SOL    HW263423   3.989   2.848   6.904 -1.8682  1.7592 -1.2967
20604SOL     OW63424   7.982   4.093   7.193 -1.0605 -0.0736 -0.0248
20604SOL    HW163425   7.937   4.162   7.241 -0.2413  2.1214 -2.2243
20604SOL    HW263426   8.064   4.133   7.164 -1.1103 -1.5482 -2.4631
20605SOL     OW63427   0.790   0.838   7.413  1.0689 -0.5173  0.2453
20605SOL    HW163428   0.867   0.863   7.363 -0.6038  2.7645 -1.0279
20605SOL    HW263429   0.751   0.767   7.363  1.3476  0.2863 -1.1682
20606SOL     OW63430   5.478   9.140   2.243  0.1624  0.3343  0.5958
20606SOL    HW163431   5.545   9.098   2.296  0.9754 -0.5598 -1.0526
20606SOL    HW263432   5.422   9.069   2.214  0.8335  0.4994 -1.2361
20607SOL     OW63433   9.571   5.849   2.687  0.1471  0.0702 -0.0079
20607SOL    HW163434   9.532   5.851   2.774  1.7383  1.5968  0.7308
20607SOL    HW263435   9.665   5.851   2.702  0.4528  1.3016 -1.7452
20608SOL     OW63436   6.971   7.773   1.717 -0.0550 -0.4232  0.2319
20608SOL    HW163437   6.900   7.835   1.734  0.1325  0.1530 -1.0186
20608SOL    HW263438   6.932   7.708   1.659  0.3758 -0.2038 -0.3095
20609SOL     OW63439   6.686   4.838   2.866 -0.1347 -0.2073 -0.1184
20609SOL    HW163440   6.643   4.846   2.951 -1.4624  0.9664 -0.8515
20609SOL    HW263441   6.778   4.860   2.883 -0.3352 -0.2185  1.0356
20610SOL     OW63442   1.084   0.790   2.504 -0.0389 -0.5925 -0.1693
20610SOL    HW163443   1.075   0.769   2.597  0.2323 -0.7561 -0.1779
20610SOL    HW263444   1.161   0.739   2.476  2.0507  2.0675  0.3353
20611SOL     OW63445   2.065   5.808   1.308  0.2743  0.5479  0.4605
20611SOL    HW163446   2.149   5.768   1.283  1.7484  2.4519  2.0937
20611SOL    HW263447   2.006   5.734   1.320  2.0072 -0.9261  0.3062
20612SOL     OW63448   3.625   2.413   1.268  0.2052 -0.1159 -0.4582
20612SOL    HW163449   3.616   2.483   1.203  0.3976  0.6294  0.3107
20612SOL    HW263450   3.572   2.441   1.342  0.1798 -0.8471 -0.1917
20613SOL     OW63451   7.921   3.034   1.481 -0.2480 -0.0718 -0.2575
20613SOL    HW163452   7.923   3.092   1.405  0.1469  0.2672  0.0071
20613SOL    HW263453   7.961   2.953   1.451  1.4810  0.6308  0.0382
20614SOL     OW63454   7.101   8.735   2.743 -0.4157 -0.1113 -0.3175
20614SOL    HW163455   7.158   8.665   2.775 -0.8039 -0.2544  0.0653
20614SOL    HW263456   7.013   8.698   2.747 -0.6695  0.5483  0.2822
20615SOL     OW63457   7.564   9.546   0.803 -0.1865 -0.0034 -0.0033
20615SOL    HW163458   7.497   9.537   0.870  0.7030  1.1835  1.0805
20615SOL    HW263459   7.594   9.456   0.787 -0.0965 -0.2613  1.5224
20616SOL     OW63460   2.174   8.492   2.755 -0.8421 -0.2524  0.1811
20616SOL    HW163461   2.141   8.581   2.745 -1.6740 -0.3500  1.7015
20616SOL    HW263462   2.227   8.495   2.835 -0.3042 -0.9662 -0.1410
20617SOL     OW63463   4.918   5.021   7.749 -0.4061  0.0290  0.1701
20617SOL    HW163464   4.932   5.090   7.684  0.3289 -2.1201 -2.1117
20617SOL    HW263465   4.824   5.002   7.744  0.0358 -2.1075 -2.6076
20618SOL     OW63466   7.934   6.987   0.663  0.3512 -0.1524 -0.4483
20618SOL    HW163467   7.902   6.912   0.713  0.2081  0.2187  0.0289
20618SOL    HW263468   7.965   6.950   0.581  0.0782 -0.7068 -0.3065
20619SOL     OW63469   3.437   1.810   0.976  0.0928  0.3029 -0.9541
20619SOL    HW163470   3.384   1.753   1.031  1.7339 -0.7197 -0.3520
20619SOL    HW263471   3.421   1.780   0.887 -0.7482  0.3964 -0.8473
20620SOL     OW63472   2.503   6.029   0.920 -0.2163  0.1231 -0.0894
20620SOL    HW163473   2.589   6.009   0.882 -0.4005  0.6347 -0.8117
20620SOL    HW263474   2.488   6.122   0.898 -1.0652 -0.0336 -0.2242
20621SOL     OW63475   2.911   1.796   5.140 -0.6517  0.1128 -0.4445
20621SOL    HW163476   3.005   1.811   5.151 -0.2257  0.0711 -3.2650
20621SOL    HW263477   2.870   1.868   5.188  0.7378 -0.4338  1.6898
20622SOL     OW63478   9.817   3.901   5.121 -0.5263  0.2855 -0.1015
20622SOL    HW163479   9.811   3.862   5.034  1.6054  2.6035 -1.4159
20622SOL    HW263480   9.778   3.988   5.111 -0.5522  0.4665  1.3677
20623SOL     OW63481   3.103   8.907   8.843 -0.1962 -0.1370  0.1470
20623SOL    HW163482   3.137   8.904   8.932 -1.0756 -0.2611  0.4918
20623SOL    HW263483   3.101   9.000   8.821  0.3616 -0.1314  0.1239
20624SOL     OW63484   7.706   2.957   0.795  0.1157  0.4817  0.2330
20624SOL    HW163485   7.745   3.035   0.834 -0.6065  0.1693  1.6554
20624SOL    HW263486   7.775   2.920   0.740  1.0145  1.2302  0.8265
20625SOL     OW63487   0.223   1.560   5.071  0.2063 -0.0462  0.5236
20625SOL    HW163488   0.179   1.551   4.986  1.1534 -0.0260  0.0138
20625SOL    HW263489   0.160   1.526   5.134  0.2511 -2.0080 -0.4034
20626SOL     OW63490   7.125   8.825   3.657 -0.1986 -0.2814  0.0955
20626SOL    HW163491   7.060   8.842   3.725 -0.2010  1.3587 -0.2858
20626SOL    HW263492   7.077   8.837   3.575  0.2954 -0.2355 -0.1879
20627SOL     OW63493   4.172   3.014   9.773  0.2713  0.1714 -0.5070
20627SOL    HW163494   4.235   3.085   9.758  1.7388 -1.1124 -0.6476
20627SOL    HW263495   4.169   2.966   9.690 -1.2031  0.4206 -0.6249
20628SOL     OW63496   7.400   2.718   2.426 -0.1847  0.2150  0.2446
20628SOL    HW163497   7.467   2.783   2.403  0.0501  0.5978  1.8566
20628SOL    HW263498   7.334   2.768   2.473 -0.7315 -0.4761  0.2157
20629SOL     OW63499   7.738   8.939   5.532  0.6192 -0.2436 -0.3093
20629SOL    HW163500   7.702   9.028   5.530 -0.9880 -0.8511  0.3289
20629SOL    HW263501   7.662   8.882   5.534  1.6300 -1.6277  0.0755
20630SOL     OW63502   6.125   4.390   1.438 -0.3680 -0.3763 -0.1370
20630SOL    HW163503   6.169   4.306   1.449  1.0048  0.5726  2.2544
20630SOL    HW263504   6.037   4.376   1.472 -0.3531 -1.0077 -0.3491
20631SOL     OW63505   0.157   8.329   0.055  0.1430 -0.0722  0.5267
20631SOL    HW163506   0.069   8.333   0.019  1.5076  0.0542 -3.3259
20631SOL    HW263507   0.190   8.243   0.027  1.9073  0.7579 -0.1184
20632SOL     OW63508   6.800   2.003   6.967  0.2492 -0.1912  0.3287
20632SOL    HW163509   6.892   1.976   6.965 -0.5025 -3.0948 -1.9158
20632SOL    HW263510   6.787   2.052   6.886 -0.0345  0.9600  1.0479
20633SOL     OW63511   5.757   7.200   4.011  0.1050  0.0180 -0.0308
20633SOL    HW163512   5.731   7.271   3.953 -1.3213  1.2001  1.9026
20633SOL    HW263513   5.743   7.120   3.960  0.2927  1.0294 -1.7397
20634SOL     OW63514   9.301   9.764   3.143 -0.3489  0.2565 -0.4628
20634SOL    HW163515   9.393   9.771   3.168 -0.0375 -3.0042 -0.2347
20634SOL    HW263516   9.269   9.854   3.143  2.4331  1.3720  0.9473
20635SOL     OW63517   3.188   4.806   4.758  0.2166  0.3548  0.1051
20635SOL    HW163518   3.271   4.834   4.797  1.0853 -1.0110 -0.6729
20635SOL    HW263519   3.188   4.846   4.671 -0.5387  1.3547  0.5498
20636SOL     OW63520   2.228   1.187   5.457  0.0342 -0.3974 -0.1555
20636SOL    HW163521   2.274   1.214   5.378 -0.4516  1.6019  0.1975
20636SOL    HW263522   2.196   1.268   5.496 -1.0400 -1.4561  1.3062
20637SOL     OW63523   8.470   4.702   8.699  0.2461  1.1921 -0.0159
20637SOL    HW163524   8.561   4.728   8.683  0.6097 -0.1595 -0.2267
20637SOL    HW263525   8.454   4.727   8.790  1.4529 -0.2568  0.6220
20638SOL     OW63526   8.431   0.360   2.921  0.3140 -0.2442 -0.6252
20638SOL    HW163527   8.491   0.333   2.991 -0.4361  2.8560  1.4520
20638SOL    HW263528   8.489   0.390   2.850  1.0926 -3.0928 -1.3056
20639SOL     OW63529   3.220   1.877   8.759 -0.3400 -0.4970 -0.0668
20639SOL    HW163530   3.232   1.787   8.787 -1.4599 -0.4799  0.5485
20639SOL    HW263531   3.154   1.912   8.819  0.5094  0.9199  0.1126
20640SOL     OW63532   9.404   3.409   1.071 -0.1642  0.4625 -0.4162
20640SOL    HW163533   9.416   3.416   0.976  2.7146 -1.7074 -0.3247
20640SOL    HW263534   9.478   3.357   1.101  0.3765  3.0551  3.4009
20641SOL     OW63535   3.644   5.538   6.567 -0.0884  0.5288 -0.1970
20641SOL    HW163536   3.619   5.501   6.652  0.0480  1.3375  0.2017
20641SOL    HW263537   3.565   5.528   6.513 -0.4279  0.7089  0.2600
20642SOL     OW63538   1.735   7.850   6.586 -0.3849 -0.0528  0.3083
20642SOL    HW163539   1.685   7.823   6.663  0.5200 -0.5921  0.7275
20642SOL    HW263540   1.810   7.899   6.621 -0.4163  0.4407 -0.2845
20643SOL     OW63541   8.910   4.137   8.710  0.1172 -0.7237  0.1021
20643SOL    HW163542   8.825   4.122   8.669  0.0664 -0.4706  0.1136
20643SOL    HW263543   8.890   4.170   8.797  0.2191 -0.1451 -0.0829
20644SOL     OW63544   6.463   4.344   6.875 -0.2314  0.5531  0.1869
20644SOL    HW163545   6.495   4.278   6.813 -0.0711 -0.1006  0.9500
20644SOL    HW263546   6.376   4.367   6.842 -0.7752 -0.8911  0.5155
20645SOL     OW63547   7.369   6.031   7.366 -0.2705  0.1272  0.1468
20645SOL    HW163548   7.374   5.949   7.317 -3.1760  0.4257 -0.8207
20645SOL    HW263549   7.277   6.057   7.361  0.6173  3.7350 -0.0525
20646SOL     OW63550   2.354   0.372   7.627 -0.1311 -0.3869 -0.1425
20646SOL    HW163551   2.289   0.421   7.576  1.6151  0.4174 -1.7011
20646SOL    HW263552   2.325   0.382   7.718 -1.5251  0.9214 -0.6854
20647SOL     OW63553   7.914   0.894   2.964  0.1443  0.1432  0.0595
20647SOL    HW163554   7.961   0.832   2.908  0.6217  0.7949 -0.2577
20647SOL    HW263555   7.836   0.845   2.992 -0.2180 -0.1345 -1.3373
20648SOL     OW63556   7.150   2.391   1.749 -0.0419  0.1931 -0.4977
20648SOL    HW163557   7.106   2.315   1.710  0.1934  1.1018 -2.6961
20648SOL    HW263558   7.123   2.465   1.694  1.5667  1.3129  0.1409
20649SOL     OW63559   0.268   7.460   4.098 -0.2090 -0.5114  0.2923
20649SOL    HW163560   0.289   7.540   4.050  2.5713 -0.6211  1.1279
20649SOL    HW263561   0.200   7.487   4.160  0.8429  1.3235  0.7373
20650SOL     OW63562   5.677   7.493   6.332  0.0721 -0.3490 -0.2945
20650SOL    HW163563   5.621   7.459   6.262 -0.3461  0.8772 -0.5835
20650SOL    HW263564   5.752   7.434   6.333 -0.9235 -1.6504 -0.3181
20651SOL     OW63565   8.019   9.077   4.899  0.0539  0.1749  0.6718
20651SOL    HW163566   7.961   9.138   4.946 -0.0529 -0.7315  1.7602
20651SOL    HW263567   8.027   9.002   4.958  0.5803 -0.6587 -0.4294
20652SOL     OW63568   9.471   0.727   0.804 -0.9966 -0.3170  0.3054
20652SOL    HW163569   9.503   0.815   0.821 -0.4608  0.0801 -2.2337
20652SOL    HW263570   9.482   0.680   0.887  1.6137  1.1777  0.9265
20653SOL     OW63571   4.715   2.405   6.329  0.4614 -0.3887 -0.0824
20653SOL    HW163572   4.693   2.364   6.245 -1.5094 -1.9068  1.0818
20653SOL    HW263573   4.707   2.499   6.312  3.2489 -0.4179 -2.3426
20654SOL     OW63574   3.502   2.840   4.836 -0.0544 -0.2632  0.1023
20654SOL    HW163575   3.516   2.930   4.806 -0.8096  0.0428  0.6362
20654SOL    HW263576   3.507   2.845   4.931 -0.0354 -0.8031  0.1337
20655SOL     OW63577   6.962   5.572   5.820 -0.3479 -0.0870 -0.1239
20655SOL    HW163578   6.921   5.548   5.903 -3.3257 -1.3574 -1.8107
20655SOL    HW263579   6.971   5.667   5.825  2.9037 -0.3445  2.9483
20656SOL     OW63580   8.126   8.065   4.814  0.2902  0.5151 -0.1786
20656SOL    HW163581   8.130   7.970   4.825 -1.5549  0.4082 -0.0781
20656SOL    HW263582   8.201   8.086   4.758  1.4685 -0.8119  0.8473
20657SOL     OW63583   2.861   0.594   2.411  0.4118 -0.2014  0.5936
20657SOL    HW163584   2.786   0.538   2.391 -0.6674  0.7688  1.7311
20657SOL    HW263585   2.879   0.579   2.504  1.4451 -0.2050  0.4018
20658SOL     OW63586   3.819   5.338   6.550 -0.1946 -0.0695 -0.0748
20658SOL    HW163587   3.770   5.419   6.543  0.6859  0.4654 -0.1566
20658SOL    HW263588   3.755   5.269   6.533 -1.7412  0.3858  3.1136
20659SOL     OW63589   2.330   7.868   8.162 -0.1568 -0.3332 -0.7083
20659SOL    HW163590   2.416   7.828   8.148  0.6180  1.0832 -0.1218
20659SOL    HW263591   2.268   7.803   8.127  1.1175 -1.4722 -0.9399
20660SOL     OW63592   0.762   5.516   7.743  0.3989  0.4073 -0.6154
20660SOL    HW163593   0.684   5.572   7.740 -1.6757 -2.1173  0.7413
20660SOL    HW263594   0.775   5.488   7.652  0.3515  1.6414 -1.0134
20661SOL     OW63595   4.206   0.609   1.919 -0.1452 -0.2119  0.1066
20661SOL    HW163596   4.257   0.664   1.859 -0.3461 -0.6801 -0.5073
20661SOL    HW263597   4.256   0.609   2.001  0.3882  0.0374 -0.2141
20662SOL     OW63598   4.985   0.811   3.562 -0.3288 -0.3373 -0.0093
20662SOL    HW163599   4.951   0.743   3.622 -0.5121  0.2213  0.5283
20662SOL    HW263600   5.066   0.841   3.604  0.6895 -1.4246 -1.1193
20663SOL     OW63601   3.337   8.650   5.509  0.4374 -0.0095  0.2639
20663SOL    HW163602   3.390   8.604   5.574 -0.0360  0.3025  0.8821
20663SOL    HW263603   3.392   8.723   5.480  0.9795 -0.6367 -0.3218
20664SOL     OW63604   4.826   4.740   0.117  0.5407 -0.5835 -0.7521
20664SOL    HW163605   4.836   4.834   0.132  0.8249 -0.7988  0.5865
20664SOL    HW263606   4.770   4.733   0.039  0.3160  0.6898 -0.7215
20665SOL     OW63607   6.836   9.171   2.264 -0.0880  1.1416  0.3997
20665SOL    HW163608   6.863   9.253   2.222 -0.9651 -0.2333 -3.1763
20665SOL    HW263609   6.761   9.197   2.319 -0.0655  2.8069 -0.2836
20666SOL     OW63610   1.405   9.083   4.549 -0.0684 -0.2649 -0.2793
20666SOL    HW163611   1.327   9.028   4.556  1.0581 -2.0560 -0.9235
20666SOL    HW263612   1.374   9.164   4.509 -1.8787 -0.2180  1.1264
20667SOL     OW63613   1.361   5.200   5.181 -0.0573  0.3500  0.1082
20667SOL    HW163614   1.384   5.288   5.150  0.7606 -0.0984 -0.6083
20667SOL    HW263615   1.445   5.155   5.190 -0.3713  0.0459  1.7784
20668SOL     OW63616   7.171   6.943   7.041  0.1506 -0.0035 -0.6162
20668SOL    HW163617   7.155   6.883   7.114 -1.6011 -0.0920 -1.0380
20668SOL    HW263618   7.085   6.960   7.004  0.6854  2.2601 -0.9443
20669SOL     OW63619   7.400   4.884   1.243 -0.7499  0.1458 -0.0624
20669SOL    HW163620   7.380   4.937   1.166 -2.1523  0.0581  0.2274
20669SOL    HW263621   7.380   4.795   1.217 -1.4816  0.1456  0.4834
20670SOL     OW63622   9.260   2.097   3.808 -0.4982  0.1710 -0.2673
20670SOL    HW163623   9.278   2.028   3.744 -1.5938 -0.5919  0.2158
20670SOL    HW263624   9.329   2.162   3.794  1.1515 -1.4767 -0.0772
20671SOL     OW63625   8.554   7.295   2.788 -0.0416  0.4488  0.1840
20671SOL    HW163626   8.573   7.277   2.880  1.0154  1.7704  0.2553
20671SOL    HW263627   8.478   7.353   2.789  0.9408  1.7904  0.3484
20672SOL     OW63628   1.977   2.086   0.791 -0.4104 -0.0572 -0.2328
20672SOL    HW163629   1.924   2.014   0.756 -0.5835  0.8058 -1.8397
20672SOL    HW263630   1.942   2.164   0.749  0.7336  0.7976  0.3451
20673SOL     OW63631   8.748   5.236   2.833 -0.1286 -0.4778  0.1137
20673SOL    HW163632   8.677   5.247   2.770  0.1659 -1.7498 -0.4822
20673SOL    HW263633   8.827   5.227   2.778  0.4231  0.3891  0.7451
20674SOL     OW63634   2.211   4.343   8.786 -0.4501 -0.6874 -0.3396
20674SOL    HW163635   2.236   4.393   8.709  0.8528  1.7546  1.5375
20674SOL    HW263636   2.293   4.306   8.818 -0.3160  1.2011  1.7296
20675SOL     OW63637   0.913   5.895   2.603 -0.1653  0.8556 -0.0243
20675SOL    HW163638   0.821   5.912   2.621 -0.3726 -0.1066 -0.1327
20675SOL    HW263639   0.912   5.825   2.537  0.6320 -0.8418  1.6803
20676SOL     OW63640   5.068   6.829   4.536 -0.3350 -0.2130 -0.1085
20676SOL    HW163641   5.161   6.806   4.538  0.1291  1.4239 -1.0354
20676SOL    HW263642   5.065   6.921   4.563 -1.6387 -0.1493 -0.3995
20677SOL     OW63643   0.534   5.733   1.159  0.3277 -0.2393 -0.2445
20677SOL    HW163644   0.474   5.804   1.180 -0.5121 -0.8634 -0.4859
20677SOL    HW263645   0.589   5.767   1.089 -0.5660 -0.0805 -0.8825
20678SOL     OW63646   7.671   0.934   4.791  0.5427 -0.2574 -0.1455
20678SOL    HW163647   7.642   0.859   4.842 -0.5763  0.4017  0.2313
20678SOL    HW263648   7.737   0.977   4.846 -0.6954  0.4805  0.8268
20679SOL     OW63649   7.951   5.193   0.007 -0.4641 -0.0736 -0.5357
20679SOL    HW163650   7.981   5.136  -0.064 -0.8653  0.4267 -1.1256
20679SOL    HW263651   7.877   5.146   0.045  0.5515 -0.9502  0.4247
20680SOL     OW63652   6.000   6.704   7.986 -0.3235 -0.5710  0.1609
20680SOL    HW163653   6.079   6.698   8.040 -1.1939  0.0789  1.5714
20680SOL    HW263654   6.025   6.761   7.913  0.5380 -0.4389  0.5465
20681SOL     OW63655   5.006   0.535   6.216 -0.1660  0.4373  0.5660
20681SOL    HW163656   5.005   0.619   6.171  2.6262  0.3962  0.2390
20681SOL    HW263657   5.087   0.536   6.266  1.3040 -2.9585 -1.3953
20682SOL     OW63658   5.897   4.433   7.406  0.0712 -0.0323 -0.1693
20682SOL    HW163659   5.977   4.380   7.412 -0.5176 -0.8683  0.5615
20682SOL    HW263660   5.849   4.394   7.332 -0.0896 -0.1354 -0.0102
20683SOL     OW63661   4.878   0.477   3.658 -0.1087 -0.4272  0.3325
20683SOL    HW163662   4.958   0.499   3.706  0.3000 -2.0871  0.4833
20683SOL    HW263663   4.906   0.473   3.566 -0.5559  1.2273  0.0836
20684SOL     OW63664   0.548   5.146   6.924 -0.2113  0.3504 -0.1511
20684SOL    HW163665   0.523   5.187   6.841  0.1578 -1.5796 -1.2782
20684SOL    HW263666   0.642   5.162   6.932 -0.2923  0.7446  0.0212
20685SOL     OW63667   8.351   9.397   3.783 -0.3296 -0.2129 -0.4060
20685SOL    HW163668   8.387   9.425   3.867 -1.4077 -0.0217 -0.0025
20685SOL    HW263669   8.423   9.349   3.741  0.7005  0.9713 -0.0291
20686SOL     OW63670   1.690   6.076   5.998 -0.0298 -0.4555  0.7093
20686SOL    HW163671   1.615   6.128   5.968  0.1123 -0.0356  1.0626
20686SOL    HW263672   1.658   6.033   6.077 -0.0984 -0.7867  0.5025
20687SOL     OW63673   3.336   3.761   3.292 -0.1019  0.0641 -0.2773
20687SOL    HW163674   3.342   3.856   3.302 -0.5686  0.0811 -0.1376
20687SOL    HW263675   3.258   3.748   3.237  0.5194 -0.1884 -1.1242
20688SOL     OW63676   1.436   8.927   4.977  0.1738  0.1868 -0.2897
20688SOL    HW163677   1.446   8.989   4.905  0.9368 -0.5515 -0.8422
20688SOL    HW263678   1.446   8.980   5.056  1.3256  0.6913 -0.7563
20689SOL     OW63679   1.557   5.968   7.469  0.2802 -0.3273  0.2641
20689SOL    HW163680   1.570   6.052   7.424 -0.7293 -0.5686 -0.5065
20689SOL    HW263681   1.641   5.923   7.460  0.8105  0.5560  0.6139
20690SOL     OW63682   4.938   5.244   5.274  0.0083  0.0421  0.4316
20690SOL    HW163683   5.004   5.231   5.207  0.2227 -3.3246  1.1535
20690SOL    HW263684   4.987   5.263   5.354  0.0109 -0.7371  0.6157
20691SOL     OW63685   6.392   8.425   9.761  0.5835  0.5174 -0.1617
20691SOL    HW163686   6.439   8.393   9.838  0.8433 -0.2401 -0.6257
20691SOL    HW263687   6.411   8.519   9.759  0.5166  0.5533  0.7296
20692SOL     OW63688   4.624   4.410   6.327 -0.4182  0.4588 -0.0410
20692SOL    HW163689   4.591   4.419   6.417 -1.1271 -0.9005 -0.1412
20692SOL    HW263690   4.691   4.478   6.320 -0.1175  0.3892  1.6277
20693SOL     OW63691   9.064   2.087   3.461  0.1459  1.0589  0.2006
20693SOL    HW163692   9.034   2.060   3.374  0.2431  0.2998  0.3986
20693SOL    HW263693   9.146   2.133   3.444  0.7676 -0.1015 -0.0205
20694SOL     OW63694   0.240   9.434   7.761  0.0275  0.5027  0.2299
20694SOL    HW163695   0.180   9.427   7.687 -0.6526  2.3810  0.5563
20694SOL    HW263696   0.325   9.454   7.722  0.0247 -0.1088 -0.1085
20695SOL     OW63697   1.833   1.219   3.934  0.6109  0.0642  0.4224
20695SOL    HW163698   1.767   1.179   3.878  2.2852 -2.9739  0.4077
20695SOL    HW263699   1.820   1.313   3.922 -1.5304 -0.4228 -2.1166
20696SOL     OW63700   8.760   1.781   2.979 -0.2594 -0.0915  0.0047
20696SOL    HW163701   8.727   1.693   2.995  0.0517 -0.0206  1.1461
20696SOL    HW263702   8.695   1.838   3.019 -0.3315  0.1891 -0.5083
20697SOL     OW63703   1.729   0.787   7.156 -0.3753 -0.6219 -0.1961
20697SOL    HW163704   1.791   0.715   7.167  0.3129 -1.1245 -5.1571
20697SOL    HW263705   1.657   0.749   7.107 -0.1662  1.8559 -2.6605
20698SOL     OW63706   4.370   9.654   9.207  0.3104  0.6344  0.0479
20698SOL    HW163707   4.338   9.689   9.124  3.2644  0.5448 -1.2452
20698SOL    HW263708   4.378   9.730   9.264  1.9639  1.4101 -1.1168
20699SOL     OW63709   3.888   7.182   1.701 -0.3242  0.0968 -0.1580
20699SOL    HW163710   3.796   7.184   1.678 -0.8276 -0.4804  1.6856
20699SOL    HW263711   3.926   7.117   1.643 -1.0774  0.2830 -0.8735
20700SOL     OW63712   9.290   2.893   0.391  0.1480  0.3099  0.2765
20700SOL    HW163713   9.314   2.921   0.479  0.9897  0.9789 -0.1404
20700SOL    HW263714   9.225   2.825   0.403  0.0490  0.5957  1.4069
20701SOL     OW63715   9.736   8.418   0.028  0.2415  0.0959 -0.5444
20701SOL    HW163716   9.775   8.485  -0.028  0.0815 -0.1848 -1.0023
20701SOL    HW263717   9.686   8.466   0.093  0.2365  0.4221 -0.7904
20702SOL     OW63718   3.269   8.312   0.185 -0.5072  0.2547 -0.3400
20702SOL    HW163719   3.268   8.217   0.173  0.7588  0.2491 -0.5583
20702SOL    HW263720   3.333   8.343   0.121 -0.6092  1.2205  0.0131
20703SOL     OW63721   3.399   9.330   6.545  0.5149  0.4610 -0.3553
20703SOL    HW163722   3.427   9.416   6.515 -1.0525  1.1041 -0.0447
20703SOL    HW263723   3.426   9.327   6.637  0.7896  0.4995 -0.4315
20704SOL     OW63724   5.543   8.056   2.866 -0.4847 -0.0686 -0.1514
20704SOL    HW163725   5.634   8.030   2.879 -0.5996 -0.2662  0.2496
20704SOL    HW263726   5.492   7.980   2.894 -0.7469 -0.4055 -1.4455
20705SOL     OW63727   7.804   8.711   1.285 -0.2267  0.0559 -0.0464
20705SOL    HW163728   7.756   8.630   1.269  1.3283 -1.0347  0.5513
20705SOL    HW263729   7.841   8.735   1.200 -2.5014  1.4392 -0.7354
20706SOL     OW63730   8.106   6.875   3.441 -0.4199  0.2603  0.2260
20706SOL    HW163731   8.112   6.844   3.351 -3.1203  1.0470 -0.3336
20706SOL    HW263732   8.046   6.814   3.484  0.3304  0.2653  1.3183
20707SOL     OW63733   7.303   2.397   6.662  0.5116  0.3662 -0.4673
20707SOL    HW163734   7.220   2.403   6.709  0.0434  0.8650 -1.3316
20707SOL    HW263735   7.360   2.461   6.706  0.5540 -0.2069  0.3310
20708SOL     OW63736   1.730   4.718   1.795  0.1696  0.4660  0.1782
20708SOL    HW163737   1.744   4.805   1.831  0.0555  0.1618  0.9775
20708SOL    HW263738   1.641   4.694   1.822  0.2197  0.0753  0.0137
20709SOL     OW63739   5.708   0.766   5.630 -0.2448  0.1591  0.1815
20709SOL    HW163740   5.697   0.820   5.709 -0.8290 -0.1710  0.3359
20709SOL    HW263741   5.721   0.677   5.663  0.8403  0.2150 -0.0692
20710SOL     OW63742   8.302   7.432   3.814  0.1925  0.5516 -0.1233
20710SOL    HW163743   8.321   7.521   3.844  1.6863 -0.2445  1.5138
20710SOL    HW263744   8.379   7.381   3.841 -0.7501 -1.2999 -0.7607
20711SOL     OW63745   8.565   7.109   9.615 -0.1451 -0.5087  0.2999
20711SOL    HW163746   8.487   7.080   9.568  0.6081 -2.2538  0.0390
20711SOL    HW263747   8.624   7.034   9.612  1.4070  0.6336  0.8178
20712SOL     OW63748   8.757   9.763   7.693  0.1549 -0.1427  0.0304
20712SOL    HW163749   8.801   9.773   7.778 -0.5221  0.4301  0.3307
20712SOL    HW263750   8.712   9.847   7.681  0.9371  0.1116 -1.3042
20713SOL     OW63751   6.950   2.064   7.598  0.0479  0.7784  0.0687
20713SOL    HW163752   6.965   2.113   7.517 -0.1900  1.7074  0.5729
20713SOL    HW263753   6.976   1.974   7.576  0.4325  1.1035 -0.8966
20714SOL     OW63754   8.736   1.226   2.514 -0.3690  0.6799 -0.1454
20714SOL    HW163755   8.724   1.183   2.430 -0.8127 -0.2649  0.3777
20714SOL    HW263756   8.663   1.195   2.567  0.8058 -0.0740  1.1049
20715SOL     OW63757   8.048   6.719   3.092  0.2058 -0.2078 -0.0219
20715SOL    HW163758   8.094   6.678   3.165 -1.6077 -0.6784  0.9154
20715SOL    HW263759   8.113   6.778   3.053  1.6862 -1.1028  0.9910
20716SOL     OW63760   4.573   8.279   1.030  0.2616  0.0928  0.6143
20716SOL    HW163761   4.485   8.315   1.042  0.7598  1.5170  0.1816
20716SOL    HW263762   4.559   8.199   0.979 -0.7039  1.0093 -0.6359
20717SOL     OW63763   5.206   5.304   6.568 -0.3818 -0.2802 -0.1148
20717SOL    HW163764   5.226   5.369   6.635  1.8332 -0.1387 -0.8249
20717SOL    HW263765   5.133   5.254   6.603 -1.3980  1.8451  0.9488
20718SOL     OW63766   8.519   3.178   3.218 -0.4494  1.2298  0.5328
20718SOL    HW163767   8.493   3.223   3.137  0.6208 -0.2241 -0.6741
20718SOL    HW263768   8.598   3.224   3.247 -0.1780  1.0312  0.1084
20719SOL     OW63769   7.584   1.622   5.863  0.4720 -0.0094  0.4589
20719SOL    HW163770   7.660   1.618   5.805  0.2050 -2.5378  0.1513
20719SOL    HW263771   7.522   1.680   5.819  0.9244 -0.5946 -0.9940
20720SOL     OW63772   5.220   1.816   1.174 -0.0752  0.1614 -0.0081
20720SOL    HW163773   5.314   1.817   1.193 -0.1750 -0.6737  0.5408
20720SOL    HW263774   5.190   1.730   1.201 -0.6755 -0.2365 -1.8060
20721SOL     OW63775   4.230   8.620   8.625  0.4099  0.1196 -0.4403
20721SOL    HW163776   4.290   8.607   8.552 -0.1544 -1.6718 -0.6322
20721SOL    HW263777   4.159   8.557   8.610  1.5538 -2.3107  2.9194
20722SOL     OW63778   1.552   9.694   7.949  0.1907 -0.2977 -0.5420
20722SOL    HW163779   1.605   9.711   8.027 -1.1030  0.5548  0.1872
20722SOL    HW263780   1.491   9.768   7.945 -0.8619 -1.1876 -1.4040
20723SOL     OW63781   4.214   0.154   5.765 -0.2154 -0.1822 -0.6106
20723SOL    HW163782   4.128   0.188   5.789 -0.9053 -0.8082 -2.0547
20723SOL    HW263783   4.269   0.231   5.756 -0.5821  0.2169  0.4645
20724SOL     OW63784   7.879   6.873   0.373 -0.3698 -0.3854  0.4833
20724SOL    HW163785   7.865   6.781   0.348 -0.8710  0.1933 -1.5995
20724SOL    HW263786   7.956   6.900   0.323  0.5057  0.0485  1.9940
20725SOL     OW63787   5.363   4.169   6.952  0.2349 -0.1023 -0.4187
20725SOL    HW163788   5.354   4.109   6.879 -0.3156 -0.3871 -0.1278
20725SOL    HW263789   5.359   4.113   7.030 -0.4166  0.3122 -0.1419
20726SOL     OW63790   6.295   1.239   4.115  0.1626 -0.2652 -0.4887
20726SOL    HW163791   6.353   1.266   4.044 -0.2959  0.1455 -0.7149
20726SOL    HW263792   6.343   1.263   4.195  1.0200 -1.4359 -0.6281
20727SOL     OW63793   6.680   0.368   9.148 -0.1393  0.0412  0.3317
20727SOL    HW163794   6.591   0.366   9.112 -0.1320 -0.3470  0.3373
20727SOL    HW263795   6.705   0.460   9.141  0.0881 -0.0987 -1.2205
20728SOL     OW63796   8.200   9.482   5.949  0.0314 -0.2087 -0.3263
20728SOL    HW163797   8.203   9.555   5.887 -1.4411  0.7808  0.6915
20728SOL    HW263798   8.275   9.496   6.007  0.6963 -0.4385 -1.1244
20729SOL     OW63799   4.598   3.037   4.847 -0.3794  0.1042  0.4086
20729SOL    HW163800   4.526   3.094   4.823 -1.2164 -0.7945  0.7058
20729SOL    HW263801   4.572   3.000   4.931  0.1219 -0.7261  0.2115
20730SOL     OW63802   6.520   1.778   8.645  0.2988 -0.3978  0.0334
20730SOL    HW163803   6.526   1.821   8.730  0.6438 -1.0078  0.3201
20730SOL    HW263804   6.426   1.768   8.629  0.2392 -1.4100  0.9228
20731SOL     OW63805   6.600   6.155   8.166  0.4031 -0.3346  0.0032
20731SOL    HW163806   6.657   6.231   8.159 -2.3294  2.1649  2.3447
20731SOL    HW263807   6.606   6.128   8.258 -0.8265 -1.1026 -0.1079
20732SOL     OW63808   1.839   2.353   3.639 -0.0482 -0.0872  0.4452
20732SOL    HW163809   1.843   2.395   3.725 -0.8012  1.8052 -0.3854
20732SOL    HW263810   1.911   2.393   3.590 -1.2788  0.9080 -0.6236
20733SOL     OW63811   6.667   4.364   5.418 -0.0145 -0.5326  0.5007
20733SOL    HW163812   6.662   4.417   5.497 -0.0224 -0.2764  0.3318
20733SOL    HW263813   6.580   4.327   5.408 -0.6793  1.2083 -0.5896
20734SOL     OW63814   6.647   1.467   4.856  0.2251 -0.5885 -0.0894
20734SOL    HW163815   6.713   1.525   4.820 -0.7064 -0.8842 -2.4496
20734SOL    HW263816   6.684   1.436   4.938  2.2693  0.5353 -0.5359
20735SOL     OW63817   7.314   2.187   2.257 -0.1574 -0.2798 -0.1116
20735SOL    HW163818   7.231   2.228   2.283 -1.2957 -2.5179  0.0313
20735SOL    HW263819   7.326   2.215   2.166 -1.5415 -0.6100 -0.4171
20736SOL     OW63820   3.986   8.767   4.185  0.2148 -0.1732 -0.2520
20736SOL    HW163821   3.908   8.815   4.157  0.0638 -0.7192 -0.7888
20736SOL    HW263822   4.011   8.808   4.267 -0.5135  0.1489 -0.1842
20737SOL     OW63823   1.830   1.032   2.239  0.9417  0.0197  0.7312
20737SOL    HW163824   1.887   1.046   2.163  0.5615  1.5825  0.7008
20737SOL    HW263825   1.770   1.107   2.238  0.0599 -0.6372  1.8170
20738SOL     OW63826   0.751   3.793   2.658 -0.2179 -0.2013  0.8671
20738SOL    HW163827   0.824   3.841   2.616  0.8334 -0.4753  2.3085
20738SOL    HW263828   0.777   3.787   2.750 -0.9450 -2.4018  0.9761
20739SOL     OW63829   7.643   5.407   4.046 -0.2251 -0.1562 -0.2228
20739SOL    HW163830   7.599   5.420   4.130 -1.3195  0.8982 -0.9199
20739SOL    HW263831   7.726   5.366   4.068 -0.0862  0.9337  1.4726
20740SOL     OW63832   7.233   2.819   5.493  0.9167  0.3404 -0.0292
20740SOL    HW163833   7.273   2.886   5.548  0.0909 -0.1582  1.2325
20740SOL    HW263834   7.154   2.794   5.540 -0.6416  0.9326 -2.1912
20741SOL     OW63835   0.409   5.577   9.643  0.4778 -0.2737  0.0147
20741SOL    HW163836   0.336   5.533   9.601  1.2758 -2.9195  1.1845
20741SOL    HW263837   0.387   5.670   9.638 -2.0040 -0.8448 -1.3506
20742SOL     OW63838   4.270   4.989   4.406 -0.3094  0.0287 -0.2509
20742SOL    HW163839   4.213   4.988   4.483  1.2744 -0.5332  0.9723
20742SOL    HW263840   4.347   5.037   4.435 -0.0501  0.5975 -1.8053
20743SOL     OW63841   7.856   3.103   4.396 -0.5195  0.8917  0.3088
20743SOL    HW163842   7.771   3.128   4.360 -1.5398 -1.1259  1.1727
20743SOL    HW263843   7.898   3.053   4.325 -1.3067 -0.5857  0.8476
20744SOL     OW63844   2.232   4.585   2.417  0.0829 -0.4154 -0.6281
20744SOL    HW163845   2.194   4.509   2.374 -1.3481  0.1532 -0.4312
20744SOL    HW263846   2.168   4.655   2.404  0.9097  0.4989  0.0286
20745SOL     OW63847   7.184   6.596   5.513 -0.5932  0.0008  0.3861
20745SOL    HW163848   7.240   6.541   5.458 -0.2270 -0.9109  1.6235
20745SOL    HW263849   7.097   6.556   5.507 -0.3594 -0.6423  1.1645
20746SOL     OW63850   3.405   7.955   2.002  0.3321 -0.2377 -0.3806
20746SOL    HW163851   3.314   7.948   1.974 -0.6080  0.7474  2.1367
20746SOL    HW263852   3.443   8.022   1.944 -0.8126  0.0314 -0.8521
20747SOL     OW63853   6.577   1.307   0.850 -0.0775  0.4517  0.1908
20747SOL    HW163854   6.628   1.243   0.799 -1.5144 -1.1832  0.6801
20747SOL    HW263855   6.518   1.347   0.785 -1.6326 -1.3462  0.3955
20748SOL     OW63856   9.449   1.300   2.691  0.3129  0.1841 -0.1728
20748SOL    HW163857   9.493   1.218   2.669  1.3554  0.9789 -1.2025
20748SOL    HW263858   9.361   1.274   2.719  1.1198 -1.3956  1.0798
20749SOL     OW63859   1.737   5.050   6.642  0.1672  0.3487  0.2365
20749SOL    HW163860   1.705   4.999   6.716 -0.3534  1.1033  0.5512
20749SOL    HW263861   1.691   5.134   6.649  1.6215  1.1875  0.2263
20750SOL     OW63862   8.664   5.842   9.043 -0.3926  0.6204  0.2465
20750SOL    HW163863   8.700   5.783   9.110 -1.4410 -1.7534 -1.1314
20750SOL    HW263864   8.739   5.889   9.008  0.5365 -0.0849  1.2383
20751SOL     OW63865   5.916   2.676   8.736 -0.2504 -0.6170  0.0165
20751SOL    HW163866   5.874   2.713   8.659  1.2347 -1.3626 -1.1988
20751SOL    HW263867   5.972   2.606   8.702  3.8050  1.7200  1.1449
20752SOL     OW63868   1.884   6.321   4.533  0.2458  0.0227  0.2135
20752SOL    HW163869   1.958   6.383   4.534 -0.8847  1.4249 -0.1552
20752SOL    HW263870   1.912   6.251   4.475  0.9857  0.9368 -0.5666
20753SOL     OW63871   7.975   8.686   3.967  0.4025  0.2140  0.1474
20753SOL    HW163872   8.054   8.642   3.999  1.3979  2.0570  0.3746
20753SOL    HW263873   7.954   8.749   4.036 -1.3824 -0.3423  0.1487
20754SOL     OW63874   1.350   0.671   6.631 -0.4860  0.2536  0.3158
20754SOL    HW163875   1.318   0.624   6.554  0.8209  0.6486 -0.5155
20754SOL    HW263876   1.437   0.634   6.647 -0.4004  0.7670  1.0863
20755SOL     OW63877   4.085   5.519   2.721  0.0450  0.0295 -0.4975
20755SOL    HW163878   4.173   5.492   2.748  0.5804  0.4996 -1.6968
20755SOL    HW263879   4.063   5.460   2.649 -0.7543 -0.2591 -0.0337
20756SOL     OW63880   7.979   1.029   6.922 -0.1271  0.0713 -0.5810
20756SOL    HW163881   7.981   1.051   6.829  2.1752 -0.3821 -0.6991
20756SOL    HW263882   7.943   1.107   6.964  2.0147  1.7032 -1.5643
20757SOL     OW63883   9.340   4.288   3.276 -0.4752 -0.3621  0.4964
20757SOL    HW163884   9.297   4.233   3.211 -1.1346  1.1077 -0.3717
20757SOL    HW263885   9.420   4.241   3.299 -1.1215 -1.7625 -0.0261
20758SOL     OW63886   0.822   5.462   3.953  0.8511  0.5672 -0.2019
20758SOL    HW163887   0.861   5.535   3.904  0.8255  1.3333  0.8840
20758SOL    HW263888   0.787   5.503   4.033 -0.5545 -0.3925 -0.2914
20759SOL     OW63889   8.510   2.668   5.811  0.1734  0.3685 -0.0964
20759SOL    HW163890   8.542   2.752   5.778  0.4001  0.1887 -0.3386
20759SOL    HW263891   8.556   2.603   5.758 -1.5996  0.1063 -1.4352
20760SOL     OW63892   1.860   8.466   0.812 -0.4149 -0.0480 -0.2696
20760SOL    HW163893   1.938   8.496   0.860  1.7725  0.1089 -3.5825
20760SOL    HW263894   1.894   8.440   0.727 -4.1552  0.7414 -2.1869
20761SOL     OW63895   1.787   5.757   1.670 -0.4159 -0.3708  0.1094
20761SOL    HW163896   1.808   5.685   1.611 -1.7096 -1.3423  0.7885
20761SOL    HW263897   1.788   5.834   1.614  0.8620 -0.8978 -0.6609
20762SOL     OW63898   4.868   1.613   2.872 -0.2777 -0.1309  0.7683
20762SOL    HW163899   4.951   1.565   2.880  0.6261  1.2736  0.2456
20762SOL    HW263900   4.894   1.700   2.840 -2.0024  0.2069  0.1970
20763SOL     OW63901   0.302   3.238   4.441 -0.3074 -0.1855 -0.3001
20763SOL    HW163902   0.345   3.241   4.527 -0.4579 -1.6280 -0.1410
20763SOL    HW263903   0.357   3.180   4.389  0.3460  1.4934 -1.5410
20764SOL     OW63904   2.137   1.476   7.519 -0.2438  0.4941  0.2550
20764SOL    HW163905   2.079   1.547   7.545 -0.8889 -0.0593  0.3571
20764SOL    HW263906   2.155   1.428   7.600  1.7603  1.6448  0.5510
20765SOL     OW63907   0.761   0.914   8.130  0.0077  0.2417 -0.3047
20765SOL    HW163908   0.760   0.837   8.186  1.3883  0.1863 -0.3220
20765SOL    HW263909   0.726   0.883   8.046  0.8013 -0.4532 -0.3967
20766SOL     OW63910   6.375   5.889   5.446  0.0758  0.0783 -0.5173
20766SOL    HW163911   6.341   5.800   5.443  0.7651 -0.2774  1.1281
20766SOL    HW263912   6.298   5.943   5.465 -0.1666 -0.2941 -0.4230
20767SOL     OW63913   6.697   4.331   8.243 -0.3749  0.0458  0.1119
20767SOL    HW163914   6.610   4.312   8.209 -0.0480 -0.3986 -0.4964
20767SOL    HW263915   6.742   4.374   8.171 -0.6719  1.9965  1.0347
20768SOL     OW63916   0.597   4.754   9.477 -0.7942 -0.0778 -0.0432
20768SOL    HW163917   0.639   4.813   9.539 -0.6034 -0.4881  0.2187
20768SOL    HW263918   0.667   4.697   9.446 -1.0763 -0.5196  0.1128
20769SOL     OW63919   9.438   6.833   4.725 -0.2460 -0.3067 -0.5486
20769SOL    HW163920   9.393   6.901   4.675  0.9958  0.8639 -0.1335
20769SOL    HW263921   9.460   6.875   4.808 -0.2869 -1.5250  0.0952
20770SOL     OW63922   8.799   1.336   2.841  0.2290  0.0036 -0.0920
20770SOL    HW163923   8.738   1.401   2.805 -0.6054 -1.6753 -1.9200
20770SOL    HW263924   8.843   1.382   2.913 -1.0615  2.2255 -0.6055
20771SOL     OW63925   6.841   3.742   4.286 -0.2175 -0.1504  0.3608
20771SOL    HW163926   6.901   3.815   4.269  1.3502 -1.6342 -0.9331
20771SOL    HW263927   6.869   3.707   4.370 -1.5247  1.1777  1.4071
20772SOL     OW63928   5.936   0.508   2.938 -0.3122  0.7600  0.0160
20772SOL    HW163929   5.900   0.454   2.867  0.4980 -0.3939  0.4531
20772SOL    HW263930   5.860   0.530   2.991 -0.5227 -1.0802  0.5527
20773SOL     OW63931   0.963   0.508   0.844 -0.3532 -0.2792 -0.2025
20773SOL    HW163932   1.041   0.499   0.789  0.5351 -0.2535  1.0180
20773SOL    HW263933   0.980   0.585   0.898 -0.1188 -1.6566  1.7776
20774SOL     OW63934   6.455   0.160   4.226  0.0650 -0.3189 -0.0699
20774SOL    HW163935   6.543   0.168   4.262  0.1004  0.8617 -0.3800
20774SOL    HW263936   6.458   0.082   4.170  0.0569 -2.1313  2.2899
20775SOL     OW63937   7.143   8.087   2.985 -0.8484  0.1882  0.2965
20775SOL    HW163938   7.091   8.123   3.057 -1.9666  3.5414 -1.9321
20775SOL    HW263939   7.091   8.014   2.952 -1.3272 -0.0743  1.5703
20776SOL     OW63940   9.485   9.661   8.123  0.5058 -0.3769  0.1833
20776SOL    HW163941   9.493   9.643   8.030 -1.0969 -0.0456 -0.0473
20776SOL    HW263942   9.448   9.580   8.160 -2.3334  0.6736 -0.1138
20777SOL     OW63943   8.375   3.586   3.680  0.6124 -0.2698  0.8670
20777SOL    HW163944   8.455   3.537   3.661  1.7579  1.7503  0.2246
20777SOL    HW263945   8.403   3.677   3.687 -1.7857  0.7033 -0.6734
20778SOL     OW63946   6.659   4.489   4.086 -0.3945 -0.6222 -0.4255
20778SOL    HW163947   6.735   4.545   4.072 -0.3753 -0.9623 -1.8729
20778SOL    HW263948   6.696   4.407   4.120  0.0261 -1.0796 -1.8758
20779SOL     OW63949   6.831   7.355   2.838  0.6023  0.3290 -0.0707
20779SOL    HW163950   6.844   7.405   2.758  0.5574 -0.2326 -0.4291
20779SOL    HW263951   6.859   7.266   2.817  2.0259  0.4850  0.9794
20780SOL     OW63952   3.414   4.420   1.611 -0.4028  0.1504  0.5831
20780SOL    HW163953   3.503   4.389   1.596 -0.3636  0.3369  0.4258
20780SOL    HW263954   3.372   4.415   1.526 -0.3442  0.6859  0.5145
20781SOL     OW63955   5.706   1.617   7.895  0.0787  0.1756 -0.1816
20781SOL    HW163956   5.666   1.543   7.939 -1.7743  0.3044 -1.5391
20781SOL    HW263957   5.784   1.581   7.852  0.3196 -0.5291  0.8392
20782SOL     OW63958   0.268   0.321   9.679  0.3428  0.1227  0.3344
20782SOL    HW163959   0.202   0.344   9.614  1.3795 -0.8908 -1.1312
20782SOL    HW263960   0.243   0.234   9.710  2.0633 -1.2558 -1.8245
20783SOL     OW63961   3.231   9.445   1.460 -0.5691 -0.2168 -0.0232
20783SOL    HW163962   3.245   9.372   1.520  0.4186 -0.2211 -0.2329
20783SOL    HW263963   3.294   9.429   1.389  1.0092  1.8278  0.8395
20784SOL     OW63964   4.270   6.823   1.987 -0.1256 -0.1903 -0.2723
20784SOL    HW163965   4.318   6.877   2.050 -0.3735 -2.1054  1.6766
20784SOL    HW263966   4.311   6.843   1.903  1.7820  0.7852  0.8120
20785SOL     OW63967   2.947   2.285   7.878 -0.1753 -0.2763 -0.5973
20785SOL    HW163968   2.899   2.331   7.810 -0.8031  0.7866  0.5281
20785SOL    HW263969   3.026   2.337   7.891 -0.3813 -0.0905 -0.0541
20786SOL     OW63970   4.657   7.329   4.417  0.4659  0.3022  0.2253
20786SOL    HW163971   4.715   7.253   4.421  0.9631  0.7414  1.8538
20786SOL    HW263972   4.600   7.311   4.342  0.7790 -1.5092  0.3744
20787SOL     OW63973   7.494   7.851   4.210 -0.1939  0.0125 -0.3074
20787SOL    HW163974   7.464   7.846   4.120 -0.8169 -1.5914 -0.0291
20787SOL    HW263975   7.504   7.945   4.227 -1.2352  0.3852 -1.6542
20788SOL     OW63976   8.178   4.565   2.334  0.0942 -0.4185 -0.3150
20788SOL    HW163977   8.138   4.511   2.266  1.3014 -0.9285 -0.6494
20788SOL    HW263978   8.220   4.502   2.393  2.3554  0.0984 -1.2348
20789SOL     OW63979   8.743   8.405   6.706 -0.1001 -0.8077 -0.2125
20789SOL    HW163980   8.834   8.385   6.682  0.1162  0.4990 -0.5422
20789SOL    HW263981   8.745   8.496   6.733 -1.0797 -1.1359  1.0751
20790SOL     OW63982   4.425   3.323   5.952 -0.2240 -0.0260  0.3177
20790SOL    HW163983   4.492   3.387   5.928 -0.1612 -0.3739 -0.4712
20790SOL    HW263984   4.411   3.272   5.872  0.0897 -1.3236  1.0657
20791SOL     OW63985   6.331   4.852   6.126 -0.0098 -0.6203  0.2304
20791SOL    HW163986   6.407   4.844   6.068  0.4354 -0.1114  0.7366
20791SOL    HW263987   6.314   4.762   6.155 -0.1974 -0.8712 -0.6317
20792SOL     OW63988   1.405   4.714   0.740  0.0226  0.0015  0.0342
20792SOL    HW163989   1.319   4.757   0.748 -0.0387 -0.0416 -0.3492
20792SOL    HW263990   1.452   4.739   0.819  0.9026  2.7897 -1.2520
20793SOL     OW63991   2.042   4.981   5.172  0.3465 -0.7292  0.1908
20793SOL    HW163992   2.096   4.961   5.249  1.6614 -0.1988 -0.5720
20793SOL    HW263993   2.100   5.030   5.114 -1.3012  0.9044 -0.1614
20794SOL     OW63994   1.087   4.897   8.084 -0.6273  0.2640 -0.5302
20794SOL    HW163995   1.075   4.954   8.159 -1.1912 -0.5620  0.0249
20794SOL    HW263996   1.181   4.875   8.086 -0.7139 -0.0912  0.1978
20795SOL     OW63997   3.500   3.589   7.719 -0.5352 -0.0576 -0.5630
20795SOL    HW163998   3.515   3.653   7.649 -0.8443  0.7995  0.1422
20795SOL    HW263999   3.409   3.602   7.744 -0.5000 -0.5437 -0.1645
20796SOL     OW64000   2.471   2.132   3.117 -0.1883  0.0884 -0.2126
20796SOL    HW164001   2.471   2.113   3.211  0.7527 -1.1855 -0.4346
20796SOL    HW264002   2.436   2.220   3.110  0.2971  0.4430  1.3971
20797SOL     OW64003   6.590   2.407   7.101 -0.1634 -0.8611 -1.0110
20797SOL    HW164004   6.555   2.489   7.066  0.2671 -0.4745 -0.5484
20797SOL    HW264005   6.538   2.389   7.179 -0.8372 -1.4968 -1.5927
20798SOL     OW64006   0.026   8.204   9.351  0.3133  0.4404  0.0334
20798SOL    HW164007   0.089   8.241   9.290  1.6463 -1.5928  0.0703
20798SOL    HW264008   0.061   8.224   9.438 -0.1611  1.0103  0.1003
20799SOL     OW64009   7.653   0.001   1.820 -0.4734 -0.0254  0.2325
20799SOL    HW164010   7.726  -0.059   1.835  0.2548  0.9897  0.8212
20799SOL    HW264011   7.582  -0.056   1.790  0.6654 -0.9766 -0.7762
20800SOL     OW64012   9.047   0.225   9.348 -0.2201  0.4550  0.4481
20800SOL    HW164013   8.953   0.242   9.350 -0.3794 -0.3723  0.4791
20800SOL    HW264014   9.059   0.164   9.275  0.2655  0.4362  0.5412
20801SOL     OW64015   8.059   5.319   1.935  0.5336  0.3194  0.1647
20801SOL    HW164016   8.131   5.364   1.892  0.4302 -0.0217 -0.3650
20801SOL    HW264017   7.988   5.383   1.935  1.0799  0.9624  1.4414
20802SOL     OW64018   1.530   2.545   7.598 -0.1856  0.3800 -0.1754
20802SOL    HW164019   1.606   2.506   7.556  0.1941 -0.1665  0.9780
20802SOL    HW264020   1.562   2.626   7.636 -0.1393  0.0955  0.4064
20803SOL     OW64021   0.760   1.052   6.304  0.6020  0.3703 -0.4968
20803SOL    HW164022   0.720   1.069   6.389  1.1727  0.0785 -0.1640
20803SOL    HW264023   0.843   1.101   6.306  1.3049 -0.7757 -0.3071
20804SOL     OW64024   8.850   5.559   0.824  0.4261 -0.1478 -0.0573
20804SOL    HW164025   8.834   5.466   0.843  1.3780 -0.1518  0.7784
20804SOL    HW264026   8.878   5.596   0.907 -0.6773  1.0875 -0.1984
20805SOL     OW64027   3.352   4.066   0.601  0.1893 -0.1399  0.7042
20805SOL    HW164028   3.273   4.068   0.654  0.3234 -1.4198  0.9783
20805SOL    HW264029   3.422   4.092   0.661 -0.0447  1.4309  0.3526
20806SOL     OW64030   6.849   7.827   8.316 -0.3345  0.0010 -0.5454
20806SOL    HW164031   6.869   7.882   8.240 -4.2551  1.5927 -0.6210
20806SOL    HW264032   6.755   7.838   8.330 -0.2346 -2.2094  3.0627
20807SOL     OW64033   5.408   9.565   0.866  0.6541 -0.3097 -0.2906
20807SOL    HW164034   5.382   9.586   0.776  1.2514 -1.1111 -0.6703
20807SOL    HW264035   5.474   9.496   0.856 -0.6964 -1.8425  0.8527
20808SOL     OW64036   1.638   4.473   7.253  0.2958 -0.1835 -0.2650
20808SOL    HW164037   1.609   4.400   7.308 -0.0130  0.2299  0.1351
20808SOL    HW264038   1.590   4.549   7.288  0.7367  0.2369 -0.5656
20809SOL     OW64039   7.673   8.399   9.553 -0.1916 -0.3768 -0.0395
20809SOL    HW164040   7.600   8.380   9.612 -0.4628 -2.6237 -1.0031
20809SOL    HW264041   7.675   8.326   9.492  2.8688 -0.3987 -0.0862
20810SOL     OW64042   6.481   2.170   7.513 -0.1829 -0.3607 -0.3974
20810SOL    HW164043   6.479   2.078   7.485  1.0950 -0.4813 -0.1782
20810SOL    HW264044   6.561   2.176   7.566 -0.6464  0.7129  0.1999
20811SOL     OW64045   0.369   0.005   5.510  0.2977  0.1757 -0.1490
20811SOL    HW164046   0.383   0.091   5.548  3.1234  0.3962 -1.4312
20811SOL    HW264047   0.401   0.013   5.420 -0.3063 -1.9666 -0.6163
20812SOL     OW64048   9.168   5.461   5.961 -0.1582  0.3880  0.1677
20812SOL    HW164049   9.261   5.462   5.941 -0.0536  0.8821  0.6481
20812SOL    HW264050   9.128   5.409   5.891  0.6440 -1.0282  0.7308
20813SOL     OW64051   8.174   7.978   5.555  0.3863  0.4312 -0.0973
20813SOL    HW164052   8.121   8.014   5.626 -0.1010 -0.2501 -0.1014
20813SOL    HW264053   8.117   7.914   5.513  1.2352 -0.3503 -0.0821
20814SOL     OW64054   6.213   5.081   7.750 -0.6459  0.7262 -0.0727
20814SOL    HW164055   6.171   5.097   7.835  0.7462  0.7440  0.6370
20814SOL    HW264056   6.205   5.164   7.703  0.6206  1.4912  0.9794
20815SOL     OW64057   2.859   2.166   2.176 -0.0703  0.0590  0.2899
20815SOL    HW164058   2.944   2.151   2.133  0.6406  1.2825  1.2114
20815SOL    HW264059   2.843   2.259   2.165 -0.7096  0.0645  1.1801
20816SOL     OW64060   8.294   4.644   4.623 -0.0355  0.5264  0.0723
20816SOL    HW164061   8.207   4.605   4.624  0.1108  0.1511 -0.6870
20816SOL    HW264062   8.326   4.630   4.533  1.2867 -0.4487  0.6529
20817SOL     OW64063   9.793   7.529   2.811  0.1961 -0.0227 -0.2535
20817SOL    HW164064   9.867   7.471   2.797 -0.5929 -1.1609  0.1233
20817SOL    HW264065   9.749   7.494   2.889 -2.4767 -1.3065 -2.1684
20818SOL     OW64066   5.632   4.105   9.212 -0.6611  0.0610 -0.1565
20818SOL    HW164067   5.619   4.010   9.213 -1.9524  0.1817  2.1056
20818SOL    HW264068   5.550   4.140   9.178 -0.4181  0.3865 -0.4089
20819SOL     OW64069   2.864   7.863   7.516 -0.4396 -0.1522  0.2847
20819SOL    HW164070   2.941   7.846   7.463 -2.2068  1.1980 -3.0437
20819SOL    HW264071   2.804   7.791   7.496 -1.6764  1.1089 -0.8578
20820SOL     OW64072   9.642   4.139   0.317 -0.3039  0.3493 -0.3178
20820SOL    HW164073   9.692   4.221   0.317  0.1966  0.1106 -2.8971
20820SOL    HW264074   9.558   4.161   0.357  0.0311  1.9652 -0.4686
20821SOL     OW64075   1.827   5.261   6.364  0.0108 -0.1124  0.7178
20821SOL    HW164076   1.866   5.319   6.298 -0.6658  0.4544  0.8082
20821SOL    HW264077   1.903   5.221   6.408  0.5838  2.0509  1.8521
20822SOL     OW64078   4.736   9.579   6.862  0.3245 -0.0267 -0.2871
20822SOL    HW164079   4.824   9.586   6.899  0.1325 -1.8722  0.6079
20822SOL    HW264080   4.749   9.546   6.773  0.5462 -0.0613 -0.2414
20823SOL     OW64081   2.063   9.285   5.690  0.0700  0.1395 -0.1266
20823SOL    HW164082   2.099   9.368   5.658  1.1850 -0.6323 -0.9441
20823SOL    HW264083   1.988   9.268   5.633 -0.2690  0.6576  0.1549
20824SOL     OW64084   2.976   1.055   4.345  0.0140  0.3086 -0.6951
20824SOL    HW164085   2.906   1.120   4.350 -0.4443 -0.0615 -1.9143
20824SOL    HW264086   2.997   1.035   4.436 -1.5090  0.3883 -0.3065
20825SOL     OW64087   6.985   9.355   5.555  0.0278 -0.0900  0.2012
20825SOL    HW164088   6.912   9.377   5.613  0.2992  2.8462 -0.4385
20825SOL    HW264089   7.061   9.400   5.592  0.4402  0.9654 -1.7536
20826SOL     OW64090   8.563   6.897   6.321  0.3070  0.4314 -0.1995
20826SOL    HW164091   8.497   6.929   6.382  0.5818  0.5327  0.0479
20826SOL    HW264092   8.588   6.974   6.270  0.4066  0.4433 -0.1324
20827SOL     OW64093   7.303   0.541   2.974  0.3288  0.1955  0.0189
20827SOL    HW164094   7.325   0.503   3.059  0.5101  1.9082  0.7750
20827SOL    HW264095   7.277   0.631   2.993 -0.1062  0.4766 -1.6891
20828SOL     OW64096   5.541   4.624   0.441 -0.1706  0.3475 -0.5883
20828SOL    HW164097   5.495   4.642   0.359 -2.0943  1.9180  0.7433
20828SOL    HW264098   5.521   4.532   0.460  1.5489 -0.5185 -2.5458
20829SOL     OW64099   1.883   2.432   5.445 -0.3493  0.6258  0.5372
20829SOL    HW164100   1.800   2.430   5.494 -0.2981 -1.9107  0.6472
20829SOL    HW264101   1.901   2.525   5.434 -4.3225  1.3848 -1.3845
20830SOL     OW64102   4.001   0.164   5.321  0.1974  0.0022  0.0777
20830SOL    HW164103   4.067   0.158   5.390 -1.9157  0.0380  2.2153
20830SOL    HW264104   3.993   0.075   5.287  1.9132  0.1593 -0.8127
20831SOL     OW64105   5.194   5.128   6.896  0.3772  0.2088 -0.0768
20831SOL    HW164106   5.207   5.073   6.973  1.0838  1.6284  0.8687
20831SOL    HW264107   5.119   5.089   6.850  0.4174 -1.0949  0.9245
20832SOL     OW64108   4.312   1.478   1.246  0.1858  0.2711 -0.0347
20832SOL    HW164109   4.329   1.387   1.270  0.1247  0.3133  0.1658
20832SOL    HW264110   4.383   1.500   1.185  0.6225  0.3249  0.4917
20833SOL     OW64111   7.068   8.666   4.084 -0.4338 -0.6274 -0.3089
20833SOL    HW164112   7.162   8.679   4.093 -0.1958  1.4072 -4.0479
20833SOL    HW264113   7.055   8.572   4.095  2.1092 -1.0288 -0.2721
20834SOL     OW64114   2.611   2.101   2.272 -0.2464  0.3500 -0.8850
20834SOL    HW164115   2.602   2.027   2.332  0.7096  2.0101  1.4714
20834SOL    HW264116   2.700   2.092   2.236  0.9310  1.6497  1.4502
20835SOL     OW64117   2.807   4.824   2.440  0.3438  0.2131 -0.6549
20835SOL    HW164118   2.778   4.819   2.531 -0.6749  0.7500 -0.9353
20835SOL    HW264119   2.730   4.797   2.390  1.4729 -2.0550 -1.3060
20836SOL     OW64120   1.389   0.230   4.368 -0.2249  0.1153 -0.6454
20836SOL    HW164121   1.362   0.245   4.277 -1.5240 -1.1165 -0.4883
20836SOL    HW264122   1.372   0.137   4.383 -1.2716  0.5778  1.2676
20837SOL     OW64123   3.199   5.352   9.787  0.2093  0.4841  0.4476
20837SOL    HW164124   3.117   5.319   9.752  0.3624  0.4317  0.1315
20837SOL    HW264125   3.247   5.383   9.710  2.1413 -3.0211  0.0531
20838SOL     OW64126   0.900   2.039   8.250 -0.0322  0.0775 -0.2516
20838SOL    HW164127   0.980   2.014   8.296  0.8666  1.8237 -0.7697
20838SOL    HW264128   0.845   1.960   8.253  0.6581 -0.3987  2.2963
20839SOL     OW64129   0.972   3.710   6.219  0.6182 -0.1439 -0.2033
20839SOL    HW164130   0.994   3.634   6.273  1.8430 -0.5866 -1.2659
20839SOL    HW264131   0.896   3.749   6.262  2.4259  0.4731  2.7608
20840SOL     OW64132   0.742   6.385   2.084  0.8992 -0.2682  0.5320
20840SOL    HW164133   0.751   6.456   2.020  0.1629  0.2800  1.0171
20840SOL    HW264134   0.800   6.316   2.052  1.4100  0.4427 -0.1044
20841SOL     OW64135   6.145   9.593   6.776  0.4303  0.2609 -0.0353
20841SOL    HW164136   6.058   9.582   6.737  0.1636  0.3771  0.5255
20841SOL    HW264137   6.167   9.508   6.813  0.8830  0.0226 -0.8318
20842SOL     OW64138   3.797   5.171   4.423  0.5188 -0.1645 -0.2302
20842SOL    HW164139   3.709   5.156   4.387  0.9354 -0.7678 -1.0285
20842SOL    HW264140   3.792   5.141   4.513 -0.3758  0.7731  0.0561
20843SOL     OW64141   8.429   8.469   0.597  1.0212 -0.3220 -0.2584
20843SOL    HW164142   8.450   8.450   0.506 -0.4328 -0.1822 -0.6482
20843SOL    HW264143   8.376   8.549   0.594 -0.5877 -1.3003  0.4905
20844SOL     OW64144   1.848   1.871   7.041  0.3110 -0.4247 -0.2005
20844SOL    HW164145   1.756   1.850   7.057  0.7845 -2.1089  0.6036
20844SOL    HW264146   1.892   1.848   7.122  1.2967  1.6747 -0.0695
20845SOL     OW64147   3.884   7.144   6.601 -0.1631  0.4757  0.6065
20845SOL    HW164148   3.872   7.136   6.506  0.3999  1.5046  0.4403
20845SOL    HW264149   3.940   7.070   6.624  0.2304  0.5832  0.0272
20846SOL     OW64150   6.317   4.114   1.573 -0.5981  0.9285  0.1768
20846SOL    HW164151   6.380   4.044   1.589  1.0125  1.9426 -1.4036
20846SOL    HW264152   6.328   4.174   1.647  2.7430  2.7384 -1.5772
20847SOL     OW64153   2.317   6.985   5.524  0.1943 -0.2480 -0.6727
20847SOL    HW164154   2.263   7.055   5.560 -1.4891 -0.6509 -2.2515
20847SOL    HW264155   2.333   7.012   5.433  0.2643 -1.4654 -1.0451
20848SOL     OW64156   7.623   9.604   5.420 -0.5467  0.1561  0.0138
20848SOL    HW164157   7.570   9.666   5.470 -1.3835 -1.3552  1.0838
20848SOL    HW264158   7.575   9.591   5.338 -1.1449 -0.1793  0.4116
20849SOL     OW64159   8.440   5.433   1.257 -0.2611 -0.1235  0.4643
20849SOL    HW164160   8.439   5.354   1.312 -0.0415 -0.3352  0.1635
20849SOL    HW264161   8.484   5.406   1.177  1.4053  0.7687  1.0408
20850SOL     OW64162   1.273   9.739   7.238 -0.0927 -0.3734 -0.0706
20850SOL    HW164163   1.183   9.721   7.267 -0.2426  1.3493  0.6488
20850SOL    HW264164   1.264   9.810   7.175  0.7426 -0.4455 -0.2827
20851SOL     OW64165   4.766   1.005   2.676  0.0398 -0.2050  0.5276
20851SOL    HW164166   4.803   0.967   2.597  1.5513  0.2203  0.9992
20851SOL    HW264167   4.679   0.966   2.684  0.3949 -1.2523 -0.6133
20852SOL     OW64168   0.846   3.942   8.019  0.1429  0.3893  0.3727
20852SOL    HW164169   0.812   3.853   8.028  0.1735  0.0223 -2.4091
20852SOL    HW264170   0.774   3.998   8.049 -1.2498 -0.5113 -1.1113
20853SOL     OW64171   3.716   1.129   5.430  0.0176 -0.1526 -0.2111
20853SOL    HW164172   3.767   1.088   5.360  0.8030 -1.9192  1.2964
20853SOL    HW264173   3.700   1.058   5.492 -1.2897  1.1795  1.0564
20854SOL     OW64174   3.816   6.684   4.748 -0.0052 -0.1257  0.1123
20854SOL    HW164175   3.896   6.632   4.751 -0.1984 -0.4091  0.4323
20854SOL    HW264176   3.846   6.772   4.729  0.2528 -0.5175 -1.4109
20855SOL     OW64177   8.518   1.819   2.074  0.1720  0.0487 -0.7256
20855SOL    HW164178   8.533   1.860   2.159 -0.8949  0.6709 -0.8229
20855SOL    HW264179   8.438   1.767   2.086  2.1460 -3.1945 -0.2094
20856SOL     OW64180   8.982   2.208   8.889  0.1609  0.3016 -0.0763
20856SOL    HW164181   9.015   2.122   8.862 -0.9202  0.2197 -1.2585
20856SOL    HW264182   8.951   2.248   8.808 -1.9883  0.6229  0.8172
20857SOL     OW64183   7.966   0.976   4.634 -1.0437 -0.1737  0.1883
20857SOL    HW164184   7.886   0.965   4.582 -1.0964  0.7090  0.0643
20857SOL    HW264185   8.037   0.960   4.572 -1.0467  2.6243 -0.7173
20858SOL     OW64186   4.324   2.633   9.152 -0.5126 -0.3065 -0.4187
20858SOL    HW164187   4.411   2.621   9.116 -0.6904 -1.4665 -0.5250
20858SOL    HW264188   4.282   2.547   9.143 -1.1337 -0.1992  1.0098
20859SOL     OW64189   8.642   4.190   0.907  0.3161 -0.1491 -0.6630
20859SOL    HW164190   8.653   4.127   0.979 -2.3351  2.0640  1.9676
20859SOL    HW264191   8.599   4.139   0.838 -2.0415 -1.3373  1.4807
20860SOL     OW64192   2.535   9.380   1.906  0.3271 -0.3443  0.5252
20860SOL    HW164193   2.515   9.430   1.827  0.1385 -0.7020  0.3465
20860SOL    HW264194   2.630   9.383   1.913  0.2751  0.7725  0.9947
20861SOL     OW64195   5.818   0.069   2.637  0.2818  0.0756  0.3828
20861SOL    HW164196   5.846   0.080   2.546 -0.9203  1.9352  0.1829
20861SOL    HW264197   5.896   0.087   2.689  0.6857  0.1678 -0.2491
20862SOL     OW64198   1.741   0.782   1.617  0.2124  0.1849 -0.0151
20862SOL    HW164199   1.664   0.814   1.663  0.6360  1.6562 -0.2549
20862SOL    HW264200   1.712   0.702   1.574 -0.7306 -0.1366  1.1746
20863SOL     OW64201   6.378   2.911   7.899 -0.2558  0.2365  0.0135
20863SOL    HW164202   6.400   2.904   7.806 -0.6021 -1.8669  0.0261
20863SOL    HW264203   6.331   2.993   7.907  0.3682  0.7834 -1.5369
20864SOL     OW64204   4.553   9.317   8.159 -0.0610 -0.3403 -0.1030
20864SOL    HW164205   4.628   9.258   8.150  1.5574  1.3885  1.2805
20864SOL    HW264206   4.477   9.260   8.147  1.4276 -2.0738 -2.1547
20865SOL     OW64207   6.448   3.799   8.581 -0.5169  0.3785 -0.0297
20865SOL    HW164208   6.418   3.845   8.503 -2.0762  1.8526  1.3557
20865SOL    HW264209   6.372   3.748   8.610 -0.1216  0.2396  0.7972
20866SOL     OW64210   9.292   2.642   3.934  0.5119 -0.0484 -0.1920
20866SOL    HW164211   9.284   2.579   3.862  0.3227 -0.6274  0.3339
20866SOL    HW264212   9.220   2.703   3.920 -0.1167 -0.7269  0.0595
20867SOL     OW64213   0.240   8.438   4.047 -0.0283  0.2828 -0.2258
20867SOL    HW164214   0.240   8.345   4.022  0.2921  0.1860  0.1130
20867SOL    HW264215   0.177   8.479   3.989  0.6401  0.0531 -1.1315
20868SOL     OW64216   9.609   5.948   1.065 -0.0686 -0.6595 -0.0643
20868SOL    HW164217   9.541   5.930   1.130  0.9239 -1.4079  0.7971
20868SOL    HW264218   9.582   6.030   1.024 -0.1136  0.5226  2.1580
20869SOL     OW64219   7.465   2.060   8.306 -0.1776  0.0240  0.0928
20869SOL    HW164220   7.551   2.025   8.329 -0.2811 -0.9941 -0.9733
20869SOL    HW264221   7.409   1.983   8.296 -1.2499  0.6750  0.8502
20870SOL     OW64222   2.896   9.286   6.397  0.2116 -0.3714 -0.2354
20870SOL    HW164223   2.810   9.249   6.378 -0.6342  0.5677  1.4814
20870SOL    HW264224   2.956   9.241   6.338 -1.5341 -0.6612 -1.8654
20871SOL     OW64225   2.242   1.997   8.824  0.4406 -0.0568 -0.0833
20871SOL    HW164226   2.274   2.032   8.907 -0.9129  1.2534 -0.0676
20871SOL    HW264227   2.150   1.977   8.841  0.6545 -1.7284 -0.7135
20872SOL     OW64228   1.550   5.553   4.572  0.4104  0.7141  0.0684
20872SOL    HW164229   1.568   5.504   4.652  0.0168  0.8159  0.2228
20872SOL    HW264230   1.619   5.526   4.511  0.5351  0.4086  0.3414
20873SOL     OW64231   4.839   4.391   1.599  0.2123 -0.0811 -0.0749
20873SOL    HW164232   4.911   4.408   1.538 -1.1962  2.3966 -1.1898
20873SOL    HW264233   4.847   4.460   1.665 -0.9011  0.0169 -0.0231
20874SOL     OW64234   8.061   8.965   6.659  0.1480 -0.2737  0.4839
20874SOL    HW164235   8.062   9.028   6.731  1.4757 -0.4795  0.6713
20874SOL    HW264236   8.127   8.899   6.683  1.2780  0.1166 -1.2889
20875SOL     OW64237   3.283   1.065   6.693 -0.3267  0.3399  0.1255
20875SOL    HW164238   3.257   0.998   6.630  2.0478  0.4415 -1.0819
20875SOL    HW264239   3.290   1.017   6.776 -1.2702 -0.3025 -0.1484
20876SOL     OW64240   4.753   6.363   0.310  0.1707  0.4558 -0.3622
20876SOL    HW164241   4.701   6.411   0.245  1.7237  1.5232 -0.8715
20876SOL    HW264242   4.730   6.271   0.296 -1.6294  0.8910 -0.4927
20877SOL     OW64243   3.393   2.915   5.939  0.2363 -0.0904 -0.1699
20877SOL    HW164244   3.458   2.978   5.908 -0.7000  0.7393 -0.5420
20877SOL    HW264245   3.427   2.830   5.914  0.9045  0.3707 -0.8743
20878SOL     OW64246   5.070   5.329   7.311  0.1707 -0.1184 -0.0114
20878SOL    HW164247   5.097   5.239   7.328  1.3563  0.5607  2.1459
20878SOL    HW264248   4.991   5.322   7.257  0.0134 -2.4397  0.4505
20879SOL     OW64249   3.598   5.741   0.429 -0.3531  0.5168  0.1769
20879SOL    HW164250   3.578   5.694   0.348  0.2673  1.1478 -0.3528
20879SOL    HW264251   3.513   5.766   0.463 -0.7829 -1.9020  1.0472
20880SOL     OW64252   1.471   7.701   7.944  0.3259  0.8923  0.1498
20880SOL    HW164253   1.395   7.738   7.899  0.3457  1.0000  0.2056
20880SOL    HW264254   1.542   7.708   7.880  0.5843  1.9225  0.5282
20881SOL     OW64255   1.839   1.484   5.209  0.7119  0.5431 -0.2488
20881SOL    HW164256   1.752   1.506   5.244  0.9188 -0.4210  0.9376
20881SOL    HW264257   1.855   1.551   5.143 -0.2905  1.6595  0.5779
20882SOL     OW64258   7.622   8.908   6.698 -0.9891  0.0656  0.0345
20882SOL    HW164259   7.582   8.823   6.679  1.7506 -1.5231  0.7750
20882SOL    HW264260   7.695   8.914   6.636 -1.2425  2.0139 -0.1382
20883SOL     OW64261   6.267   6.312   4.012 -0.0786  0.0420 -0.3850
20883SOL    HW164262   6.268   6.407   4.026  0.6577 -0.2141  1.6419
20883SOL    HW264263   6.340   6.297   3.952 -0.4102  0.7784 -0.9926
20884SOL     OW64264   9.799   3.803   5.960  0.4548 -0.0132  0.2358
20884SOL    HW164265   9.857   3.783   6.033  1.1419 -0.5848 -0.4443
20884SOL    HW264266   9.845   3.871   5.911 -0.8640  1.7473  1.3282
20885SOL     OW64267   4.336   5.341   4.302 -0.0422  0.3906 -0.6206
20885SOL    HW164268   4.302   5.428   4.321 -1.8132 -0.1889 -0.9287
20885SOL    HW264269   4.335   5.295   4.386 -0.6077  0.1991 -0.7249
20886SOL     OW64270   3.395   2.705   0.190 -0.0267  0.7093 -0.0010
20886SOL    HW164271   3.381   2.773   0.124 -1.2987 -0.6365 -1.1667
20886SOL    HW264272   3.321   2.645   0.180  0.6245 -0.4312  1.5440
20887SOL     OW64273   7.721   3.007   4.874  0.0094 -0.0205 -0.0234
20887SOL    HW164274   7.798   2.955   4.897 -0.9492 -1.7284 -0.4442
20887SOL    HW264275   7.650   2.942   4.869 -0.8709  1.0262 -2.5286
20888SOL     OW64276   2.324   4.650   5.090  0.1704  0.5440 -0.1365
20888SOL    HW164277   2.280   4.641   5.175 -0.4462  0.3703 -0.4656
20888SOL    HW264278   2.254   4.639   5.026  0.7711 -0.1862 -0.6861
20889SOL     OW64279   9.178   1.652   6.115  0.0997  0.6146  0.4862
20889SOL    HW164280   9.222   1.631   6.197  0.6869 -1.7066 -0.3720
20889SOL    HW264281   9.130   1.733   6.134  4.5564  3.3900  1.5239
20890SOL     OW64282   9.182   6.515   4.956 -0.5434  0.0363  0.2239
20890SOL    HW164283   9.193   6.610   4.963  0.2734  0.0551 -1.0469
20890SOL    HW264284   9.249   6.488   4.893 -0.3794 -1.4732  1.0150
20891SOL     OW64285   2.830   8.816   1.503 -0.3657  0.3668 -0.1019
20891SOL    HW164286   2.818   8.861   1.587 -1.0768  0.2905 -0.1559
20891SOL    HW264287   2.924   8.813   1.491 -0.1168 -1.3822  1.6869
20892SOL     OW64288   5.171   8.730   1.151  0.0481  0.0882  0.2307
20892SOL    HW164289   5.173   8.774   1.236 -1.6303  0.4299  0.1249
20892SOL    HW264290   5.083   8.693   1.145  0.4472 -0.7413 -0.9675
20893SOL     OW64291   9.335   3.053   5.152 -0.7896 -0.2340 -0.0505
20893SOL    HW164292   9.321   2.958   5.153 -0.6233 -0.3002  2.3417
20893SOL    HW264293   9.422   3.064   5.191 -1.3634  0.9415  0.9525
20894SOL     OW64294   5.832   8.065   7.891 -0.9070 -0.1192  0.3987
20894SOL    HW164295   5.887   8.142   7.872 -1.9706  0.8737  1.2033
20894SOL    HW264296   5.873   7.994   7.842  0.6242  0.7630  0.3341
20895SOL     OW64297   0.147   4.216   4.998 -0.2845  0.1504  0.2377
20895SOL    HW164298   0.062   4.241   4.960  0.0286  0.1824 -0.4611
20895SOL    HW264299   0.178   4.145   4.942  1.3487  1.8493 -1.1601
20896SOL     OW64300   7.938   9.711   3.743 -0.4486  0.3323 -0.3090
20896SOL    HW164301   7.919   9.647   3.812  0.4717 -0.1909 -0.5328
20896SOL    HW264302   8.032   9.727   3.750 -0.3040  0.1246 -1.5681
20897SOL     OW64303   8.295   5.526   7.279 -0.3750 -0.1830  0.6143
20897SOL    HW164304   8.227   5.495   7.218  0.0128 -2.0306  1.0841
20897SOL    HW264305   8.350   5.584   7.225 -1.8765  0.7810  0.0457
20898SOL     OW64306   5.686   5.020   5.722  0.3074  0.2295 -0.3199
20898SOL    HW164307   5.723   4.973   5.647  1.5711  0.2101  0.2893
20898SOL    HW264308   5.761   5.066   5.760 -0.8469  2.6354 -0.7942
20899SOL     OW64309   8.490   1.348   6.806  0.0571  0.2098 -0.3344
20899SOL    HW164310   8.488   1.434   6.764  0.5221 -0.1983 -1.2062
20899SOL    HW264311   8.453   1.364   6.893  0.0086  1.2638 -0.5284
20900SOL     OW64312   6.770   1.216   7.077 -0.0792  0.1525 -0.0932
20900SOL    HW164313   6.765   1.222   6.981 -0.4156  0.2437 -0.0734
20900SOL    HW264314   6.678   1.209   7.105  0.0584 -0.5768  0.1824
20901SOL     OW64315   5.125   0.617   6.483 -0.6216 -0.2891  0.1739
20901SOL    HW164316   5.200   0.676   6.487 -1.1250  0.3898 -0.0153
20901SOL    HW264317   5.128   0.567   6.565 -0.5039  0.4185  0.6112
20902SOL     OW64318   3.594   5.349   7.391 -0.3776 -0.0176 -0.1976
20902SOL    HW164319   3.607   5.273   7.447 -1.5502 -0.1199 -0.0512
20902SOL    HW264320   3.624   5.423   7.444 -1.2667 -0.1373  0.4901
20903SOL     OW64321   2.701   8.638   9.118  0.3285 -0.4595 -0.3583
20903SOL    HW164322   2.789   8.648   9.153  1.1378 -1.4239 -2.0242
20903SOL    HW264323   2.691   8.544   9.102 -1.3233 -0.4880  0.5510
20904SOL     OW64324   2.076   7.816   9.081  0.3745  0.5411 -0.0416
20904SOL    HW164325   2.037   7.792   8.997  1.8638  1.8748 -1.1728
20904SOL    HW264326   2.055   7.909   9.092 -0.0073  0.3268  1.2023
20905SOL     OW64327   9.440   8.485   5.314  0.5827 -0.6721 -0.4119
20905SOL    HW164328   9.377   8.523   5.375  0.5298  1.7650 -1.8575
20905SOL    HW264329   9.515   8.460   5.369 -0.7592 -1.6692  1.0438
20906SOL     OW64330   0.907   7.682   9.099 -0.0816 -0.1819 -0.9060
20906SOL    HW164331   0.890   7.768   9.061  0.7800  0.2617 -0.3115
20906SOL    HW264332   0.820   7.648   9.121 -0.3634  1.1620  0.2059
20907SOL     OW64333   8.367   7.226   8.021  0.1893 -0.3702  0.3796
20907SOL    HW164334   8.326   7.194   7.940 -2.1858  1.7404  0.5934
20907SOL    HW264335   8.455   7.191   8.019 -0.6465 -2.6594 -1.7566
20908SOL     OW64336   7.657   5.233   4.700 -0.5670 -0.2922 -0.5286
20908SOL    HW164337   7.654   5.175   4.625  2.8419 -1.4388  0.0479
20908SOL    HW264338   7.590   5.199   4.759 -0.5166 -1.9574 -1.3637
20909SOL     OW64339   4.549   6.276   8.100 -0.2514 -0.1738  0.2682
20909SOL    HW164340   4.573   6.369   8.101 -1.5687  0.2611 -1.8058
20909SOL    HW264341   4.631   6.230   8.115  0.7744  1.3148 -0.4996
20910SOL     OW64342   0.379   5.887   0.033  0.0455 -0.1187 -0.9625
20910SOL    HW164343   0.356   5.974   0.065  0.5000 -0.0230 -0.8924
20910SOL    HW264344   0.352   5.886  -0.058 -0.6513 -0.1635 -0.7575
20911SOL     OW64345   2.558   9.726   4.549  0.2596  0.2308  0.0166
20911SOL    HW164346   2.565   9.786   4.474 -1.8729  0.9593  0.3307
20911SOL    HW264347   2.580   9.780   4.625 -1.5957  0.6707  0.2928
20912SOL     OW64348   0.076   4.034   3.974 -0.1467 -0.2537 -0.1694
20912SOL    HW164349   0.159   4.026   4.021 -1.2149 -3.0730  1.5170
20912SOL    HW264350   0.032   4.109   4.014  1.3397  0.9308 -0.7106
20913SOL     OW64351   0.958   0.451   3.708  0.4524  0.3341 -0.0015
20913SOL    HW164352   1.029   0.483   3.652 -0.9128 -0.1065 -2.1348
20913SOL    HW264353   0.881   0.501   3.679 -0.5900 -0.9403  0.4926
20914SOL     OW64354   9.217   2.995   5.828 -0.6941 -0.4625  0.5939
20914SOL    HW164355   9.207   2.927   5.895  1.8741 -1.4992  0.0590
20914SOL    HW264356   9.260   3.067   5.874  0.3170 -0.8515  0.2860
20915SOL     OW64357   8.822   1.126   3.242 -0.4261 -0.4932 -0.2976
20915SOL    HW164358   8.825   1.220   3.222  0.3334 -0.3132  0.5912
20915SOL    HW264359   8.734   1.111   3.276 -0.3189  0.0560  0.2422
20916SOL     OW64360   2.306   6.816   6.562  0.1635 -0.1404  0.1044
20916SOL    HW164361   2.296   6.864   6.644 -0.3236 -2.6126  1.6112
20916SOL    HW264362   2.222   6.771   6.551  0.1821  0.2179 -1.8417
20917SOL     OW64363   4.078   6.524   6.637  0.3217  0.5919 -0.5017
20917SOL    HW164364   4.122   6.562   6.713  0.1411 -1.7438  0.8376
20917SOL    HW264365   4.138   6.456   6.606 -0.0267  0.8844 -1.9139
20918SOL     OW64366   8.580   0.569   3.742 -0.0235  0.4186 -0.2318
20918SOL    HW164367   8.591   0.479   3.774  0.4801  0.6559  0.2671
20918SOL    HW264368   8.647   0.578   3.674 -0.0936  0.4089 -0.3026
20919SOL     OW64369   2.543   4.853   8.935  0.0939 -0.1877 -1.3375
20919SOL    HW164370   2.450   4.837   8.951  0.0730 -0.8687 -2.0409
20919SOL    HW264371   2.578   4.767   8.909  0.5717  0.3854 -2.6648
20920SOL     OW64372   2.407   3.071   3.871  0.2516  0.0895  0.4788
20920SOL    HW164373   2.478   3.029   3.822  0.5003  1.5472 -0.4664
20920SOL    HW264374   2.445   3.091   3.956  0.1031 -1.6227  0.9793
20921SOL     OW64375   4.871   7.229   2.897 -0.2362  0.1585  0.2932
20921SOL    HW164376   4.847   7.210   2.806 -0.3570  0.2188  0.3136
20921SOL    HW264377   4.888   7.142   2.935  1.8019  0.2242 -0.3374
20922SOL     OW64378   8.096   0.144   5.758  0.0903 -0.1839 -0.6322
20922SOL    HW164379   8.040   0.076   5.722  0.8567 -1.7226  0.9240
20922SOL    HW264380   8.173   0.144   5.700  0.5796 -1.4718 -0.0341
20923SOL     OW64381   3.975   7.046   5.472  0.0021 -0.0187  0.3103
20923SOL    HW164382   3.983   7.064   5.566  2.4604  0.4121  0.0909
20923SOL    HW264383   4.056   7.001   5.449 -0.0577  0.8250 -1.7946
20924SOL     OW64384   1.190   9.212   7.169  0.3555 -0.4174 -0.0138
20924SOL    HW164385   1.191   9.299   7.131  0.6016 -0.7339 -0.7541
20924SOL    HW264386   1.119   9.166   7.124  0.2713 -0.6272  0.3200
20925SOL     OW64387   0.453   4.436   4.983  0.1929  0.3182 -0.4636
20925SOL    HW164388   0.463   4.526   5.014  1.4259  0.0643 -0.0840
20925SOL    HW264389   0.532   4.418   4.933  0.3722 -0.8326  0.1851
20926SOL     OW64390   1.624   9.159   5.735 -0.0562 -0.1632 -0.3438
20926SOL    HW164391   1.631   9.233   5.675  3.0091 -0.6594 -0.7252
20926SOL    HW264392   1.641   9.082   5.681  0.9390 -0.7802  0.8130
20927SOL     OW64393   1.372   3.915   7.295  1.0682 -0.0337  0.5356
20927SOL    HW164394   1.416   3.998   7.310  0.0982  0.1806  2.5464
20927SOL    HW264395   1.305   3.910   7.364 -3.4388  0.5780 -3.2393
20928SOL     OW64396   3.106   1.685   6.181 -0.5022  0.2308 -0.0773
20928SOL    HW164397   3.148   1.599   6.181  2.6729  1.6191  1.6101
20928SOL    HW264398   3.096   1.707   6.088  1.6688 -0.6678 -0.5832
20929SOL     OW64399   9.004   9.196   6.558  0.1527 -0.3160 -0.4314
20929SOL    HW164400   8.981   9.246   6.479 -1.8195 -0.4093  0.0202
20929SOL    HW264401   8.923   9.150   6.581 -0.0421  1.3613  2.8364
20930SOL     OW64402   9.747   8.172   0.415  0.6037 -0.3985  0.1706
20930SOL    HW164403   9.724   8.175   0.508  0.6936  1.3550  0.1675
20930SOL    HW264404   9.834   8.213   0.411  0.6398 -0.5559 -0.6707
20931SOL     OW64405   3.883   2.328   1.574  0.0953 -0.7010 -0.0421
20931SOL    HW164406   3.839   2.388   1.635  0.1718 -0.2070 -0.4672
20931SOL    HW264407   3.862   2.362   1.487 -0.7816 -1.9381 -0.3382
20932SOL     OW64408   5.719   7.130   2.131  0.1692 -0.1203 -0.2259
20932SOL    HW164409   5.722   7.063   2.063 -0.6089 -1.2401  0.8104
20932SOL    HW264410   5.668   7.091   2.202  0.5046  1.2145  0.8008
20933SOL     OW64411   3.034   4.371   0.278 -0.7003 -0.5758 -0.3028
20933SOL    HW164412   3.111   4.344   0.328  1.5835 -0.1530 -3.2899
20933SOL    HW264413   3.008   4.293   0.230 -1.2478 -0.3303 -0.4200
20934SOL     OW64414   6.887   4.574   4.556  0.4910  0.1861  0.8573
20934SOL    HW164415   6.798   4.609   4.553  0.2279 -0.5169  0.0817
20934SOL    HW264416   6.938   4.641   4.601 -0.4904  0.4652  1.6030
20935SOL     OW64417   3.086   2.336   0.808  0.0230 -0.1219 -0.5113
20935SOL    HW164418   3.045   2.251   0.793  0.2557 -0.4880  0.8029
20935SOL    HW264419   3.027   2.399   0.767 -1.4900 -0.6974  0.6977
20936SOL     OW64420   9.129   7.103   0.114 -0.0648  0.3439  0.2368
20936SOL    HW164421   9.165   7.059   0.191 -1.4357 -1.9885 -0.3462
20936SOL    HW264422   9.046   7.140   0.143 -1.1512 -1.5333 -0.2914
20937SOL     OW64423   5.778   1.922   8.782  0.6042  0.4742 -0.0184
20937SOL    HW164424   5.783   1.955   8.692  1.1968  1.8472  0.4846
20937SOL    HW264425   5.687   1.936   8.808  0.7293  1.2860  0.0123
20938SOL     OW64426   0.436   8.012   9.288  0.9232 -0.3548 -0.1539
20938SOL    HW164427   0.481   7.989   9.206 -0.6055  0.4345 -1.2669
20938SOL    HW264428   0.343   8.008   9.266  0.5040  1.3719  1.1328
20939SOL     OW64429   4.945   7.480   6.959  0.6425  0.2361 -0.2325
20939SOL    HW164430   4.978   7.528   7.035 -2.4318  0.7706  0.9353
20939SOL    HW264431   4.934   7.390   6.990 -0.4474  0.4149 -0.0709
20940SOL     OW64432   2.624   0.532   0.357 -0.0234  0.3434  0.4471
20940SOL    HW164433   2.659   0.457   0.406  0.5996 -0.1978 -0.7915
20940SOL    HW264434   2.546   0.558   0.406  0.3154 -0.4818  1.4551
20941SOL     OW64435   9.638   2.804   2.955 -0.0465  0.3300 -0.3146
20941SOL    HW164436   9.720   2.757   2.938  0.5111  1.6183 -1.3360
20941SOL    HW264437   9.649   2.839   3.043  0.5859  0.6329 -0.5051
20942SOL     OW64438   6.181   4.065   0.657  0.1295 -0.2718 -0.2246
20942SOL    HW164439   6.192   4.158   0.674 -0.4027 -0.0747 -0.8871
20942SOL    HW264440   6.154   4.027   0.741  1.0320  0.0386  0.2208
20943SOL     OW64441   8.962   7.621   7.805  0.0805 -0.0193  0.0413
20943SOL    HW164442   8.988   7.625   7.713  1.7666 -1.7009  0.3863
20943SOL    HW264443   8.868   7.608   7.802 -0.1066  1.2393 -1.3936
20944SOL     OW64444   3.878   5.723   3.193  0.5647 -0.1024  0.0678
20944SOL    HW164445   3.792   5.697   3.228  1.0056 -0.7646  0.6899
20944SOL    HW264446   3.871   5.706   3.099 -0.4860  1.2867 -0.1251
20945SOL     OW64447   7.585   3.772   4.274 -0.2251 -0.1776 -0.2830
20945SOL    HW164448   7.542   3.731   4.349 -3.3532 -0.1912 -1.9333
20945SOL    HW264449   7.574   3.710   4.202  1.8464  0.2492 -1.0345
20946SOL     OW64450   6.563   9.326   2.193 -0.7830  0.3986  0.5615
20946SOL    HW164451   6.608   9.311   2.110  1.6921  0.3067  1.8361
20946SOL    HW264452   6.472   9.304   2.175  0.0104 -1.5378 -1.6149
20947SOL     OW64453   3.289   6.031   7.931  0.2674  0.9622  0.0161
20947SOL    HW164454   3.381   6.025   7.958 -0.1010 -1.3226  1.0096
20947SOL    HW264455   3.281   5.968   7.859 -0.4695  1.3912 -0.2956
20948SOL     OW64456   1.099   1.917   3.045  0.3171  0.9455 -0.4017
20948SOL    HW164457   1.125   2.009   3.039 -0.0515  1.0689 -0.1440
20948SOL    HW264458   1.107   1.884   2.955 -0.4421  1.4747 -0.6792
20949SOL     OW64459   7.864   5.909   9.021  0.6338 -0.3353  0.4028
20949SOL    HW164460   7.829   5.961   9.093  0.9980 -0.0013  0.3413
20949SOL    HW264461   7.804   5.926   8.948  0.1331 -0.8515  0.6804
20950SOL     OW64462   4.079   5.166   5.234  0.2149  0.6632 -0.1169
20950SOL    HW164463   3.984   5.155   5.240  0.1151  0.9518 -1.0812
20950SOL    HW264464   4.105   5.118   5.156  0.8339  0.7888 -0.0005
20951SOL     OW64465   3.160   5.453   4.256  0.4163  0.1350 -0.4902
20951SOL    HW164466   3.243   5.452   4.304 -0.6164 -2.9743  1.5218
20951SOL    HW264467   3.106   5.517   4.303  0.8373  0.2799 -0.1948
20952SOL     OW64468   5.566   4.895   2.859 -0.4320 -0.1191  0.4741
20952SOL    HW164469   5.551   4.989   2.849  0.7664  0.0143 -0.1776
20952SOL    HW264470   5.604   4.867   2.776 -1.4773 -1.3515  0.3639
20953SOL     OW64471   1.460   7.152   3.621 -0.0606  0.2341 -0.1294
20953SOL    HW164472   1.411   7.125   3.699 -0.6109  0.6358 -0.3361
20953SOL    HW264473   1.394   7.157   3.552  0.6032 -1.3243 -0.9366
20954SOL     OW64474   5.432   3.843   0.711  0.1281 -0.5873  0.3145
20954SOL    HW164475   5.509   3.860   0.657 -1.6122  0.1480 -2.1574
20954SOL    HW264476   5.423   3.921   0.766 -0.1598  0.4366 -1.1291
20955SOL     OW64477   7.697   3.048   1.633  0.1859 -0.8436  0.1194
20955SOL    HW164478   7.635   3.066   1.563 -0.2651  2.3733  1.1585
20955SOL    HW264479   7.782   3.042   1.589 -0.1861  0.3169 -0.8246
20956SOL     OW64480   0.532   9.423   3.186  0.3406 -0.2322 -0.5351
20956SOL    HW164481   0.486   9.472   3.254  1.4722  1.0447 -0.6443
20956SOL    HW264482   0.487   9.338   3.183 -0.1520 -0.0896  1.3478
20957SOL     OW64483   0.344   9.330   2.985 -0.0804 -1.1237 -0.3032
20957SOL    HW164484   0.300   9.330   3.070  1.6265 -0.8822  0.6149
20957SOL    HW264485   0.287   9.277   2.929 -1.8272 -0.3639  0.6459
20958SOL     OW64486   3.747   0.354   4.759  0.4795 -0.5322 -0.2879
20958SOL    HW164487   3.809   0.332   4.828  0.1989  0.2835  0.2353
20958SOL    HW264488   3.796   0.412   4.700 -0.2116  1.4055  0.9655
20959SOL     OW64489   8.745   0.113   6.599 -0.6426 -0.3518 -0.3834
20959SOL    HW164490   8.779   0.065   6.524  0.3941  0.1761 -0.2640
20959SOL    HW264491   8.801   0.190   6.606 -1.9193  0.6156 -0.2432
20960SOL     OW64492   1.229   4.315   7.591  0.2175 -0.4620  0.0886
20960SOL    HW164493   1.290   4.378   7.629  0.5246 -1.9840  2.3625
20960SOL    HW264494   1.144   4.339   7.628 -0.1025  0.0631 -0.9724
20961SOL     OW64495   0.560   1.688   5.766  0.0163 -0.0041 -0.4146
20961SOL    HW164496   0.609   1.770   5.765  0.6132 -0.3589 -0.9335
20961SOL    HW264497   0.610   1.629   5.709  0.1538 -1.0430  0.7120
20962SOL     OW64498   4.703   4.330   4.506 -0.4671  0.2649  0.1321
20962SOL    HW164499   4.652   4.333   4.425  2.3392 -0.5766 -1.7987
20962SOL    HW264500   4.656   4.266   4.560 -2.4796  0.9264 -0.7152
20963SOL     OW64501   5.642   5.274   8.425  0.5365  0.2970  0.0386
20963SOL    HW164502   5.608   5.294   8.512 -0.5091 -0.0325 -0.2753
20963SOL    HW264503   5.658   5.359   8.385 -0.5128  0.4842 -0.0154
20964SOL     OW64504   4.794   6.714   6.557  0.3420 -0.1964  0.2360
20964SOL    HW164505   4.868   6.711   6.617  0.4517  0.6648  0.1541
20964SOL    HW264506   4.774   6.807   6.548 -2.0215 -0.4635  1.7876
20965SOL     OW64507   2.286   1.920   5.443  0.6911  0.8017 -0.2943
20965SOL    HW164508   2.317   1.995   5.392  1.7146  0.4963 -0.1478
20965SOL    HW264509   2.249   1.861   5.378  0.4886  1.1355 -0.4865
20966SOL     OW64510   8.092   3.989   3.807 -0.1431  0.0960 -0.0575
20966SOL    HW164511   8.089   3.951   3.720  1.9256 -0.3176  0.0216
20966SOL    HW264512   8.164   4.051   3.804 -1.7737  2.1456  0.5942
20967SOL     OW64513   6.246   6.425   1.174  0.6446 -0.0421  0.0710
20967SOL    HW164514   6.259   6.520   1.169 -0.2517  0.0204 -1.9239
20967SOL    HW264515   6.314   6.388   1.118 -0.3394 -0.4058 -0.9322
20968SOL     OW64516   9.044   4.836   0.348 -0.5959 -0.3131 -0.2396
20968SOL    HW164517   9.033   4.758   0.403 -0.5973 -0.6875 -0.7711
20968SOL    HW264518   9.109   4.811   0.283  0.5037  0.6054  0.4718
20969SOL     OW64519   6.087   3.426   0.415  0.3225  0.8378  0.4620
20969SOL    HW164520   6.164   3.369   0.423 -1.5272 -1.8108  0.8294
20969SOL    HW264521   6.111   3.489   0.347  1.6876 -2.0029 -1.9505
20970SOL     OW64522   2.987   7.432   6.713  0.0222  0.4131 -0.4640
20970SOL    HW164523   3.079   7.459   6.709 -0.2275  1.1813 -1.2490
20970SOL    HW264524   2.956   7.468   6.796  0.4413  0.0936 -0.1627
20971SOL     OW64525   9.693   4.197   4.480  0.0108  0.2576  0.2256
20971SOL    HW164526   9.669   4.105   4.495  0.6959  0.2105  1.1417
20971SOL    HW264527   9.734   4.197   4.394 -1.1595 -0.0553 -0.3609
20972SOL     OW64528   2.198   1.147   7.557 -0.0694 -0.0792  0.0045
20972SOL    HW164529   2.115   1.159   7.511  0.0134  0.3306 -0.0421
20972SOL    HW264530   2.176   1.152   7.650 -0.4130 -1.9863  0.0774
20973SOL     OW64531   8.579   9.612   7.535  0.1230 -0.2586  0.3841
20973SOL    HW164532   8.509   9.672   7.509 -2.3273 -3.2307 -0.3248
20973SOL    HW264533   8.634   9.665   7.594 -1.4573  2.8331 -0.6958
20974SOL     OW64534   6.896   5.253   1.298  0.0370 -0.0120  0.4838
20974SOL    HW164535   6.908   5.329   1.354  1.7290  0.8149 -0.8834
20974SOL    HW264536   6.976   5.201   1.310  0.9636  0.7325 -1.8684
20975SOL     OW64537   0.520   6.490   6.790 -0.6695 -0.4609  0.5518
20975SOL    HW164538   0.474   6.418   6.746 -0.7825  0.5118 -0.9814
20975SOL    HW264539   0.610   6.460   6.798 -0.5328 -0.4852 -0.8164
20976SOL     OW64540   4.884   1.291   3.063  0.2112 -0.3438 -0.0832
20976SOL    HW164541   4.976   1.315   3.052  0.7463 -2.1140  0.3487
20976SOL    HW264542   4.838   1.375   3.069  1.7889  0.5633 -0.2869
20977SOL     OW64543   6.476   9.320   3.620  0.4096  0.0102 -0.0105
20977SOL    HW164544   6.422   9.355   3.550  2.3036 -1.2033 -2.2030
20977SOL    HW264545   6.562   9.361   3.606  0.8670 -0.3273  1.5760
20978SOL     OW64546   4.737   1.721   4.002  0.3012  0.1283  0.2922
20978SOL    HW164547   4.709   1.723   4.094  1.9180 -0.8946  0.8665
20978SOL    HW264548   4.701   1.638   3.968  1.3273 -0.4686  0.6092
20979SOL     OW64549   4.723   8.431   5.600  0.4103 -0.4553  0.6030
20979SOL    HW164550   4.725   8.431   5.504 -0.4009  0.2108  0.5787
20979SOL    HW264551   4.763   8.515   5.624  0.7222 -0.6747  0.8590
20980SOL     OW64552   4.664   2.863   6.099 -0.3324 -0.2497  0.6465
20980SOL    HW164553   4.645   2.903   6.184  1.3280  1.2515  0.3643
20980SOL    HW264554   4.591   2.890   6.043 -0.8525 -0.2976  1.2827
20981SOL     OW64555   2.385   5.273   3.404 -0.4016 -0.2910  0.5365
20981SOL    HW164556   2.332   5.194   3.412 -2.8608  1.1601 -0.2704
20981SOL    HW264557   2.360   5.310   3.320 -0.3103  2.0064  1.4495
20982SOL     OW64558   4.460   1.640   2.344  0.0484 -0.6701  0.3443
20982SOL    HW164559   4.552   1.631   2.321  0.0741  0.3364  0.0253
20982SOL    HW264560   4.436   1.554   2.379  1.8406 -0.1321  3.2279
20983SOL     OW64561   9.100   2.319   9.223  0.2446 -0.0673 -0.0040
20983SOL    HW164562   9.120   2.300   9.314  1.3457 -1.7875 -0.5702
20983SOL    HW264563   9.075   2.235   9.185 -1.4717  0.8292 -1.0148
20984SOL     OW64564   9.423   3.597   4.184 -0.1789  0.4820  0.0111
20984SOL    HW164565   9.402   3.625   4.273  0.8611  0.3269  0.3175
20984SOL    HW264566   9.388   3.508   4.178 -2.9721  1.5470 -0.7703
20985SOL     OW64567   0.374   6.311   1.483 -0.0065 -0.3148 -0.0443
20985SOL    HW164568   0.329   6.228   1.466 -0.2391 -0.4745  1.2201
20985SOL    HW264569   0.311   6.361   1.535 -0.0537  0.8496 -1.2061
20986SOL     OW64570   6.959   8.132   7.036 -0.2290  0.0236 -0.0541
20986SOL    HW164571   6.897   8.197   7.002 -0.5799 -0.6841 -0.7769
20986SOL    HW264572   6.959   8.062   6.971  2.0763  0.4368 -0.5738
20987SOL     OW64573   2.363   8.261   5.019 -0.3230  0.3699 -0.3424
20987SOL    HW164574   2.280   8.305   5.000 -0.1417  0.7589 -0.2428
20987SOL    HW264575   2.362   8.183   4.963 -0.6056  0.5489 -0.5900
20988SOL     OW64576   5.379   2.448   5.387 -0.4190  0.7459  0.4563
20988SOL    HW164577   5.396   2.422   5.478  0.9732  0.8124  0.2347
20988SOL    HW264578   5.369   2.543   5.391  2.1767  1.0851  0.2302
20989SOL     OW64579   0.723   7.581   6.457 -0.2297 -0.2532  0.1811
20989SOL    HW164580   0.686   7.572   6.544 -0.1978 -1.7855  0.0619
20989SOL    HW264581   0.763   7.669   6.456 -1.6013  0.4090  1.1430
20990SOL     OW64582   6.510   4.925   4.821  0.4665  0.6249 -0.5829
20990SOL    HW164583   6.434   4.977   4.844  0.3012  0.2547 -0.2944
20990SOL    HW264584   6.583   4.987   4.824  0.5184  0.5222  1.3018
20991SOL     OW64585   7.334   9.023   6.485 -0.3559  0.5335 -0.2463
20991SOL    HW164586   7.313   8.932   6.508 -0.6600 -0.2320 -3.0520
20991SOL    HW264587   7.401   9.050   6.548  1.0152 -2.2609 -0.3618
20992SOL     OW64588   5.176   0.012   3.557  0.6982  0.3983  0.2829
20992SOL    HW164589   5.222   0.096   3.562 -1.5827  1.7108  0.8113
20992SOL    HW264590   5.092   0.029   3.600  0.1062 -2.1380  0.2573
20993SOL     OW64591   5.108   2.259   2.866  0.4520  0.6466  0.4801
20993SOL    HW164592   5.173   2.191   2.880  0.8046  0.8325 -0.2081
20993SOL    HW264593   5.098   2.301   2.952  0.5630  0.0290  0.7986
20994SOL     OW64594   8.416   5.282   6.802  0.4448 -0.0544 -0.1799
20994SOL    HW164595   8.466   5.208   6.765 -0.2584 -1.6324  1.8323
20994SOL    HW264596   8.474   5.319   6.869  0.3018  0.4321 -0.3246
20995SOL     OW64597   3.643   3.938   0.625  0.5238  0.6182 -0.6126
20995SOL    HW164598   3.721   3.883   0.640 -0.6582 -0.8488  0.4865
20995SOL    HW264599   3.679   4.021   0.595  2.5659  0.1348  0.2373
20996SOL     OW64600   6.647   6.643   2.008 -0.3008  0.2987  0.0313
20996SOL    HW164601   6.693   6.720   1.974 -1.1640  0.2777 -1.2450
20996SOL    HW264602   6.588   6.679   2.075  0.6756  0.4675  0.8374
20997SOL     OW64603   8.471   6.346   3.931  0.5211 -0.6380 -0.5234
20997SOL    HW164604   8.493   6.342   4.024  0.2075 -1.4428 -0.4740
20997SOL    HW264605   8.375   6.339   3.929  0.6531 -3.7608 -1.0133
20998SOL     OW64606   0.229   2.896   9.410  0.4745  0.2354 -0.0344
20998SOL    HW164607   0.241   2.973   9.466  0.7790  0.4932 -0.4456
20998SOL    HW264608   0.202   2.827   9.470  0.3123  0.6320  0.3602
20999SOL     OW64609   4.844   9.590   6.596 -0.0450 -0.0237 -0.1297
20999SOL    HW164610   4.837   9.563   6.505 -1.7231  2.2963 -0.7738
20999SOL    HW264611   4.903   9.665   6.595  0.0658 -0.0857  0.7477
21000SOL     OW64612   1.007   7.805   2.289  0.1614 -0.1053 -0.4213
21000SOL    HW164613   0.994   7.731   2.348  0.5495  1.1968  1.3995
21000SOL    HW264614   1.091   7.842   2.315 -0.0186  0.9806 -1.2926
21001SOL     OW64615   2.327   7.393   6.055 -0.2433  0.0695  0.1340
21001SOL    HW164616   2.390   7.324   6.073  0.0185 -0.1685 -1.5515
21001SOL    HW264617   2.288   7.413   6.140  0.1457 -1.6841  0.7577
21002SOL     OW64618   4.334   8.779   4.542 -0.6380  0.1547 -0.0447
21002SOL    HW164619   4.306   8.687   4.542  1.8926 -0.6944  0.7214
21002SOL    HW264620   4.339   8.804   4.634  1.3881  0.0904 -0.0793
21003SOL     OW64621   5.405   6.278   0.652  0.3628  0.3956 -0.1220
21003SOL    HW164622   5.487   6.319   0.626 -0.5039  1.3789 -1.4372
21003SOL    HW264623   5.430   6.211   0.715  2.0141  1.8600  0.8717
21004SOL     OW64624   5.599   2.935   4.444 -0.3596 -0.6825 -0.4405
21004SOL    HW164625   5.688   2.968   4.435  0.3623 -2.9036 -2.3889
21004SOL    HW264626   5.601   2.882   4.524 -0.7113  1.3660  0.9893
21005SOL     OW64627   8.450   9.589   1.873 -0.0691 -0.1839  0.5307
21005SOL    HW164628   8.376   9.642   1.843 -0.7872 -1.1484  0.5296
21005SOL    HW264629   8.409   9.513   1.914  0.9275 -0.7507  0.4973
21006SOL     OW64630   8.827   4.502   9.728 -0.1119  0.3963  0.0548
21006SOL    HW164631   8.820   4.407   9.724 -1.6508  0.5166 -1.0318
21006SOL    HW264632   8.865   4.528   9.644  0.3499  0.7464  0.3654
21007SOL     OW64633   1.251   4.740   9.495  0.0994  0.2104 -0.0988
21007SOL    HW164634   1.334   4.749   9.542 -0.8632 -1.2191  2.0292
21007SOL    HW264635   1.256   4.653   9.454 -0.8103 -0.4663  1.1503
21008SOL     OW64636   3.038   2.961   2.363  0.2364 -0.4202 -0.2692
21008SOL    HW164637   3.040   2.866   2.372  1.7032 -0.4432 -0.5786
21008SOL    HW264638   3.060   2.994   2.450  0.4310 -0.3813 -0.3323
21009SOL     OW64639   7.515   5.253   2.674 -0.5484  0.0861  0.1430
21009SOL    HW164640   7.461   5.327   2.699 -1.6515 -0.8805  0.7361
21009SOL    HW264641   7.454   5.190   2.636 -0.0970 -1.5571  1.9746
21010SOL     OW64642   6.090   5.169   6.800 -0.4828  0.4866  0.3826
21010SOL    HW164643   6.015   5.226   6.781 -0.6213 -0.0925 -0.9106
21010SOL    HW264644   6.081   5.097   6.738  1.5274  0.7492 -0.2757
21011SOL     OW64645   6.747   9.538   5.653  0.2529  0.0318  0.4289
21011SOL    HW164646   6.712   9.594   5.722 -0.6138 -1.3973  1.1928
21011SOL    HW264647   6.764   9.598   5.580 -0.6620  1.2755  1.1912
21012SOL     OW64648   3.747   2.367   6.020  0.0423  0.4240  0.1067
21012SOL    HW164649   3.684   2.325   5.961  0.6661 -0.8993  0.3359
21012SOL    HW264650   3.788   2.294   6.067  3.4360  0.9502 -1.6695
21013SOL     OW64651   4.762   6.245   2.076 -1.2316  0.2305 -0.1800
21013SOL    HW164652   4.691   6.198   2.033  0.5875 -2.2369 -0.7092
21013SOL    HW264653   4.784   6.190   2.152  0.9916  0.1534 -0.8257
21014SOL     OW64654   0.695   0.604   2.766 -0.6342 -0.3842 -0.0297
21014SOL    HW164655   0.723   0.518   2.734 -1.7530 -0.8535  0.2185
21014SOL    HW264656   0.614   0.622   2.719 -1.0752 -0.0385  0.8405
21015SOL     OW64657   3.260   4.694   8.617 -0.0754  0.5028 -0.3319
21015SOL    HW164658   3.227   4.774   8.575 -0.5434  0.3827 -0.1933
21015SOL    HW264659   3.262   4.715   8.710  0.3723  0.5548 -0.3508
21016SOL     OW64660   4.965   9.735   8.186 -0.7217  0.2435 -0.5081
21016SOL    HW164661   4.944   9.645   8.162 -1.1524  0.2204 -0.0672
21016SOL    HW264662   4.972   9.782   8.103  1.3187 -0.5634 -0.8592
21017SOL     OW64663   3.876   8.030   6.005  0.0921  0.0910 -0.3566
21017SOL    HW164664   3.937   8.044   6.077  1.6261 -1.4837 -1.2981
21017SOL    HW264665   3.916   8.074   5.930 -0.8225  0.5612 -0.5852
21018SOL     OW64666   8.827   1.372   7.011 -0.1121 -0.0449  0.0380
21018SOL    HW164667   8.813   1.309   7.081 -2.6528  0.6911  0.2928
21018SOL    HW264668   8.779   1.450   7.038  2.0694  1.6942 -0.7500
21019SOL     OW64669   9.791   4.967   7.580 -0.1507  0.3789  0.2568
21019SOL    HW164670   9.707   4.978   7.535 -0.3924  0.7463  0.7840
21019SOL    HW264671   9.772   4.910   7.654 -0.2117  1.4069  1.0671
21020SOL     OW64672   2.418   3.607   1.269  0.5251  0.2124 -0.0530
21020SOL    HW164673   2.358   3.681   1.266 -0.2632 -0.4336 -2.2886
21020SOL    HW264674   2.504   3.645   1.257  0.2874  0.8938  0.3580
21021SOL     OW64675   3.593   7.029   5.850 -0.5103 -0.0535  0.0044
21021SOL    HW164676   3.592   6.935   5.834 -0.5790 -0.1467  0.5526
21021SOL    HW264677   3.502   7.053   5.863 -0.4675  0.0396  0.1391
21022SOL     OW64678   6.486   1.603   0.266  0.5630 -0.1589 -0.2531
21022SOL    HW164679   6.527   1.522   0.234 -1.7796 -2.1743  1.5206
21022SOL    HW264680   6.472   1.656   0.187  3.1154 -0.9457 -1.3284
21023SOL     OW64681   9.811   1.014   9.713  0.0703  0.0826  0.4630
21023SOL    HW164682   9.796   1.043   9.803 -0.7201  0.1712  0.3072
21023SOL    HW264683   9.801   0.919   9.716 -1.8375  0.2406  0.1301
21024SOL     OW64684   0.836   9.518   3.788  0.3870  0.0669  0.1692
21024SOL    HW164685   0.830   9.612   3.804  1.5755 -0.1135  2.0816
21024SOL    HW264686   0.905   9.509   3.722  1.9844  0.4830  1.6919
21025SOL     OW64687   6.969   6.000   7.617  0.1586  0.4003 -0.0679
21025SOL    HW164688   6.955   6.014   7.523  0.0361  3.4564  0.2868
21025SOL    HW264689   6.899   5.940   7.643  0.5059 -0.9457 -1.9703
21026SOL     OW64690   0.758   7.765   4.669  0.2050 -0.3111 -0.0510
21026SOL    HW164691   0.749   7.763   4.573 -0.9423  0.9740  0.0092
21026SOL    HW264692   0.822   7.696   4.688 -0.6223 -1.5709 -1.6119
21027SOL     OW64693   4.761   0.329   1.899 -0.4814  0.1357 -0.4211
21027SOL    HW164694   4.776   0.253   1.956  2.8205  1.0754  0.1606
21027SOL    HW264695   4.792   0.302   1.813 -1.0340  0.2579 -0.6661
21028SOL     OW64696   3.715   7.037   7.190  0.5201  0.6215  0.4558
21028SOL    HW164697   3.650   6.971   7.216  0.9038 -0.0718 -0.2975
21028SOL    HW264698   3.798   6.989   7.187  0.8928  1.2612  0.3879
21029SOL     OW64699   3.713   0.759   1.139 -0.3287 -0.0074 -0.0773
21029SOL    HW164700   3.741   0.787   1.052  0.5828  0.1502  0.2526
21029SOL    HW264701   3.680   0.670   1.125  1.2169 -0.5816 -0.3702
21030SOL     OW64702   6.530   6.566   0.475  0.5808  0.4952  0.0190
21030SOL    HW164703   6.472   6.642   0.481  0.8896  0.6402  1.7471
21030SOL    HW264704   6.612   6.601   0.439  1.0990  1.2578  1.8364
21031SOL     OW64705   3.199   0.403   1.851  0.9797 -0.1248 -0.0846
21031SOL    HW164706   3.208   0.453   1.932 -1.6077 -1.3053  1.0823
21031SOL    HW264707   3.206   0.311   1.880  0.0242 -0.5600 -1.1609
21032SOL     OW64708   6.161   7.065   6.461 -0.1740 -0.2275 -0.1205
21032SOL    HW164709   6.153   7.158   6.483 -1.7937 -0.3756  0.0371
21032SOL    HW264710   6.198   7.065   6.373  1.3505  0.5049  0.4858
21033SOL     OW64711   7.031   8.489   6.023  0.1649  0.4932  0.1226
21033SOL    HW164712   7.002   8.572   5.985 -0.6056  0.0010 -0.3961
21033SOL    HW264713   7.084   8.514   6.098 -0.6903  1.4420  0.4247
21034SOL     OW64714   2.007   6.555   4.667  0.1263  0.3184  0.2330
21034SOL    HW164715   1.942   6.499   4.710 -1.8230  1.1560 -1.4337
21034SOL    HW264716   1.976   6.644   4.685 -0.4266  0.7118 -2.2599
21035SOL     OW64717   1.622   0.845   1.196  0.0732  0.6076  0.2518
21035SOL    HW164718   1.594   0.834   1.287  0.7455  0.2046  0.4183
21035SOL    HW264719   1.543   0.870   1.149 -0.8889 -1.7881  0.4512
21036SOL     OW64720   5.525   1.207   9.646 -0.1404  0.0021  0.0375
21036SOL    HW164721   5.539   1.275   9.580 -0.3557  1.0688  1.0425
21036SOL    HW264722   5.459   1.244   9.704  0.5955 -0.5630  1.2811
21037SOL     OW64723   3.336   5.735   6.252 -0.5624 -0.5933  0.0686
21037SOL    HW164724   3.253   5.710   6.211  0.2400 -1.5128 -1.0990
21037SOL    HW264725   3.373   5.801   6.193 -1.4260  1.4754  1.7351
21038SOL     OW64726   4.303   5.861   8.796 -0.5481 -0.1759 -0.0630
21038SOL    HW164727   4.296   5.802   8.721  0.3215  0.6115 -0.7950
21038SOL    HW264728   4.345   5.809   8.864 -3.0480 -1.4885  0.5840
21039SOL     OW64729   2.755   4.277   1.619 -0.5007 -0.1481 -0.0391
21039SOL    HW164730   2.790   4.226   1.546  0.5191  0.0994  0.2567
21039SOL    HW264731   2.798   4.362   1.612 -0.2974 -0.1631  0.9144
21040SOL     OW64732   3.588   1.746   8.514  0.0754  0.1705  0.0099
21040SOL    HW164733   3.541   1.715   8.437 -0.0646  1.2631 -0.3646
21040SOL    HW264734   3.526   1.806   8.556  0.6622  0.6417  0.2113
21041SOL     OW64735   4.019   5.470   7.806  0.9697  0.3473  0.0257
21041SOL    HW164736   3.945   5.528   7.787  0.2066 -0.2720  1.0636
21041SOL    HW264737   4.077   5.481   7.730 -0.4074  0.4654 -1.0574
21042SOL     OW64738   3.314   4.402   6.764 -0.2742  0.5818 -0.4636
21042SOL    HW164739   3.245   4.436   6.821  0.1607 -1.2054  1.2507
21042SOL    HW264740   3.377   4.474   6.756 -0.2404  0.8358  1.5567
21043SOL     OW64741   5.764   3.770   7.118 -0.2175  0.0931 -0.1775
21043SOL    HW164742   5.698   3.821   7.072 -0.0355  0.6146  0.1370
21043SOL    HW264743   5.734   3.768   7.209  0.8681  1.4802  0.2492
21044SOL     OW64744   9.190   5.948   7.140 -0.9705 -0.1491  0.2860
21044SOL    HW164745   9.190   6.013   7.070 -0.2789 -0.3594  0.0872
21044SOL    HW264746   9.207   5.865   7.095  0.6977 -0.1339  0.8373
21045SOL     OW64747   2.410   5.408   6.305  0.1564  0.1764  0.3268
21045SOL    HW164748   2.335   5.351   6.322 -0.4875  1.0818  0.6441
21045SOL    HW264749   2.431   5.394   6.213 -0.1146 -0.4243  0.3542
21046SOL     OW64750   0.991   0.336   7.473  0.2633 -0.5474 -0.1555
21046SOL    HW164751   0.916   0.291   7.434  0.8265 -2.0757  0.4311
21046SOL    HW264752   0.952   0.393   7.539 -0.5110  0.1842 -1.2119
21047SOL     OW64753   0.038   6.305   8.635  0.0246  0.2881  0.2840
21047SOL    HW164754   0.048   6.378   8.697 -2.6734  3.0046 -2.1810
21047SOL    HW264755  -0.055   6.286   8.637  0.1722 -0.7701 -1.6472
21048SOL     OW64756   6.338   9.448   4.533 -0.6032  0.2211  0.6012
21048SOL    HW164757   6.358   9.522   4.475  1.8952 -0.6094  0.2889
21048SOL    HW264758   6.376   9.372   4.489 -0.0317 -0.6853  2.5602
21049SOL     OW64759   7.059   5.805   7.271 -0.5223 -0.9447  0.3611
21049SOL    HW164760   7.116   5.729   7.259 -0.4121 -1.3976  3.1071
21049SOL    HW264761   6.985   5.789   7.213  0.0000 -2.6272  0.1044
21050SOL     OW64762   5.908   5.868   1.900  0.1520  0.5098  0.2363
21050SOL    HW164763   5.906   5.780   1.937 -1.2924  0.9698  1.3531
21050SOL    HW264764   5.945   5.923   1.969  0.4453  0.8897 -0.2127
21051SOL     OW64765   3.725   5.498   1.303  0.9349  0.2329  0.4190
21051SOL    HW164766   3.708   5.473   1.394  0.6233 -0.6404  0.1357
21051SOL    HW264767   3.804   5.448   1.279 -1.2634 -2.9339 -1.0370
21052SOL     OW64768   8.852   9.595   2.868  0.5153 -0.0481 -0.0868
21052SOL    HW164769   8.882   9.532   2.934  2.5680 -1.8002 -2.5161
21052SOL    HW264770   8.902   9.674   2.886  1.9338 -0.8866 -0.2071
21053SOL     OW64771   1.698   8.722   7.279 -0.3244  0.1525 -0.1093
21053SOL    HW164772   1.616   8.772   7.284  0.9865  2.4788 -0.6346
21053SOL    HW264773   1.680   8.652   7.216 -1.3286  1.8094 -1.7350
21054SOL     OW64774   6.358   7.501   1.084 -0.3964  0.2247 -0.8519
21054SOL    HW164775   6.266   7.493   1.109 -0.1404 -0.2566 -0.0112
21054SOL    HW264776   6.362   7.580   1.031 -1.1080  0.8699  0.0358
21055SOL     OW64777   8.778   1.586   3.560  0.0099  0.0980 -0.2132
21055SOL    HW164778   8.777   1.492   3.577 -1.2317  0.4147  1.6861
21055SOL    HW264779   8.838   1.622   3.625  0.8025  0.6224 -1.1923
21056SOL     OW64780   2.170   1.899   0.899  0.2826 -0.0650 -0.6093
21056SOL    HW164781   2.151   1.987   0.866  0.7216 -0.2133 -1.2798
21056SOL    HW264782   2.145   1.841   0.827  1.0056 -0.4173 -0.5796
21057SOL     OW64783   2.790   1.650   8.158  0.2575 -0.2509 -0.6732
21057SOL    HW164784   2.773   1.743   8.140 -1.8883 -0.9984 -3.0128
21057SOL    HW264785   2.705   1.608   8.150  0.9850 -2.3243  1.4810
21058SOL     OW64786   6.029   6.209   7.981 -0.1741  0.1049  0.2094
21058SOL    HW164787   6.084   6.194   7.904  3.5769  1.9087  2.2509
21058SOL    HW264788   6.024   6.304   7.988 -0.3811 -0.0206  2.1562
21059SOL     OW64789   5.703   0.486   9.521  0.1513 -0.3779 -0.0890
21059SOL    HW164790   5.664   0.546   9.458  0.5294 -1.1735 -1.1185
21059SOL    HW264791   5.693   0.529   9.606 -0.7562  0.5197 -0.6381
21060SOL     OW64792   3.559   5.563   4.199 -0.1204 -0.0363  0.2789
21060SOL    HW164793   3.486   5.504   4.216 -0.1560 -0.5115 -1.3401
21060SOL    HW264794   3.636   5.513   4.225 -0.2811  0.0003  0.8417
21061SOL     OW64795   0.980   4.390   7.689  0.1887  0.2300 -0.0496
21061SOL    HW164796   0.910   4.392   7.624  0.3028  2.3403 -0.1790
21061SOL    HW264797   1.011   4.481   7.694  3.9254 -0.8091 -1.1200
21062SOL     OW64798   1.917   8.946   7.998 -0.0658  0.7729 -0.0088
21062SOL    HW164799   1.863   9.013   8.039 -1.3499 -1.5878  2.4807
21062SOL    HW264800   1.864   8.913   7.926 -0.0395  1.4196 -0.3321
21063SOL     OW64801   6.205   1.449   7.950  0.7410  0.2412  0.2898
21063SOL    HW164802   6.223   1.539   7.922  1.9296  0.3996  1.4167
21063SOL    HW264803   6.157   1.410   7.878  0.7913  1.5849 -0.5079
21064SOL     OW64804   5.620   6.520   2.890 -0.7626 -0.6560 -0.8012
21064SOL    HW164805   5.548   6.565   2.935 -0.1146 -0.7715  0.4106
21064SOL    HW264806   5.591   6.511   2.800 -2.7302 -1.6849 -0.1063
21065SOL     OW64807   3.746   9.387   0.695 -0.0466  0.2527  0.6121
21065SOL    HW164808   3.753   9.462   0.636  1.1085  0.2229  0.6919
21065SOL    HW264809   3.687   9.416   0.764  0.7315  1.2556  0.8725
21066SOL     OW64810   1.312   9.010   2.941  0.3480 -0.4205 -0.1343
21066SOL    HW164811   1.228   9.033   2.982  0.5755  0.2916 -0.0607
21066SOL    HW264812   1.302   9.039   2.850  1.4250  2.0529  0.4624
21067SOL     OW64813   6.312   1.399   3.517  0.3117  0.0842 -0.4005
21067SOL    HW164814   6.267   1.318   3.541  0.7033 -0.0632 -0.1697
21067SOL    HW264815   6.332   1.389   3.425  1.9163 -0.8320  0.0166
21068SOL     OW64816   8.602   3.837   2.578 -0.4661 -0.1344  0.2467
21068SOL    HW164817   8.510   3.863   2.584 -0.6486 -0.6816 -0.1216
21068SOL    HW264818   8.630   3.831   2.670 -1.1659 -1.2092  0.4156
21069SOL     OW64819   0.390   4.488   3.116  0.3304 -0.4030 -0.0688
21069SOL    HW164820   0.355   4.420   3.058  0.0879 -2.4213  2.2839
21069SOL    HW264821   0.314   4.525   3.159  0.5973  0.1121 -0.0319
21070SOL     OW64822   9.205   7.157   3.820  0.1303  0.0061 -0.0960
21070SOL    HW164823   9.115   7.156   3.854  0.3439  0.9366  0.5482
21070SOL    HW264824   9.195   7.152   3.725 -0.6580  1.0304 -0.0897
21071SOL     OW64825   0.342   4.740   9.364 -0.3172 -0.4368 -0.4087
21071SOL    HW164826   0.426   4.777   9.391 -1.0603  1.1213 -0.1196
21071SOL    HW264827   0.295   4.726   9.446 -0.8847  0.0984 -0.6338
21072SOL     OW64828   7.435   2.780   0.876 -0.0102 -0.0920  0.6367
21072SOL    HW164829   7.457   2.696   0.836 -1.1154 -0.3450  0.5103
21072SOL    HW264830   7.342   2.792   0.856  0.3608  1.6826 -0.2970
21073SOL     OW64831   0.798   4.495   3.865  0.0976  0.0010 -0.0328
21073SOL    HW164832   0.762   4.574   3.904  0.2673  0.9244 -1.6280
21073SOL    HW264833   0.817   4.437   3.939 -0.8894  1.0767  1.1040
21074SOL     OW64834   6.145   0.226   5.534  0.2501  0.0817  0.0012
21074SOL    HW164835   6.183   0.303   5.576 -0.3791  0.9231 -0.9175
21074SOL    HW264836   6.052   0.247   5.525 -0.7283 -2.2333  2.8984
21075SOL     OW64837   1.419   6.675   6.928 -0.1914  0.6229 -0.3074
21075SOL    HW164838   1.402   6.677   6.834 -1.2601  0.1357 -0.1417
21075SOL    HW264839   1.515   6.669   6.935 -0.1283  0.1956 -1.3670
21076SOL     OW64840   7.014   0.509   6.589 -0.2078 -0.6847 -0.5026
21076SOL    HW164841   6.977   0.475   6.507 -0.8886 -1.1432 -0.0171
21076SOL    HW264842   7.095   0.459   6.601  0.4755  0.1445 -1.4439
21077SOL     OW64843   4.163   0.536   3.813  0.4630  0.3791 -0.1466
21077SOL    HW164844   4.250   0.569   3.791  1.1951 -1.5455 -0.3281
21077SOL    HW264845   4.124   0.515   3.728  0.8070 -1.0696  0.0349
21078SOL     OW64846   0.897   4.751   8.458  0.5174 -0.6365 -0.3400
21078SOL    HW164847   0.804   4.772   8.459  0.6284 -0.1398  0.1756
21078SOL    HW264848   0.915   4.728   8.367 -0.5450 -2.8598 -0.0479
21079SOL     OW64849   2.131   5.727   8.562  0.3063  0.4170 -0.0204
21079SOL    HW164850   2.141   5.733   8.657 -0.3412  0.1229  0.0763
21079SOL    HW264851   2.182   5.650   8.537 -2.0565 -1.4601  0.5456
21080SOL     OW64852   4.383   6.977   7.143 -0.1377 -0.3254 -0.2262
21080SOL    HW164853   4.358   7.055   7.093 -1.2681 -0.6337 -0.1850
21080SOL    HW264854   4.451   6.936   7.090  0.9377  1.0164  0.0750
21081SOL     OW64855   9.571   8.443   1.046 -0.5632  0.1034  0.2061
21081SOL    HW164856   9.535   8.439   1.134  1.2225  1.1414  1.0540
21081SOL    HW264857   9.639   8.375   1.045 -0.9989 -0.3378 -0.6017
21082SOL     OW64858   6.195   1.331   1.494  0.8918 -0.0173 -0.0365
21082SOL    HW164859   6.287   1.353   1.512  1.3034 -0.8273 -1.0973
21082SOL    HW264860   6.158   1.313   1.580  1.6020  0.7407  0.4516
21083SOL     OW64861   6.652   6.254   6.915  0.1479 -0.0846 -0.1490
21083SOL    HW164862   6.562   6.286   6.915 -0.7596 -2.2444 -2.8595
21083SOL    HW264863   6.700   6.316   6.859  0.6787  1.5787  2.0046
21084SOL     OW64864   0.460   4.877   3.018  0.2756 -0.1560  0.4836
21084SOL    HW164865   0.519   4.935   2.969  2.0014 -1.8257  0.4525
21084SOL    HW264866   0.481   4.789   2.985 -1.6240 -0.8988  1.1437
21085SOL     OW64867   0.629   1.765   2.503 -0.8472  0.4109  0.1828
21085SOL    HW164868   0.611   1.857   2.523 -0.4949  0.5175  0.0043
21085SOL    HW264869   0.676   1.767   2.420  0.5054  0.1733  0.9111
21086SOL     OW64870   1.272   1.613   7.198  0.5188  0.1584 -0.2673
21086SOL    HW164871   1.323   1.580   7.124 -0.3248  1.4369 -1.4598
21086SOL    HW264872   1.213   1.678   7.160  0.8347  1.7000  1.6726
21087SOL     OW64873   2.042   2.867   5.704  0.0695 -0.2389  0.5371
21087SOL    HW164874   1.958   2.912   5.712 -0.0454 -0.5892  1.4796
21087SOL    HW264875   2.044   2.834   5.614 -0.7966 -0.2058  0.4978
21088SOL     OW64876   8.797   4.318   1.452  0.0993 -0.0063 -0.0270
21088SOL    HW164877   8.763   4.268   1.378  1.1194 -0.1260 -0.4287
21088SOL    HW264878   8.863   4.376   1.414  0.0681  0.5047  0.6703
21089SOL     OW64879   8.334   4.948   9.751  0.1235  0.3886 -0.0266
21089SOL    HW164880   8.425   4.934   9.775  0.2978  0.9619 -0.3526
21089SOL    HW264881   8.305   5.020   9.807 -0.3377 -0.2509  0.5758
21090SOL     OW64882   5.164   4.835   1.920  0.4338  0.3078  0.8618
21090SOL    HW164883   5.202   4.763   1.970  1.5334 -0.5125 -1.0258
21090SOL    HW264884   5.070   4.821   1.924  0.6055 -0.9320  1.0022
21091SOL     OW64885   5.961   0.297   3.323 -0.5825 -0.0663 -0.1072
21091SOL    HW164886   6.031   0.336   3.270  1.7675 -2.4941  0.9922
21091SOL    HW264887   5.990   0.308   3.413 -1.3636 -1.5443  0.3527
21092SOL     OW64888   2.790   2.050   8.884 -0.1143  0.2672 -0.1547
21092SOL    HW164889   2.749   1.984   8.940 -1.2515  1.0265 -0.0609
21092SOL    HW264890   2.722   2.073   8.820  0.2996  1.2497 -0.2668
21093SOL     OW64891   4.169   6.364   7.006  0.1513 -0.0567  0.1130
21093SOL    HW164892   4.152   6.271   7.021 -2.3479  0.5865  1.9714
21093SOL    HW264893   4.123   6.383   6.924 -0.9318 -0.1212  0.6841
21094SOL     OW64894   1.251   3.844   8.622  0.2652 -0.1044  0.1531
21094SOL    HW164895   1.267   3.757   8.658 -2.8181 -1.7501 -1.9398
21094SOL    HW264896   1.293   3.842   8.536  1.2287  0.9939  0.5756
21095SOL     OW64897   1.793   3.709   5.707  0.4575 -0.5059 -0.3226
21095SOL    HW164898   1.717   3.655   5.683 -0.2296  0.5145 -0.4983
21095SOL    HW264899   1.868   3.649   5.701 -0.4767 -1.9138  1.2395
21096SOL     OW64900   2.477   2.036   9.371 -0.1156  0.1817 -0.2181
21096SOL    HW164901   2.394   2.082   9.360 -0.5073 -0.4843 -0.0962
21096SOL    HW264902   2.467   1.985   9.451  0.6126  0.5098  0.0936
21097SOL     OW64903   5.131   0.284   2.873 -0.0318 -0.0401 -0.4214
21097SOL    HW164904   5.113   0.373   2.904  2.3935  0.2125  0.5318
21097SOL    HW264905   5.109   0.228   2.947 -1.2279 -0.2343 -0.9009
21098SOL     OW64906   0.938   5.428   0.482  0.5191 -0.5770  0.0239
21098SOL    HW164907   0.941   5.407   0.389  0.0210  0.3619 -0.2248
21098SOL    HW264908   0.853   5.396   0.511 -0.0206  0.5394 -0.2384
21099SOL     OW64909   0.126   2.929   6.695  0.6340  0.0093 -0.0263
21099SOL    HW164910   0.192   2.928   6.765  0.6456 -1.3056 -0.0291
21099SOL    HW264911   0.164   2.983   6.626  1.3856 -0.1168  0.2795
21100SOL     OW64912   0.872   4.661   2.356 -0.1226  0.1382  0.3136
21100SOL    HW164913   0.860   4.583   2.302  0.5081  0.3080 -0.0819
21100SOL    HW264914   0.927   4.633   2.429 -0.7549 -0.0262  0.7408
21101SOL     OW64915   5.232   2.213   7.559 -0.3066 -0.0341 -0.8183
21101SOL    HW164916   5.219   2.123   7.530 -0.5370 -0.2173 -0.1659
21101SOL    HW264917   5.271   2.257   7.484  0.9014 -0.9574 -0.7663
21102SOL     OW64918   5.008   6.773   0.343  0.1995 -0.3875  0.1826
21102SOL    HW164919   4.988   6.684   0.314  0.8251 -0.8214  1.0449
21102SOL    HW264920   5.070   6.761   0.415  0.7563  0.7674 -0.0803
21103SOL     OW64921   1.434   5.600   2.287  0.4200 -0.4656  0.0675
21103SOL    HW164922   1.421   5.555   2.204  0.2185  0.8432 -0.6246
21103SOL    HW264923   1.364   5.567   2.343 -2.0918  1.6371 -1.5811
21104SOL     OW64924   9.841   8.708   6.937  0.3902 -0.0979 -0.1952
21104SOL    HW164925   9.909   8.714   6.870  1.1646  1.5608  0.6889
21104SOL    HW264926   9.864   8.631   6.989  1.2920  0.1344 -0.2433
21105SOL     OW64927   1.977   2.082   3.532  0.0968  0.3963 -0.1222
21105SOL    HW164928   1.918   2.082   3.607  1.6337 -0.0619  1.1226
21105SOL    HW264929   1.928   2.037   3.463 -2.3674  3.1031 -0.2992
21106SOL     OW64930   4.325   3.313   7.958  0.1583 -0.4799  0.3269
21106SOL    HW164931   4.269   3.310   8.035  0.5967 -1.5253  0.6272
21106SOL    HW264932   4.293   3.243   7.902 -1.2086  1.2964 -1.2304
21107SOL     OW64933   5.714   1.421   0.865 -0.3804  0.3083  0.1539
21107SOL    HW164934   5.782   1.360   0.893  2.3683  2.1524 -1.9444
21107SOL    HW264935   5.732   1.501   0.915 -0.7218  0.9454 -0.7123
21108SOL     OW64936   9.084   0.095   8.896  0.0079  0.0556 -0.6781
21108SOL    HW164937   9.003   0.117   8.942  0.7006  1.4454 -0.0714
21108SOL    HW264938   9.057   0.082   8.805 -1.0519 -0.6196 -0.2911
21109SOL     OW64939   7.988   5.252   0.277 -0.0368 -0.6326  0.0216
21109SOL    HW164940   7.959   5.162   0.266  0.0419 -0.5331 -1.1358
21109SOL    HW264941   8.018   5.279   0.190  0.6565  0.2648  0.5163
21110SOL     OW64942   0.692   6.039   7.818  0.4725 -0.0961  0.5027
21110SOL    HW164943   0.664   6.073   7.903 -0.2641  0.9181 -0.1241
21110SOL    HW264944   0.743   6.110   7.780  0.0204 -0.1868 -0.2822
21111SOL     OW64945   0.566   2.659   5.463 -0.2767 -0.1377 -0.0663
21111SOL    HW164946   0.580   2.639   5.370  0.4669 -0.8988  0.1970
21111SOL    HW264947   0.539   2.575   5.501  1.8816 -0.4475  0.8819
21112SOL     OW64948   8.439   1.918   4.662 -0.6027  0.1872 -0.2302
21112SOL    HW164949   8.491   1.936   4.740 -0.9303  0.1744 -0.0069
21112SOL    HW264950   8.492   1.952   4.590 -0.7090  1.0483  0.0830
21113SOL     OW64951   3.162   4.409   6.421 -0.1085  0.0634 -0.3520
21113SOL    HW164952   3.194   4.322   6.441 -1.6421 -0.1899  1.2225
21113SOL    HW264953   3.187   4.423   6.329 -0.7674 -2.4725 -0.9938
21114SOL     OW64954   1.288   7.030   3.803 -0.0360  0.6103 -0.4541
21114SOL    HW164955   1.222   7.099   3.811  2.0054  2.6089  0.2702
21114SOL    HW264956   1.319   7.016   3.893  0.5086 -0.3137 -0.7732
21115SOL     OW64957   6.344   2.307   3.247 -0.3534  0.4025  0.9424
21115SOL    HW164958   6.366   2.223   3.289 -0.0201  1.1978  2.4368
21115SOL    HW264959   6.249   2.313   3.256 -0.3997  0.1161  0.6792
21116SOL     OW64960   4.694   4.484   0.635  0.8311 -0.5612 -0.0422
21116SOL    HW164961   4.755   4.530   0.577  1.4267 -0.3034  0.7604
21116SOL    HW264962   4.744   4.472   0.717 -0.1985 -0.3387  0.6304
21117SOL     OW64963   1.683   7.719   5.541  0.1775  0.3317 -0.1961
21117SOL    HW164964   1.606   7.770   5.565  0.6207  1.5170 -1.1732
21117SOL    HW264965   1.653   7.659   5.473  0.1218  0.8527 -0.6386
21118SOL     OW64966   0.287   9.403   5.521 -0.4895 -0.0883  0.3357
21118SOL    HW164967   0.327   9.333   5.469  0.4278 -0.2296  1.1917
21118SOL    HW264968   0.207   9.364   5.555 -0.5890 -0.3236 -0.1632
21119SOL     OW64969   7.493   8.856   3.601 -0.1537  0.3456 -0.0329
21119SOL    HW164970   7.527   8.776   3.562  1.1669  0.2216  1.2863
21119SOL    HW264971   7.398   8.851   3.589  0.1133 -0.0148 -2.5145
21120SOL     OW64972   8.597   0.993   3.259  0.3203 -0.5574 -0.6051
21120SOL    HW164973   8.560   0.976   3.345 -0.8225  1.0696 -0.7279
21120SOL    HW264974   8.574   0.915   3.208 -2.4131  0.0446 -0.4727
21121SOL     OW64975   0.019   7.639   8.089 -0.3805 -0.6472  0.5959
21121SOL    HW164976   0.114   7.623   8.091 -0.3382 -0.3414  1.5606
21121SOL    HW264977   0.011   7.734   8.091 -0.7131 -0.6734  0.5625
21122SOL     OW64978   3.386   5.055   2.639  0.5654  0.1757  0.1252
21122SOL    HW164979   3.306   5.104   2.650 -0.5419 -1.5081  0.0036
21122SOL    HW264980   3.443   5.082   2.711 -0.1721  1.2558  0.3084
21123SOL     OW64981   1.188   6.499   6.689  0.2024  0.1582 -0.1924
21123SOL    HW164982   1.173   6.469   6.779 -0.6550  2.9059  0.6843
21123SOL    HW264983   1.282   6.484   6.674  0.3202 -0.5254  1.0788
21124SOL     OW64984   1.343   8.551   9.652 -0.7304 -0.6522  0.4802
21124SOL    HW164985   1.365   8.641   9.678 -0.2904 -0.4245 -0.6042
21124SOL    HW264986   1.254   8.557   9.619 -0.2697 -0.3300 -0.7782
21125SOL     OW64987   9.149   4.538   4.214 -0.2688  0.3417  0.8111
21125SOL    HW164988   9.175   4.603   4.280 -0.2766 -0.5208  1.6937
21125SOL    HW264989   9.161   4.454   4.258  1.5570 -0.3885 -0.9075
21126SOL     OW64990   6.743   5.053   9.240  0.1813 -0.3505 -0.8784
21126SOL    HW164991   6.762   5.027   9.330  0.9794 -2.4895 -1.6182
21126SOL    HW264992   6.718   5.146   9.247  0.5209 -0.3773  1.4804
21127SOL     OW64993   2.703   8.788   0.427  0.6303 -0.4557 -0.4647
21127SOL    HW164994   2.628   8.734   0.455 -0.0033 -0.0335 -1.2997
21127SOL    HW264995   2.770   8.725   0.403  1.0510 -0.8424  1.5403
21128SOL     OW64996   0.092   6.951   5.362  0.1796  0.0983 -0.2657
21128SOL    HW164997   0.102   7.040   5.329  0.8359  0.3929  0.6824
21128SOL    HW264998   0.023   6.958   5.428 -0.1736 -0.2171 -0.5979
21129SOL     OW64999   3.287   6.064   2.797  0.1204  0.7243  0.2560
21129SOL    HW165000   3.285   6.010   2.875 -2.3527 -0.8357 -0.7638
21129SOL    HW265001   3.380   6.082   2.782  0.8434 -1.2384  1.9705
21130SOL     OW65002   1.516   7.349   0.435 -0.0014 -0.4829 -0.0859
21130SOL    HW165003   1.488   7.427   0.387  0.6782 -0.4156 -0.3754
21130SOL    HW265004   1.463   7.351   0.515 -2.3719 -1.5096 -1.5553
21131SOL     OW65005   4.994   5.549   7.927  0.1486  0.3168 -0.0469
21131SOL    HW165006   4.940   5.477   7.959  0.1861 -0.7666 -2.2085
21131SOL    HW265007   4.955   5.628   7.965 -0.6754 -0.7253  1.3603
21132SOL     OW65008   0.206   1.548   4.583  0.2514  0.5638 -0.3549
21132SOL    HW165009   0.296   1.533   4.554 -0.0955 -0.0458 -1.1499
21132SOL    HW265010   0.157   1.474   4.547 -0.2193 -0.2072  1.7291
21133SOL     OW65011   0.329   1.803   7.965  0.8811  0.5383  0.5359
21133SOL    HW165012   0.286   1.762   8.040 -0.3466  0.9772  0.0996
21133SOL    HW265013   0.413   1.833   7.999 -0.0172  1.5265  1.9820
21134SOL     OW65014   4.751   5.795   4.008 -0.4305  0.2253  0.4031
21134SOL    HW165015   4.668   5.748   4.010  0.2741 -1.0426  0.7092
21134SOL    HW265016   4.745   5.859   4.079 -1.5708  0.9329 -0.2989
21135SOL     OW65017   9.627   9.067   2.533  0.1261 -1.0229  0.5732
21135SOL    HW165018   9.538   9.061   2.566 -0.0837  1.8104  0.8131
21135SOL    HW265019   9.617   9.092   2.441  0.6600 -0.9662  0.5278
21136SOL     OW65020   3.780   6.847   1.441 -0.0682  0.2937  0.0330
21136SOL    HW165021   3.711   6.806   1.493  0.1075  1.2339  1.0325
21136SOL    HW265022   3.822   6.774   1.396  0.2875 -0.6716  1.8208
21137SOL     OW65023   9.814   5.451   7.095  0.0597  0.5279  0.0645
21137SOL    HW165024   9.794   5.462   7.188 -2.2708 -0.7321 -0.2005
21137SOL    HW265025   9.769   5.525   7.052 -1.3272 -0.4665 -0.2618
21138SOL     OW65026   9.582   0.539   2.916 -0.6757  0.2562  0.3489
21138SOL    HW165027   9.501   0.510   2.873  0.3523 -0.6209 -1.0693
21138SOL    HW265028   9.566   0.526   3.009 -2.1139 -0.0391  0.0825
21139SOL     OW65029   0.375   8.716   8.195 -0.2485 -0.0653 -0.2667
21139SOL    HW165030   0.469   8.735   8.190  0.2265 -1.9787  0.4705
21139SOL    HW265031   0.338   8.790   8.243  1.4018 -0.6500  2.0812
21140SOL     OW65032   3.027   3.563   8.037 -0.4943 -0.2942  0.8268
21140SOL    HW165033   3.119   3.558   8.063 -0.7238 -0.1347  1.7057
21140SOL    HW265034   2.986   3.620   8.103 -0.9398  0.8396 -0.3844
21141SOL     OW65035   9.065   2.635   2.241 -0.3407  0.2805 -0.0023
21141SOL    HW165036   9.077   2.605   2.151 -0.4513  1.7685 -0.5416
21141SOL    HW265037   8.996   2.701   2.235  0.8703  1.6778  0.8763
21142SOL     OW65038   7.512   2.244   2.052  0.3320 -0.2777  0.2628
21142SOL    HW165039   7.594   2.194   2.054  0.4293 -0.1011  1.2908
21142SOL    HW265040   7.494   2.256   1.959  0.5798 -1.7687  0.0014
21143SOL     OW65041   8.602   8.032   8.980  0.1091 -0.4426 -0.0381
21143SOL    HW165042   8.545   8.073   9.045  1.4531 -0.3102  1.0993
21143SOL    HW265043   8.677   8.000   9.030  0.3936 -1.8627 -1.2895
21144SOL     OW65044   0.733   4.864   3.212 -0.2367  0.0417 -0.1804
21144SOL    HW165045   0.814   4.878   3.164  0.4524  0.0142  0.9521
21144SOL    HW265046   0.700   4.952   3.230 -1.9612  0.1263 -2.9952
21145SOL     OW65047   5.817   9.283   8.057 -0.7715 -0.1743 -0.2728
21145SOL    HW165048   5.882   9.228   8.013  0.4615  0.7390  0.3631
21145SOL    HW265049   5.767   9.222   8.111  1.8264 -0.5396  1.9713
21146SOL     OW65050   1.032   6.629   6.514  0.0071  0.5268 -0.5837
21146SOL    HW165051   1.091   6.571   6.563 -2.3912 -2.9702 -1.4120
21146SOL    HW265052   0.954   6.635   6.569  0.3592  3.7041 -0.2458
21147SOL     OW65053   7.945   5.635   0.814 -0.6676  0.0825 -0.3081
21147SOL    HW165054   7.860   5.595   0.830 -0.7348  0.2789 -0.1800
21147SOL    HW265055   7.954   5.703   0.880 -0.0614 -0.4637  0.1889
21148SOL     OW65056   6.577   4.842   5.942  0.0596 -0.5187  0.1329
21148SOL    HW165057   6.502   4.815   5.889 -0.4045  0.3620  0.3203
21148SOL    HW265058   6.650   4.843   5.880 -0.2640 -0.5346 -0.2573
21149SOL     OW65059   1.268   9.433   3.264 -0.2191 -0.3802  0.8004
21149SOL    HW165060   1.215   9.359   3.294 -1.3658  0.4447  0.8958
21149SOL    HW265061   1.240   9.506   3.319  0.3657  0.2876  0.2324
21150SOL     OW65062   6.893   0.618   7.720 -0.8552 -0.0633  0.2990
21150SOL    HW165063   6.822   0.630   7.783 -1.2666  1.0335 -0.3226
21150SOL    HW265064   6.870   0.677   7.647  0.2180 -0.3827 -0.3272
21151SOL     OW65065   2.797   9.526   9.773 -0.1745 -0.0863 -1.0079
21151SOL    HW165066   2.889   9.510   9.751 -0.6600 -0.0724 -3.2047
21151SOL    HW265067   2.764   9.441   9.802  0.3807 -0.2188 -0.7501
21152SOL     OW65068   1.303   9.115   6.038  0.4224 -0.1171  0.1734
21152SOL    HW165069   1.323   9.082   6.125 -0.5486 -0.5215  0.2601
21152SOL    HW265070   1.290   9.036   5.985 -3.1288 -0.0133  0.6571
21153SOL     OW65071   6.096   0.282   4.275 -0.0127 -0.0739  0.3500
21153SOL    HW165072   6.154   0.286   4.199  1.9049 -1.5437  1.6636
21153SOL    HW265073   6.109   0.365   4.320  0.3919 -0.0297  0.1563
21154SOL     OW65074   9.560   1.987   8.750  0.0496  0.3771  1.0130
21154SOL    HW165075   9.475   2.002   8.789 -0.7751  0.7247 -0.7976
21154SOL    HW265076   9.615   2.057   8.784 -0.1673 -0.2475  2.7276
21155SOL     OW65077   4.991   8.399   8.404  0.4255 -0.1594  0.4356
21155SOL    HW165078   5.052   8.472   8.396  0.7965 -0.2627  1.9992
21155SOL    HW265079   4.933   8.407   8.328  0.1753  2.0156  0.8088
21156SOL     OW65080   8.246   8.887   5.913  0.1120 -0.3187 -0.2751
21156SOL    HW165081   8.305   8.841   5.854 -0.0442 -1.4190  0.3995
21156SOL    HW265082   8.195   8.945   5.856  1.7540  0.6153 -0.8870
21157SOL     OW65083   9.735   4.487   3.927 -0.3669 -0.3980 -0.5311
21157SOL    HW165084   9.648   4.523   3.943 -0.1234 -0.2904  0.6519
21157SOL    HW265085   9.719   4.394   3.909 -0.7431 -0.3424 -0.4948
21158SOL     OW65086   2.317   6.716   1.305 -0.8610 -0.3393 -0.1496
21158SOL    HW165087   2.400   6.759   1.325 -1.8775  0.8402  1.9042
21158SOL    HW265088   2.305   6.653   1.377 -2.0592  0.0463  0.0152
21159SOL     OW65089   5.705   0.295   0.570 -0.3070 -0.0455 -0.2825
21159SOL    HW165090   5.772   0.282   0.503  0.6215 -0.5250  0.6992
21159SOL    HW265091   5.751   0.341   0.641 -0.8792 -0.7887  0.5993
21160SOL     OW65092   9.515   3.904   0.436 -0.4735  0.6453  0.0146
21160SOL    HW165093   9.560   3.955   0.370  0.3625  0.1282  0.1763
21160SOL    HW265094   9.422   3.914   0.415 -0.3099  1.8577 -0.2150
21161SOL     OW65095   1.148   7.392   4.650  0.0346 -0.0141  0.1266
21161SOL    HW165096   1.109   7.322   4.702  1.2771 -0.7104  0.1529
21161SOL    HW265097   1.235   7.404   4.687  0.4127  0.4630 -0.8722
21162SOL     OW65098   1.304   4.026   6.641  0.0027 -0.2588  0.0600
21162SOL    HW165099   1.291   4.017   6.547  0.6837 -0.8541  0.0085
21162SOL    HW265100   1.373   4.092   6.649 -0.1674 -0.0928  0.1452
21163SOL     OW65101   1.893   5.802   8.391  0.1351 -0.8213  0.3999
21163SOL    HW165102   1.875   5.858   8.467 -0.9057 -0.1522 -0.3143
21163SOL    HW265103   1.977   5.834   8.357  0.1436 -0.4958  0.7213
21164SOL     OW65104   7.143   9.775   7.114 -0.7746 -0.4464 -0.9470
21164SOL    HW165105   7.174   9.685   7.131 -1.7285 -0.9218 -1.6335
21164SOL    HW265106   7.198   9.830   7.170 -1.3392 -1.6044  0.8540
21165SOL     OW65107   3.057   3.375   0.459  0.3766  0.0517 -0.7514
21165SOL    HW165108   3.142   3.336   0.481  2.1013  4.6302  2.3961
21165SOL    HW265109   2.999   3.348   0.529  0.5097  0.1822 -0.5877
21166SOL     OW65110   1.517   8.157   1.786 -0.3506 -0.4109 -0.1863
21166SOL    HW165111   1.601   8.161   1.832 -0.2982  1.9954 -0.3395
21166SOL    HW265112   1.459   8.109   1.844  0.7683 -0.9113  0.5451
21167SOL     OW65113   1.062   0.928   0.094  0.6713 -0.4216  0.3371
21167SOL    HW165114   1.015   0.845   0.098 -0.0483 -0.1902 -1.8647
21167SOL    HW265115   1.036   0.966   0.010  1.5843  1.6773  0.9361
21168SOL     OW65116   9.512   6.514   9.773  0.3711 -0.2852 -0.1299
21168SOL    HW165117   9.546   6.537   9.859  1.7496  3.1535 -1.4156
21168SOL    HW265118   9.541   6.423   9.759  0.1100 -0.9312  2.9307
21169SOL     OW65119   3.166   2.146   8.752 -0.6098 -0.6560  0.1948
21169SOL    HW165120   3.188   2.143   8.845  0.1844  0.5252  0.0651
21169SOL    HW265121   3.227   2.083   8.712 -0.5784 -0.7591  0.4034
21170SOL     OW65122   2.340   1.821   8.330 -0.0118 -0.2861  0.0008
21170SOL    HW165123   2.251   1.850   8.308  0.1364  0.3945  0.2700
21170SOL    HW265124   2.379   1.896   8.375 -0.2170 -1.5231  2.3899
21171SOL     OW65125   4.094   7.674   6.573  0.4517  0.7873  0.0077
21171SOL    HW165126   4.039   7.751   6.558  0.1336  0.2270 -2.0531
21171SOL    HW265127   4.032   7.603   6.586  0.6845  0.4043 -0.9031
21172SOL     OW65128   5.242   0.262   2.168  0.0017  0.5972  0.5166
21172SOL    HW165129   5.223   0.281   2.076 -1.2266  2.3048  1.0552
21172SOL    HW265130   5.270   0.346   2.204  2.8055 -0.5357  1.2285
21173SOL     OW65131   1.069   8.559   8.540 -0.1934 -0.3517 -0.0482
21173SOL    HW165132   1.164   8.556   8.550 -0.2481 -2.1866  0.2904
21173SOL    HW265133   1.036   8.584   8.626 -0.0502 -0.8264  0.1475
21174SOL     OW65134   0.779   4.860   8.051 -0.0854  0.2909 -0.5776
21174SOL    HW165135   0.808   4.942   8.090 -0.1892  0.0338  0.0413
21174SOL    HW265136   0.833   4.851   7.972  0.0873  0.8360 -0.5237
21175SOL     OW65137   1.934   7.219   2.301 -0.2457 -0.0734  0.4392
21175SOL    HW165138   1.851   7.216   2.254  0.2676 -1.0518 -0.4558
21175SOL    HW265139   1.968   7.307   2.285  0.1120 -0.5137 -1.4011
21176SOL     OW65140   9.432   5.153   6.047  0.1900 -0.3288 -0.2364
21176SOL    HW165141   9.477   5.071   6.026  1.3707  0.4952 -1.0923
21176SOL    HW265142   9.412   5.146   6.141  1.7767 -0.9177  0.0933
21177SOL     OW65143   9.187   4.781   4.024  0.1298 -0.1800  0.1212
21177SOL    HW165144   9.178   4.703   4.079  0.1991  0.7839  1.5427
21177SOL    HW265145   9.176   4.854   4.084 -0.3526  0.9201 -1.2593
21178SOL     OW65146   2.297   2.275   1.973 -0.2350  0.3959  0.3039
21178SOL    HW165147   2.368   2.306   1.916 -0.3799  0.9776  0.4298
21178SOL    HW265148   2.311   2.181   1.979  0.3089  0.4505  0.0248
21179SOL     OW65149   0.953   3.861   9.574  0.1799 -0.3436 -0.1790
21179SOL    HW165150   0.877   3.897   9.529  0.3754 -0.1789 -0.3742
21179SOL    HW265151   0.971   3.922   9.645  0.0148 -0.4812 -0.0184
21180SOL     OW65152   5.792   1.637   2.478  0.5585 -0.2522  0.0840
21180SOL    HW165153   5.811   1.677   2.563  0.3168 -1.1495  0.5715
21180SOL    HW265154   5.738   1.561   2.499  0.6081 -0.5582 -0.8623
21181SOL     OW65155   3.090   0.779   0.308 -0.3936 -0.4093 -0.1864
21181SOL    HW165156   3.119   0.789   0.399 -0.4133 -0.3703 -0.1843
21181SOL    HW265157   2.994   0.780   0.313 -0.3960  0.1314 -0.2656
21182SOL     OW65158   3.213   6.823   7.576  0.4506  0.0589  0.3529
21182SOL    HW165159   3.280   6.878   7.534  0.8454 -0.2989  0.5064
21182SOL    HW265160   3.145   6.885   7.603  0.1934  0.3038 -0.7822
21183SOL     OW65161   6.924   2.990   1.364 -0.1845  0.3582  0.0581
21183SOL    HW165162   6.972   2.963   1.442 -0.6059 -0.6467 -0.0056
21183SOL    HW265163   6.979   3.056   1.323  0.0909  0.8229  1.1477
21184SOL     OW65164   9.327   6.172   9.346 -0.4053  0.6983  0.1387
21184SOL    HW165165   9.276   6.183   9.426 -1.5605  1.6699 -0.6986
21184SOL    HW265166   9.388   6.101   9.366 -1.9007 -0.3318  1.2694
21185SOL     OW65167   4.432   7.527   9.378  0.4820  0.3093  0.3839
21185SOL    HW165168   4.464   7.594   9.317  0.4593  0.0764  0.1143
21185SOL    HW265169   4.381   7.468   9.323  0.9681 -0.2452  0.5142
21186SOL     OW65170   7.355   3.278   9.565 -0.0729  0.7056 -0.2897
21186SOL    HW165171   7.340   3.192   9.604 -1.5278  0.8309 -0.5319
21186SOL    HW265172   7.441   3.271   9.523 -0.0886 -0.5518 -0.1322
21187SOL     OW65173   1.358   2.306   5.710 -0.8217  0.1978 -0.4976
21187SOL    HW165174   1.319   2.236   5.657 -2.8923  1.2491 -0.4850
21187SOL    HW265175   1.436   2.267   5.748 -1.5034 -1.8670 -1.0813
21188SOL     OW65176   6.024   3.290   5.396 -0.3719 -0.0120  0.6068
21188SOL    HW165177   5.975   3.346   5.457 -0.9194 -0.2066  0.3553
21188SOL    HW265178   5.958   3.260   5.334  0.0990 -0.1847  0.1875
21189SOL     OW65179   8.304   7.239   0.856  0.1568  0.4341 -0.8091
21189SOL    HW165180   8.212   7.264   0.841  0.3955  1.5729 -0.4647
21189SOL    HW265181   8.342   7.235   0.769 -0.6239 -1.7652 -1.0990
21190SOL     OW65182   2.029   6.893   6.843 -0.0608  0.5278  0.5849
21190SOL    HW165183   2.041   6.873   6.750  1.1079  2.1334  0.3537
21190SOL    HW265184   1.982   6.817   6.878  0.6515 -0.7018 -1.0248
21191SOL     OW65185   9.416   3.169   3.167  0.6942 -0.2188 -0.5846
21191SOL    HW165186   9.499   3.124   3.183  1.6257  1.6437  0.2288
21191SOL    HW265187   9.439   3.241   3.109 -0.3714  0.2624 -0.4309
21192SOL     OW65188   1.568   1.654   5.485 -0.1974 -0.4422  0.0722
21192SOL    HW165189   1.531   1.573   5.518  1.4954 -1.4233 -0.3090
21192SOL    HW265190   1.515   1.676   5.408 -1.6176 -0.3228  1.0603
21193SOL     OW65191   3.127   2.162   5.378 -0.6356  0.0882 -0.1049
21193SOL    HW165192   3.067   2.095   5.347  0.6181 -1.1382  0.0363
21193SOL    HW265193   3.199   2.161   5.316  0.2426  0.0360  0.8878
21194SOL     OW65194   2.043   8.330   9.306 -0.6094 -0.3703  0.0942
21194SOL    HW165195   2.036   8.386   9.229  0.7208 -0.7012 -0.3116
21194SOL    HW265196   1.994   8.375   9.374 -2.5297 -0.4709 -1.1397
21195SOL     OW65197   1.880   0.865   8.426 -0.0793  0.3177  0.1038
21195SOL    HW165198   1.925   0.791   8.468  1.9311  2.6271  2.3412
21195SOL    HW265199   1.916   0.868   8.337  0.2767 -0.9864  0.1871
21196SOL     OW65200   2.590   6.425   4.823 -0.2921 -0.4815  0.4027
21196SOL    HW165201   2.633   6.368   4.759 -0.5088 -0.1823 -0.0144
21196SOL    HW265202   2.498   6.398   4.820 -0.3046 -0.4541  0.5720
21197SOL     OW65203   2.276   7.084   3.698 -0.1296 -0.5640  0.0553
21197SOL    HW165204   2.328   7.146   3.646  0.6733 -2.4845 -1.5577
21197SOL    HW265205   2.311   6.998   3.675 -0.9186 -1.6347  2.5400
21198SOL     OW65206   3.535   5.812   1.630 -0.6162  0.1684 -0.4033
21198SOL    HW165207   3.484   5.803   1.550 -0.2720  1.3422 -0.7761
21198SOL    HW265208   3.488   5.759   1.695 -0.5608 -1.2776 -1.5149
21199SOL     OW65209   1.298   3.069   4.483  0.5599  0.4326  0.3122
21199SOL    HW165210   1.393   3.071   4.494  0.4464  0.9993  1.2927
21199SOL    HW265211   1.265   3.040   4.567 -0.2627  2.9097  0.9368
21200SOL     OW65212   3.675   0.064   1.945 -0.4690  0.8817  0.0898
21200SOL    HW165213   3.627   0.010   2.007  0.4599 -0.1340 -0.0385
21200SOL    HW265214   3.670   0.016   1.862  1.3570  0.3502  0.2389
21201SOL     OW65215   3.742   6.531   2.785  0.7748  0.5992 -0.0648
21201SOL    HW165216   3.666   6.561   2.835  1.0573  1.9313 -0.3735
21201SOL    HW265217   3.750   6.595   2.714  0.0638 -1.5208 -2.1588
21202SOL     OW65218   3.100   2.546   8.087  0.3909 -0.3181 -0.0176
21202SOL    HW165219   3.031   2.564   8.023  0.3326 -0.6187 -0.0435
21202SOL    HW265220   3.180   2.541   8.035  0.3668 -0.4018 -0.0480
21203SOL     OW65221   7.944   0.284   7.419  0.2912 -0.6007  0.3561
21203SOL    HW165222   7.977   0.310   7.505  0.8942 -3.2180  1.0053
21203SOL    HW265223   7.855   0.253   7.436 -0.0099 -0.0440 -0.1833
21204SOL     OW65224   9.256   4.885   0.944  0.2753 -0.0972  0.8126
21204SOL    HW165225   9.310   4.963   0.956 -1.1879  1.1414 -0.2184
21204SOL    HW265226   9.218   4.869   1.030 -0.2049  0.9772  0.8224
21205SOL     OW65227   4.361   2.262   9.129  0.2190  0.2285  0.3058
21205SOL    HW165228   4.431   2.265   9.065 -0.9285 -0.2535 -1.0134
21205SOL    HW265229   4.294   2.322   9.095 -1.8285 -2.4282 -0.7677
21206SOL     OW65230   3.791   4.238   1.765  0.5021  0.2084 -0.2467
21206SOL    HW165231   3.872   4.190   1.747  0.4269 -0.2592  0.6245
21206SOL    HW265232   3.761   4.267   1.679  1.1376 -0.3531 -0.6673
21207SOL     OW65233   5.161   8.210   0.213 -0.0477  0.8834  0.2050
21207SOL    HW165234   5.081   8.262   0.220 -1.7224 -1.6104  0.8891
21207SOL    HW265235   5.189   8.222   0.122 -1.4441  1.4459 -0.1795
21208SOL     OW65236   5.630   0.100   7.573  0.2462  0.0722  0.0838
21208SOL    HW165237   5.544   0.135   7.553  0.4288  0.4500 -0.0514
21208SOL    HW265238   5.650   0.133   7.660  1.5663  2.6211 -1.0631
21209SOL     OW65239   4.957   7.567   2.163 -0.3157  0.1499  0.2988
21209SOL    HW165240   4.964   7.609   2.249 -2.5426  0.6876  0.2803
21209SOL    HW265241   4.869   7.529   2.163  0.7705 -2.5896 -0.5776
21210SOL     OW65242   6.272   9.368   8.738 -0.3406 -0.7250 -0.5717
21210SOL    HW165243   6.205   9.367   8.669  0.5533  0.9107 -1.5434
21210SOL    HW265244   6.291   9.461   8.750 -0.1301 -1.0151  1.5937
21211SOL     OW65245   2.702   9.010   5.965  0.3909  0.1044 -0.0915
21211SOL    HW165246   2.699   9.000   5.870 -0.4639  2.8196 -0.4203
21211SOL    HW265247   2.792   9.036   5.983 -0.0596  2.0912 -0.5160
21212SOL     OW65248   0.076   1.222   7.688  0.3248 -0.2050  0.2765
21212SOL    HW165249   0.114   1.202   7.774  0.4832  1.1456  0.5309
21212SOL    HW265250  -0.018   1.224   7.702  0.3362 -0.2308  0.3512
21213SOL     OW65251   4.346   8.704   9.593  0.3578 -0.1435  1.1340
21213SOL    HW165252   4.262   8.730   9.554  0.3304  0.5463  1.6230
21213SOL    HW265253   4.372   8.626   9.544 -1.3888 -1.3973  2.0865
21214SOL     OW65254   8.740   7.814   4.415  0.3009 -0.6594  0.4771
21214SOL    HW165255   8.658   7.832   4.370  0.4107 -0.7441  0.2446
21214SOL    HW265256   8.793   7.767   4.351  0.3683 -0.9860  0.7680
21215SOL     OW65257   9.599   6.727   6.429  0.4179  0.2153  0.5891
21215SOL    HW165258   9.671   6.709   6.368  0.0197  1.4877 -0.2871
21215SOL    HW265259   9.520   6.714   6.376  0.0219 -0.1123  1.2519
21216SOL     OW65260   2.930   0.343   9.051  0.4422 -0.5192  0.0352
21216SOL    HW165261   2.896   0.257   9.027  0.8152 -1.2032  1.8151
21216SOL    HW265262   3.024   0.336   9.039  0.4679 -0.3428  0.1291
21217SOL     OW65263   5.508   6.737   0.713  0.1461 -0.1280  0.1511
21217SOL    HW165264   5.489   6.746   0.619  0.2717  1.6289  0.2535
21217SOL    HW265265   5.576   6.670   0.717 -0.8740 -1.2840 -0.8667
21218SOL     OW65266   2.324   6.945   8.608  0.3602 -0.1134  0.2767
21218SOL    HW165267   2.336   7.001   8.532  0.8217  0.6407  0.8951
21218SOL    HW265268   2.368   6.863   8.585 -0.6222 -0.3643 -0.7677
21219SOL     OW65269   5.930   5.256   4.677 -0.1066  0.4962 -0.3318
21219SOL    HW165270   5.893   5.193   4.739 -0.2551  0.9131  0.0096
21219SOL    HW265271   5.856   5.284   4.624  0.3205 -1.1598 -1.8761
21220SOL     OW65272   1.449   6.151   6.380 -0.1177 -0.1049 -0.0856
21220SOL    HW165273   1.483   6.240   6.386 -1.0569  0.3339 -0.8817
21220SOL    HW265274   1.354   6.162   6.368 -0.1366 -1.1590 -1.1945
21221SOL     OW65275   5.955   9.258   3.292 -0.0493 -0.5812 -0.2106
21221SOL    HW165276   5.969   9.340   3.244 -1.0533  0.0611  0.5401
21221SOL    HW265277   5.957   9.284   3.384 -2.0982 -1.0720  0.0166
21222SOL     OW65278   6.280   2.001   6.602 -0.0840 -0.6161  0.4041
21222SOL    HW165279   6.364   2.016   6.558 -0.2660  0.1399  0.3032
21222SOL    HW265280   6.226   2.076   6.577 -0.9896 -1.3798  0.0029
21223SOL     OW65281   8.849   7.404   5.877  0.2251  0.6161 -0.0249
21223SOL    HW165282   8.896   7.481   5.846 -1.1085  2.1222  1.4703
21223SOL    HW265283   8.757   7.431   5.878 -0.5878 -1.7801 -1.6002
21224SOL     OW65284   0.638   1.113   1.818  0.8095 -0.1912  0.5537
21224SOL    HW165285   0.668   1.024   1.838  0.0794 -0.1906  1.7885
21224SOL    HW265286   0.648   1.160   1.900  0.2760  0.6105  0.1681
21225SOL     OW65287   3.737   6.942   1.027  0.1891 -0.1698  0.7612
21225SOL    HW165288   3.759   6.952   0.934 -0.2516  0.5620  0.7221
21225SOL    HW265289   3.696   6.856   1.033 -0.7070  0.1912  0.0825
21226SOL     OW65290   9.244   8.128   2.828 -0.1070 -0.3426  0.2413
21226SOL    HW165291   9.183   8.200   2.849  0.3143  0.7111 -1.8766
21226SOL    HW265292   9.260   8.085   2.912 -1.7316  0.9673  1.2882
21227SOL     OW65293   1.622   1.373   5.921  0.0151 -0.0317 -0.1893
21227SOL    HW165294   1.711   1.407   5.928 -0.5345  1.5746 -0.5066
21227SOL    HW265295   1.633   1.278   5.915  1.6208  0.0418  0.9506
21228SOL     OW65296   8.243   4.141   7.867  0.7542  0.2868  0.2337
21228SOL    HW165297   8.157   4.108   7.892  0.6809 -0.6336 -1.1515
21228SOL    HW265298   8.225   4.225   7.825  0.5576  0.1977  0.1400
21229SOL     OW65299   1.262   3.809   5.001 -0.5465 -0.2791  0.6225
21229SOL    HW165300   1.315   3.773   5.073 -1.2691  0.0281  1.3186
21229SOL    HW265301   1.315   3.880   4.966  0.0506 -0.7776  0.4848
21230SOL     OW65302   5.939   2.149   7.807 -0.2872  0.3968  0.1311
21230SOL    HW165303   5.913   2.208   7.736 -0.3618  2.2851  1.6373
21230SOL    HW265304   5.859   2.103   7.831  0.2622 -2.3281 -2.7087
21231SOL     OW65305   7.411   8.192   3.856  0.0854 -0.0275  0.0432
21231SOL    HW165306   7.356   8.116   3.836 -0.5255  0.3164  0.3600
21231SOL    HW265307   7.395   8.208   3.949  1.0382 -0.1553  0.2401
21232SOL     OW65308   1.400   8.636   3.103 -0.2425 -0.5647  0.3723
21232SOL    HW165309   1.476   8.629   3.046 -0.4888  0.4886 -0.1045
21232SOL    HW265310   1.416   8.715   3.156 -1.1708 -0.0919 -0.0176
21233SOL     OW65311   6.569   5.520   6.549  0.1557 -0.7010  0.1747
21233SOL    HW165312   6.579   5.581   6.476 -1.0435  0.6866  1.1223
21233SOL    HW265313   6.612   5.563   6.623 -0.6465 -1.0202  0.8432
21234SOL     OW65314   1.856   2.072   6.300  0.1349 -0.3323  0.1951
21234SOL    HW165315   1.871   2.027   6.384  0.2123  0.3925  0.5788
21234SOL    HW265316   1.928   2.041   6.244  2.5175  2.1573  1.6353
21235SOL     OW65317   9.695   0.575   4.290  0.4450  0.3714 -0.0754
21235SOL    HW165318   9.670   0.589   4.199  0.2736 -1.3053 -0.3181
21235SOL    HW265319   9.781   0.618   4.298  0.1887  1.0664 -0.8365
21236SOL     OW65320   2.974   7.657   6.296  0.4658 -0.4990  0.0173
21236SOL    HW165321   3.059   7.622   6.323  1.9505  3.1686  0.6964
21236SOL    HW265322   2.989   7.692   6.208 -1.1219 -2.0376 -0.9212
21237SOL     OW65323   2.526   5.398   0.444  0.0108 -0.3166  0.3703
21237SOL    HW165324   2.532   5.324   0.383 -1.6920 -0.5813  0.4911
21237SOL    HW265325   2.540   5.358   0.530  1.3285 -0.1103  0.2811
21238SOL     OW65326   0.072   1.896   6.300 -0.2797  0.4331 -0.0429
21238SOL    HW165327  -0.022   1.911   6.312 -0.0140  2.2161  0.1653
21238SOL    HW265328   0.078   1.844   6.219 -1.4626 -0.3822  0.3728
21239SOL     OW65329   4.514   1.436   6.392  0.4346 -0.1096 -0.4863
21239SOL    HW165330   4.425   1.444   6.426 -0.0369 -1.8781 -1.1706
21239SOL    HW265331   4.525   1.511   6.334 -0.0849  0.8988  0.6952
21240SOL     OW65332   8.235   3.673   6.617 -0.4922  0.0534 -0.8450
21240SOL    HW165333   8.200   3.740   6.558  0.4820  0.4169 -1.0319
21240SOL    HW265334   8.272   3.607   6.559  0.4204  0.3829 -0.6512
21241SOL     OW65335   1.876   0.074   1.305 -0.3723  0.3967  0.7020
21241SOL    HW165336   1.906   0.092   1.216  1.1334 -0.6836  0.9589
21241SOL    HW265337   1.830   0.153   1.332  0.2646  1.2215 -0.5770
21242SOL     OW65338   5.523   9.414   4.470  0.2570 -0.2227 -0.0169
21242SOL    HW165339   5.573   9.480   4.422  0.9057  0.3384  1.3795
21242SOL    HW265340   5.566   9.331   4.448 -0.7054 -0.2641 -1.9650
21243SOL     OW65341   8.298   0.528   5.426  0.1702 -0.1734 -0.0366
21243SOL    HW165342   8.374   0.560   5.474 -0.5817 -0.7427  1.6268
21243SOL    HW265343   8.270   0.602   5.372 -0.9079  1.7485  2.8884
21244SOL     OW65344   8.934   7.009   3.156  0.2533 -0.2417 -0.1089
21244SOL    HW165345   8.936   6.942   3.224 -0.1935 -0.7948 -0.6268
21244SOL    HW265346   8.873   6.974   3.091  1.4001 -0.1737 -1.2541
21245SOL     OW65347   8.443   4.703   9.343  0.3702  0.2570  0.0111
21245SOL    HW165348   8.497   4.782   9.346  0.8145 -0.0632  0.7593
21245SOL    HW265349   8.506   4.631   9.340 -0.0293 -0.0874 -0.2572
21246SOL     OW65350   1.981   8.883   4.363  0.2970  0.3956  0.3481
21246SOL    HW165351   1.940   8.969   4.364 -0.4772  0.0374  0.2109
21246SOL    HW265352   2.009   8.868   4.453 -0.2368  0.4867  0.5345
21247SOL     OW65353   1.687   6.908   5.225  0.0246  0.1220 -0.2244
21247SOL    HW165354   1.602   6.882   5.189  0.0062 -1.7126  1.0046
21247SOL    HW265355   1.666   6.949   5.309  0.3302  0.0514 -0.1129
21248SOL     OW65356   6.191   1.497   1.817 -0.4636  0.9036 -0.0490
21248SOL    HW165357   6.196   1.560   1.890  1.1403 -0.2566  0.9125
21248SOL    HW265358   6.242   1.538   1.747 -0.7478  1.3763  0.0206
21249SOL     OW65359   9.630   6.392   4.637  0.5830  0.4285 -0.0020
21249SOL    HW165360   9.703   6.434   4.591  0.2092  0.5710 -0.4681
21249SOL    HW265361   9.672   6.337   4.703  1.2026 -1.4548 -1.8962
21250SOL     OW65362   9.389   7.556   5.889 -0.3958 -0.2532  0.8535
21250SOL    HW165363   9.482   7.546   5.869 -0.3762  1.5581 -0.1657
21250SOL    HW265364   9.387   7.612   5.967 -0.6325 -0.6425  1.1311
21251SOL     OW65365   6.535   2.564   3.902  0.2416  0.4823  0.2536
21251SOL    HW165366   6.463   2.537   3.845  0.4891  0.4232 -0.0361
21251SOL    HW265367   6.599   2.604   3.843  1.0263 -0.6331  0.3188
21252SOL     OW65368   2.739   6.119   8.811 -0.1855 -0.4350  0.3282
21252SOL    HW165369   2.816   6.064   8.802  1.6762  1.2655  3.5868
21252SOL    HW265370   2.746   6.183   8.740  0.0010 -1.7404 -0.8656
21253SOL     OW65371   7.788   7.420   5.851 -0.0804  0.1443 -0.1827
21253SOL    HW165372   7.852   7.380   5.910 -1.0140 -0.3965  0.4849
21253SOL    HW265373   7.722   7.353   5.837  0.2197  0.1642 -2.0739
21254SOL     OW65374   8.187   8.647   0.602 -0.0642  0.0460 -0.0565
21254SOL    HW165375   8.104   8.618   0.564  0.1875 -1.1109  0.2453
21254SOL    HW265376   8.164   8.725   0.653 -0.8808  0.0190 -0.3682
21255SOL     OW65377   7.492   2.581   7.838 -0.2170 -0.1506  0.1033
21255SOL    HW165378   7.428   2.529   7.886  1.9032 -1.1763  2.0564
21255SOL    HW265379   7.529   2.521   7.773 -0.0838 -0.0841  0.1162
21256SOL     OW65380   5.364   7.582   5.447 -0.2975 -0.0776  0.4437
21256SOL    HW165381   5.295   7.645   5.469 -0.1631 -0.1252  1.0177
21256SOL    HW265382   5.412   7.570   5.529  1.2144  0.9335 -0.2584
21257SOL     OW65383   9.707   6.071   8.391 -0.0177 -0.6231 -0.4225
21257SOL    HW165384   9.649   6.097   8.320 -0.3139 -2.4783 -0.9225
21257SOL    HW265385   9.651   6.068   8.469 -0.4298 -1.5750 -0.7387
21258SOL     OW65386   3.859   0.262   7.719 -0.1950 -0.2024  0.3747
21258SOL    HW165387   3.875   0.168   7.728 -2.5524 -0.9963 -2.2994
21258SOL    HW265388   3.767   0.274   7.743  0.0549  1.4267  0.6569
21259SOL     OW65389   2.969   5.839   0.912 -0.3277  0.4839  0.1560
21259SOL    HW165390   3.030   5.833   0.839 -0.9002  1.0534 -0.3754
21259SOL    HW265391   2.984   5.759   0.962  3.4471  2.1679  2.1161
21260SOL     OW65392   6.495   6.499   8.861  0.1986 -0.4227  0.4807
21260SOL    HW165393   6.523   6.589   8.871 -1.3770  0.2246 -0.5142
21260SOL    HW265394   6.565   6.447   8.899  2.0590  1.1385 -0.6621
21261SOL     OW65395   2.958   4.207   6.013 -0.3862  0.4259 -0.5068
21261SOL    HW165396   2.926   4.280   6.065 -2.0214  0.1942 -1.1103
21261SOL    HW265397   2.912   4.215   5.930  0.0291 -0.8196 -0.8803
21262SOL     OW65398   2.673   8.693   6.044 -0.2700  0.0609 -0.6182
21262SOL    HW165399   2.735   8.762   6.022 -1.4488  1.2405 -0.3074
21262SOL    HW265400   2.681   8.630   5.972 -0.1114  1.1353 -1.5658
21263SOL     OW65401   0.251   2.482   2.557 -0.3036  0.0909  1.1210
21263SOL    HW165402   0.285   2.571   2.569 -1.0528  0.4926  0.3717
21263SOL    HW265403   0.156   2.494   2.552 -0.3196 -0.5443 -0.6661
21264SOL     OW65404   3.415   1.618   7.973 -0.0072  0.6284 -0.2797
21264SOL    HW165405   3.489   1.654   8.021 -0.2792 -0.3800  0.9567
21264SOL    HW265406   3.421   1.657   7.886  2.2556  0.1843 -0.3742
21265SOL     OW65407   8.027   0.337   9.654  0.5238 -0.3471 -0.2689
21265SOL    HW165408   7.943   0.295   9.673  0.8747 -0.5909  0.8040
21265SOL    HW265409   8.091   0.266   9.660  1.0683  0.2353  1.1053
21266SOL     OW65410   4.710   1.175   3.241 -0.3031  0.0672 -0.2084
21266SOL    HW165411   4.736   1.225   3.163  1.8006  0.3402  0.6006
21266SOL    HW265412   4.785   1.183   3.300 -1.5014 -0.8602  1.5062
21267SOL     OW65413   3.646   3.223   2.112  0.5247 -0.3089 -0.3220
21267SOL    HW165414   3.563   3.219   2.064  0.7857 -0.7074 -0.7505
21267SOL    HW265415   3.678   3.312   2.098 -0.2361  0.1160  0.5493
21268SOL     OW65416   2.978   1.867   3.289  0.3255 -0.1904  0.3942
21268SOL    HW165417   2.954   1.850   3.380 -1.2072  1.6039  0.3979
21268SOL    HW265418   2.911   1.928   3.258  0.2595 -1.4892 -2.2511
21269SOL     OW65419   3.232   8.639   6.870  0.8375  0.6495 -0.2585
21269SOL    HW165420   3.327   8.633   6.884  0.8498 -0.1055 -0.6141
21269SOL    HW265421   3.202   8.548   6.871  0.5953  0.5915 -3.4512
21270SOL     OW65422   1.570   1.128   7.514  0.0148 -0.0284  0.0688
21270SOL    HW165423   1.503   1.073   7.473 -0.9175  0.8926  0.3335
21270SOL    HW265424   1.523   1.204   7.546  1.3922  1.3620 -1.0585
21271SOL     OW65425   8.495   5.781   5.428  0.0386  0.2358 -0.2040
21271SOL    HW165426   8.487   5.685   5.432  0.3141  0.2095 -0.2332
21271SOL    HW265427   8.516   5.799   5.336  1.3801  0.2053  0.0667
21272SOL     OW65428   8.085   6.918   6.978  0.0995  0.0852  0.8329
21272SOL    HW165429   8.173   6.915   7.015  0.1228 -0.8196  0.7202
21272SOL    HW265430   8.072   7.010   6.955  0.8830  0.2865  1.1562
21273SOL     OW65431   4.210   0.322   0.385 -0.1515  0.8571  0.0784
21273SOL    HW165432   4.266   0.247   0.403  0.1254  0.9887 -0.2305
21273SOL    HW265433   4.245   0.392   0.441 -0.5925  0.6791  0.5891
21274SOL     OW65434   7.893   7.669   3.504 -0.7453  0.4883 -0.3828
21274SOL    HW165435   7.957   7.719   3.453 -0.5728 -0.3282 -0.9930
21274SOL    HW265436   7.815   7.723   3.504 -0.3405  1.0827 -0.4249
21275SOL     OW65437   6.132   2.392   4.275  0.2923 -0.8805 -0.0113
21275SOL    HW165438   6.168   2.378   4.187  0.7347  0.9175 -0.1483
21275SOL    HW265439   6.043   2.358   4.270 -0.0248  0.0818 -1.4565
21276SOL     OW65440   2.934   0.762   2.811  0.4419  0.1252  0.4226
21276SOL    HW165441   2.867   0.799   2.869 -0.2806 -0.4587 -0.0130
21276SOL    HW265442   3.014   0.762   2.864 -0.3210 -0.9537  1.6484
21277SOL     OW65443   7.841   3.736   0.700 -0.0509 -0.1721  0.2017
21277SOL    HW165444   7.926   3.778   0.690  0.8322 -2.1716 -1.3346
21277SOL    HW265445   7.779   3.808   0.703  1.4719  1.2820 -1.1216
21278SOL     OW65446   5.610   0.342   5.898 -0.6889 -0.2105  0.0734
21278SOL    HW165447   5.590   0.299   5.980 -1.2697  0.9667  0.5719
21278SOL    HW265448   5.551   0.417   5.894  0.9113  1.1085 -0.2878
21279SOL     OW65449   6.632   2.385   2.403  0.1491  0.1985  0.6670
21279SOL    HW165450   6.660   2.405   2.314  1.8844 -1.8019  0.6900
21279SOL    HW265451   6.693   2.435   2.458  1.0456 -0.8946  0.7020
21280SOL     OW65452   2.095   5.780   2.972 -0.1948 -0.0952  0.0101
21280SOL    HW165453   2.156   5.725   3.021 -0.6430  0.3971  1.1649
21280SOL    HW265454   2.034   5.813   3.038 -0.8844  0.5256 -0.9017
21281SOL     OW65455   5.083   3.430   6.578  0.1157  0.1186 -0.1141
21281SOL    HW165456   5.174   3.460   6.575 -0.2091  1.1321 -0.1482
21281SOL    HW265457   5.049   3.464   6.661 -0.1651 -0.4700  0.0182
21282SOL     OW65458   5.054   9.091   2.581  0.4964 -0.5912 -0.9481
21282SOL    HW165459   5.146   9.115   2.592  0.4060 -0.1428 -1.1429
21282SOL    HW265460   5.057   9.001   2.546  0.8548 -0.6244 -0.8416
21283SOL     OW65461   3.296   2.876   9.839  0.0138  0.0659  0.6486
21283SOL    HW165462   3.346   2.823   9.776 -1.1786 -2.6272  1.8193
21283SOL    HW265463   3.248   2.938   9.785  1.1618 -0.2941 -0.8538
21284SOL     OW65464   3.344   7.019   6.724 -0.0976  0.4313  0.2278
21284SOL    HW165465   3.378   6.933   6.748  0.4858  0.7359  0.5202
21284SOL    HW265466   3.422   7.072   6.708 -0.4169  1.1847  1.0423
21285SOL     OW65467   1.081   6.010   6.931  0.3484  0.7510 -0.3398
21285SOL    HW165468   0.997   6.049   6.954  0.9250  1.7228  0.1860
21285SOL    HW265469   1.065   5.915   6.934 -0.5526  0.9084  0.4011
21286SOL     OW65470   6.267   5.276   8.887 -0.3576 -0.3242  0.8539
21286SOL    HW165471   6.344   5.254   8.940 -0.6489 -1.4547  0.8400
21286SOL    HW265472   6.282   5.231   8.804  0.5466  2.1761 -0.4547
21287SOL     OW65473   5.906   8.774   9.430  0.6659  0.3931  0.3920
21287SOL    HW165474   5.866   8.689   9.447  0.8047  0.3752  0.6232
21287SOL    HW265475   5.907   8.781   9.334  2.3272 -0.6720  0.2935
21288SOL     OW65476   1.376   9.841   5.952  0.0449 -0.1016  0.3709
21288SOL    HW165477   1.467   9.812   5.963  0.3639  1.0006  0.8038
21288SOL    HW265478   1.356   9.821   5.860  0.7115 -0.4002  0.2804
21289SOL     OW65479   9.591   7.516   3.611  0.4558  0.2138 -0.2099
21289SOL    HW165480   9.656   7.533   3.679 -0.6372  0.1683  0.8905
21289SOL    HW265481   9.583   7.421   3.608  0.6123  0.2084 -0.5216
21290SOL     OW65482   7.248   6.628   9.752 -0.7556 -0.0866  0.4459
21290SOL    HW165483   7.258   6.687   9.827  2.6506 -0.2913  0.3381
21290SOL    HW265484   7.286   6.676   9.679 -0.0774 -1.4775 -0.1506
21291SOL     OW65485   3.449   7.730   4.990  0.7584  0.1673  0.0761
21291SOL    HW165486   3.519   7.783   4.949  1.2450 -1.4986 -1.3638
21291SOL    HW265487   3.386   7.715   4.919  0.1087 -0.3085  0.7421
21292SOL     OW65488   6.414   8.555   9.252 -0.3927  0.5017 -0.1833
21292SOL    HW165489   6.502   8.560   9.215 -0.1676 -2.9426 -0.4356
21292SOL    HW265490   6.423   8.588   9.341  0.5434  2.5160 -0.9689
21293SOL     OW65491   3.384   9.243   1.933 -0.1998  0.6573 -0.0626
21293SOL    HW165492   3.304   9.203   1.966 -0.1145  1.3846  1.0561
21293SOL    HW265493   3.361   9.335   1.917  0.0459  0.5619 -1.0687
21294SOL     OW65494   2.121   1.558   5.249  0.2698 -0.1626  0.3403
21294SOL    HW165495   2.151   1.594   5.332  0.7316  0.1805  0.0314
21294SOL    HW265496   2.026   1.549   5.259  0.3429 -0.2888  0.9606
21295SOL     OW65497   9.509   6.768   1.638 -0.3377 -0.4896  0.5120
21295SOL    HW165498   9.535   6.839   1.580 -0.5063 -0.0860  0.9151
21295SOL    HW265499   9.417   6.752   1.616 -0.2378 -0.7386  0.2688
21296SOL     OW65500   6.656   9.445   7.131  0.1201  0.6251 -0.8839
21296SOL    HW165501   6.635   9.372   7.073 -1.0567 -1.2509  1.7028
21296SOL    HW265502   6.574   9.466   7.174  0.9577  1.8305  0.2095
21297SOL     OW65503   1.643   9.498   5.063  0.0586 -0.1074 -0.6565
21297SOL    HW165504   1.711   9.449   5.110 -1.0824 -1.7357 -0.6348
21297SOL    HW265505   1.685   9.581   5.041  1.2920 -0.1004  1.4445
21298SOL     OW65506   2.485   2.344   6.860 -0.3726 -0.4199  0.4475
21298SOL    HW165507   2.424   2.290   6.810 -0.7594 -0.7475  1.2498
21298SOL    HW265508   2.449   2.344   6.949  0.6822 -0.4573  0.8862
21299SOL     OW65509   1.937   3.117   3.443 -0.3904 -0.1542  0.4708
21299SOL    HW165510   1.893   3.104   3.359  0.3007 -0.2612  0.1192
21299SOL    HW265511   2.026   3.085   3.429  0.6966  2.6767  0.3064
21300SOL     OW65512   3.821   8.968   1.885  0.4695  0.5626 -0.0111
21300SOL    HW165513   3.895   9.028   1.892  0.8766  0.1452 -0.6201
21300SOL    HW265514   3.829   8.910   1.960  1.3847 -0.1483 -0.6276
21301SOL     OW65515   7.741   5.172   8.887  0.2515 -0.2329  0.1448
21301SOL    HW165516   7.805   5.240   8.908  1.0963 -1.1522  0.6594
21301SOL    HW265517   7.788   5.090   8.901 -0.4326 -0.9392 -1.4300
21302SOL     OW65518   7.816   6.020   8.525 -0.5950 -0.0054 -0.0268
21302SOL    HW165519   7.832   5.956   8.595  0.6390  0.5699  0.2477
21302SOL    HW265520   7.789   5.967   8.450  2.1819 -1.0896 -0.3777
21303SOL     OW65521   3.780   4.739   8.461  0.4003 -0.1040 -0.5328
21303SOL    HW165522   3.702   4.784   8.493  0.1470  1.2514 -2.8681
21303SOL    HW265523   3.851   4.771   8.516 -0.2038  1.1286 -0.4442
21304SOL     OW65524   6.924   0.529   1.534  0.3212  0.4031 -0.4213
21304SOL    HW165525   6.905   0.459   1.470  0.8007  1.4059 -1.7088
21304SOL    HW265526   7.019   0.535   1.534  0.2484  1.7796 -1.1467
21305SOL     OW65527   3.047   4.286   7.837  0.8007  0.7160 -0.1150
21305SOL    HW165528   3.018   4.354   7.776 -0.7938  0.1815 -0.0154
21305SOL    HW265529   3.088   4.334   7.908  0.4517  1.5251 -0.4411
21306SOL     OW65530   1.330   7.788   2.182  0.0235 -0.0828 -0.1145
21306SOL    HW165531   1.246   7.827   2.157 -0.6708 -1.8115 -0.6392
21306SOL    HW265532   1.358   7.839   2.258 -1.1465  0.9716 -0.3479
21307SOL     OW65533   2.336   2.700   5.078  0.2470  0.3056  0.0566
21307SOL    HW165534   2.427   2.680   5.055  0.3221  0.1573  0.4726
21307SOL    HW265535   2.306   2.759   5.010  0.9131  1.0023  0.3566
21308SOL     OW65536   0.162   2.087   3.242 -0.4894 -0.2746 -0.3363
21308SOL    HW165537   0.113   2.162   3.207 -1.8997 -0.8353  0.3666
21308SOL    HW265538   0.155   2.097   3.337  0.9594 -0.2612 -0.2162
21309SOL     OW65539   5.843   2.458   5.826  0.2593  0.2913 -0.3954
21309SOL    HW165540   5.827   2.528   5.889  1.7865  0.0098  0.3438
21309SOL    HW265541   5.887   2.502   5.753 -1.1773  0.5501 -1.1415
21310SOL     OW65542   7.096   1.099   3.895 -0.0718 -0.6248 -0.1595
21310SOL    HW165543   7.005   1.130   3.890  0.0283 -0.4065 -0.7198
21310SOL    HW265544   7.143   1.171   3.937  0.3758  0.5476 -2.4657
21311SOL     OW65545   0.688   8.463   9.708  1.0006  0.3136  0.4531
21311SOL    HW165546   0.669   8.519   9.633  0.5229  1.9952  1.7395
21311SOL    HW265547   0.738   8.390   9.673  0.6059  0.9303 -1.5057
21312SOL     OW65548   8.767   4.279   3.351  0.5692  0.4749 -0.0183
21312SOL    HW165549   8.805   4.197   3.317 -2.9284 -0.5946 -1.8096
21312SOL    HW265550   8.805   4.347   3.296 -0.0307 -0.5496 -1.8105
21313SOL     OW65551   4.984   9.444   0.683  0.2654 -0.3087  0.0817
21313SOL    HW165552   4.899   9.402   0.672 -0.4387  1.3426 -1.2064
21313SOL    HW265553   4.975   9.495   0.764 -0.7973  1.6109 -1.1793
21314SOL     OW65554   6.284   7.303   7.025  0.0446 -0.0992  0.2999
21314SOL    HW165555   6.312   7.308   6.934 -1.8236 -1.7428 -0.4606
21314SOL    HW265556   6.209   7.243   7.024 -0.6049  0.5142  2.7949
21315SOL     OW65557   3.120   9.736   9.637  0.6944 -0.3323  0.2582
21315SOL    HW165558   3.120   9.826   9.669 -0.7374 -0.7240  1.4850
21315SOL    HW265559   3.168   9.687   9.705  1.8210 -0.4626 -0.5989
21316SOL     OW65560   4.386   2.825   2.948 -0.6636  0.5042  0.8889
21316SOL    HW165561   4.304   2.869   2.971 -0.6545  0.2330  1.4537
21316SOL    HW265562   4.435   2.821   3.030 -0.4202 -0.0381  0.7196
21317SOL     OW65563   0.624   1.357   8.626  0.1493 -0.3769 -0.1795
21317SOL    HW165564   0.619   1.262   8.634 -0.5261 -0.2933  0.5747
21317SOL    HW265565   0.648   1.387   8.714 -0.3843  0.1906 -0.2187
21318SOL     OW65566   0.610   1.975   0.841 -0.1049 -0.6170 -0.1299
21318SOL    HW165567   0.567   1.902   0.796  0.1856  1.2229 -3.8179
21318SOL    HW265568   0.679   2.003   0.780  1.6624  0.9880  2.4186
21319SOL     OW65569   6.765   5.786   6.001 -0.5041 -0.4760  0.2651
21319SOL    HW165570   6.784   5.867   6.047  0.2574 -0.4994 -0.0015
21319SOL    HW265571   6.702   5.810   5.934  1.7284  0.4777 -1.6263
21320SOL     OW65572   7.822   7.046   7.080  0.7527 -0.4886  0.5489
21320SOL    HW165573   7.879   7.015   7.150  2.0127 -0.1897 -0.3123
21320SOL    HW265574   7.811   7.140   7.098 -1.1119 -0.8850  1.8052
21321SOL     OW65575   5.922   6.366   4.012 -0.8108 -0.3063  0.1774
21321SOL    HW165576   5.833   6.363   3.979 -0.8056 -0.8481  0.1996
21321SOL    HW265577   5.963   6.440   3.967 -0.9271 -0.7727 -0.7096
21322SOL     OW65578   8.358   3.062   0.404  0.2940  0.0911 -0.1236
21322SOL    HW165579   8.403   2.989   0.362  0.3269  0.3430 -0.5219
21322SOL    HW265580   8.269   3.029   0.420  0.3751 -0.1149 -0.0898
21323SOL     OW65581   0.205   9.501   2.454  0.1943 -0.3679 -0.3638
21323SOL    HW165582   0.249   9.585   2.447 -0.0034 -0.3172 -1.0349
21323SOL    HW265583   0.150   9.509   2.532 -0.9175  0.6383 -1.2230
21324SOL     OW65584   7.588   5.461   1.189  0.4401 -0.5162  0.6529
21324SOL    HW165585   7.589   5.536   1.249 -1.1406  0.2806 -0.2336
21324SOL    HW265586   7.497   5.457   1.159  1.3104 -0.3117 -2.3769
21325SOL     OW65587   1.518   9.286   4.213 -0.1974  0.1402 -0.4443
21325SOL    HW165588   1.600   9.271   4.259 -0.4031  0.3917  0.0143
21325SOL    HW265589   1.476   9.357   4.261 -1.6524 -1.3747  0.6405
21326SOL     OW65590   2.150   7.252   7.129 -0.2292  0.0677  0.2179
21326SOL    HW165591   2.107   7.166   7.121 -0.1162  0.0390 -0.0683
21326SOL    HW265592   2.210   7.241   7.203  1.4303 -0.7999 -1.1710
21327SOL     OW65593   6.334   4.149   0.314  0.1604  0.1803 -0.3281
21327SOL    HW165594   6.259   4.201   0.341  0.1643  1.0668 -1.9406
21327SOL    HW265595   6.396   4.156   0.387 -1.2665 -0.5470  1.0161
21328SOL     OW65596   5.619   6.784   4.330 -0.0256 -0.0778  0.4686
21328SOL    HW165597   5.632   6.799   4.237 -0.9928  1.9731  0.5944
21328SOL    HW265598   5.524   6.772   4.340 -0.2433  1.9532  1.3792
21329SOL     OW65599   2.420   3.921   2.734 -0.2898  0.3458 -0.1458
21329SOL    HW165600   2.362   3.930   2.659 -0.4668  0.7565  0.0408
21329SOL    HW265601   2.456   4.008   2.748 -0.7968  0.4345  0.6772
21330SOL     OW65602   3.341   8.970   3.263 -1.1485  0.1016  0.4454
21330SOL    HW165603   3.280   8.907   3.225  0.0339  0.3292 -2.0323
21330SOL    HW265604   3.377   8.926   3.340 -1.7611 -1.4872 -0.1437
21331SOL     OW65605   2.684   2.130   6.898 -0.1506 -0.3861 -0.1658
21331SOL    HW165606   2.767   2.173   6.919 -0.2627 -0.0669 -0.3775
21331SOL    HW265607   2.620   2.201   6.895 -0.0581 -0.3270 -2.0981
21332SOL     OW65608   7.414   6.464   6.442  0.0284 -0.3131  0.1380
21332SOL    HW165609   7.413   6.545   6.493  0.8333 -0.3121  0.1651
21332SOL    HW265610   7.325   6.430   6.450 -0.4436  0.7726 -0.2055
21333SOL     OW65611   4.325   7.695   1.113  0.0558  0.3817  0.2358
21333SOL    HW165612   4.410   7.663   1.144 -0.3463  0.7551  1.8101
21333SOL    HW265613   4.344   7.781   1.076  0.5333 -0.0418 -0.5402
21334SOL     OW65614   4.270   7.385   3.167 -1.0012 -0.0344 -0.2327
21334SOL    HW165615   4.361   7.358   3.159 -1.1273 -0.6129  0.1592
21334SOL    HW265616   4.268   7.475   3.134 -0.1108  0.3219  0.6297
21335SOL     OW65617   2.412   7.587   5.873  0.5771 -0.7050  0.7404
21335SOL    HW165618   2.370   7.570   5.789 -0.0913 -1.1751  1.1645
21335SOL    HW265619   2.375   7.522   5.932  1.2353 -0.5450  1.3420
21336SOL     OW65620   3.801   8.879   5.171 -0.7955 -0.5159  0.1527
21336SOL    HW165621   3.875   8.818   5.171 -0.2572  0.1131  1.0646
21336SOL    HW265622   3.732   8.832   5.126  0.3210 -0.9093 -1.2393
21337SOL     OW65623   6.638   0.682   7.864  0.1419 -0.3555  0.4178
21337SOL    HW165624   6.567   0.731   7.904 -0.6841 -2.0636  1.1592
21337SOL    HW265625   6.604   0.654   7.779 -0.3397 -1.6810  1.0210
21338SOL     OW65626   5.116   9.148   0.921  0.0204  0.0795 -0.4254
21338SOL    HW165627   5.156   9.178   0.840  0.8773 -0.3944 -0.1901
21338SOL    HW265628   5.176   9.178   0.990 -0.1180 -0.4859 -0.0521
21339SOL     OW65629   5.410   6.688   5.800  0.1928  0.0866  0.8329
21339SOL    HW165630   5.489   6.729   5.836  0.5425  0.5022 -0.3579
21339SOL    HW265631   5.438   6.601   5.773  0.6552  0.7159 -0.8934
21340SOL     OW65632   2.449   5.949   2.207  0.0163  0.0921 -0.1684
21340SOL    HW165633   2.533   5.913   2.235  0.4106  0.7630 -0.4668
21340SOL    HW265634   2.468   5.994   2.125 -0.7199 -0.0971 -0.4486
21341SOL     OW65635   1.426   3.542   7.781 -0.1481  0.1501  0.2481
21341SOL    HW165636   1.334   3.517   7.796 -0.2473 -0.5067 -1.2880
21341SOL    HW265637   1.423   3.636   7.765 -0.6000  0.0977 -0.0098
21342SOL     OW65638   2.470   7.504   8.008  0.6265  0.2464 -0.2079
21342SOL    HW165639   2.461   7.425   8.061  1.3624 -0.3066 -0.8720
21342SOL    HW265640   2.503   7.570   8.068  0.5234 -0.1032  0.2370
21343SOL     OW65641   2.627   9.158   2.796  0.6743 -0.6354 -0.4152
21343SOL    HW165642   2.681   9.172   2.718  0.9263 -1.4507 -0.3935
21343SOL    HW265643   2.537   9.171   2.766  0.7858 -0.6999 -0.7814
21344SOL     OW65644   6.434   2.231   8.927  0.5476  0.1336  0.7246
21344SOL    HW165645   6.494   2.288   8.975  1.2133 -0.5533  0.7353
21344SOL    HW265646   6.464   2.235   8.837  0.6972 -0.3138  0.7513
21345SOL     OW65647   5.283   2.497   5.111  0.0400 -0.1992  0.0543
21345SOL    HW165648   5.326   2.493   5.197 -0.5241  0.1844  0.3593
21345SOL    HW265649   5.319   2.576   5.071 -0.7711  0.4437  0.5404
21346SOL     OW65650   0.422   1.431   8.868 -0.1204  0.5023 -0.9158
21346SOL    HW165651   0.343   1.466   8.826 -0.8564  0.1146  0.1054
21346SOL    HW265652   0.438   1.349   8.821 -0.7908  0.1938 -0.6273
21347SOL     OW65653   4.576   7.732   7.396 -0.1240  0.1126  0.0471
21347SOL    HW165654   4.503   7.682   7.360  1.4019  0.0848 -3.4337
21347SOL    HW265655   4.569   7.818   7.355  1.1839  0.4549  0.4802
21348SOL     OW65656   3.967   6.364   3.707  0.1434  0.3975  0.0234
21348SOL    HW165657   4.048   6.377   3.658  1.7040 -0.3496  2.2656
21348SOL    HW265658   3.919   6.297   3.657  0.9942  0.6594 -1.1936
21349SOL     OW65659   4.846   3.256   6.001 -0.1569  0.2308  0.6078
21349SOL    HW165660   4.820   3.250   6.093  0.7112 -1.5911  0.7865
21349SOL    HW265661   4.765   3.241   5.952 -0.6298  1.2466  1.0553
21350SOL     OW65662   6.477   1.078   3.146  0.4831  0.1580 -0.5513
21350SOL    HW165663   6.433   1.064   3.229 -0.6175  0.6688 -1.0242
21350SOL    HW265664   6.506   0.991   3.119  2.5951  0.2329  1.2652
21351SOL     OW65665   8.396   4.884   0.987  0.4732  0.1913  0.0498
21351SOL    HW165666   8.475   4.851   1.030  0.6285  1.2493  0.6125
21351SOL    HW265667   8.371   4.814   0.926  1.4017 -0.4794  0.4094
21352SOL     OW65668   0.925   3.776   8.753  0.1074  0.0539 -0.1426
21352SOL    HW165669   0.932   3.716   8.827  0.6177 -0.4718 -0.5944
21352SOL    HW265670   0.874   3.850   8.785  0.3801 -0.1352  0.7443
21353SOL     OW65671   9.533   7.756   3.923  0.0868 -0.3819  0.1617
21353SOL    HW165672   9.504   7.804   3.846 -0.4702 -1.7137 -0.4691
21353SOL    HW265673   9.629   7.754   3.916  0.0441 -0.3684 -0.4086
21354SOL     OW65674   7.796   0.948   1.201  0.5836 -0.0967 -0.2719
21354SOL    HW165675   7.731   0.939   1.132  1.5465 -0.8636 -1.1104
21354SOL    HW265676   7.814   0.858   1.229  1.8554  0.0348 -0.6185
21355SOL     OW65677   5.539   4.338   7.017 -0.0988 -0.2400 -0.1997
21355SOL    HW165678   5.499   4.373   7.097  1.6336 -0.7338  0.9517
21355SOL    HW265679   5.480   4.268   6.989 -0.6534 -0.1756  0.7665
21356SOL     OW65680   5.997   7.474   0.797 -0.0889 -0.1493  0.3968
21356SOL    HW165681   5.938   7.484   0.871 -0.5198 -0.0671  0.0494
21356SOL    HW265682   5.986   7.555   0.746  0.0438 -0.2920  0.1368
21357SOL     OW65683   3.403   3.112   0.097 -0.4485 -0.7508  0.5955
21357SOL    HW165684   3.385   3.020   0.080  1.2658 -1.0279  0.0715
21357SOL    HW265685   3.433   3.146   0.012  0.5878 -0.1608  1.1751
21358SOL     OW65686   0.917   1.156   0.222 -0.2196 -0.0487 -0.0826
21358SOL    HW165687   0.994   1.100   0.216 -0.1647  0.0879 -0.7383
21358SOL    HW265688   0.850   1.111   0.171 -0.5946 -0.1900  0.5247
21359SOL     OW65689   5.079   8.572   5.730  0.5005 -0.0894 -0.3166
21359SOL    HW165690   5.124   8.577   5.646  0.3794  0.3496 -0.3538
21359SOL    HW265691   4.986   8.573   5.709  0.3707 -3.2041 -0.4056
21360SOL     OW65692   5.836   1.558   4.180  0.2469 -0.5689 -0.2299
21360SOL    HW165693   5.927   1.564   4.153  0.1220 -0.3418 -0.6186
21360SOL    HW265694   5.839   1.536   4.273  0.6858 -2.0636 -0.5732
21361SOL     OW65695   6.660   2.760   5.655  0.5954 -0.0854  0.1477
21361SOL    HW165696   6.596   2.809   5.707  0.9802  0.6660 -0.0807
21361SOL    HW265697   6.679   2.682   5.707  0.6261  0.4339  0.9205
21362SOL     OW65698   8.580   7.612   9.246  0.2734 -0.5266 -0.1783
21362SOL    HW165699   8.608   7.563   9.168 -1.1163 -2.2469  0.3246
21362SOL    HW265700   8.519   7.553   9.290  0.0090  0.9410  1.5307
21363SOL     OW65701   4.237   7.299   3.514  0.6560  0.1945  0.1212
21363SOL    HW165702   4.244   7.359   3.440  1.7219 -0.0946 -0.0299
21363SOL    HW265703   4.320   7.251   3.514 -0.1692 -1.3090  0.2166
21364SOL     OW65704   7.242   6.159   8.387  0.3860 -0.4009 -0.2020
21364SOL    HW165705   7.172   6.220   8.406  1.0501 -0.0376  1.1611
21364SOL    HW265706   7.225   6.130   8.297 -1.2815 -0.0489 -0.0264
21365SOL     OW65707   9.106   3.974   4.334 -0.4940  0.5324  0.0289
21365SOL    HW165708   9.128   3.945   4.245 -0.3393 -2.4220  0.9057
21365SOL    HW265709   9.018   4.010   4.327 -1.0605 -0.9913 -1.1146
21366SOL     OW65710   7.377   5.726   0.944 -0.2224 -0.0616 -0.3109
21366SOL    HW165711   7.438   5.770   0.885  0.7558 -0.2441  0.5455
21366SOL    HW265712   7.317   5.795   0.971 -0.1434  0.2156 -0.8263
21367SOL     OW65713   4.914   1.453   6.134 -0.0272 -0.1261  0.4154
21367SOL    HW165714   5.006   1.428   6.133  0.0307  0.0345 -2.0410
21367SOL    HW265715   4.909   1.524   6.198  1.2118 -1.1779  1.7495
21368SOL     OW65716   3.763   3.603   3.537  0.3905  0.0421  0.0010
21368SOL    HW165717   3.677   3.640   3.558 -0.4925 -2.4819  1.3110
21368SOL    HW265718   3.745   3.510   3.522  3.0577 -0.8566  1.7464
21369SOL     OW65719   1.464   9.429   7.867  0.2608 -0.6298 -0.1737
21369SOL    HW165720   1.484   9.426   7.961  2.2318 -0.1894 -0.5187
21369SOL    HW265721   1.497   9.515   7.839  0.7508 -1.2230 -1.4667
21370SOL     OW65722   5.871   3.480   3.906 -0.5049 -0.5689  0.2795
21370SOL    HW165723   5.869   3.557   3.962  0.2955  0.6321 -1.2769
21370SOL    HW265724   5.964   3.465   3.889 -0.7418 -0.7104 -0.9864
21371SOL     OW65725   8.865   1.281   8.323  0.1916  0.4246 -0.5222
21371SOL    HW165726   8.921   1.204   8.314  0.5744  0.7989 -1.4179
21371SOL    HW265727   8.888   1.337   8.249 -1.1077  0.7617 -0.7014
21372SOL     OW65728   6.072   1.304   5.612  0.0425 -0.1509  0.0156
21372SOL    HW165729   6.058   1.318   5.518  0.9946  1.0483  0.0300
21372SOL    HW265730   5.998   1.249   5.639 -1.0981  0.7552 -1.1183
21373SOL     OW65731   6.176   3.902   0.146  0.2777 -0.3547 -0.1556
21373SOL    HW165732   6.199   3.928   0.057  1.4615 -0.7211  0.0200
21373SOL    HW265733   6.236   3.952   0.202 -0.5708  0.0026  0.4535
21374SOL     OW65734   3.801   8.605   6.817 -0.2578  1.0328 -0.5059
21374SOL    HW165735   3.780   8.544   6.887 -1.9393  1.8114 -0.2848
21374SOL    HW265736   3.814   8.550   6.740  0.2557  0.2684  0.1159
21375SOL     OW65737   3.774   6.814   0.462  0.0057 -0.2072 -0.4425
21375SOL    HW165738   3.787   6.907   0.446 -0.3787 -0.1567 -0.4914
21375SOL    HW265739   3.859   6.782   0.492  0.5100 -0.1247 -1.7252
21376SOL     OW65740   8.538   4.008   5.000  0.1964  0.1577 -0.5877
21376SOL    HW165741   8.597   4.022   4.926 -1.0626 -0.5690 -1.7978
21376SOL    HW265742   8.534   3.912   5.010 -2.1541  0.0552 -1.7939
21377SOL     OW65743   2.352   0.024   0.461  0.3219  0.3575  0.1689
21377SOL    HW165744   2.447   0.033   0.465  0.5597 -1.7762  0.1517
21377SOL    HW265745   2.324   0.027   0.553  0.7413 -1.8212  0.4023
21378SOL     OW65746   5.496   8.776   6.147 -0.1217  0.1361 -0.5640
21378SOL    HW165747   5.497   8.685   6.117  1.6177 -0.6578  1.6209
21378SOL    HW265748   5.577   8.814   6.112  0.6531 -0.0718  0.9222
21379SOL     OW65749   3.387   5.816   0.073  0.1747  0.3556  0.6951
21379SOL    HW165750   3.423   5.904   0.078  0.3020  0.2571  1.9040
21379SOL    HW265751   3.462   5.758   0.087  0.0494  0.0618  0.1713
21380SOL     OW65752   4.244   6.712   8.570 -0.0566 -0.7497  0.4065
21380SOL    HW165753   4.314   6.693   8.508 -1.2901  0.3240 -1.4152
21380SOL    HW265754   4.289   6.753   8.644  1.2339  0.2704 -0.8640
21381SOL     OW65755   5.129   3.255   5.009 -0.1057 -0.5937 -0.0198
21381SOL    HW165756   5.081   3.315   4.952  1.4240 -0.5232 -1.2920
21381SOL    HW265757   5.140   3.304   5.090 -1.6390 -0.4022  0.1052
21382SOL     OW65758   1.903   6.490   4.211 -0.1849 -0.2057  0.2669
21382SOL    HW165759   1.912   6.578   4.174  0.4579 -1.0142 -1.5997
21382SOL    HW265760   1.992   6.460   4.224 -0.3458 -1.3381 -1.0472
21383SOL     OW65761   2.895   0.594   1.443 -0.3406  0.0992  0.2462
21383SOL    HW165762   2.823   0.561   1.497 -1.7696  0.2361 -1.4916
21383SOL    HW265763   2.879   0.557   1.357 -0.2623  2.8246 -1.0393
21384SOL     OW65764   8.792   1.392   6.477 -0.1711 -1.0208  0.0295
21384SOL    HW165765   8.794   1.326   6.408  2.9975 -0.5766 -0.4654
21384SOL    HW265766   8.800   1.343   6.558 -0.2533 -1.3837 -0.1793
21385SOL     OW65767   8.288   0.820   3.099  0.4177 -0.5727 -0.6448
21385SOL    HW165768   8.284   0.725   3.100  0.7368 -0.6052  0.9161
21385SOL    HW265769   8.337   0.842   3.020  2.5173 -1.8271  0.2247
21386SOL     OW65770   3.232   5.465   8.188 -0.1106  0.0652  0.1233
21386SOL    HW165771   3.235   5.436   8.096  2.3845 -1.0021  0.4503
21386SOL    HW265772   3.277   5.395   8.236  0.1009  1.3860  1.9174
21387SOL     OW65773   4.596   6.541   6.647 -0.3221  0.2102  0.4779
21387SOL    HW165774   4.663   6.608   6.635  0.7374 -0.6543  1.2681
21387SOL    HW265775   4.638   6.460   6.617 -0.8097 -0.4425  1.4966
21388SOL     OW65776   4.123   7.306   5.554  0.4530 -0.0264 -0.0627
21388SOL    HW165777   4.176   7.319   5.633  1.6249 -3.1092 -0.2194
21388SOL    HW265778   4.183   7.266   5.492 -1.1587 -0.1444 -1.6124
21389SOL     OW65779   8.704   4.007   4.774  0.0998  0.2361  0.5169
21389SOL    HW165780   8.635   4.000   4.708  1.3572 -1.2711 -0.7241
21389SOL    HW265781   8.768   4.067   4.736  0.1676  0.4804  1.0073
21390SOL     OW65782   3.319   2.607   9.727  0.3159  0.6830 -0.6935
21390SOL    HW165783   3.378   2.539   9.694 -1.1111 -0.9626  0.0125
21390SOL    HW265784   3.256   2.560   9.780 -1.2584  2.4717 -0.8879
21391SOL     OW65785   6.458   0.951   7.334 -0.5656  0.2232  0.2518
21391SOL    HW165786   6.425   0.905   7.411 -0.4769 -0.7020 -0.2429
21391SOL    HW265787   6.545   0.980   7.359 -0.3890 -0.3989  0.3840
21392SOL     OW65788   9.178   4.441   3.423  0.3694 -0.5843  0.0360
21392SOL    HW165789   9.207   4.380   3.355  1.8577 -0.3974  0.4809
21392SOL    HW265790   9.097   4.402   3.457  1.7456 -2.8175  0.9627
21393SOL     OW65791   3.540   9.543   0.120 -0.4257  0.1589  0.5391
21393SOL    HW165792   3.449   9.525   0.141 -0.6869  0.4266 -0.3084
21393SOL    HW265793   3.556   9.632   0.152 -0.2370 -0.1628  1.3547
21394SOL     OW65794   3.597   2.960   4.372  0.1727  0.0192 -0.1907
21394SOL    HW165795   3.529   3.024   4.390 -0.7368 -0.9076 -0.2654
21394SOL    HW265796   3.679   3.009   4.384 -0.4879  1.1276 -0.0388
21395SOL     OW65797   4.275   5.506   4.828 -0.0244  0.6196  0.4568
21395SOL    HW165798   4.270   5.459   4.745  2.0263  0.2070  0.5249
21395SOL    HW265799   4.242   5.594   4.808  0.5247  0.5530 -0.8174
21396SOL     OW65800   7.119   8.462   5.404  0.1946 -0.4300  0.1691
21396SOL    HW165801   7.055   8.467   5.333  1.4237 -1.1938 -1.0335
21396SOL    HW265802   7.204   8.456   5.360  1.0799  0.1232  1.7214
21397SOL     OW65803   9.592   9.257   9.728  0.3854  0.4521  0.1806
21397SOL    HW165804   9.576   9.289   9.816  0.4759  0.9077  0.0358
21397SOL    HW265805   9.545   9.173   9.723  2.9493 -1.2141  1.6969
21398SOL     OW65806   3.399   1.465   1.486  0.4443 -0.2252 -0.5298
21398SOL    HW165807   3.491   1.486   1.506  1.1690 -0.0700 -3.5118
21398SOL    HW265808   3.361   1.549   1.459 -0.9889 -0.0616  1.6822
21399SOL     OW65809   8.568   5.406   5.122 -0.0132 -0.0906 -0.3045
21399SOL    HW165810   8.651   5.368   5.151 -1.4298 -1.9888  1.6001
21399SOL    HW265811   8.521   5.333   5.081 -1.1961  0.6364 -0.2815
21400SOL     OW65812   0.506   9.194   6.931  0.2729  0.3427  0.7451
21400SOL    HW165813   0.447   9.254   6.885 -0.6956 -1.2394 -0.1442
21400SOL    HW265814   0.508   9.227   7.021  0.5988  2.2988  0.0845
21401SOL     OW65815   7.686   7.559   5.643  0.0960  0.3055  0.2732
21401SOL    HW165816   7.736   7.517   5.713 -0.4110 -0.2065  0.3399
21401SOL    HW265817   7.709   7.508   5.565  0.7099  0.9157  0.0517
21402SOL     OW65818   0.018   5.475   6.471  0.5698  0.5891 -0.1672
21402SOL    HW165819   0.014   5.380   6.466  3.6429  0.4116 -1.3294
21402SOL    HW265820  -0.042   5.505   6.403  0.3355 -0.5096 -0.4693
21403SOL     OW65821   8.147   8.675   7.860  0.2384  0.8582 -0.4330
21403SOL    HW165822   8.145   8.677   7.956  0.4637 -0.2177 -0.3899
21403SOL    HW265823   8.196   8.753   7.835 -1.9399  2.5428  0.2143
21404SOL     OW65824   2.947   6.353   8.569  0.4569 -0.7065 -0.0158
21404SOL    HW165825   3.027   6.305   8.550  1.0566  0.6455 -1.0039
21404SOL    HW265826   2.961   6.440   8.532 -1.1134 -0.1571  0.5897
21405SOL     OW65827   4.396   5.831   0.912 -0.1177  0.1844  0.2174
21405SOL    HW165828   4.374   5.837   0.819  1.1990  0.5232 -0.0925
21405SOL    HW265829   4.381   5.919   0.946  0.6399  0.3923  0.0267
21406SOL     OW65830   8.554   5.594   8.663  0.4650  0.1830 -0.3407
21406SOL    HW165831   8.640   5.600   8.621  1.4628  3.0663  1.8184
21406SOL    HW265832   8.574   5.590   8.756 -1.7264  1.9589  0.2755
21407SOL     OW65833   6.428   6.623   7.185  0.3327  0.3564 -0.1827
21407SOL    HW165834   6.441   6.529   7.175  2.0074  0.5953 -0.4477
21407SOL    HW265835   6.452   6.660   7.100 -0.5582  1.0155 -0.1658
21408SOL     OW65836   2.708   7.808   1.374  0.0929  0.1492  0.2154
21408SOL    HW165837   2.783   7.793   1.431 -0.0364 -3.4416 -0.3042
21408SOL    HW265838   2.631   7.796   1.430 -0.0361 -3.4385 -0.4526
21409SOL     OW65839   1.993   5.311   8.531 -0.0499  0.2073 -0.0165
21409SOL    HW165840   2.069   5.367   8.547  0.7976 -0.9102  0.0816
21409SOL    HW265841   1.983   5.260   8.611  0.6496 -1.3644 -0.8575
21410SOL     OW65842   2.579   0.651   7.815 -0.3474 -0.1957  0.0120
21410SOL    HW165843   2.559   0.629   7.724  1.2082  0.9518 -0.6418
21410SOL    HW265844   2.543   0.578   7.866 -2.3053 -0.2909 -1.3925
21411SOL     OW65845   7.458   0.665   2.338  0.5576  0.2711 -0.5485
21411SOL    HW165846   7.422   0.747   2.371 -1.1910  0.0544 -1.7503
21411SOL    HW265847   7.382   0.608   2.326  1.7156 -1.5373  0.2184
21412SOL     OW65848   0.157   3.715   4.921 -0.5244 -0.2578 -0.3081
21412SOL    HW165849   0.176   3.626   4.890 -3.6466 -1.3256  0.4146
21412SOL    HW265850   0.069   3.734   4.886 -1.0109  1.4808  1.6733
21413SOL     OW65851   8.627   8.596   7.937 -0.2708  0.8354  0.1685
21413SOL    HW165852   8.693   8.628   7.999  0.7625 -0.6386 -0.1035
21413SOL    HW265853   8.557   8.562   7.992  0.3632  0.1026  0.5602
21414SOL     OW65854   9.504   3.309   6.929  0.1253 -0.3647  0.1332
21414SOL    HW165855   9.419   3.267   6.925 -0.0316 -0.0482  0.0657
21414SOL    HW265856   9.566   3.238   6.946  0.0995 -0.9372 -1.8646
21415SOL     OW65857   6.632   2.105   5.194  0.7044  0.1407 -0.0940
21415SOL    HW165858   6.545   2.142   5.179  0.9944  0.5116 -0.8734
21415SOL    HW265859   6.629   2.019   5.151  0.0033 -0.8483  1.7845
21416SOL     OW65860   9.006   5.112   7.403  0.2050  0.0509  0.1832
21416SOL    HW165861   8.960   5.137   7.483  1.0618 -1.8981  1.3726
21416SOL    HW265862   9.093   5.085   7.433  0.8681  0.1269 -1.5361
21417SOL     OW65863   5.485   3.605   4.182 -0.1529  0.0474 -0.0636
21417SOL    HW165864   5.464   3.520   4.219 -0.1852  0.7544  1.6361
21417SOL    HW265865   5.564   3.633   4.229  0.7704  0.2996 -1.6968
21418SOL     OW65866   7.255   3.062   6.392  0.4077 -0.0298  0.1930
21418SOL    HW165867   7.333   3.019   6.357 -0.1809  0.4040 -1.7877
21418SOL    HW265868   7.235   3.130   6.327 -0.9493  0.6241  1.2594
21419SOL     OW65869   7.157   2.675   7.816 -0.0306  0.2037  0.3361
21419SOL    HW165870   7.236   2.636   7.778 -0.0339  1.8104 -1.4254
21419SOL    HW265871   7.188   2.754   7.860 -0.6501  0.8327 -0.3456
21420SOL     OW65872   3.293   0.746   3.407  0.0141 -0.6799  0.3620
21420SOL    HW165873   3.243   0.767   3.328 -1.9116 -0.0654  1.6702
21420SOL    HW265874   3.230   0.700   3.464  1.8087 -2.6020  0.9217
21421SOL     OW65875   9.100   0.181   7.750 -0.3916  0.0712  0.1315
21421SOL    HW165876   9.139   0.099   7.721 -0.2395  0.1718  0.0447
21421SOL    HW265877   9.166   0.247   7.730 -0.7516  0.2926 -0.3593
21422SOL     OW65878   8.533   9.229   3.571  0.0435  0.0282 -0.0820
21422SOL    HW165879   8.588   9.182   3.508  1.1372  1.5194 -0.3128
21422SOL    HW265880   8.450   9.182   3.570  0.7856 -1.3419 -0.9419
21423SOL     OW65881   4.292   3.247   9.309 -0.2354  0.2438 -0.3922
21423SOL    HW165882   4.239   3.167   9.312 -0.1989  0.2014 -0.7653
21423SOL    HW265883   4.382   3.215   9.299 -0.0812  0.3029  0.7261
21424SOL     OW65884   6.578   6.938   2.556 -0.0591  0.4579 -0.0336
21424SOL    HW165885   6.609   6.947   2.646  0.5271  2.2155 -0.3682
21424SOL    HW265886   6.492   6.978   2.555 -1.5519 -2.4908  0.4073
21425SOL     OW65887   1.917   8.836   4.615 -0.4341 -0.1349  0.1033
21425SOL    HW165888   1.866   8.847   4.695  0.3442 -1.4828  0.8342
21425SOL    HW265889   1.910   8.742   4.595  1.0487 -0.2019 -0.2289
21426SOL     OW65890   0.217   2.366   8.522 -0.0216  0.0885  0.0957
21426SOL    HW165891   0.206   2.436   8.457 -0.8620 -1.3825 -1.4254
21426SOL    HW265892   0.166   2.396   8.597  0.8888  1.7871  0.0932
21427SOL     OW65893   0.901   5.733   3.559  0.2398  0.7105  0.1499
21427SOL    HW165894   0.850   5.706   3.483  0.4678 -0.0591  0.2608
21427SOL    HW265895   0.972   5.787   3.524  1.1288 -0.7251 -0.3466
21428SOL     OW65896   6.541   3.966   6.133 -0.9863 -0.0647  0.6645
21428SOL    HW165897   6.509   4.052   6.106 -1.6597 -0.3381  0.5969
21428SOL    HW265898   6.632   3.983   6.159 -1.0355  0.6222  0.4249
21429SOL     OW65899   4.441   7.918   6.961 -0.1032 -0.1214  0.7561
21429SOL    HW165900   4.415   7.827   6.946  0.7665 -0.1501 -0.7716
21429SOL    HW265901   4.537   7.916   6.963 -0.0244  0.9045 -0.5108
21430SOL     OW65902   4.452   3.448   0.452 -0.0727  0.0219  0.0488
21430SOL    HW165903   4.428   3.355   0.456 -0.5820  0.1854  1.8348
21430SOL    HW265904   4.542   3.451   0.482 -0.4109  0.1972  1.0800
21431SOL     OW65905   1.431   8.249   9.665  0.2195 -0.3272  0.3537
21431SOL    HW165906   1.417   8.171   9.611 -1.7012 -0.1530  0.5421
21431SOL    HW265907   1.350   8.299   9.656  0.2019  0.1596  2.6545
21432SOL     OW65908   4.958   5.278   8.409  0.4214  0.3672  0.3073
21432SOL    HW165909   5.043   5.260   8.449 -0.3074 -2.7005  0.7267
21432SOL    HW265910   4.898   5.215   8.450 -1.7832  1.4955 -0.9746
21433SOL     OW65911   9.396   4.407   9.343 -0.2041  0.1050 -0.2541
21433SOL    HW165912   9.473   4.379   9.293 -0.8275 -1.4149 -0.3979
21433SOL    HW265913   9.369   4.489   9.300 -0.3209 -0.7993 -2.0077
21434SOL     OW65914   6.814   8.321   8.758 -0.3946  0.5360 -0.0122
21434SOL    HW165915   6.846   8.302   8.670 -1.8084  2.0620 -0.9295
21434SOL    HW265916   6.836   8.243   8.809  0.6521 -0.3059 -1.6521
21435SOL     OW65917   0.450   8.122   2.113  0.0310 -0.2028 -0.1669
21435SOL    HW165918   0.458   8.137   2.019  0.0944 -0.7163 -0.2440
21435SOL    HW265919   0.418   8.032   2.121 -0.8368  0.1239  0.2786
21436SOL     OW65920   2.815   5.639   8.665  0.0328  0.5876  0.3191
21436SOL    HW165921   2.775   5.678   8.743 -1.2997  0.3684 -0.2268
21436SOL    HW265922   2.860   5.711   8.621 -0.0841  0.9232  0.7476
21437SOL     OW65923   8.025   9.124   3.393  0.7883  0.4057 -0.4079
21437SOL    HW165924   7.987   9.170   3.318  2.3407  3.4725  0.5161
21437SOL    HW265925   8.106   9.171   3.412  1.0867 -1.0298  2.4389
21438SOL     OW65926   8.653   0.158   9.809 -0.3976  0.1915 -0.2593
21438SOL    HW165927   8.688   0.089   9.753  1.4283  0.7431  0.1256
21438SOL    HW265928   8.716   0.230   9.801 -1.3825  1.2040  0.6123
21439SOL     OW65929   1.776   9.409   2.883 -0.9068 -0.6335 -0.2765
21439SOL    HW165930   1.778   9.444   2.972  0.8324 -0.1657 -0.4667
21439SOL    HW265931   1.824   9.473   2.831 -3.8054  0.3162 -2.0686
21440SOL     OW65932   9.674   3.089   3.211  0.1189 -0.7499  0.0020
21440SOL    HW165933   9.732   3.162   3.187 -1.3557  0.6194  0.4570
21440SOL    HW265934   9.652   3.105   3.303  0.1138 -2.0401  0.2472
21441SOL     OW65935   3.612   5.366   3.479 -0.0576  0.3720  0.5324
21441SOL    HW165936   3.557   5.289   3.464 -0.4821  0.6863  0.4856
21441SOL    HW265937   3.642   5.356   3.570  2.4878 -1.5117 -0.3794
21442SOL     OW65938   0.327   5.071   4.667  0.2963 -0.0200  0.3069
21442SOL    HW165939   0.258   5.134   4.690 -0.5184 -0.8188  0.1025
21442SOL    HW265940   0.284   5.008   4.610  0.8897 -1.2278  1.1510
21443SOL     OW65941   1.641   9.831   0.600  0.6250  0.6281  0.4113
21443SOL    HW165942   1.684   9.757   0.557 -0.8441  0.1802 -0.3482
21443SOL    HW265943   1.674   9.829   0.690 -1.8818 -3.0967  1.4664
21444SOL     OW65944   2.570   4.033   9.020  0.2633 -0.1772 -0.0033
21444SOL    HW165945   2.611   4.061   9.102 -1.7504 -0.6930  1.2532
21444SOL    HW265946   2.610   3.948   9.001  2.3652  0.9114 -0.8434
21445SOL     OW65947   2.644   8.881   4.082  0.6319 -0.1049 -0.2295
21445SOL    HW165948   2.624   8.788   4.089 -2.0774  0.1958 -2.2843
21445SOL    HW265949   2.619   8.916   4.168 -1.4390 -0.8785 -0.4374
21446SOL     OW65950   6.169   0.678   7.938  0.1316  0.0174 -0.1139
21446SOL    HW165951   6.225   0.621   7.991  3.3150  2.2090 -0.8132
21446SOL    HW265952   6.161   0.633   7.855  1.3935 -0.1170 -0.1812
21447SOL     OW65953   2.342   6.143   4.573  0.6011 -0.1601  0.5984
21447SOL    HW165954   2.249   6.132   4.551  0.7335 -0.1747  0.0374
21447SOL    HW265955   2.389   6.116   4.494  1.0911 -0.2939  0.9298
21448SOL     OW65956   6.276   0.654   3.610 -0.2030 -0.5856  0.2715
21448SOL    HW165957   6.332   0.721   3.650 -0.8326 -0.8145  1.5855
21448SOL    HW265958   6.208   0.704   3.566  0.8151 -0.3125 -1.0795
21449SOL     OW65959   8.311   8.341   2.219  0.1694 -0.0173 -0.3550
21449SOL    HW165960   8.272   8.396   2.288 -0.1802  0.6650 -1.0745
21449SOL    HW265961   8.403   8.335   2.243  0.0889  0.3544  0.0861
21450SOL     OW65962   4.196   3.544   1.788 -0.9135 -0.2149  0.2605
21450SOL    HW165963   4.210   3.579   1.876 -1.6952 -1.3061  0.8344
21450SOL    HW265964   4.281   3.552   1.745 -0.2584 -0.5913  1.4569
21451SOL     OW65965   8.490   5.883   8.846  0.0891  0.0193  0.7218
21451SOL    HW165966   8.550   5.880   8.920 -0.1660  1.6724  1.0551
21451SOL    HW265967   8.409   5.846   8.879 -0.2738  1.4809  1.5866
21452SOL     OW65968   0.045   4.586   9.841 -0.0280 -0.1836 -0.4092
21452SOL    HW165969   0.104   4.661   9.835 -1.5473  0.9650 -2.3443
21452SOL    HW265970  -0.036   4.616   9.799 -1.4373 -2.2200  0.6818
21453SOL     OW65971   7.862   1.839   9.748 -0.1973  0.2795 -0.2545
21453SOL    HW165972   7.823   1.849   9.661  1.1826  0.8900 -0.8384
21453SOL    HW265973   7.943   1.790   9.732 -0.4682 -0.5777  0.8591
21454SOL     OW65974   9.142   9.442   1.567 -0.1721 -0.1396 -0.5011
21454SOL    HW165975   9.128   9.505   1.638  1.7164 -0.5561  0.2847
21454SOL    HW265976   9.089   9.367   1.592 -1.3856  0.5933 -0.7688
21455SOL     OW65977   4.447   5.835   9.792  0.5560  0.4328 -0.6387
21455SOL    HW165978   4.362   5.803   9.821  1.0795 -0.6988 -0.3162
21455SOL    HW265979   4.431   5.927   9.768 -1.1112 -0.1912 -2.1657
21456SOL     OW65980   1.531   5.379   3.140  0.3042 -0.6468  0.1813
21456SOL    HW165981   1.448   5.414   3.172  0.4669  0.5979 -0.7067
21456SOL    HW265982   1.580   5.356   3.220 -0.2905  0.0065  0.7455
21457SOL     OW65983   7.718   9.830   9.220 -0.4352  0.4268 -0.3857
21457SOL    HW165984   7.724   9.840   9.316 -0.5700 -1.4342 -0.1559
21457SOL    HW265985   7.796   9.781   9.196 -0.9560 -0.0729 -1.0881
21458SOL     OW65986   6.396   1.102   2.473  0.0149 -0.2620  0.2497
21458SOL    HW165987   6.436   1.156   2.542 -0.4559 -0.0586  0.3670
21458SOL    HW265988   6.315   1.070   2.512  0.4779 -1.3830  0.3223
21459SOL     OW65989   6.721   4.043   7.424 -0.4241 -0.2453  0.1872
21459SOL    HW165990   6.754   4.018   7.338 -1.6146  0.0757 -0.3939
21459SOL    HW265991   6.771   4.122   7.447 -0.1134 -0.3232 -0.2129
21460SOL     OW65992   9.750   5.070   1.373 -0.5862 -0.4883 -0.6293
21460SOL    HW165993   9.730   5.001   1.435 -0.4933  0.4865  0.5317
21460SOL    HW265994   9.665   5.107   1.350 -0.5823 -0.5240 -0.7022
21461SOL     OW65995   3.708   4.059   0.189  0.0705 -0.6400 -0.6250
21461SOL    HW165996   3.691   3.996   0.120 -1.4926 -1.3569  0.3735
21461SOL    HW265997   3.697   4.010   0.271  1.3426  0.3126  0.1559
21462SOL     OW65998   7.465   5.442   8.659  0.0674  0.2982 -0.2096
21462SOL    HW165999   7.464   5.504   8.587  0.4808  0.7433  0.1634
21462SOL    HW266000   7.557   5.424   8.675  0.0097  0.6412  0.5782
21463SOL     OW66001   1.082   4.823   3.966  0.1101  0.5420  0.0579
21463SOL    HW166002   1.020   4.865   3.906  1.0729  3.0277  0.6774
21463SOL    HW266003   1.161   4.809   3.913 -0.0488 -0.0503 -0.0235
21464SOL     OW66004   5.390   0.312   0.765  0.7374  0.8928 -0.6327
21464SOL    HW166005   5.431   0.316   0.852 -0.9250 -0.9590  0.3125
21464SOL    HW266006   5.432   0.237   0.723 -1.8266 -1.3566  0.5398
21465SOL     OW66007   7.088   4.467   4.372 -0.4843  0.0376  0.3501
21465SOL    HW166008   7.164   4.508   4.411  0.2702 -2.3494  1.5787
21465SOL    HW266009   7.015   4.488   4.431 -0.3881  0.6517  0.2554
21466SOL     OW66010   1.417   1.595   1.635  0.1601 -0.7495 -0.2360
21466SOL    HW166011   1.419   1.685   1.668  1.8791 -0.3733 -1.2243
21466SOL    HW266012   1.329   1.584   1.599 -0.4981  0.0852  1.0391
21467SOL     OW66013   0.369   8.265   2.722 -0.1118 -0.2128 -0.3699
21467SOL    HW166014   0.291   8.313   2.692 -0.8604 -0.1990  1.4747
21467SOL    HW266015   0.432   8.274   2.650 -1.4006  0.7453 -1.4279
21468SOL     OW66016   4.201   1.026   5.383  0.0399 -0.1602  0.3824
21468SOL    HW166017   4.296   1.019   5.384 -0.0280 -1.2876  0.1786
21468SOL    HW266018   4.183   1.099   5.324  0.8058  1.1204  1.6766
21469SOL     OW66019   0.707   5.895   0.706 -0.1261 -0.0095 -0.3221
21469SOL    HW166020   0.798   5.875   0.682  0.8033 -1.1743  3.5791
21469SOL    HW266021   0.700   5.990   0.696  1.5715  0.1262 -0.4491
21470SOL     OW66022   7.146   0.457   5.640 -1.0345 -0.1247 -0.7597
21470SOL    HW166023   7.173   0.448   5.731  1.0811 -2.4359 -1.5115
21470SOL    HW266024   7.050   0.456   5.643 -1.0146  0.0935  1.4382
21471SOL     OW66025   1.044   1.000   8.077  0.3561  0.2562 -0.1366
21471SOL    HW166026   1.119   0.941   8.079 -1.0130 -1.5959 -1.0809
21471SOL    HW266027   0.974   0.951   8.119 -1.2658  0.5342 -2.4016
21472SOL     OW66028   2.947   6.940   0.415  0.3616  0.4121 -0.3117
21472SOL    HW166029   2.913   7.025   0.386  2.3030  1.2225 -0.3634
21472SOL    HW266030   2.992   6.906   0.337 -1.5103 -1.3155 -0.6986
21473SOL     OW66031   6.170   1.499   8.795  0.2651 -0.5044  0.0819
21473SOL    HW166032   6.190   1.406   8.791 -1.6148 -0.9803  0.8058
21473SOL    HW266033   6.190   1.525   8.884  1.6988  0.0413 -0.3729
21474SOL     OW66034   2.277   0.820   2.765  0.1667 -0.0692 -0.5800
21474SOL    HW166035   2.303   0.749   2.825 -1.1686  0.1246  0.2646
21474SOL    HW266036   2.184   0.833   2.782 -0.0059  0.7131 -1.9807
21475SOL     OW66037   1.540   7.386   5.928  0.0840 -0.6205 -0.3132
21475SOL    HW166038   1.498   7.354   6.007 -1.1317 -0.7280 -0.9828
21475SOL    HW266039   1.535   7.313   5.866  0.4939 -0.3434 -0.6850
21476SOL     OW66040   3.841   7.823   4.248 -0.3207 -0.0987  0.6082
21476SOL    HW166041   3.787   7.873   4.309 -3.0360 -2.9034  0.6918
21476SOL    HW266042   3.885   7.890   4.195 -1.3724  2.3571  2.6597
21477SOL     OW66043   5.117   0.928   2.341  0.1257 -0.4625 -0.1031
21477SOL    HW166044   5.070   1.011   2.336  1.9416  0.5326 -1.9602
21477SOL    HW266045   5.048   0.861   2.333 -1.1993  0.8497 -0.1737
21478SOL     OW66046   1.579   6.391   1.898  0.3893  0.3414  0.0274
21478SOL    HW166047   1.544   6.426   1.979  1.1544  0.6216  0.2412
21478SOL    HW266048   1.674   6.404   1.904  0.6463 -1.2532 -0.1223
21479SOL     OW66049   6.355   6.650   5.384  0.2209 -0.0175 -0.0579
21479SOL    HW166050   6.422   6.588   5.415 -1.2586 -2.2618 -1.1238
21479SOL    HW266051   6.387   6.736   5.414  1.8678 -1.3462  2.3863
21480SOL     OW66052   9.138   4.629   7.544  0.2539  0.5040 -0.4089
21480SOL    HW166053   9.073   4.563   7.566  1.4248 -0.0922  1.4442
21480SOL    HW266054   9.110   4.708   7.592  0.3457  0.5539 -0.4369
21481SOL     OW66055   8.668   1.788   0.615  0.4023  0.7418 -0.0359
21481SOL    HW166056   8.607   1.760   0.547  0.0090 -0.5563  0.8170
21481SOL    HW266057   8.628   1.866   0.653 -0.1306  0.5937 -0.2870
21482SOL     OW66058   2.307   6.381   1.834  0.1903  0.1536  0.0774
21482SOL    HW166059   2.232   6.335   1.795  0.0577  1.2780 -1.0325
21482SOL    HW266060   2.284   6.390   1.926  0.7179 -2.9962  0.6594
21483SOL     OW66061   8.922   8.237   2.547  0.1993  0.0585  0.4912
21483SOL    HW166062   8.955   8.237   2.637 -1.2197  0.6620  1.0240
21483SOL    HW266063   8.915   8.144   2.525  1.1549 -0.0928  0.7561
21484SOL     OW66064   1.842   5.877   6.441  0.2232 -0.1389  0.1324
21484SOL    HW166065   1.896   5.801   6.461  0.5715  0.0977  0.0861
21484SOL    HW266066   1.879   5.914   6.361 -0.1372 -0.1000 -0.0205
21485SOL     OW66067   6.699   9.135   4.821  0.0636  0.1014 -0.4987
21485SOL    HW166068   6.762   9.068   4.797 -0.4674 -0.6342  0.1277
21485SOL    HW266069   6.731   9.215   4.778  0.0683 -0.7804 -2.2055
21486SOL     OW66070   3.208   2.920   6.147  0.5511  0.2853 -0.4536
21486SOL    HW166071   3.255   2.998   6.177 -0.7341  0.6269  0.8100
21486SOL    HW266072   3.218   2.921   6.052  1.3567  1.4705 -0.3791
21487SOL     OW66073   7.893   1.343   4.714 -0.3446  1.0735  0.4213
21487SOL    HW166074   7.935   1.415   4.667  1.2290  0.8272  1.3643
21487SOL    HW266075   7.826   1.310   4.653 -0.2108  2.4859 -0.5260
21488SOL     OW66076   7.747   3.219   0.895 -0.1702 -0.3270 -0.6051
21488SOL    HW166077   7.774   3.263   0.976 -0.1242 -1.7453  0.1791
21488SOL    HW266078   7.663   3.258   0.873 -0.1826  0.0767  0.1243
21489SOL     OW66079   4.707   2.156   3.796  0.7994  0.6204  0.3429
21489SOL    HW166080   4.758   2.196   3.867  1.1445  1.9475 -0.6021
21489SOL    HW266081   4.651   2.092   3.840  2.9335 -0.5662  1.4779
21490SOL     OW66082   2.943   4.935   8.989  0.4259 -0.1153 -0.0791
21490SOL    HW166083   2.906   4.983   8.914  0.0040 -0.7089 -0.2541
21490SOL    HW266084   2.871   4.931   9.052  1.0236  1.1211  0.7307
21491SOL     OW66085   3.404   8.325   7.587 -0.2940 -0.2835  0.0503
21491SOL    HW166086   3.358   8.249   7.623 -0.5865  0.5231  1.4829
21491SOL    HW266087   3.350   8.352   7.512  0.3958 -2.0809 -1.1503
21492SOL     OW66088   3.135   1.059   7.929  0.5212  0.0542 -0.4764
21492SOL    HW166089   3.188   1.108   7.991  0.9211  0.3102 -1.0129
21492SOL    HW266090   3.199   1.013   7.875  0.1918  0.2146 -1.0068
21493SOL     OW66091   4.351   5.980   2.526 -0.5359 -0.3858  0.3730
21493SOL    HW166092   4.414   6.045   2.496 -0.9474  0.2460  0.8632
21493SOL    HW266093   4.393   5.940   2.603 -0.8988  0.3280  0.9535
21494SOL     OW66094   9.672   6.739   5.482  0.1162 -0.4460  0.0170
21494SOL    HW166095   9.627   6.799   5.541  1.8588  0.3165  0.6280
21494SOL    HW266096   9.706   6.670   5.539  0.5958 -0.4611 -0.2816
21495SOL     OW66097   3.131   7.452   2.317 -0.6094  0.0420 -0.2958
21495SOL    HW166098   3.038   7.468   2.331 -0.5241  0.9346 -0.6613
21495SOL    HW266099   3.173   7.536   2.337 -0.0247  0.0241 -1.3769
21496SOL     OW66100   4.948   9.191   3.212  0.1224  0.8083 -0.4329
21496SOL    HW166101   4.922   9.229   3.296 -0.0253  0.0966 -0.1527
21496SOL    HW266102   4.962   9.098   3.231  0.2974  0.6843 -1.1496
21497SOL     OW66103   4.408   1.674   6.026  0.1848 -0.3850 -0.1192
21497SOL    HW166104   4.427   1.699   5.935 -0.5129 -0.6421 -0.3458
21497SOL    HW266105   4.336   1.611   6.019 -0.3910  0.1682  0.6531
21498SOL     OW66106   2.355   4.402   5.674  0.3809  0.1511 -0.4675
21498SOL    HW166107   2.332   4.356   5.754  0.9972 -0.4366 -0.6179
21498SOL    HW266108   2.294   4.369   5.608  0.6567 -0.2700 -0.5159
21499SOL     OW66109   0.350   9.414   8.562 -0.1099 -0.3622 -0.3453
21499SOL    HW166110   0.345   9.421   8.467 -0.0152 -0.3860 -0.3526
21499SOL    HW266111   0.343   9.504   8.593  0.3263 -0.3096 -0.3968
21500SOL     OW66112   6.419   9.182   6.752 -0.1162  0.2937 -0.2790
21500SOL    HW166113   6.406   9.092   6.783 -2.3769  1.4105  2.3561
21500SOL    HW266114   6.442   9.171   6.659  0.5937 -2.9941  0.1422
21501SOL     OW66115   3.817   5.911   5.608 -0.4921 -0.1885 -0.1746
21501SOL    HW166116   3.835   5.971   5.680 -0.8347  0.3818 -0.5619
21501SOL    HW266117   3.902   5.899   5.565 -0.3376 -0.3303  0.1682
21502SOL     OW66118   6.693   3.771   5.231  0.2403 -0.0920  0.0665
21502SOL    HW166119   6.766   3.807   5.282  0.1330 -1.0783  0.9633
21502SOL    HW266120   6.732   3.743   5.149  0.6259  0.5551  0.0250
21503SOL     OW66121   1.718   8.605   8.083  0.4147 -0.7014 -0.3063
21503SOL    HW166122   1.801   8.565   8.108  0.9058 -1.2274 -2.5003
21503SOL    HW266123   1.706   8.678   8.144  1.4785 -1.8099  1.2869
21504SOL     OW66124   3.824   1.493   0.333  0.0181  0.5514  0.3231
21504SOL    HW166125   3.880   1.462   0.404  0.7446  0.0851 -0.4327
21504SOL    HW266126   3.884   1.538   0.274 -0.1884 -0.9671 -1.0962
21505SOL     OW66127   7.675   6.395   9.578  0.3604 -0.4382  0.0247
21505SOL    HW166128   7.653   6.484   9.607 -0.0386 -0.7044  0.5511
21505SOL    HW266129   7.632   6.338   9.642  2.9351 -0.9877  1.4428
21506SOL     OW66130   8.754   1.088   2.940 -0.2444 -0.1151  0.2658
21506SOL    HW166131   8.793   1.168   2.903 -0.0882 -0.4733 -0.3627
21506SOL    HW266132   8.764   1.098   3.034 -2.1965  1.6390  0.3679
21507SOL     OW66133   6.400   8.103   2.221  0.5004  0.0051 -0.3790
21507SOL    HW166134   6.414   8.052   2.301 -0.6493 -0.1066 -0.2393
21507SOL    HW266135   6.486   8.103   2.178  0.8758 -0.8138  0.3365
21508SOL     OW66136   6.448   6.579   3.241 -0.8202  0.0624  0.4890
21508SOL    HW166137   6.410   6.619   3.163 -1.2760  0.7091  1.0346
21508SOL    HW266138   6.413   6.630   3.314  0.1600 -0.0836  1.0765
21509SOL     OW66139   5.648   4.092   5.346  0.2254 -0.3654  0.0439
21509SOL    HW166140   5.636   3.998   5.358  0.2720 -0.4309 -0.4048
21509SOL    HW266141   5.668   4.125   5.434 -1.4206 -0.5189  0.5049
21510SOL     OW66142   6.185   1.794   1.371 -0.3012  0.1087 -0.4863
21510SOL    HW166143   6.194   1.883   1.406 -0.7011  0.5578 -1.4854
21510SOL    HW266144   6.208   1.802   1.278  2.6813 -1.4200 -0.0150
21511SOL     OW66145   6.377   0.373   6.164  0.5540  0.1447 -0.1110
21511SOL    HW166146   6.373   0.380   6.068 -0.6294 -0.3186 -0.1136
21511SOL    HW266147   6.339   0.456   6.195 -0.7675 -0.4430 -0.0752
21512SOL     OW66148   3.340   7.175   9.712  0.4417 -0.1112 -0.1082
21512SOL    HW166149   3.283   7.109   9.672  0.2741  0.1938 -0.3743
21512SOL    HW266150   3.428   7.151   9.685  0.2639  0.5666 -1.3593
21513SOL     OW66151   3.234   2.317   0.369 -0.3490 -0.0534  0.1806
21513SOL    HW166152   3.188   2.242   0.334 -0.4778  0.5812 -1.0675
21513SOL    HW266153   3.243   2.299   0.463  1.0120 -2.3466 -0.3146
21514SOL     OW66154   5.681   0.079   8.515  0.0505 -0.0282 -0.1244
21514SOL    HW166155   5.706   0.121   8.433 -1.2969  0.5917 -0.2519
21514SOL    HW266156   5.718  -0.009   8.510  1.6171  0.6179 -0.5327
21515SOL     OW66157   2.315   9.756   2.923 -0.4545 -0.0904 -0.2556
21515SOL    HW166158   2.390   9.810   2.900  1.1957 -2.3037 -0.4296
21515SOL    HW266159   2.286   9.789   3.008  0.6386  0.8873 -0.2376
21516SOL     OW66160   6.361   0.807   8.186 -0.2469  0.4046 -0.3592
21516SOL    HW166161   6.352   0.796   8.091 -0.3313  0.9137 -0.4096
21516SOL    HW266162   6.306   0.738   8.223  0.8059 -0.6415 -0.6730
21517SOL     OW66163   3.436   0.070   4.431 -0.1713 -0.0767 -0.3862
21517SOL    HW166164   3.372   0.127   4.389  0.4614  0.5007 -0.5766
21517SOL    HW266165   3.478   0.124   4.497 -0.9093 -0.8791  0.7686
21518SOL     OW66166   2.477   8.510   4.142 -0.0880 -0.0481 -0.2028
21518SOL    HW166167   2.427   8.448   4.195  0.6407 -0.8024 -0.3845
21518SOL    HW266168   2.496   8.463   4.061 -0.7209  0.9048 -0.9241
21519SOL     OW66169   7.513   0.546   7.112  0.5479  0.4457 -0.3493
21519SOL    HW166170   7.504   0.510   7.024  0.9642 -0.2042 -0.1313
21519SOL    HW266171   7.512   0.641   7.099 -1.8699  0.4374 -0.8172
21520SOL     OW66172   7.981   6.791   1.058  0.7777  0.5322  0.5645
21520SOL    HW166173   8.002   6.698   1.063  0.5857  0.4284 -0.3738
21520SOL    HW266174   7.923   6.799   0.982 -1.0111  1.1036  1.9019
21521SOL     OW66175   6.230   1.024   3.819 -0.1770  0.1871 -0.2481
21521SOL    HW166176   6.274   1.048   3.900 -0.3046 -0.7140  0.1009
21521SOL    HW266177   6.292   0.967   3.774 -0.2103  0.4796 -0.6739
21522SOL     OW66178   2.814   7.965   3.907 -0.3612 -0.4626  0.1482
21522SOL    HW166179   2.884   7.904   3.884  0.4147  0.8829 -1.1958
21522SOL    HW266180   2.768   7.982   3.825  0.8004  2.3930 -0.0081
21523SOL     OW66181   0.274   2.076   4.283  0.0252 -0.5629  0.3728
21523SOL    HW166182   0.335   2.004   4.273  1.2724  0.6501 -1.3477
21523SOL    HW266183   0.322   2.142   4.333 -0.5655 -0.3104  0.6243
21524SOL     OW66184   8.371   6.793   7.923 -0.2102 -0.5172 -0.0261
21524SOL    HW166185   8.356   6.887   7.911 -0.2796 -0.2860  1.5585
21524SOL    HW266186   8.286   6.759   7.950  0.1739 -0.7290  0.9557
21525SOL     OW66187   8.693   0.746   5.432  0.1620 -0.1551  0.2313
21525SOL    HW166188   8.778   0.746   5.477  1.0188 -1.4613 -1.2583
21525SOL    HW266189   8.677   0.837   5.409  1.1954  0.0993  0.4789
21526SOL     OW66190   1.089   5.558   0.984 -0.1102  0.2504 -0.1281
21526SOL    HW166191   1.094   5.550   0.889 -0.1328  1.4635 -0.2467
21526SOL    HW266192   1.048   5.644   0.999  1.8596  1.0617  0.9600
21527SOL     OW66193   6.601   5.644   8.242  0.3566 -0.1532 -0.0148
21527SOL    HW166194   6.628   5.729   8.206  0.9341 -0.7810 -1.1019
21527SOL    HW266195   6.675   5.617   8.296  0.0501  0.1599  0.5714
21528SOL     OW66196   4.065   6.451   1.347  0.0375  0.2801 -0.1425
21528SOL    HW166197   4.081   6.492   1.432 -3.0626 -0.3996  0.8769
21528SOL    HW266198   4.109   6.366   1.353  0.6309  0.6124  0.3793
21529SOL     OW66199   3.094   0.724   0.603 -0.0418 -0.4559  0.3910
21529SOL    HW166200   3.091   0.687   0.691 -0.6361 -0.0136  0.5581
21529SOL    HW266201   3.171   0.682   0.563  0.3528 -0.5101  1.1761
21530SOL     OW66202   0.482   2.791   8.474 -0.1248 -0.4135 -0.1043
21530SOL    HW166203   0.458   2.709   8.432  1.4619 -1.2001  0.4398
21530SOL    HW266204   0.415   2.806   8.541 -0.4041 -1.2856 -0.1881
21531SOL     OW66205   1.210   6.511   7.613  0.3241  0.2473  0.3453
21531SOL    HW166206   1.122   6.499   7.648  0.3840  0.8346  0.7223
21531SOL    HW266207   1.246   6.423   7.604 -0.4728 -0.0241 -0.2584
21532SOL     OW66208   8.573   0.048   4.874  0.0312 -0.1579 -0.7761
21532SOL    HW166209   8.529   0.011   4.950  1.5021  0.3614  0.3897
21532SOL    HW266210   8.504   0.097   4.829 -0.4684  1.4732  1.5192
21533SOL     OW66211   9.762   6.364   5.457 -0.2099  0.1431 -0.2045
21533SOL    HW166212   9.815   6.417   5.517 -0.1657  1.2566 -1.2016
21533SOL    HW266213   9.672   6.375   5.489 -0.0526 -0.3623  0.4491
21534SOL     OW66214   4.736   9.011   5.593 -0.8492 -0.3406 -0.9614
21534SOL    HW166215   4.788   8.933   5.614 -1.0529 -0.4271 -0.7645
21534SOL    HW266216   4.797   9.084   5.600 -0.4512 -0.5667 -1.9925
21535SOL     OW66217   9.496   3.090   2.220  0.2388  0.0651  0.2158
21535SOL    HW166218   9.478   3.009   2.268 -0.2288 -0.5076 -0.8996
21535SOL    HW266219   9.412   3.114   2.182  0.6223  0.4357 -0.4181
21536SOL     OW66220   4.391   1.218   5.707 -0.3151  1.1096 -0.3360
21536SOL    HW166221   4.331   1.222   5.632  0.4415  0.5761 -0.9830
21536SOL    HW266222   4.439   1.136   5.695 -0.0327  1.1303  0.6206
21537SOL     OW66223   3.167   5.195   1.449  0.9091  0.2602  0.2740
21537SOL    HW166224   3.186   5.213   1.541 -1.4375  1.7386  0.5548
21537SOL    HW266225   3.147   5.281   1.412 -1.7898 -0.6701 -0.6755
21538SOL     OW66226   5.447   6.204   1.328  0.8423 -0.1424  0.1954
21538SOL    HW166227   5.496   6.172   1.252 -0.6725  0.3183 -1.0134
21538SOL    HW266228   5.453   6.300   1.321 -1.9360  0.0077 -1.2008
21539SOL     OW66229   5.986   8.782   2.374  0.3566 -0.5637  0.4252
21539SOL    HW166230   5.996   8.874   2.347 -2.0644 -0.5828 -0.8430
21539SOL    HW266231   5.960   8.737   2.293  1.2015 -2.3320  1.0961
21540SOL     OW66232   4.494   3.160   9.123 -0.9577  0.3334  0.4574
21540SOL    HW166233   4.530   3.079   9.159 -0.9745  1.8168  4.2857
21540SOL    HW266234   4.569   3.219   9.117 -0.7343 -0.0398 -3.2720
21541SOL     OW66235   4.810   6.405   7.309 -0.0737  0.3885 -0.7729
21541SOL    HW166236   4.767   6.485   7.277 -1.6730  0.2797  0.8740
21541SOL    HW266237   4.777   6.336   7.252 -1.7076  0.4022  0.0771
21542SOL     OW66238   6.886   3.808   3.049 -0.3600  0.1791  0.0743
21542SOL    HW166239   6.890   3.825   3.143 -1.4874  0.9706  0.0045
21542SOL    HW266240   6.968   3.844   3.015  0.9737 -1.8192  0.9545
21543SOL     OW66241   2.079   2.680   3.058  0.0689 -0.6155  0.1555
21543SOL    HW166242   2.066   2.602   3.003  0.1866  0.0081 -0.7860
21543SOL    HW266243   1.999   2.687   3.109 -0.4169 -0.7389 -0.5668
21544SOL     OW66244   8.003   6.294   0.667  0.2860  0.2827 -0.3557
21544SOL    HW166245   7.909   6.282   0.652  0.0275  1.8781 -0.2087
21544SOL    HW266246   8.039   6.313   0.580  0.2774  0.7480 -0.2611
21545SOL     OW66247   7.163   1.839   0.719  0.4214  0.5276  0.0589
21545SOL    HW166248   7.096   1.854   0.652  2.3627 -0.7641 -2.3592
21545SOL    HW266249   7.116   1.798   0.792 -1.1567 -3.3521 -2.7664
21546SOL     OW66250   1.445   5.877   1.526  0.1844  0.0712 -0.3325
21546SOL    HW166251   1.404   5.961   1.544  2.5500  1.3652 -0.5260
21546SOL    HW266252   1.448   5.833   1.612  1.3648  1.4080  0.3605
21547SOL     OW66253   7.773   9.410   9.149  0.5429 -0.3555  0.0836
21547SOL    HW166254   7.720   9.335   9.121 -0.3426  0.4255 -0.4151
21547SOL    HW266255   7.730   9.486   9.108  0.1980  0.6683  2.2140
21548SOL     OW66256   3.069   1.803   6.593 -0.2824 -0.1682 -1.3875
21548SOL    HW166257   3.109   1.828   6.676 -0.2080  1.1304 -1.7874
21548SOL    HW266258   3.137   1.754   6.548  0.2620  0.5237 -1.3392
21549SOL     OW66259   1.842   7.565   6.548 -0.2842 -0.5704 -0.2012
21549SOL    HW166260   1.762   7.617   6.536 -0.4337 -0.7883 -0.1547
21549SOL    HW266261   1.873   7.548   6.460 -2.0585 -3.2270 -0.4197
21550SOL     OW66262   4.830   3.514   9.629 -0.0678  0.7238 -0.1918
21550SOL    HW166263   4.783   3.503   9.711 -0.8853  1.9815 -0.4740
21550SOL    HW266264   4.842   3.424   9.596  0.8707  0.1491  1.5858
21551SOL     OW66265   5.584   0.192   4.915 -0.4033  0.4153 -0.2821
21551SOL    HW166266   5.593   0.268   4.857 -1.1926  1.0455  0.4115
21551SOL    HW266267   5.640   0.125   4.875  0.2895  1.3491 -0.9069
21552SOL     OW66268   8.686   9.170   5.112  0.4290 -0.0864 -0.5440
21552SOL    HW166269   8.743   9.191   5.185  1.3251  0.6207 -1.4286
21552SOL    HW266270   8.665   9.077   5.124  3.2292 -0.8875 -1.1577
21553SOL     OW66271   2.239   4.260   2.036  0.6349  0.3828 -0.1442
21553SOL    HW166272   2.273   4.343   2.004  0.7290  0.8876  1.2088
21553SOL    HW266273   2.306   4.227   2.095 -0.5587  0.7163  1.4743
21554SOL     OW66274   3.705   3.505   7.299  0.0749 -0.2003  0.0745
21554SOL    HW166275   3.750   3.438   7.247 -0.1070 -0.7433  0.6077
21554SOL    HW266276   3.776   3.558   7.334  0.2889 -0.7868  0.5499
21555SOL     OW66277   7.472   7.089   8.866  0.0870  0.0408 -0.7562
21555SOL    HW166278   7.551   7.132   8.831  0.7974 -1.0650 -0.5792
21555SOL    HW266279   7.488   6.996   8.851 -0.8053 -0.2574  0.0825
21556SOL     OW66280   8.047   4.646   2.607 -0.4909 -0.5551 -0.4201
21556SOL    HW166281   8.138   4.668   2.586 -0.8132 -0.0361 -1.3506
21556SOL    HW266282   8.011   4.613   2.524 -0.3049 -3.7544  0.6549
21557SOL     OW66283   0.131   8.113   6.957 -0.3019  0.0433 -0.0959
21557SOL    HW166284   0.038   8.103   6.978 -0.4932  0.7665 -0.5558
21557SOL    HW266285   0.140   8.078   6.868 -0.3696  0.9981 -0.4953
21558SOL     OW66286   4.521   4.248   0.965  0.7533 -0.8504  0.0854
21558SOL    HW166287   4.529   4.215   1.054 -1.2938 -0.7700  0.3467
21558SOL    HW266288   4.444   4.305   0.967  1.8690  0.7887 -1.2805
21559SOL     OW66289   3.188   5.447   1.819  0.3578  0.2156  0.2653
21559SOL    HW166290   3.161   5.455   1.911 -0.5071 -2.2301  0.3069
21559SOL    HW266291   3.252   5.376   1.819  0.6086  0.4182 -0.9911
21560SOL     OW66292   9.364   9.647   0.815 -0.0174 -0.2897  0.2155
21560SOL    HW166293   9.396   9.651   0.725  1.1281  1.7181  0.6546
21560SOL    HW266294   9.295   9.580   0.812 -0.7407  0.4131 -2.3758
21561SOL     OW66295   5.622   2.083   7.575  0.0216  0.1644 -0.2122
21561SOL    HW166296   5.661   2.004   7.612  0.2587  0.5371  0.3525
21561SOL    HW266297   5.535   2.087   7.614 -0.4483 -0.4645 -1.1798
21562SOL     OW66298   0.412   5.957   3.247 -0.2275 -0.3349 -0.5505
21562SOL    HW166299   0.429   5.912   3.164 -0.3904  2.5709 -2.2971
21562SOL    HW266300   0.319   5.982   3.242 -0.0229  0.6156  0.1032
21563SOL     OW66301   1.997   0.557   5.052  0.3514  0.5149 -0.4112
21563SOL    HW166302   2.004   0.516   4.965  0.9733  0.4294 -0.3248
21563SOL    HW266303   1.932   0.626   5.040  0.0628  0.1798 -0.8205
21564SOL     OW66304   0.614   7.156   8.240 -0.3451  0.1961 -0.5822
21564SOL    HW166305   0.663   7.159   8.158  0.7964 -0.6833  0.0392
21564SOL    HW266306   0.612   7.247   8.270 -0.5720  0.4902 -1.4595
21565SOL     OW66307   3.862   9.180   8.596 -0.0697 -0.7131 -0.3485
21565SOL    HW166308   3.931   9.160   8.659  0.3154  0.0204 -0.5264
21565SOL    HW266309   3.897   9.251   8.543 -1.4544  0.6096  0.4028
21566SOL     OW66310   3.538   3.563   8.598 -0.1837  0.0012  0.1689
21566SOL    HW166311   3.499   3.634   8.649 -1.8329 -1.4624  1.0490
21566SOL    HW266312   3.576   3.504   8.663  1.1213  0.0244 -0.5434
21567SOL     OW66313   0.514   4.891   1.231  0.2058 -0.5883 -0.0836
21567SOL    HW166314   0.458   4.855   1.299 -0.7501  0.3401 -0.3447
21567SOL    HW266315   0.492   4.842   1.152  1.1999 -1.5561  0.2181
21568SOL     OW66316   5.095   6.513   9.421  0.1127  0.4094  0.4161
21568SOL    HW166317   5.152   6.490   9.494 -0.9129 -0.5152  0.9654
21568SOL    HW266318   5.007   6.513   9.459 -0.4383 -0.0642 -0.8168
21569SOL     OW66319   6.460   7.038   0.891 -0.0233  0.1919  0.3564
21569SOL    HW166320   6.405   7.114   0.909  0.9557  0.8406  0.7175
21569SOL    HW266321   6.529   7.072   0.833  0.0573 -0.5762 -0.0112
21570SOL     OW66322   1.864   7.448   6.288  0.4611 -0.0261 -0.6226
21570SOL    HW166323   1.847   7.504   6.212  1.0434  0.5482 -0.3333
21570SOL    HW266324   1.788   7.390   6.292  0.1881  0.2701 -1.3481
21571SOL     OW66325   6.101   7.631   2.721 -0.0190  0.1488  0.0127
21571SOL    HW166326   6.058   7.696   2.667 -0.4726  0.3686  0.6333
21571SOL    HW266327   6.111   7.673   2.807  1.2072  0.0179 -0.0399
21572SOL     OW66328   4.396   2.684   9.427 -0.6789 -0.1857  0.1113
21572SOL    HW166329   4.392   2.613   9.491 -0.4699 -0.8033 -0.5550
21572SOL    HW266330   4.339   2.655   9.356 -0.1636  0.0643 -0.4083
21573SOL     OW66331   9.661   5.777   4.574  0.3598  0.4175 -0.0148
21573SOL    HW166332   9.691   5.780   4.483 -0.0542  0.3565 -0.1563
21573SOL    HW266333   9.568   5.799   4.569 -0.9883 -4.2098 -0.1976
21574SOL     OW66334   8.168   0.122   9.023  0.0310 -0.2531  0.6840
21574SOL    HW166335   8.263   0.109   9.019  0.0330 -0.2226  0.6449
21574SOL    HW266336   8.149   0.131   9.117  0.3407  1.9132  0.5883
21575SOL     OW66337   1.240   6.445   0.887 -0.1247  0.1907 -0.2792
21575SOL    HW166338   1.299   6.395   0.942  0.0384  1.1306  0.4323
21575SOL    HW266339   1.290   6.523   0.863 -1.0334  0.9707  0.2831
21576SOL     OW66340   6.169   8.505   1.326 -0.6329 -0.1743  0.1698
21576SOL    HW166341   6.253   8.548   1.344  0.0618 -0.8419 -1.3275
21576SOL    HW266342   6.112   8.536   1.397  1.0359 -0.2566  1.6444
21577SOL     OW66343   9.259   6.715   3.952  0.3230 -0.3139  0.5780
21577SOL    HW166344   9.304   6.707   4.036 -0.4352 -0.1968  0.9962
21577SOL    HW266345   9.201   6.639   3.948  0.6624 -0.5487 -0.0327
21578SOL     OW66346   5.189   9.772   4.586  0.8665  0.2176  0.2771
21578SOL    HW166347   5.161   9.726   4.508  0.7982  1.1195 -0.2441
21578SOL    HW266348   5.202   9.863   4.558 -3.8128  1.8047  2.2558
21579SOL     OW66349   7.287   9.794   6.873  0.4873  0.6429 -0.2691
21579SOL    HW166350   7.278   9.702   6.897  0.7082  0.1584 -1.9152
21579SOL    HW266351   7.224   9.840   6.930  0.2310 -0.5312  0.4288
21580SOL     OW66352   7.615   3.028   0.059 -0.5035  0.1752 -0.4100
21580SOL    HW166353   7.561   2.955   0.092 -0.5093  0.0871 -0.6098
21580SOL    HW266354   7.641   3.000  -0.029  2.6062 -1.2902  0.8327
21581SOL     OW66355   4.929   6.046   5.210 -0.1628  0.0030 -0.6032
21581SOL    HW166356   4.882   6.054   5.293  1.5482  0.7404  0.3565
21581SOL    HW266357   4.897   6.119   5.158 -1.4876 -0.6506 -0.7471
21582SOL     OW66358   9.686   0.629   7.944  0.5855 -0.0187  0.2496
21582SOL    HW166359   9.688   0.622   7.849 -1.3740 -1.3795  0.2322
21582SOL    HW266360   9.718   0.544   7.974 -1.1165 -0.5386  0.7062
21583SOL     OW66361   6.938   8.637   0.545  0.1468 -0.1542 -0.1438
21583SOL    HW166362   6.846   8.650   0.568 -0.0303 -1.0554 -0.3018
21583SOL    HW266363   6.965   8.720   0.507  0.0391  0.9087  1.9257
21584SOL     OW66364   0.581   7.113   5.278  0.4038  0.1006 -0.5281
21584SOL    HW166365   0.549   7.203   5.277 -0.6910 -0.2675 -0.5527
21584SOL    HW266366   0.666   7.118   5.322  0.0372  1.0477  0.1111
21585SOL     OW66367   9.058   2.551   1.647 -0.3735  0.2849  0.5190
21585SOL    HW166368   9.143   2.525   1.681  0.2766  0.9623 -0.5024
21585SOL    HW266369   9.027   2.475   1.597  0.7473  0.8124 -1.0672
21586SOL     OW66370   2.208   3.978   4.936  0.4739  0.3640 -0.4249
21586SOL    HW166371   2.173   3.913   4.997  0.3810 -1.6264 -2.4448
21586SOL    HW266372   2.300   3.954   4.926  1.7217  3.4547  2.2369
21587SOL     OW66373   8.478   7.038   3.360 -0.2233  0.6125 -0.0205
21587SOL    HW166374   8.435   6.999   3.436 -1.6313  2.3434  0.1359
21587SOL    HW266375   8.554   7.083   3.397 -0.2527  0.4836  0.2048
21588SOL     OW66376   6.266   8.615   4.859 -0.1102 -0.1710  0.0573
21588SOL    HW166377   6.343   8.630   4.803 -1.1248  2.0572 -0.8725
21588SOL    HW266378   6.196   8.593   4.798 -0.4164 -1.4102  0.8262
21589SOL     OW66379   7.159   0.443   0.312  0.2279 -0.2483  0.4988
21589SOL    HW166380   7.213   0.522   0.311 -1.9335  1.3195 -0.8131
21589SOL    HW266381   7.206   0.381   0.256  0.9634  0.8543 -0.1443
21590SOL     OW66382   9.211   6.902   5.257  0.2510  0.0178  0.1597
21590SOL    HW166383   9.238   6.986   5.295 -0.2003  1.3308 -2.2067
21590SOL    HW266384   9.164   6.857   5.328  0.6780  1.6582  1.5482
21591SOL     OW66385   1.311   5.321   2.016 -0.2687  0.1587 -0.0693
21591SOL    HW166386   1.254   5.392   1.985 -0.2903 -0.2963 -1.1171
21591SOL    HW266387   1.290   5.313   2.109 -1.1646  0.6941 -0.2067
21592SOL     OW66388   7.581   7.666   6.469 -0.6447 -0.0666  0.2128
21592SOL    HW166389   7.584   7.761   6.482 -0.6526  0.1376 -1.1486
21592SOL    HW266390   7.491   7.648   6.442 -0.4676 -0.3580 -0.1990
21593SOL     OW66391   8.522   3.266   8.553  0.3437  0.8217 -0.1469
21593SOL    HW166392   8.473   3.340   8.517 -0.0017  0.3018 -0.7767
21593SOL    HW266393   8.582   3.305   8.617 -1.2799  1.4141  1.0749
21594SOL     OW66394   3.273   8.367   3.910  0.2423  0.1412  0.0369
21594SOL    HW166395   3.202   8.394   3.968  1.1822  0.1552  1.2198
21594SOL    HW266396   3.253   8.408   3.826 -1.3036 -0.1106  0.2639
21595SOL     OW66397   1.675   2.577   7.921 -0.0444 -0.3782 -0.0573
21595SOL    HW166398   1.609   2.639   7.888  0.7901  1.2034  1.1102
21595SOL    HW266399   1.695   2.608   8.009  1.3785 -1.5510  0.0660
21596SOL     OW66400   7.105   5.077   7.061  0.0398 -0.0766  0.2760
21596SOL    HW166401   7.128   4.990   7.026  0.8126  0.7217 -1.2952
21596SOL    HW266402   7.028   5.061   7.116 -0.1000 -1.6863 -0.3305
21597SOL     OW66403   2.109   3.510   3.454 -0.9036  0.1522  0.0555
21597SOL    HW166404   2.014   3.524   3.449 -1.1526 -1.6796 -1.8397
21597SOL    HW266405   2.138   3.513   3.363 -0.0147 -4.2524 -0.0251
21598SOL     OW66406   0.677   2.690   6.850 -0.1629  0.5448  0.2091
21598SOL    HW166407   0.715   2.649   6.773  0.4050  0.8666  0.3154
21598SOL    HW266408   0.680   2.622   6.918  3.2396  1.4769  1.1796
21599SOL     OW66409   4.962   2.049   4.750  0.1690  0.4475 -0.1096
21599SOL    HW166410   5.016   1.971   4.733 -1.1491 -0.4742 -0.1915
21599SOL    HW266411   4.991   2.079   4.836  2.0958  1.0932 -0.9254
21600SOL     OW66412   5.655   5.652   8.917  0.6665  0.0798 -0.2686
21600SOL    HW166413   5.660   5.562   8.950 -0.3944  0.0217 -0.2305
21600SOL    HW266414   5.744   5.672   8.887  0.4486 -1.8022 -2.4263
21601SOL     OW66415   8.311   5.027   7.267  0.4475  0.8717 -0.1114
21601SOL    HW166416   8.362   4.974   7.330  2.2287  0.6869 -1.6094
21601SOL    HW266417   8.221   4.998   7.279  1.1791 -1.6333  0.0309
21602SOL     OW66418   6.278   8.510   4.039  0.3484 -0.5699  0.1181
21602SOL    HW166419   6.205   8.456   4.070  1.2203 -2.5882 -1.1148
21602SOL    HW266420   6.352   8.482   4.093  0.8989 -0.9237 -0.8017
21603SOL     OW66421   8.625   4.800   2.602 -0.7022 -0.0656 -0.4538
21603SOL    HW166422   8.573   4.879   2.590 -0.7629  0.5346  2.8280
21603SOL    HW266423   8.561   4.729   2.610 -0.7807 -0.0313 -0.7804
21604SOL     OW66424   4.468   0.350   8.513 -0.4666 -0.2680 -0.6305
21604SOL    HW166425   4.487   0.278   8.574 -2.6179 -0.9924 -0.7268
21604SOL    HW266426   4.491   0.315   8.427  1.0944  0.1873 -0.4176
21605SOL     OW66427   8.668   6.853   0.728 -0.4273  0.3074 -0.1562
21605SOL    HW166428   8.693   6.895   0.810  1.5496  0.5604 -0.8151
21605SOL    HW266429   8.663   6.924   0.664  0.9347 -0.1758 -0.8455
21606SOL     OW66430   5.902   1.228   5.306  0.2599 -0.7861  0.3210
21606SOL    HW166431   5.806   1.232   5.309  0.2612 -0.4494  0.0158
21606SOL    HW266432   5.925   1.153   5.360 -0.1701 -0.7784  0.5150
21607SOL     OW66433   6.051   0.131   1.148 -0.4694 -0.6847 -0.0249
21607SOL    HW166434   5.984   0.162   1.209 -0.9914  0.2347 -1.0306
21607SOL    HW266435   6.028   0.040   1.131  0.4832 -1.4058  2.1726
21608SOL     OW66436   5.967   2.281   3.466 -0.1989  0.1344 -0.1433
21608SOL    HW166437   5.880   2.306   3.433 -0.5031  0.0618  0.5988
21608SOL    HW266438   6.027   2.307   3.396 -0.6635  1.6093 -0.0240
21609SOL     OW66439   3.160   1.021   6.170  0.5425 -0.1240 -0.6074
21609SOL    HW166440   3.108   0.990   6.243  0.0871 -2.1271 -1.6955
21609SOL    HW266441   3.247   0.982   6.184  0.5720 -0.1628 -0.8812
21610SOL     OW66442   7.713   1.915   3.502  0.1868 -0.1464  0.2337
21610SOL    HW166443   7.775   1.901   3.431  0.5028 -0.3824  0.5530
21610SOL    HW266444   7.658   1.837   3.503 -0.7010  0.4494 -0.6229
21611SOL     OW66445   0.796   3.815   2.927  0.2072 -0.4096  0.0460
21611SOL    HW166446   0.744   3.866   2.988  0.0036  1.2731 -1.4320
21611SOL    HW266447   0.884   3.814   2.965  0.4440  1.9035 -0.2676
21612SOL     OW66448   6.716   6.318   8.931 -0.4829 -0.2853  0.4026
21612SOL    HW166449   6.791   6.339   8.875 -1.3606  2.5815  0.1259
21612SOL    HW266450   6.740   6.352   9.018 -1.4469  0.7625  0.2867
21613SOL     OW66451   9.810   4.041   9.685  0.5535 -0.1941  0.3934
21613SOL    HW166452   9.859   3.963   9.712 -2.5631 -1.8514  1.7042
21613SOL    HW266453   9.769   4.073   9.765  2.0915  3.2565  0.0190
21614SOL     OW66454   3.726   5.080   4.664  0.9989 -0.3629 -0.4791
21614SOL    HW166455   3.674   5.003   4.642 -0.1976  0.0847  0.6447
21614SOL    HW266456   3.784   5.051   4.734  1.4260 -0.5475 -0.9028
21615SOL     OW66457   3.643   4.232   2.652  0.4801  0.4721  0.2672
21615SOL    HW166458   3.653   4.164   2.719  0.7891  0.1128 -0.1391
21615SOL    HW266459   3.730   4.241   2.613  0.7577  2.0018  1.1573
21616SOL     OW66460   6.978   3.472   1.674 -0.1318 -0.2317 -0.6505
21616SOL    HW166461   6.919   3.440   1.742 -0.0350  0.5784 -0.1705
21616SOL    HW266462   6.947   3.560   1.655  0.1657 -0.2580 -1.2835
21617SOL     OW66463   4.860   7.149   6.147  0.2980  0.6207  0.6545
21617SOL    HW166464   4.768   7.123   6.152  0.9426 -2.4915 -1.0695
21617SOL    HW266465   4.908   7.071   6.175  2.4312  1.4861 -0.3619
21618SOL     OW66466   7.185   7.183   7.625 -0.6062 -0.3562 -0.2814
21618SOL    HW166467   7.279   7.174   7.636  0.0996 -1.3111 -5.0118
21618SOL    HW266468   7.148   7.103   7.663  0.9045 -1.5184 -1.1620
21619SOL     OW66469   5.982   0.332   0.398  0.0120  0.1675  0.0521
21619SOL    HW166470   5.998   0.327   0.493 -2.7498 -0.2213  0.5739
21619SOL    HW266471   5.981   0.241   0.370  0.4018  0.2659 -0.2871
21620SOL     OW66472   6.634   4.029   2.511 -0.6094  0.1277 -0.4073
21620SOL    HW166473   6.638   3.994   2.600 -0.1166 -0.0569 -0.4948
21620SOL    HW266474   6.625   3.952   2.455  3.2205 -0.2520 -0.8161
21621SOL     OW66475   4.994   9.174   3.844  0.2213  0.2378 -0.3977
21621SOL    HW166476   4.912   9.137   3.876 -0.7134  0.0700 -2.7909
21621SOL    HW266477   4.987   9.268   3.861 -0.9966  0.3873 -1.5344
21622SOL     OW66478   8.896   7.393   5.098  0.1940  0.1122  0.3710
21622SOL    HW166479   8.942   7.377   5.180  1.9326 -0.2188 -0.6084
21622SOL    HW266480   8.850   7.311   5.079  2.3452 -0.9828 -0.4965
21623SOL     OW66481   4.919   0.122   8.996  0.0180  0.2029 -0.6810
21623SOL    HW166482   4.974   0.044   8.997  0.7760  0.7108  0.8960
21623SOL    HW266483   4.891   0.131   8.905  1.0792 -1.0887 -1.1667
21624SOL     OW66484   8.633   0.224   8.813 -0.3153 -0.8337  0.8696
21624SOL    HW166485   8.629   0.319   8.819 -0.1613 -0.8847  1.9304
21624SOL    HW266486   8.563   0.201   8.753 -0.9387 -0.1090  1.3060
21625SOL     OW66487   6.585   8.310   2.452 -0.4106  0.2589  0.5320
21625SOL    HW166488   6.562   8.223   2.420 -0.3701  1.0436 -1.8559
21625SOL    HW266489   6.504   8.360   2.445  0.2794  1.2228 -1.2687
21626SOL     OW66490   3.302   7.443   5.181  0.5081  0.3030  0.0593
21626SOL    HW166491   3.386   7.461   5.139 -0.0425  0.5773 -0.9657
21626SOL    HW266492   3.257   7.385   5.120 -1.4082  2.8685 -1.0947
21627SOL     OW66493   5.384   3.803   3.086  0.1464  0.2800  0.4422
21627SOL    HW166494   5.362   3.712   3.069 -1.7576  0.4280  1.8266
21627SOL    HW266495   5.367   3.815   3.179  1.3908  1.8004  0.5263
21628SOL     OW66496   4.025   3.471   4.307 -0.0194  0.1609 -0.3460
21628SOL    HW166497   4.110   3.474   4.264  0.8502  0.1848  1.3037
21628SOL    HW266498   4.027   3.544   4.369 -1.4312  0.4582 -0.6239
21629SOL     OW66499   4.465   2.429   4.322 -0.0132  0.1638  0.4315
21629SOL    HW166500   4.443   2.358   4.262 -0.0392  0.1867  0.4140
21629SOL    HW266501   4.452   2.391   4.409  2.4937 -0.7043  0.5104
21630SOL     OW66502   9.309   4.962   5.688  0.3801 -0.2303  0.1414
21630SOL    HW166503   9.246   5.004   5.630 -0.5488 -1.2904  0.3485
21630SOL    HW266504   9.269   4.966   5.775 -0.4034 -2.6629 -0.0169
21631SOL     OW66505   5.193   1.706   8.197  0.4668 -0.2832  0.4098
21631SOL    HW166506   5.101   1.713   8.225  0.0934 -0.0234 -0.8022
21631SOL    HW266507   5.241   1.686   8.277 -0.6968 -0.7867  1.0100
21632SOL     OW66508   4.505   8.789   2.133 -0.1551  0.4669  0.5071
21632SOL    HW166509   4.522   8.834   2.215  0.8933  0.7722  0.1435
21632SOL    HW266510   4.486   8.859   2.070 -2.3161  0.1646  0.7655
21633SOL     OW66511   0.938   5.611   2.200 -0.2193  0.2373 -0.1883
21633SOL    HW166512   0.878   5.538   2.185  0.7661 -0.8813  1.1090
21633SOL    HW266513   1.021   5.582   2.164  1.2318 -1.0033  3.6728
21634SOL     OW66514   8.293   3.528   5.417 -0.5217 -0.3636  0.5271
21634SOL    HW166515   8.328   3.595   5.357 -1.6437  0.3219  0.6083
21634SOL    HW266516   8.314   3.561   5.504  1.3753 -1.5081  0.5626
21635SOL     OW66517   3.920   6.842   3.717 -0.4643 -0.5208 -0.4467
21635SOL    HW166518   3.925   6.937   3.705  0.0756 -0.2509  1.4723
21635SOL    HW266519   4.005   6.809   3.686  0.5703  0.0356  1.6006
21636SOL     OW66520   7.886   5.784   5.194 -0.3697 -0.3661 -0.1073
21636SOL    HW166521   7.932   5.854   5.239 -1.5866 -0.9950  2.3153
21636SOL    HW266522   7.913   5.704   5.240  0.5796 -1.4659 -2.4518
21637SOL     OW66523   3.763   8.690   4.502  0.0039 -0.1327  0.9053
21637SOL    HW166524   3.768   8.775   4.545 -0.2163  1.0177 -1.2139
21637SOL    HW266525   3.719   8.707   4.419  1.4252 -1.9972 -0.3348
21638SOL     OW66526   1.695   7.474   7.651 -0.0797  0.0384  0.2977
21638SOL    HW166527   1.602   7.450   7.645 -0.0575  0.1634 -0.9417
21638SOL    HW266528   1.740   7.402   7.608  0.2457  0.7655 -0.6184
21639SOL     OW66529   7.923   8.092   3.677 -0.3725 -0.2488  0.1144
21639SOL    HW166530   7.962   8.018   3.724  0.6272  0.2951  0.1716
21639SOL    HW266531   7.841   8.108   3.722 -0.3819 -1.0331  0.3947
21640SOL     OW66532   8.322   5.836   4.890  0.3686 -0.0979  0.2102
21640SOL    HW166533   8.350   5.789   4.969 -0.6904 -0.0758  0.6041
21640SOL    HW266534   8.240   5.877   4.914 -1.6466 -2.6104 -1.8190
21641SOL     OW66535   5.897   9.369   5.704 -0.5388  0.2492  0.0030
21641SOL    HW166536   5.911   9.411   5.619  0.2291 -0.6966 -0.3639
21641SOL    HW266537   5.978   9.321   5.720 -1.4629 -1.2895  0.2641
21642SOL     OW66538   0.350   3.358   2.527 -0.5475 -0.3155  0.1696
21642SOL    HW166539   0.361   3.453   2.539 -1.1071 -0.2821  0.4237
21642SOL    HW266540   0.419   3.319   2.582  0.0818 -0.0497 -0.4139
21643SOL     OW66541   5.637   7.443   9.794 -0.0282  0.1104 -0.4280
21643SOL    HW166542   5.546   7.429   9.769  0.0641  2.3780 -2.4064
21643SOL    HW266543   5.632   7.487   9.879 -0.6656 -1.1860  0.2364
21644SOL     OW66544   8.815   9.183   2.502  0.1466  0.5583 -0.8983
21644SOL    HW166545   8.881   9.233   2.551 -0.7621  0.7187  0.1971
21644SOL    HW266546   8.768   9.249   2.451 -0.4277  0.7026 -0.1878
21645SOL     OW66547   2.556   0.680   4.936  0.0068 -0.4112  0.0885
21645SOL    HW166548   2.551   0.713   4.847 -1.6752 -1.5242 -0.2778
21645SOL    HW266549   2.596   0.593   4.927  0.7144 -0.1395  0.5438
21646SOL     OW66550   0.553   0.435   8.977 -0.0085 -0.0089 -0.0281
21646SOL    HW166551   0.591   0.354   8.944 -1.2322 -0.7138  0.2127
21646SOL    HW266552   0.615   0.503   8.951 -0.6474 -0.5441 -3.4152
21647SOL     OW66553   2.364   2.676   9.498  0.3151 -0.2748  0.4691
21647SOL    HW166554   2.387   2.603   9.556  1.0822 -0.2091  0.2616
21647SOL    HW266555   2.426   2.745   9.521  2.1024 -0.9684 -1.8611
21648SOL     OW66556   6.082   9.100   1.205  0.0381 -0.0827  0.4643
21648SOL    HW166557   6.161   9.111   1.153 -0.8766 -1.7465 -1.4029
21648SOL    HW266558   6.097   9.020   1.255 -0.0233  0.2367  1.0065
21649SOL     OW66559   8.027   7.978   8.540  0.0362 -0.1161  0.2836
21649SOL    HW166560   8.024   7.940   8.627  1.6289  1.3743  1.0538
21649SOL    HW266561   8.102   8.037   8.542 -0.3953  0.6047 -1.8345
21650SOL     OW66562   4.397   6.511   9.045  0.7934  0.4829 -0.8142
21650SOL    HW166563   4.477   6.460   9.040  0.2113 -0.4855 -0.4353
21650SOL    HW266564   4.361   6.507   8.957  0.9156  0.5119 -0.8656
21651SOL     OW66565   6.125   3.915   3.429  0.0965 -0.1993  0.0476
21651SOL    HW166566   6.124   3.982   3.362  0.6926 -0.0951  0.1354
21651SOL    HW266567   6.094   3.836   3.385  0.1614 -0.0523 -0.2625
21652SOL     OW66568   4.589   7.588   4.343  0.0574 -0.2838 -0.3925
21652SOL    HW166569   4.638   7.512   4.374  0.5882  0.2690  0.1518
21652SOL    HW266570   4.648   7.633   4.283  0.6923  1.0079  1.1341
21653SOL     OW66571   4.820   3.953   9.444 -0.2991  0.3161 -0.2002
21653SOL    HW166572   4.778   4.039   9.456 -0.3098  0.3855 -0.7029
21653SOL    HW266573   4.846   3.926   9.532 -1.8188  0.0600  0.1938
21654SOL     OW66574   3.128   5.640   8.625  0.9073  0.9552 -0.1613
21654SOL    HW166575   3.073   5.582   8.572  0.7619  1.2683 -0.3597
21654SOL    HW266576   3.114   5.727   8.587  2.5617  0.8500 -1.0613
21655SOL     OW66577   0.874   3.418   5.476 -0.2379 -0.1732 -0.4150
21655SOL    HW166578   0.954   3.427   5.528  0.0762  0.5538 -1.0116
21655SOL    HW266579   0.808   3.465   5.527 -0.4900 -1.3832  0.4439
21656SOL     OW66580   4.331   3.059   2.451  0.4310  0.1159  0.7668
21656SOL    HW166581   4.312   3.124   2.518  1.1768  1.2489 -0.0921
21656SOL    HW266582   4.285   3.090   2.373  0.8875 -0.3273  0.3159
21657SOL     OW66583   5.449   9.549   8.693  0.4588  0.2652  0.1136
21657SOL    HW166584   5.358   9.578   8.703  0.2352 -0.8071  1.5624
21657SOL    HW266585   5.500   9.630   8.700 -0.2015  0.5657  3.1693
21658SOL     OW66586   2.265   7.830   0.771 -0.1751 -0.0104 -0.9396
21658SOL    HW166587   2.321   7.866   0.703  0.2646 -0.2802 -0.7225
21658SOL    HW266588   2.264   7.736   0.754  1.6653 -0.3742  0.6739
21659SOL     OW66589   8.616   1.905   3.920  0.4321 -0.3022 -0.0732
21659SOL    HW166590   8.522   1.883   3.924  0.2731  0.1112 -1.2009
21659SOL    HW266591   8.650   1.850   3.850  1.0041 -0.3070  0.2016
21660SOL     OW66592   4.096   1.142   0.220 -0.2970 -0.0648 -0.3197
21660SOL    HW166593   4.123   1.057   0.187 -1.0692  0.3741 -2.2009
21660SOL    HW266594   4.060   1.125   0.307 -0.4836 -1.6445 -0.6943
21661SOL     OW66595   3.218   9.119   9.290 -0.2192 -0.1306 -0.1453
21661SOL    HW166596   3.282   9.187   9.270 -1.3128  0.4674 -1.8518
21661SOL    HW266597   3.149   9.164   9.340 -0.0750 -0.4085  0.3096
21662SOL     OW66598   5.180   6.967   2.633 -0.0930  0.5537 -0.1758
21662SOL    HW166599   5.181   6.931   2.545 -0.9964 -0.1794  0.0942
21662SOL    HW266600   5.091   6.950   2.665 -0.4970  2.8252  0.0651
21663SOL     OW66601   3.900   1.490   4.155 -0.1239  0.0325  0.3795
21663SOL    HW166602   3.897   1.493   4.060 -0.2358 -0.1912  0.3771
21663SOL    HW266603   3.993   1.480   4.176 -0.3294 -3.0823  0.2115
21664SOL     OW66604   7.357   3.158   1.697 -0.0311  0.0709 -0.4013
21664SOL    HW166605   7.289   3.210   1.656 -0.3314 -0.7978 -1.0292
21664SOL    HW266606   7.326   3.068   1.689  0.1747 -0.1719  1.2174
21665SOL     OW66607   5.248   9.315   3.482 -0.7677 -0.9386 -0.2926
21665SOL    HW166608   5.268   9.237   3.431  2.4661  1.0530 -2.4679
21665SOL    HW266609   5.203   9.373   3.420 -0.7699 -0.1061  0.4608
21666SOL     OW66610   3.386   3.774   5.420 -0.5678 -0.2023  0.1673
21666SOL    HW166611   3.337   3.696   5.396  0.1370 -0.2051 -1.4318
21666SOL    HW266612   3.467   3.740   5.459 -0.7956 -0.2534  0.5890
21667SOL     OW66613   0.032   2.234   8.923 -0.3399 -0.4431  0.1907
21667SOL    HW166614  -0.018   2.286   8.986 -2.5202  0.9501 -2.4585
21667SOL    HW266615  -0.016   2.152   8.916 -1.3420  0.2141 -1.0768
21668SOL     OW66616   1.833   5.903   1.450  0.4580  0.0347 -0.4252
21668SOL    HW166617   1.825   5.998   1.438  0.1414 -0.0464 -0.9133
21668SOL    HW266618   1.915   5.880   1.407  0.3679  0.0387 -0.5978
21669SOL     OW66619   6.812   7.083   4.804 -0.3515  0.4542  0.0001
21669SOL    HW166620   6.717   7.082   4.801 -0.3387  0.3700 -1.5449
21669SOL    HW266621   6.835   7.043   4.888 -1.6656  0.2233  0.2640
21670SOL     OW66622   8.084   0.817   3.262  0.6755  0.2285 -0.2065
21670SOL    HW166623   8.170   0.830   3.221 -0.1984 -0.3203 -2.3572
21670SOL    HW266624   8.022   0.855   3.200 -0.7238 -0.3797  0.7712
21671SOL     OW66625   3.871   2.621   6.449  0.2762  0.1059 -0.3352
21671SOL    HW166626   3.945   2.682   6.447  0.8814 -0.5665  0.7398
21671SOL    HW266627   3.842   2.616   6.358 -1.1852  3.6283 -0.2400
21672SOL     OW66628   1.046   2.739   7.057  0.3891 -0.8864  0.0872
21672SOL    HW166629   1.087   2.814   7.100 -1.6458  0.8916 -0.9035
21672SOL    HW266630   1.084   2.738   6.970 -0.3401 -0.3102 -0.2514
21673SOL     OW66631   8.182   5.740   7.673 -0.0105 -0.1298  0.2713
21673SOL    HW166632   8.256   5.682   7.654  1.6666  1.5707  1.2829
21673SOL    HW266633   8.161   5.721   7.764  0.1499  0.4324  0.4235
21674SOL     OW66634   9.197   6.134   5.094  0.1889 -0.0521 -0.5254
21674SOL    HW166635   9.228   6.174   5.013  2.4909 -0.2944  0.1745
21674SOL    HW266636   9.227   6.043   5.088 -1.5511 -0.6860 -0.3407
21675SOL     OW66637   3.148   7.324   2.070 -0.4986 -0.7226  0.2390
21675SOL    HW166638   3.190   7.368   1.996  0.3085 -0.9627  0.5397
21675SOL    HW266639   3.131   7.393   2.133  2.8390 -1.0142  1.6995
21676SOL     OW66640   3.662   9.064   5.346 -0.1317 -0.3768  0.4104
21676SOL    HW166641   3.734   9.023   5.298  0.8750  2.0177 -0.2484
21676SOL    HW266642   3.705   9.120   5.410 -1.4179  0.5669  0.4798
21677SOL     OW66643   6.705   9.119   1.227  0.1835  0.1997  0.5379
21677SOL    HW166644   6.766   9.192   1.228  1.4581 -0.7287 -1.7351
21677SOL    HW266645   6.760   9.041   1.240 -0.8979 -0.4974  1.1325
21678SOL     OW66646   9.673   0.562   1.739 -0.3550 -0.1590  0.5657
21678SOL    HW166647   9.609   0.517   1.683 -0.8097  0.6935  0.3791
21678SOL    HW266648   9.744   0.586   1.679 -0.3033 -0.2611  0.5856
21679SOL     OW66649   2.141   7.293   5.252  0.2189  0.2060 -0.3642
21679SOL    HW166650   2.219   7.237   5.240  0.7962  0.9730 -0.2796
21679SOL    HW266651   2.068   7.237   5.227  0.7347 -0.7622  0.2243
21680SOL     OW66652   1.973   1.088   0.341 -0.3359 -0.3151  0.0290
21680SOL    HW166653   1.939   1.172   0.371 -1.6032 -0.5632 -0.6726
21680SOL    HW266654   2.033   1.111   0.270  0.3580  0.0713  0.7255
21681SOL     OW66655   6.043   1.091   3.240 -0.0748  0.4922 -0.3976
21681SOL    HW166656   6.019   1.131   3.157  1.0775  2.5719  0.2006
21681SOL    HW266657   6.010   1.002   3.234  0.6191  0.3372 -3.3582
21682SOL     OW66658   4.819   8.714   9.638  0.5229  0.5193  0.4999
21682SOL    HW166659   4.825   8.737   9.545  0.4097  0.7714  0.5542
21682SOL    HW266660   4.737   8.666   9.646 -0.2784  1.8640  0.7439
21683SOL     OW66661   1.629   6.933   1.462  0.0510  0.2962 -0.0050
21683SOL    HW166662   1.653   6.992   1.534 -0.6567 -1.3808  1.6988
21683SOL    HW266663   1.671   6.850   1.485 -0.3454 -0.3315 -1.4548
21684SOL     OW66664   7.125   7.328   2.103  0.3947  0.1259 -0.0311
21684SOL    HW166665   7.153   7.241   2.074 -2.0777 -0.5326 -0.6726
21684SOL    HW266666   7.138   7.384   2.026 -0.4716 -0.2733 -0.4761
21685SOL     OW66667   4.270   8.051   2.576 -0.3964 -0.7200  0.4349
21685SOL    HW166668   4.342   7.999   2.611  1.6588  0.3324 -1.9336
21685SOL    HW266669   4.296   8.142   2.593 -1.3009 -0.3255 -0.2394
21686SOL     OW66670   2.014   7.883   1.207  0.0068  0.1924  0.2385
21686SOL    HW166671   2.062   7.820   1.153  1.5287  1.0081  0.5752
21686SOL    HW266672   2.078   7.952   1.226 -1.2814  1.2676  0.8331
21687SOL     OW66673   7.635   2.819   7.814  0.0373 -0.4153 -0.0016
21687SOL    HW166674   7.582   2.741   7.831 -1.3561  0.7549  1.3026
21687SOL    HW266675   7.604   2.851   7.729 -1.2718  0.1305  0.6465
21688SOL     OW66676   1.415   0.759   0.793 -0.2639 -0.4612  0.0679
21688SOL    HW166677   1.461   0.734   0.873 -0.0021  0.7781  0.3296
21688SOL    HW266678   1.333   0.798   0.824  0.0380  0.4398 -0.2319
21689SOL     OW66679   7.730   8.487   4.348 -0.4948 -0.6226  0.2224
21689SOL    HW166680   7.792   8.438   4.402 -0.7881 -1.0457  0.1825
21689SOL    HW266681   7.644   8.461   4.381 -0.6621 -0.3117  0.0409
21690SOL     OW66682   5.778   1.620   1.268  0.5914  0.4528 -0.3281
21690SOL    HW166683   5.761   1.529   1.245  0.2756  0.7841 -1.4424
21690SOL    HW266684   5.864   1.619   1.309  0.9702 -0.2251 -1.1307
21691SOL     OW66685   2.655   6.563   2.480 -0.2466 -0.4858 -0.0566
21691SOL    HW166686   2.603   6.543   2.558 -1.3178 -0.7178 -0.8152
21691SOL    HW266687   2.634   6.654   2.460  0.4526 -0.2512  0.2292
21692SOL     OW66688   9.326   7.654   7.465 -0.2415  0.0865  0.2303
21692SOL    HW166689   9.334   7.565   7.497  1.0104  0.0448 -0.1667
21692SOL    HW266690   9.325   7.645   7.369  0.9124  0.5586  0.1599
21693SOL     OW66691   7.036   0.530   8.936  0.7962  0.2592  0.5759
21693SOL    HW166692   7.045   0.457   8.998  0.1575 -1.5225 -1.3087
21693SOL    HW266693   7.125   0.547   8.906  0.8050 -0.6900  0.0280
21694SOL     OW66694   3.546   4.473   4.713 -0.0490  0.0506 -0.3738
21694SOL    HW166695   3.475   4.459   4.775  1.1115 -1.2519  0.7510
21694SOL    HW266696   3.561   4.387   4.673  0.4294  0.4581 -1.0984
21695SOL     OW66697   7.540   2.493   0.154  0.5186 -0.0521 -0.3734
21695SOL    HW166698   7.608   2.427   0.168 -0.0642 -0.4567  0.6876
21695SOL    HW266699   7.524   2.530   0.241 -1.2529 -0.6244 -0.4140
21696SOL     OW66700   5.996   4.071   1.149 -0.1571 -0.4004 -0.3307
21696SOL    HW166701   6.027   4.049   1.236 -2.2865 -2.3615  0.0082
21696SOL    HW266702   6.045   4.151   1.126  0.0308  0.5343  2.8519
21697SOL     OW66703   6.733   8.407   6.014  0.1398  0.6831  0.8483
21697SOL    HW166704   6.744   8.354   6.092 -0.3844 -0.1609  0.3652
21697SOL    HW266705   6.818   8.402   5.969 -0.5129 -1.5530 -0.2731
21698SOL     OW66706   7.777   7.124   2.576 -0.3450 -0.3756 -0.7426
21698SOL    HW166707   7.764   7.218   2.565 -0.2789 -0.1573  0.8296
21698SOL    HW266708   7.690   7.090   2.596 -0.3370 -0.6130 -1.1176
21699SOL     OW66709   7.330   5.334   3.623 -0.5022 -0.4692 -0.1999
21699SOL    HW166710   7.364   5.369   3.706 -0.5141 -0.4667 -0.1960
21699SOL    HW266711   7.242   5.370   3.616 -0.9303 -1.3921  0.3465
21700SOL     OW66712   1.928   3.927   3.164  0.5072  0.2589 -0.1852
21700SOL    HW166713   1.876   3.849   3.147  0.7858 -0.1181  0.6243
21700SOL    HW266714   1.923   3.939   3.259  2.7956 -0.4573  0.0779
21701SOL     OW66715   4.273   5.035   7.466 -0.0566 -0.4320 -0.1247
21701SOL    HW166716   4.369   5.033   7.464 -0.0053 -0.2488  1.2387
21701SOL    HW266717   4.247   4.962   7.411  0.9080 -1.3225  0.5486
21702SOL     OW66718   9.792   7.800   1.170  0.1628  0.5775  0.0171
21702SOL    HW166719   9.802   7.837   1.258  1.6932 -1.1229  0.6279
21702SOL    HW266720   9.738   7.722   1.182  0.8169  0.0365 -0.4335
21703SOL     OW66721   8.858   5.800   5.570  0.1918  0.0944 -0.1476
21703SOL    HW166722   8.870   5.709   5.600 -2.3606 -0.5754 -0.8528
21703SOL    HW266723   8.838   5.792   5.477 -0.6911  1.3098 -0.0835
21704SOL     OW66724   6.781   0.252   6.708 -0.0747 -0.6641  0.2237
21704SOL    HW166725   6.831   0.264   6.628  1.1671 -0.3780  1.0042
21704SOL    HW266726   6.696   0.219   6.680 -0.1221  0.6526 -1.3011
21705SOL     OW66727   6.550   5.706   2.090  0.4592 -0.2132 -0.6090
21705SOL    HW166728   6.577   5.798   2.079 -0.8189  0.0126 -2.2587
21705SOL    HW266729   6.625   5.655   2.058  1.8470  0.1438  1.8224
21706SOL     OW66730   7.282   8.844   4.447 -0.0158  0.3776 -0.1116
21706SOL    HW166731   7.211   8.832   4.510 -0.5648  0.4928 -0.6994
21706SOL    HW266732   7.258   8.923   4.399  1.2782  1.2958  0.6770
21707SOL     OW66733   3.873   2.673   8.862  0.3738  0.1837  0.0887
21707SOL    HW166734   3.861   2.674   8.767 -0.3680 -3.0105  0.0313
21707SOL    HW266735   3.943   2.736   8.878  0.0024  1.3809 -2.4524
21708SOL     OW66736   3.122   4.787   9.788 -0.1673 -0.0429  0.2631
21708SOL    HW166737   3.076   4.780   9.705 -1.8978  1.3205  1.0544
21708SOL    HW266738   3.104   4.704   9.833  0.8868 -0.8418 -0.7253
21709SOL     OW66739   2.844   3.489   1.490 -0.2489 -0.2754 -0.0034
21709SOL    HW166740   2.818   3.446   1.408  1.8394  0.7464 -1.2686
21709SOL    HW266741   2.939   3.496   1.485 -0.2390  1.6572  1.5901
21710SOL     OW66742   8.916   6.172   5.525  0.0530  0.3384 -0.0560
21710SOL    HW166743   8.884   6.262   5.514  0.0271  0.2474 -0.7798
21710SOL    HW266744   8.938   6.144   5.436  1.3022  0.0776  0.3200
21711SOL     OW66745   6.385   8.993   3.200 -0.1050 -0.3177 -0.0128
21711SOL    HW166746   6.333   8.912   3.197  0.4563 -0.7139  0.7264
21711SOL    HW266747   6.339   9.048   3.263  0.1120 -0.4878  0.2955
21712SOL     OW66748   4.931   9.628   9.747  0.4581 -0.1581  0.3150
21712SOL    HW166749   5.016   9.670   9.764  0.3718 -0.1467  0.7371
21712SOL    HW266750   4.931   9.611   9.653  0.5570  0.6609  0.1548
21713SOL     OW66751   8.746   2.692   5.335 -0.3494 -0.3630  0.4378
21713SOL    HW166752   8.712   2.604   5.322 -1.4629  0.3030 -1.6203
21713SOL    HW266753   8.762   2.725   5.247 -0.6552  1.7500  1.1127
21714SOL     OW66754   4.442   3.578   4.039 -0.3097 -0.1574 -0.4366
21714SOL    HW166755   4.426   3.672   4.030 -1.0150 -0.3238 -1.0487
21714SOL    HW266756   4.508   3.558   3.973  0.6735  0.0898  0.4377
21715SOL     OW66757   7.932   1.631   4.336  0.1431 -0.1685 -0.5316
21715SOL    HW166758   7.893   1.694   4.274  1.0966  0.3287 -0.6408
21715SOL    HW266759   8.022   1.661   4.346 -0.2638  0.4307  1.9746
21716SOL     OW66760   2.175   8.385   8.815  0.2874  0.2603  0.2996
21716SOL    HW166761   2.256   8.362   8.862 -0.1899 -1.2657  0.4027
21716SOL    HW266762   2.109   8.325   8.850 -0.5043  0.3437 -1.0151
21717SOL     OW66763   1.209   9.332   0.173 -0.4367 -0.4990 -0.1116
21717SOL    HW166764   1.196   9.238   0.164  0.7186 -0.8353  1.4232
21717SOL    HW266765   1.217   9.364   0.083 -1.3921 -1.7582 -0.6738
21718SOL     OW66766   7.890   4.923   4.849 -0.3963 -0.4195 -0.4609
21718SOL    HW166767   7.968   4.904   4.900  0.0473  2.0056 -0.1195
21718SOL    HW266768   7.915   4.905   4.758  0.0980 -0.9819 -0.2109
21719SOL     OW66769   8.683   4.784   6.622  0.1748 -0.8393  0.4746
21719SOL    HW166770   8.722   4.697   6.628 -0.3702 -1.0497  1.1067
21719SOL    HW266771   8.756   4.844   6.637  1.0904 -1.0576 -2.5030
21720SOL     OW66772   7.325   9.029   3.237 -0.0306 -0.4161  0.2969
21720SOL    HW166773   7.308   9.099   3.301 -0.3739  0.0642 -0.3062
21720SOL    HW266774   7.413   9.047   3.204 -0.8582  0.9793 -1.3487
21721SOL     OW66775   0.377   8.951   2.518 -0.1676  0.3545  0.4910
21721SOL    HW166776   0.308   8.912   2.465 -0.4002  1.7876 -0.3211
21721SOL    HW266777   0.378   9.044   2.493  1.2590  0.6164  1.3389
21722SOL     OW66778   1.654   7.784   2.305  0.6399  0.1272 -0.0873
21722SOL    HW166779   1.608   7.845   2.247  0.8793 -1.2926 -1.8551
21722SOL    HW266780   1.746   7.793   2.279  0.5515 -1.7702 -1.2098
21723SOL     OW66781   2.007   6.878   8.529 -0.2248  0.3286  0.5774
21723SOL    HW166782   2.057   6.802   8.501 -1.3854  0.1214 -1.0814
21723SOL    HW266783   2.018   6.942   8.458 -1.6176  0.5831  0.5681
21724SOL     OW66784   6.471   5.901   6.012 -0.1690  0.4756  0.5873
21724SOL    HW166785   6.456   5.807   6.001 -0.0953  0.5174  0.1212
21724SOL    HW266786   6.506   5.909   6.101 -0.4728  0.0980  0.7452
21725SOL     OW66787   8.125   7.764   4.833  0.0103  0.1631 -0.1012
21725SOL    HW166788   8.177   7.693   4.797 -0.3307 -1.0862  1.7040
21725SOL    HW266789   8.133   7.754   4.928 -0.5036  2.2121  0.2163
21726SOL     OW66790   5.909   5.522   3.084  0.2623 -0.2431  0.6854
21726SOL    HW166791   5.904   5.553   2.993  3.9350  2.4664  1.1783
21726SOL    HW266792   5.830   5.557   3.125 -0.8789 -0.5213 -1.1655
21727SOL     OW66793   3.995   5.261   0.371 -0.1606  0.1369  0.4941
21727SOL    HW166794   3.920   5.271   0.430 -1.2890 -2.4293 -0.3479
21727SOL    HW266795   3.958   5.267   0.283  1.1324  1.6549  0.0112
21728SOL     OW66796   6.626   7.171   5.548 -0.3108 -0.5797  0.0161
21728SOL    HW166797   6.685   7.126   5.608 -0.9402 -2.7616 -0.9078
21728SOL    HW266798   6.674   7.176   5.466  0.1573  1.4971  0.3412
21729SOL     OW66799   7.074   1.281   5.718  0.3123  0.0093  0.3210
21729SOL    HW166800   7.118   1.365   5.721  0.5419 -0.1043  0.2162
21729SOL    HW266801   7.055   1.267   5.625  0.0626  0.0536  0.3646
21730SOL     OW66802   8.053   0.155   7.210  0.5160 -0.3936  0.8068
21730SOL    HW166803   8.028   0.205   7.288  1.5399 -1.0389  1.5795
21730SOL    HW266804   8.032   0.064   7.231 -1.8655 -0.2958 -0.8169
21731SOL     OW66805   7.460   5.363   4.343  0.2536 -0.3176 -0.0234
21731SOL    HW166806   7.376   5.398   4.314  1.0043  1.0793 -0.5841
21731SOL    HW266807   7.461   5.273   4.309 -1.1894 -0.5069  0.3952
21732SOL     OW66808   4.425   2.391   6.295  0.1134  0.2758 -0.4723
21732SOL    HW166809   4.502   2.406   6.350 -0.7552  0.2811  0.8104
21732SOL    HW266810   4.402   2.478   6.262  0.6091  0.2832 -0.8025
21733SOL     OW66811   7.329   2.772   1.193 -0.1663 -0.2426 -0.1974
21733SOL    HW166812   7.338   2.724   1.275 -1.2549  0.5908  0.4449
21733SOL    HW266813   7.418   2.794   1.167  0.2277 -1.1695  0.3654
21734SOL     OW66814   7.474   9.797   5.523  0.3482 -0.6946 -0.3748
21734SOL    HW166815   7.428   9.802   5.439  0.9560 -3.0744 -0.9218
21734SOL    HW266816   7.533   9.873   5.522  0.5550 -0.8245 -2.2342
21735SOL     OW66817   8.495   1.668   1.829  0.2581  0.6901  0.1590
21735SOL    HW166818   8.534   1.608   1.766 -0.5434  1.5545 -1.1860
21735SOL    HW266819   8.410   1.690   1.793  0.2087  2.0350  1.0114
21736SOL     OW66820   3.549   5.980   6.223 -0.0113 -0.4542  0.0640
21736SOL    HW166821   3.607   5.931   6.164  2.7142  0.4999  1.7526
21736SOL    HW266822   3.478   6.011   6.167  1.4294 -1.1790 -2.3099
21737SOL     OW66823   2.565   7.565   7.769  0.2463 -0.3662  0.3332
21737SOL    HW166824   2.515   7.544   7.848  0.3095 -0.9999  0.2113
21737SOL    HW266825   2.536   7.653   7.745  0.5083 -0.0102  1.2729
21738SOL     OW66826   2.302   2.078   9.110 -0.5109 -0.1808  0.3367
21738SOL    HW166827   2.342   1.995   9.135 -1.2264 -0.2193  1.4226
21738SOL    HW266828   2.247   2.102   9.184 -0.7969  0.9636 -0.2128
21739SOL     OW66829   0.630   1.006   4.415 -0.0806 -0.6502  0.5964
21739SOL    HW166830   0.578   1.080   4.444 -0.0777 -0.5072  0.2349
21739SOL    HW266831   0.719   1.026   4.442  0.1375  0.0553 -0.5729
21740SOL     OW66832   0.579   8.132   3.005 -0.0450 -0.3355 -0.0752
21740SOL    HW166833   0.633   8.125   2.926 -1.2341 -1.8858 -0.7977
21740SOL    HW266834   0.636   8.100   3.075  0.3982 -0.7401 -0.6051
21741SOL     OW66835   2.165   6.326   3.089 -0.5989  0.6558 -0.4485
21741SOL    HW166836   2.130   6.381   3.020  0.0851  1.2542 -0.3354
21741SOL    HW266837   2.178   6.240   3.047  0.0195  1.0692 -1.1315
21742SOL     OW66838   7.833   9.843   3.312 -0.2228 -0.0787 -0.4463
21742SOL    HW166839   7.773   9.785   3.266  1.3680 -0.5881 -1.9811
21742SOL    HW266840   7.840   9.920   3.254  1.4197 -0.5102 -0.8559
21743SOL     OW66841   5.454   5.080   8.862 -0.4442 -0.8531 -0.1467
21743SOL    HW166842   5.450   5.014   8.931  0.1500  0.0992  0.8304
21743SOL    HW266843   5.474   5.162   8.908 -0.4296 -0.1226 -1.4059
21744SOL     OW66844   6.181   3.748   6.374 -0.0168  0.4163  0.1204
21744SOL    HW166845   6.095   3.780   6.403  0.4593  1.3036  0.6068
21744SOL    HW266846   6.167   3.724   6.282 -0.9549 -0.1362  0.3854
21745SOL     OW66847   9.720   8.495   2.627 -0.2475  0.0737  0.2456
21745SOL    HW166848   9.672   8.543   2.560 -2.0598 -0.8838  0.7969
21745SOL    HW266849   9.802   8.544   2.638 -1.0019  1.6524 -0.8687
21746SOL     OW66850   6.487   6.216   9.565  0.4436 -0.0082 -0.3599
21746SOL    HW166851   6.486   6.306   9.532  0.7040  0.5839  1.1619
21746SOL    HW266852   6.457   6.163   9.491 -3.9579  1.7327 -0.1258
21747SOL     OW66853   8.840   0.304   9.123  0.4128  0.2074  0.0987
21747SOL    HW166854   8.802   0.375   9.174  0.8102  0.8290 -0.4480
21747SOL    HW266855   8.922   0.340   9.089  0.6958 -0.5632 -0.0691
21748SOL     OW66856   8.532   1.731   1.401  0.0183 -0.7156  0.4938
21748SOL    HW166857   8.473   1.782   1.456 -1.5207  0.0191 -1.6667
21748SOL    HW266858   8.609   1.786   1.389 -0.4220 -0.1124  0.4396
21749SOL     OW66859   2.622   5.381   6.684 -0.3565 -0.5165 -0.4607
21749SOL    HW166860   2.703   5.420   6.715 -0.1867  1.0650 -2.6592
21749SOL    HW266861   2.565   5.379   6.761  1.1180  0.0497  0.6912
21750SOL     OW66862   9.070   3.417   8.419  0.3242 -0.2713 -0.7831
21750SOL    HW166863   9.098   3.432   8.328  0.8319 -2.3729 -1.0256
21750SOL    HW266864   9.149   3.385   8.463 -0.6224 -2.1643 -0.3847
21751SOL     OW66865   0.010   6.223   5.245 -0.4931 -0.4600 -0.5799
21751SOL    HW166866   0.100   6.253   5.251 -0.8017  0.3920  0.0375
21751SOL    HW266867  -0.032   6.257   5.325 -2.0363  1.5718 -2.1241
21752SOL     OW66868   2.319   6.478   6.749  0.0065  0.3601  0.6060
21752SOL    HW166869   2.389   6.492   6.685 -0.7850 -0.0749 -0.3668
21752SOL    HW266870   2.342   6.536   6.822 -0.1303  2.4207 -0.9079
21753SOL     OW66871   3.672   0.070   8.005  0.6558  0.2950  0.2402
21753SOL    HW166872   3.647   0.128   8.076  1.1361 -0.6625  1.2341
21753SOL    HW266873   3.639   0.112   7.926 -0.8304  0.8649  1.1229
21754SOL     OW66874   9.751   3.120   8.001  0.3156  0.6120 -0.1128
21754SOL    HW166875   9.686   3.059   8.035  0.7641 -0.1321 -0.5599
21754SOL    HW266876   9.763   3.184   8.071 -1.3548  1.1539 -0.2601
21755SOL     OW66877   6.874   1.497   1.777  0.3148 -0.0446 -0.9858
21755SOL    HW166878   6.956   1.530   1.741  0.4625  0.1866 -0.4532
21755SOL    HW266879   6.840   1.569   1.829  0.5028 -0.6230 -0.0321
21756SOL     OW66880   9.236   8.859   2.356  0.6314 -0.0152  0.1501
21756SOL    HW166881   9.178   8.907   2.416 -0.7854  1.5355 -2.2702
21756SOL    HW266882   9.182   8.788   2.323  1.3348 -0.7377  0.5290
21757SOL     OW66883   9.667   3.156   2.721 -0.2355  0.5374  1.1400
21757SOL    HW166884   9.709   3.110   2.795 -1.8161 -0.1947  1.6380
21757SOL    HW266885   9.647   3.086   2.658  2.7349  1.3653 -0.9086
21758SOL     OW66886   1.762   6.597   0.246 -0.0140 -0.0479 -0.1980
21758SOL    HW166887   1.852   6.597   0.212 -0.4750  0.2016 -1.4770
21758SOL    HW266888   1.746   6.506   0.270  0.8083  0.0265  0.7208
21759SOL     OW66889   7.783   2.781   8.100  0.0768  0.2836 -0.0656
21759SOL    HW166890   7.806   2.711   8.160 -3.0943 -0.9799 -0.1475
21759SOL    HW266891   7.736   2.845   8.153  1.9214  1.8556 -0.2288
21760SOL     OW66892   0.093   1.175   5.372 -0.8117 -0.0597  1.0613
21760SOL    HW166893   0.038   1.159   5.449  0.2858 -1.9335  1.5309
21760SOL    HW266894   0.053   1.122   5.303 -0.1919 -0.6734  1.1537
21761SOL     OW66895   7.476   5.648   1.353  0.2082  0.1227  0.7598
21761SOL    HW166896   7.495   5.673   1.443  1.2337  1.2156  0.2758
21761SOL    HW266897   7.440   5.727   1.313  1.0509  0.0838 -0.1301
21762SOL     OW66898   7.842   1.024   7.609 -0.0327  0.1543  0.2467
21762SOL    HW166899   7.891   1.070   7.541  0.9654  0.9253  1.4460
21762SOL    HW266900   7.879   0.936   7.611  0.5685  0.4093  0.4155
21763SOL     OW66901   0.842   2.826   0.183  0.0919 -0.0934  0.8817
21763SOL    HW166902   0.790   2.748   0.164 -0.1463  0.3607 -0.4236
21763SOL    HW266903   0.853   2.869   0.098  0.6566  1.0262  1.4981
21764SOL     OW66904   6.835   5.851   5.070  0.3765  0.1066  0.0300
21764SOL    HW166905   6.801   5.763   5.052  1.0508  0.0926 -1.2829
21764SOL    HW266906   6.806   5.904   4.996  1.0949  0.6728  0.1407
21765SOL     OW66907   0.102   3.160   7.779  0.5065  0.1300  0.0517
21765SOL    HW166908   0.085   3.254   7.777 -0.3966 -0.0351 -0.9806
21765SOL    HW266909   0.050   3.128   7.853  0.5190  0.3890  0.1730
21766SOL     OW66910   7.556   2.420   7.633 -0.1206  0.1670  0.0994
21766SOL    HW166911   7.548   2.327   7.612  0.6576  0.0377  0.3458
21766SOL    HW266912   7.590   2.460   7.552 -0.3303  0.2160  0.0354
21767SOL     OW66913   8.079   9.207   8.871  0.7949 -0.5170 -0.0117
21767SOL    HW166914   8.071   9.223   8.965  1.2149 -0.4952  0.0184
21767SOL    HW266915   8.062   9.292   8.830 -0.6141 -0.7798 -0.0173
21768SOL     OW66916   4.752   9.056   6.164 -0.1191 -0.1280  0.2282
21768SOL    HW166917   4.700   8.976   6.154 -0.7662  0.4271 -1.0976
21768SOL    HW266918   4.800   9.064   6.082  1.7933 -0.3969  1.2552
21769SOL     OW66919   8.370   7.710   3.760 -0.3889  0.3383  0.7372
21769SOL    HW166920   8.444   7.770   3.754  1.6553 -2.0202  0.2797
21769SOL    HW266921   8.342   7.698   3.669  0.9050 -1.2679  0.5128
21770SOL     OW66922   8.249   5.053   9.047  0.2021  0.2159 -0.3554
21770SOL    HW166923   8.336   5.093   9.034  0.9671 -0.9720  0.8530
21770SOL    HW266924   8.206   5.111   9.110  0.3612  0.4550 -0.4642
21771SOL     OW66925   1.693   6.423   0.762  0.5286 -0.3292 -0.1477
21771SOL    HW166926   1.661   6.351   0.707  0.7238  0.9501 -2.0390
21771SOL    HW266927   1.756   6.469   0.707  1.7485  0.2599  1.6607
21772SOL     OW66928   0.840   9.190   7.326  0.5976  0.3446  0.6289
21772SOL    HW166929   0.825   9.270   7.377  2.3240  2.3226 -1.7366
21772SOL    HW266930   0.919   9.152   7.364 -0.2926 -0.3938  1.8348
21773SOL     OW66931   4.027   6.751   0.074 -0.0421  0.3254 -0.3300
21773SOL    HW166932   3.977   6.788   0.000 -0.7815  0.2792  0.1351
21773SOL    HW266933   4.013   6.813   0.145  1.0456  0.6052 -0.3520
21774SOL     OW66934   4.292   5.176   5.463  0.7356 -0.1995 -0.2414
21774SOL    HW166935   4.365   5.122   5.433  0.9743 -1.0290  1.6600
21774SOL    HW266936   4.221   5.156   5.403  1.5749 -0.6688 -1.1093
21775SOL     OW66937   5.307   6.525   3.249  0.4164  0.1744 -0.4726
21775SOL    HW166938   5.402   6.529   3.243  0.4787 -0.8456 -0.4144
21775SOL    HW266939   5.282   6.460   3.183 -0.2188  0.2736 -0.3378
21776SOL     OW66940   6.063   7.558   2.373  0.1778 -0.3190 -0.0375
21776SOL    HW166941   6.063   7.649   2.402  1.7951 -0.0872 -0.6884
21776SOL    HW266942   6.119   7.557   2.296  0.5608 -1.9544  0.2277
21777SOL     OW66943   0.355   2.507   5.550 -0.2244 -0.3164 -0.2300
21777SOL    HW166944   0.391   2.541   5.632 -1.0941  0.1746 -0.0306
21777SOL    HW266945   0.337   2.415   5.569  1.6509 -0.7969 -0.6033
21778SOL     OW66946   8.989   5.064   3.040  0.7548 -0.0568  0.2949
21778SOL    HW166947   8.982   5.154   3.074  1.1098 -0.5003  1.5823
21778SOL    HW266948   8.898   5.038   3.024  0.5260 -0.0183  1.4451
21779SOL     OW66949   6.202   6.204   8.926  0.0387  0.0959  0.4968
21779SOL    HW166950   6.248   6.177   9.006  0.8022  2.1849  0.8227
21779SOL    HW266951   6.125   6.251   8.958 -0.7763 -0.8369 -0.0420
21780SOL     OW66952   5.892   6.322   9.538 -0.1424 -0.4316  0.6459
21780SOL    HW166953   5.956   6.320   9.609  1.9773  0.8066 -1.0961
21780SOL    HW266954   5.867   6.415   9.531 -0.0478 -0.4704 -0.4122
21781SOL     OW66955   5.555   3.261   3.997 -0.2637 -0.3441 -0.0071
21781SOL    HW166956   5.536   3.279   3.904  0.3783  0.7741  0.0635
21781SOL    HW266957   5.643   3.223   3.996  1.1210  2.5658  0.3412
21782SOL     OW66958   6.857   6.292   8.161  0.1731 -0.0836 -0.1347
21782SOL    HW166959   6.869   6.269   8.253 -3.1747 -0.5040  0.3245
21782SOL    HW266960   6.891   6.381   8.154  3.0081 -1.0064  0.7719
21783SOL     OW66961   5.139   6.831   8.332 -0.2394 -0.2447  0.2457
21783SOL    HW166962   5.154   6.923   8.307  0.7175 -0.7552 -1.1712
21783SOL    HW266963   5.115   6.836   8.425 -0.3560  1.4506  0.1711
21784SOL     OW66964   8.008   1.307   9.040  0.0984 -0.1650  0.2111
21784SOL    HW166965   8.018   1.310   9.135  1.8495 -0.5502  0.0691
21784SOL    HW266966   8.039   1.220   9.015 -1.1075 -0.3755 -0.6552
21785SOL     OW66967   0.384   1.519   5.379  0.3297 -0.0842  0.3037
21785SOL    HW166968   0.473   1.513   5.415  0.5455  2.7193  0.4651
21785SOL    HW266969   0.397   1.540   5.287 -0.1872 -0.4550  0.1458
21786SOL     OW66970   6.758   0.383   7.557 -0.0194  0.2753  0.0869
21786SOL    HW166971   6.749   0.473   7.527 -1.1358  0.1507  0.0098
21786SOL    HW266972   6.827   0.346   7.503  0.8083  1.2249  0.4716
21787SOL     OW66973   9.288   2.769   1.826 -0.0414  0.0399 -0.1387
21787SOL    HW166974   9.264   2.776   1.734 -2.1212 -0.5341  0.3050
21787SOL    HW266975   9.299   2.675   1.841 -0.3389  0.0812  0.3481
21788SOL     OW66976   7.909   7.975   1.391  0.1551 -0.4319 -0.4697
21788SOL    HW166977   7.944   8.040   1.330  0.7728  0.0815  0.4140
21788SOL    HW266978   7.981   7.959   1.452 -0.9288  0.2042  1.0348
21789SOL     OW66979   0.854   1.544   4.255  0.1310 -0.4157  0.3856
21789SOL    HW166980   0.863   1.605   4.328  1.1233 -0.4304  0.2934
21789SOL    HW266981   0.858   1.457   4.295 -1.0672 -0.4308  0.4938
21790SOL     OW66982   7.884   1.091   3.272  0.5247  0.8249 -0.5798
21790SOL    HW166983   7.873   1.179   3.307 -0.9861  0.5774 -0.3587
21790SOL    HW266984   7.938   1.103   3.194 -1.0195  2.2248 -1.5182
21791SOL     OW66985   6.678   4.309   8.592 -0.3281 -0.3389  0.2682
21791SOL    HW166986   6.629   4.390   8.583  1.7125  1.1228  1.6145
21791SOL    HW266987   6.760   4.324   8.544  0.9358 -0.7806  2.1553
21792SOL     OW66988   3.988   5.711   2.460 -0.5078  0.6062 -0.8217
21792SOL    HW166989   4.072   5.742   2.429  0.6489 -0.7437  0.8015
21792SOL    HW266990   3.973   5.630   2.411  1.2256 -1.4202  1.7529
21793SOL     OW66991   7.031   7.158   8.685 -0.5955 -0.4295 -0.6108
21793SOL    HW166992   7.070   7.182   8.600  0.5948 -1.7312 -0.4698
21793SOL    HW266993   6.967   7.227   8.702 -1.0730 -0.2784 -2.7042
21794SOL     OW66994   0.087   0.592   8.561  0.0158 -0.3467  0.3257
21794SOL    HW166995   0.000   0.552   8.557  0.0264 -0.6900  2.5229
21794SOL    HW266996   0.121   0.567   8.646  2.4225 -0.4591 -0.5998
21795SOL     OW66997   6.730   1.341   7.917  0.3033 -0.1830 -0.3819
21795SOL    HW166998   6.643   1.324   7.953  1.1418 -2.3882  0.7859
21795SOL    HW266999   6.734   1.287   7.838  0.7882 -0.4990 -0.1446
21796SOL     OW67000   7.482   6.223   2.323  0.3935  0.2365  0.1023
21796SOL    HW167001   7.457   6.316   2.331 -0.1180  0.5175 -3.3073
21796SOL    HW267002   7.408   6.182   2.279  0.6315 -1.8605  1.5249
21797SOL     OW67003   5.403   8.841   4.391 -0.5146  0.2632 -0.0060
21797SOL    HW167004   5.492   8.834   4.356 -1.7039  0.8709 -3.5839
21797SOL    HW267005   5.377   8.931   4.374 -1.7395  0.1888  1.2798
21798SOL     OW67006   9.489   5.459   1.933  0.2892  0.1167  0.0594
21798SOL    HW167007   9.503   5.383   1.989  3.0171  0.0697 -0.5446
21798SOL    HW267008   9.517   5.430   1.846  0.7741  1.6253 -0.3143
21799SOL     OW67009   5.216   2.168   3.383  0.1374 -0.3666 -0.2077
21799SOL    HW167010   5.238   2.201   3.470  1.2420 -1.0016 -0.2311
21799SOL    HW267011   5.137   2.116   3.397  1.1731 -1.7624  0.7220
21800SOL     OW67012   7.295   1.061   0.129 -0.3528 -0.2303  0.7448
21800SOL    HW167013   7.367   1.065   0.192  1.6583 -0.0040 -1.4264
21800SOL    HW267014   7.276   0.968   0.120 -1.3859 -0.2210  2.3678
21801SOL     OW67015   3.509   7.055   7.806  0.0129 -0.0108  0.1269
21801SOL    HW167016   3.546   7.072   7.893  0.9000  1.0438 -0.4307
21801SOL    HW267017   3.584   7.062   7.747 -0.3394 -1.9046 -0.6200
21802SOL     OW67018   7.424   8.571   3.148 -0.0935  0.4781  0.0635
21802SOL    HW167019   7.512   8.588   3.181 -0.2995  1.7074  0.0512
21802SOL    HW267020   7.419   8.476   3.139  0.5594  0.2362  1.9056
21803SOL     OW67021   3.062   3.697   9.679 -0.0538 -0.5606  0.6542
21803SOL    HW167022   3.026   3.731   9.598  1.6224  0.7648  0.4169
21803SOL    HW267023   3.065   3.602   9.667  0.3298 -0.3648 -0.9086
21804SOL     OW67024   2.156   7.673   1.357  0.0867  0.1558 -0.6251
21804SOL    HW167025   2.207   7.753   1.367 -0.5425  0.4710  0.2185
21804SOL    HW267026   2.197   7.611   1.418  0.0254  0.1252 -0.6149
21805SOL     OW67027   1.384   5.063   6.682 -0.0196  0.7168 -0.4092
21805SOL    HW167028   1.308   5.112   6.651  0.4008  0.9810 -1.0438
21805SOL    HW267029   1.443   5.131   6.716 -0.3088  0.4658  0.6162
21806SOL     OW67030   6.818   8.716   0.024 -0.4921  0.3470  0.3298
21806SOL    HW167031   6.783   8.766  -0.050 -1.8770  0.7053  1.1996
21806SOL    HW267032   6.911   8.738   0.026 -0.2402 -0.3450 -1.8239
21807SOL     OW67033   5.497   0.971   3.421  0.1482 -0.4408  0.0085
21807SOL    HW167034   5.528   1.021   3.345  0.6581  0.0591  0.5363
21807SOL    HW267035   5.441   1.031   3.469  1.1016 -0.2232  0.8737
21808SOL     OW67036   7.548   0.554   0.727 -0.6467 -0.1855  0.2569
21808SOL    HW167037   7.572   0.636   0.770  0.6775 -1.3141  1.7461
21808SOL    HW267038   7.597   0.556   0.644  0.9372 -0.2975  1.1435
21809SOL     OW67039   1.943   7.965   8.064  0.1577 -0.5708 -0.4011
21809SOL    HW167040   1.890   8.041   8.087 -0.0120 -1.5216  2.9837
21809SOL    HW267041   1.881   7.893   8.056  0.6011 -1.0610  0.3378
21810SOL     OW67042   6.450   9.718   8.446  0.1698  0.1565  0.1151
21810SOL    HW167043   6.487   9.788   8.392  1.0582 -0.2675  0.1573
21810SOL    HW267044   6.515   9.648   8.443 -1.7814 -1.7761 -2.0327
21811SOL     OW67045   8.857   6.006   7.227 -0.2440  0.1384 -0.4414
21811SOL    HW167046   8.772   5.993   7.184 -0.7369  1.4271  0.1070
21811SOL    HW267047   8.866   5.931   7.285 -1.5174  0.5171  0.2853
21812SOL     OW67048   8.408   8.497   8.071  0.1624 -0.6847 -0.0161
21812SOL    HW167049   8.411   8.401   8.077 -1.2954 -0.8255 -1.1129
21812SOL    HW267050   8.317   8.519   8.091  0.6276  0.5450  0.8441
21813SOL     OW67051   6.889   7.854   1.192  0.2026  0.6802  0.0180
21813SOL    HW167052   6.812   7.902   1.161  0.2566  1.6581  1.3043
21813SOL    HW267053   6.953   7.864   1.121 -1.0389 -0.7081 -1.3604
21814SOL     OW67054   2.557   3.914   1.079 -0.6589  0.3298 -0.4603
21814SOL    HW167055   2.608   3.851   1.130 -1.0465  0.0307 -0.4328
21814SOL    HW267056   2.494   3.950   1.141  0.9310  2.3599  0.0830
21815SOL     OW67057   8.012   6.230   8.977 -0.2995  0.0507 -0.1961
21815SOL    HW167058   8.004   6.318   9.015  2.1681  1.3222 -2.2991
21815SOL    HW267059   7.925   6.211   8.943 -1.2524  1.0004  1.5510
21816SOL     OW67060   9.535   1.953   2.787  0.0667 -0.3340 -0.3523
21816SOL    HW167061   9.565   1.884   2.728 -3.4111 -0.1169 -2.6873
21816SOL    HW267062   9.442   1.934   2.801  0.1498  1.1036  3.1323
21817SOL     OW67063   4.670   3.950   0.877 -0.0246 -0.0217  0.1112
21817SOL    HW167064   4.588   3.999   0.869 -0.0961 -0.2949 -0.9178
21817SOL    HW267065   4.711   3.958   0.791  0.1699 -1.4056  0.0673
21818SOL     OW67066   0.379   0.690   0.697 -0.3146  0.4032  0.2446
21818SOL    HW167067   0.323   0.759   0.732 -1.9887  0.9715 -3.0966
21818SOL    HW267068   0.319   0.632   0.650  1.2116 -2.6999  1.8480
21819SOL     OW67069   4.938   8.382   0.175  0.4361 -0.6237  0.2532
21819SOL    HW167070   4.846   8.394   0.201  0.8705 -1.1738  2.2023
21819SOL    HW267071   4.933   8.355   0.083 -1.3597 -0.5821  0.2967
21820SOL     OW67072   2.003   6.481   6.644 -0.8237  0.1557  0.0309
21820SOL    HW167073   1.923   6.427   6.651 -0.3902 -0.6158 -0.7557
21820SOL    HW267074   1.972   6.566   6.614 -1.5058  0.3177  1.1250
21821SOL     OW67075   8.483   3.564   8.817  0.2013 -1.1309 -0.3724
21821SOL    HW167076   8.572   3.537   8.795 -0.2702 -2.0746 -1.2195
21821SOL    HW267077   8.480   3.562   8.913  1.5954  0.6782 -0.2508
21822SOL     OW67078   1.802   3.983   2.756  0.2846 -0.5198 -0.1176
21822SOL    HW167079   1.857   3.906   2.738  2.6558  1.5016 -2.1788
21822SOL    HW267080   1.856   4.039   2.812 -0.8458  0.2988  0.1937
21823SOL     OW67081   0.371   5.125   5.147 -0.7963 -0.1584 -0.3166
21823SOL    HW167082   0.402   5.191   5.086 -2.2380  0.6035 -0.2575
21823SOL    HW267083   0.310   5.071   5.097 -0.4646 -0.7807 -0.0697
21824SOL     OW67084   1.325   8.056   1.978 -0.1056  0.1734  0.3435
21824SOL    HW167085   1.294   8.141   2.010  0.9213  0.4433  0.6620
21824SOL    HW267086   1.256   7.994   2.003 -0.4677  0.7776  0.8671
21825SOL     OW67087   3.926   6.847   5.877 -0.0874 -0.0249 -0.2076
21825SOL    HW167088   3.992   6.787   5.914  0.5898 -0.5119 -2.0754
21825SOL    HW267089   3.888   6.798   5.804  1.1164  2.0722 -2.3940
21826SOL     OW67090   2.812   0.320   7.823  0.6010  0.7160  0.7079
21826SOL    HW167091   2.890   0.367   7.852  1.5931  0.4073 -1.2560
21826SOL    HW267092   2.774   0.376   7.756  1.1398 -0.6371 -0.8241
21827SOL     OW67093   9.202   0.915   1.886  0.2359 -0.0854 -0.3874
21827SOL    HW167094   9.242   0.977   1.825 -2.0196  1.1931 -0.6850
21827SOL    HW267095   9.266   0.906   1.956  1.7830  0.4441 -1.6757
21828SOL     OW67096   4.091   0.930   8.062  0.2402  0.0126 -0.3228
21828SOL    HW167097   4.151   0.870   8.106 -1.5505 -1.2203  0.5363
21828SOL    HW267098   4.149   0.988   8.011  2.1793 -0.6126  1.0368
21829SOL     OW67099   3.764   9.725   2.224 -0.3659  0.1844 -0.0224
21829SOL    HW167100   3.762   9.698   2.315  0.2527 -0.0982 -0.0907
21829SOL    HW267101   3.847   9.692   2.190  1.1518  3.2941  0.2655
21830SOL     OW67102   3.547   4.790   7.094  0.4509  0.3825  0.3555
21830SOL    HW167103   3.459   4.780   7.129  1.4805 -1.1978  2.6817
21830SOL    HW267104   3.603   4.801   7.171  2.2659  1.9719 -1.0739
21831SOL     OW67105   7.056   4.171   6.320  0.2034 -0.2681  0.1561
21831SOL    HW167106   7.030   4.154   6.410 -0.0907 -0.5404  0.0227
21831SOL    HW267107   7.134   4.116   6.307  0.6853  0.3228  0.4625
21832SOL     OW67108   3.581   1.206   6.274  0.3523  0.3196  0.5677
21832SOL    HW167109   3.575   1.116   6.243 -0.5255  0.3724  0.5503
21832SOL    HW267110   3.525   1.209   6.352 -2.3186  1.5638 -1.2251
21833SOL     OW67111   4.476   4.123   4.087 -0.0763  0.0103 -0.3869
21833SOL    HW167112   4.420   4.175   4.029 -0.9097  0.2241  0.5872
21833SOL    HW267113   4.561   4.122   4.043 -0.6582  0.2715 -1.5434
21834SOL     OW67114   3.933   2.104   5.116 -0.0155 -0.1206 -0.0333
21834SOL    HW167115   3.890   2.150   5.187  0.6030  0.6182 -0.1213
21834SOL    HW267116   3.899   2.145   5.036  0.5907  0.2548 -0.1099
21835SOL     OW67117   2.283   7.908   7.541 -0.8556  0.5241  0.3291
21835SOL    HW167118   2.326   7.960   7.610  0.2447 -0.3631  0.3450
21835SOL    HW267119   2.229   7.845   7.588  2.0357 -1.9808  0.6275
21836SOL     OW67120   6.307   9.066   8.510  0.4471  0.1383  0.3867
21836SOL    HW167121   6.322   9.054   8.603 -1.7105 -0.9696  0.6624
21836SOL    HW267122   6.241   9.135   8.505  0.4247  0.0750 -0.2933
21837SOL     OW67123   6.978   2.487   5.600 -0.7086  0.2693 -0.0287
21837SOL    HW167124   6.961   2.395   5.581  0.8442  0.2413 -1.4836
21837SOL    HW267125   7.018   2.487   5.687  0.0839 -0.5507 -0.3776
21838SOL     OW67126   0.637   6.506   6.327  0.5429  0.3723  0.3713
21838SOL    HW167127   0.581   6.566   6.376  0.8460 -0.0688  1.2898
21838SOL    HW267128   0.669   6.445   6.393  0.6819 -0.4606 -0.4471
21839SOL     OW67129   7.863   4.917   8.922 -0.2729  0.1657 -0.7466
21839SOL    HW167130   7.835   4.893   8.834  0.1521 -0.9462 -0.6020
21839SOL    HW267131   7.949   4.876   8.932 -1.3378 -1.8482  1.0189
21840SOL     OW67132   8.806   5.490   6.117  0.1191 -0.1673  0.0941
21840SOL    HW167133   8.728   5.458   6.071 -1.2722  0.4012  1.9049
21840SOL    HW267134   8.863   5.524   6.048 -1.8592  0.6691 -1.2273
21841SOL     OW67135   4.515   2.331   8.200  0.1801 -0.0098  0.1015
21841SOL    HW167136   4.435   2.283   8.224 -0.1359  0.1756 -0.5643
21841SOL    HW267137   4.519   2.402   8.264 -0.5385  0.3534 -0.2443
21842SOL     OW67138   6.547   7.591   1.728 -0.6904  0.3373  0.1979
21842SOL    HW167139   6.594   7.604   1.811 -0.0902 -0.7111  0.0511
21842SOL    HW267140   6.489   7.517   1.746 -1.5756  0.9911  0.0774
21843SOL     OW67141   3.194   2.926   7.881 -0.5464 -0.2765  0.4046
21843SOL    HW167142   3.181   2.850   7.824  0.0636 -0.2700  0.2502
21843SOL    HW267143   3.190   3.001   7.822  2.9137 -0.3992 -0.1645
21844SOL     OW67144   2.954   5.721   9.491  0.1863 -0.6353 -0.6260
21844SOL    HW167145   2.880   5.675   9.531 -0.2582  0.0942 -0.5804
21844SOL    HW267146   2.925   5.737   9.401 -0.0561  0.3385 -0.3957
21845SOL     OW67147   6.327   1.227   5.949  0.2608  0.2830 -0.4930
21845SOL    HW167148   6.318   1.321   5.935  0.3300  0.0876 -1.9846
21845SOL    HW267149   6.375   1.196   5.872 -0.9824 -1.1831 -0.7102
21846SOL     OW67150   3.629   4.256   2.031 -0.8610 -0.5431  0.3274
21846SOL    HW167151   3.568   4.323   2.002  1.0476  2.0562  1.7914
21846SOL    HW267152   3.686   4.241   1.956 -0.7216  0.2463  0.2636
21847SOL     OW67153   5.018   2.267   0.280  0.3395  0.6940 -0.5189
21847SOL    HW167154   5.085   2.316   0.233  1.4263 -0.8829 -0.6853
21847SOL    HW267155   4.942   2.269   0.222  0.5807  1.6064 -0.8085
21848SOL     OW67156   7.424   3.681   6.259 -0.2033  0.6380 -0.4262
21848SOL    HW167157   7.410   3.625   6.183 -0.0653  1.0320 -0.7485
21848SOL    HW267158   7.517   3.670   6.280  0.0085  1.2932 -0.9490
21849SOL     OW67159   8.156   3.832   4.420 -0.0538  0.1339  0.6053
21849SOL    HW167160   8.202   3.912   4.395 -1.4345  0.1166 -2.6548
21849SOL    HW267161   8.200   3.762   4.371 -0.2768 -0.7306  1.6027
21850SOL     OW67162   6.909   3.136   9.351  0.1982 -0.2084  0.3776
21850SOL    HW167163   6.904   3.045   9.320 -0.8398 -0.1111  0.2271
21850SOL    HW267164   6.897   3.188   9.272  1.7282  0.0983  0.3034
21851SOL     OW67165   0.951   0.827   8.860 -0.2853 -0.1789  0.7341
21851SOL    HW167166   0.880   0.773   8.894 -1.4908  0.3800 -0.7808
21851SOL    HW267167   0.910   0.885   8.796  1.5090  0.2208 -0.1467
21852SOL     OW67168   8.442   9.572   9.123 -0.9620 -0.7642 -0.0535
21852SOL    HW167169   8.348   9.569   9.138 -1.5716  0.6026 -2.9070
21852SOL    HW267170   8.468   9.659   9.154 -0.8990 -0.6554 -0.4023
21853SOL     OW67171   8.930   4.023   0.718 -0.2483 -0.2706 -0.0044
21853SOL    HW167172   8.878   3.982   0.650  2.2259 -1.3115 -1.4207
21853SOL    HW267173   8.973   3.950   0.763 -0.8704  0.4761  1.8971
21854SOL     OW67174   7.171   5.570   1.851 -0.1150 -0.5475  0.3008
21854SOL    HW167175   7.241   5.576   1.916 -0.7647  0.5019  0.9383
21854SOL    HW267176   7.091   5.569   1.903 -0.6535  0.4344 -0.4760
21855SOL     OW67177   2.821   0.728   0.309 -0.1723  0.0035 -0.3524
21855SOL    HW167178   2.769   0.663   0.356  0.9279  1.0125  2.4575
21855SOL    HW267179   2.759   0.798   0.290 -0.3766  0.1983  0.9272
21856SOL     OW67180   0.544   9.333   7.527  0.0612 -0.6597  0.2681
21856SOL    HW167181   0.453   9.340   7.500 -0.2828 -0.7717  1.3535
21856SOL    HW267182   0.558   9.239   7.539 -0.9692 -0.4671  4.1819
21857SOL     OW67183   9.022   5.458   3.452 -0.4753  0.1031 -0.1021
21857SOL    HW167184   8.972   5.400   3.396 -0.8697 -0.4644  0.8184
21857SOL    HW267185   8.971   5.539   3.456 -1.2162 -0.3891  0.6396
21858SOL     OW67186   6.837   2.305   8.706 -0.3217 -0.0159  0.5768
21858SOL    HW167187   6.902   2.363   8.746  0.1993  0.5691 -1.0437
21858SOL    HW267188   6.829   2.232   8.767  0.9605  0.4855  1.3814
21859SOL     OW67189   1.903   9.231   9.002 -0.0927 -0.1936 -0.0519
21859SOL    HW167190   1.922   9.140   9.022 -1.8151 -0.4105  0.7821
21859SOL    HW267191   1.967   9.281   9.054  0.6034 -0.9086 -0.2149
21860SOL     OW67192   4.078   0.550   6.959 -0.2646  0.5686  0.2429
21860SOL    HW167193   4.018   0.546   6.885  0.0750  0.8831 -0.0509
21860SOL    HW267194   4.027   0.516   7.033 -0.5181 -0.0059 -0.1867
21861SOL     OW67195   1.912   4.111   8.337  0.2179  1.0764 -0.2964
21861SOL    HW167196   1.839   4.153   8.382  1.0116  2.4015 -0.1977
21861SOL    HW267197   1.974   4.088   8.406  0.5556  1.3249 -0.5099
21862SOL     OW67198   2.428   3.131   7.842  1.2839  0.0757  0.2299
21862SOL    HW167199   2.440   3.202   7.905 -0.1721 -1.4974  2.4517
21862SOL    HW267200   2.437   3.051   7.894 -2.7021 -1.3183 -0.8934
21863SOL     OW67201   7.399   3.884   2.687  0.4030  0.2144  0.2592
21863SOL    HW167202   7.340   3.873   2.762  0.1356  1.1747  0.2082
21863SOL    HW267203   7.485   3.898   2.727  0.1347  1.5310  0.4482
21864SOL     OW67204   0.949   3.663   7.172 -0.1558 -0.4947  0.0164
21864SOL    HW167205   0.922   3.709   7.093 -1.4936 -0.1629  0.6355
21864SOL    HW267206   0.940   3.571   7.151  1.2717 -0.4620 -0.8056
21865SOL     OW67207   8.785   6.315   2.227  0.0889  0.6784 -0.6229
21865SOL    HW167208   8.834   6.273   2.157 -0.5741  0.9260 -1.2467
21865SOL    HW267209   8.813   6.407   2.225 -0.9526  1.0050 -1.5125
21866SOL     OW67210   5.040   9.655   7.657 -0.2297 -0.1070 -0.2504
21866SOL    HW167211   5.045   9.751   7.651 -0.6030 -0.1021 -0.5773
21866SOL    HW267212   5.123   9.625   7.622 -0.5736  0.0727 -1.2652
21867SOL     OW67213   6.225   5.385   5.419  0.0159 -0.2215 -0.3961
21867SOL    HW167214   6.222   5.371   5.513  0.1282  1.0116 -0.1913
21867SOL    HW267215   6.257   5.303   5.383 -0.3586 -0.8200  0.6099
21868SOL     OW67216   9.631   4.168   5.841 -0.5216  0.1006  0.4753
21868SOL    HW167217   9.598   4.160   5.751 -0.4782 -0.7414  0.5275
21868SOL    HW267218   9.718   4.127   5.838 -1.2995 -1.6778  1.3176
21869SOL     OW67219   9.387   6.680   6.258  0.3731 -0.4529  0.1866
21869SOL    HW167220   9.359   6.634   6.179 -1.7201  0.6473  0.2078
21869SOL    HW267221   9.370   6.772   6.238  0.1605 -0.1286  1.7770
21870SOL     OW67222   0.883   0.962   3.264  0.4099  0.2286 -0.4665
21870SOL    HW167223   0.849   0.902   3.331 -1.7307  0.1127 -1.5736
21870SOL    HW267224   0.887   1.047   3.307  2.0932 -0.3767  0.6926
21871SOL     OW67225   4.912   8.861   8.882  0.3909 -0.5382  0.0506
21871SOL    HW167226   4.933   8.776   8.843  3.2835  0.1553 -0.1481
21871SOL    HW267227   4.873   8.911   8.811  1.1253 -0.8773 -0.6131
21872SOL     OW67228   1.399   3.256   3.954 -0.5842  0.4462  0.2788
21872SOL    HW167229   1.443   3.307   3.886 -2.3950  1.6230 -0.0851
21872SOL    HW267230   1.422   3.300   4.036  2.2102 -1.4074  0.6436
21873SOL     OW67231   3.707   1.404   8.445  0.3502 -0.3002 -0.5285
21873SOL    HW167232   3.790   1.404   8.492  0.0737 -0.2333 -0.0276
21873SOL    HW267233   3.641   1.387   8.513 -0.1537  0.8502 -0.7026
21874SOL     OW67234   8.942   7.982   2.850 -0.5939  0.8438 -0.3484
21874SOL    HW167235   8.980   7.918   2.910 -3.3451 -1.6734 -1.0555
21874SOL    HW267236   8.951   8.066   2.896  1.0416 -0.3496  1.6994
21875SOL     OW67237   8.950   3.043   4.978  0.1880 -0.5546  0.3925
21875SOL    HW167238   8.922   3.019   4.890  0.3121  0.4552  0.0689
21875SOL    HW267239   8.868   3.052   5.027  0.0313  0.4923 -0.0519
21876SOL     OW67240   1.571   3.994   4.199 -0.1655  0.3784 -0.4121
21876SOL    HW167241   1.567   3.907   4.237 -0.5673  0.1295 -1.0145
21876SOL    HW267242   1.525   4.050   4.261 -0.3832  0.0657 -0.2904
21877SOL     OW67243   1.699   5.836   4.507 -0.0244  0.4506 -0.8085
21877SOL    HW167244   1.793   5.822   4.517 -0.3121 -0.6643  0.7561
21877SOL    HW267245   1.666   5.753   4.470 -0.2787  1.2057 -2.3568
21878SOL     OW67246   9.493   1.206   0.723  0.0436 -0.2582  0.1693
21878SOL    HW167247   9.580   1.166   0.721  0.2649  0.0717  1.7377
21878SOL    HW267248   9.434   1.134   0.701  0.7163 -0.3706 -1.4180
21879SOL     OW67249   6.025   1.211   8.549 -0.5958 -0.1445 -0.0490
21879SOL    HW167250   6.065   1.188   8.633 -2.5981  3.0522  2.0115
21879SOL    HW267251   6.088   1.270   8.508  0.7891 -2.3885 -1.3913
21880SOL     OW67252   2.223   6.337   2.444 -0.1927  0.5743 -0.3627
21880SOL    HW167253   2.250   6.281   2.371  2.1905 -1.0170  1.5598
21880SOL    HW267254   2.143   6.295   2.478  1.8963 -2.3542  1.4562
21881SOL     OW67255   6.950   2.222   1.263  0.4418 -0.3087 -0.1115
21881SOL    HW167256   6.879   2.158   1.267 -0.1135  0.2840 -0.2553
21881SOL    HW267257   7.008   2.190   1.195 -1.6118  1.0799 -2.7144
21882SOL     OW67258   2.430   6.669   3.740  0.1970  0.5001  0.4044
21882SOL    HW167259   2.465   6.698   3.825  0.5245  0.1852  0.3766
21882SOL    HW267260   2.457   6.578   3.732  1.0832  0.8284 -0.5145
21883SOL     OW67261   8.436   9.445   5.650  0.1107  0.3866  0.1494
21883SOL    HW167262   8.386   9.496   5.586 -1.5174 -0.5980  0.5654
21883SOL    HW267263   8.380   9.370   5.669  2.7044 -2.0648 -1.0543
21884SOL     OW67264   5.229   1.079   0.310  0.0592  0.4744  0.8505
21884SOL    HW167265   5.186   1.039   0.386  2.1020  0.4992  2.0915
21884SOL    HW267266   5.166   1.069   0.239 -1.9478  0.4643  2.5354
21885SOL     OW67267   7.661   1.879   8.426 -0.4464 -0.1622  0.1546
21885SOL    HW167268   7.723   1.883   8.354 -0.0099 -1.7073  0.4120
21885SOL    HW267269   7.702   1.821   8.490 -1.5961 -0.1990  0.8896
21886SOL     OW67270   9.310   2.941   3.289 -0.1849 -0.1931 -0.1045
21886SOL    HW167271   9.329   3.019   3.237 -0.5117  0.2156  0.3881
21886SOL    HW267272   9.387   2.931   3.346  0.0895 -0.5333 -0.5279
21887SOL     OW67273   5.559   0.771   2.567  0.2603  0.2579  0.1760
21887SOL    HW167274   5.466   0.792   2.554  0.3546  0.7226  0.2465
21887SOL    HW267275   5.567   0.681   2.536 -0.0370  0.4947 -0.6127
21888SOL     OW67276   3.563   7.086   2.091 -0.7287  0.3774 -0.2502
21888SOL    HW167277   3.591   7.146   2.160 -0.1219  1.2279 -1.2184
21888SOL    HW267278   3.625   7.012   2.097 -1.1320  0.0954  0.5747
21889SOL     OW67279   7.601   2.161   0.372  0.3586 -0.4343  0.0054
21889SOL    HW167280   7.506   2.172   0.375  0.3382 -0.7551  1.8318
21889SOL    HW267281   7.615   2.093   0.306 -0.5905  0.2646 -0.9557
21890SOL     OW67282   4.615   8.036   3.811  0.1587  0.7789 -0.3507
21890SOL    HW167283   4.703   8.020   3.846 -1.2361  0.2010  3.3764
21890SOL    HW267284   4.602   8.130   3.822 -0.1103  0.6656  0.4277
21891SOL     OW67285   5.288   3.077   3.024  0.1636 -0.5567 -0.2469
21891SOL    HW167286   5.377   3.066   3.058  0.5602  1.4744 -0.4903
21891SOL    HW267287   5.236   3.100   3.101 -0.1324 -1.5580 -0.1363
21892SOL     OW67288   9.701   5.146   4.932 -0.6571 -0.0609  0.3632
21892SOL    HW167289   9.758   5.151   4.856 -2.3108 -1.7550 -1.0949
21892SOL    HW267290   9.630   5.207   4.913  0.4229  1.8269  2.0353
21893SOL     OW67291   5.516   2.516   7.701 -0.1768  0.3607 -0.4519
21893SOL    HW167292   5.593   2.515   7.645 -0.4352 -0.0999 -0.8010
21893SOL    HW267293   5.442   2.514   7.640 -0.4603 -0.1164 -0.0972
21894SOL     OW67294   0.991   5.716   7.698 -0.1143  0.3750 -0.1603
21894SOL    HW167295   1.065   5.746   7.646 -0.5291  0.5662 -0.6437
21894SOL    HW267296   1.016   5.629   7.728  0.2121  0.3529 -0.4989
21895SOL     OW67297   5.882   6.196   3.723 -0.1103 -0.1533 -0.1550
21895SOL    HW167298   5.896   6.283   3.760  0.2059 -0.4077  0.3390
21895SOL    HW267299   5.787   6.185   3.724 -0.0836 -0.6066  1.6966
21896SOL     OW67300   1.205   5.235   3.607  0.1100 -0.1106 -0.1871
21896SOL    HW167301   1.235   5.322   3.633 -0.2644 -0.3193  0.9955
21896SOL    HW267302   1.121   5.250   3.564  1.0760  0.3116 -2.0572
21897SOL     OW67303   8.367   9.195   5.383  0.1379 -0.1693  0.5061
21897SOL    HW167304   8.330   9.215   5.469 -2.9983  0.7757 -0.9400
21897SOL    HW267305   8.399   9.278   5.350  0.0739 -0.2728  0.1828
21898SOL     OW67306   9.269   1.418   6.808  0.2709  0.5027  0.7965
21898SOL    HW167307   9.237   1.390   6.893  1.3312 -0.0511  1.0336
21898SOL    HW267308   9.257   1.342   6.751  1.9846 -0.0627  1.1287
21899SOL     OW67309   2.985   9.543   2.381  0.6663 -0.4414  0.1319
21899SOL    HW167310   3.076   9.571   2.367  0.9373 -0.5865  1.4637
21899SOL    HW267311   2.988   9.448   2.371  0.6947 -0.4583  0.2902
21900SOL     OW67312   3.441   2.562   3.432  0.1859 -0.0722  0.5945
21900SOL    HW167313   3.350   2.560   3.404  0.8391 -0.3993 -1.6416
21900SOL    HW267314   3.438   2.605   3.518 -1.8523  1.7995 -0.3161
21901SOL     OW67315   4.568   9.785   6.808 -0.1797  0.6177 -0.2522
21901SOL    HW167316   4.613   9.701   6.821 -0.0507  0.7782  0.3761
21901SOL    HW267317   4.620   9.831   6.743  0.5067  0.7483  0.3711
21902SOL     OW67318   3.734   6.704   4.297 -0.9248 -0.1414 -0.6338
21902SOL    HW167319   3.743   6.767   4.227  2.2059 -1.9264 -2.0804
21902SOL    HW267320   3.730   6.756   4.377 -1.7655  1.8756 -1.9309
21903SOL     OW67321   9.515   8.705   1.536  0.4598 -0.0268  0.5606
21903SOL    HW167322   9.440   8.652   1.561  0.8600 -1.3166 -0.8113
21903SOL    HW267323   9.493   8.793   1.564 -1.6048 -0.3610  0.0979
21904SOL     OW67324   1.158   5.510   3.941  0.0547 -0.0880  0.5549
21904SOL    HW167325   1.081   5.540   3.893 -0.3393 -1.3911  0.3258
21904SOL    HW267326   1.229   5.513   3.876 -0.2434 -0.8049  0.1891
21905SOL     OW67327   2.453   6.115   3.768 -0.1234 -0.4490 -0.2703
21905SOL    HW167328   2.485   6.115   3.678 -0.0660 -0.1758 -0.2516
21905SOL    HW267329   2.450   6.208   3.793  0.0634 -0.5349  0.0803
21906SOL     OW67330   5.343   5.735   7.801  0.2718  0.0312 -0.0445
21906SOL    HW167331   5.275   5.789   7.841  0.5430  0.6066 -0.3455
21906SOL    HW267332   5.400   5.798   7.756 -0.1078 -0.5881 -1.4524
21907SOL     OW67333   2.861   4.863   8.165  0.2145  0.0351 -0.8864
21907SOL    HW167334   2.793   4.851   8.099  0.4020 -0.7483 -0.9400
21907SOL    HW267335   2.821   4.832   8.246  0.6053 -0.6873 -0.9706
21908SOL     OW67336   6.476   4.674   5.338 -0.0806 -0.9900  0.2117
21908SOL    HW167337   6.432   4.592   5.314 -0.1829 -1.1368  0.8684
21908SOL    HW267338   6.484   4.669   5.433 -0.1755 -0.1882  0.2688
21909SOL     OW67339   6.345   0.672   4.591 -0.4698 -0.0629  0.0653
21909SOL    HW167340   6.388   0.616   4.526  1.3916  0.2722  0.9352
21909SOL    HW267341   6.386   0.757   4.580 -1.7297  0.5922  0.2192
21910SOL     OW67342   0.993   9.751   1.446 -0.7355 -0.0057  0.2073
21910SOL    HW167343   1.032   9.668   1.471 -0.4263  0.4621  1.3289
21910SOL    HW267344   0.940   9.730   1.369 -0.3364 -1.1490  0.2244
21911SOL     OW67345   4.133   6.558   0.266 -0.2295  0.4679  0.1640
21911SOL    HW167346   4.092   6.629   0.217  1.7662  0.4810 -1.6047
21911SOL    HW267347   4.072   6.484   0.256 -1.2531  1.2956  0.1556
21912SOL     OW67348   2.964   1.014   7.572 -0.4209  0.0025  0.4017
21912SOL    HW167349   2.981   1.108   7.578  0.5487 -0.1478  0.2824
21912SOL    HW267350   3.045   0.978   7.535 -1.1977 -0.7386 -0.6345
21913SOL     OW67351   8.120   1.262   0.719 -0.3033  0.1205  0.2296
21913SOL    HW167352   8.149   1.221   0.800 -1.9890 -1.1231  0.2608
21913SOL    HW267353   8.091   1.350   0.746 -0.0911  0.0139  0.8242
21914SOL     OW67354   0.745   0.307   0.240  0.1011 -0.0991 -0.2645
21914SOL    HW167355   0.659   0.335   0.271 -0.4188  0.4982 -2.1064
21914SOL    HW267356   0.800   0.307   0.318 -1.3625  0.2996  0.8139
21915SOL     OW67357   5.704   9.077   0.979  0.3932  0.7594  0.1398
21915SOL    HW167358   5.773   9.131   0.940  1.8363 -1.9155 -1.2566
21915SOL    HW267359   5.739   9.052   1.064  2.1132 -1.9981 -1.2322
21916SOL     OW67360   3.251   6.737   6.086 -0.2468  0.2915 -0.2638
21916SOL    HW167361   3.174   6.749   6.141 -0.1677 -0.1596 -0.0510
21916SOL    HW267362   3.286   6.652   6.111  0.0502  0.2804 -0.6935
21917SOL     OW67363   5.577   8.446   3.240 -0.2663 -0.4535 -0.3520
21917SOL    HW167364   5.610   8.419   3.154  2.0442 -0.0030  0.3219
21917SOL    HW267365   5.635   8.404   3.303 -0.7424  0.7243  0.9341
21918SOL     OW67366   1.999   2.333   5.818  0.5687 -0.0181  0.3085
21918SOL    HW167367   2.067   2.330   5.751 -0.2163 -0.0344 -0.5143
21918SOL    HW267368   1.972   2.425   5.820 -0.1933 -0.2140 -0.2356
21919SOL     OW67369   1.087   6.213   1.207  0.6019 -0.3998  0.3150
21919SOL    HW167370   1.074   6.218   1.112 -0.3433 -1.7725  0.3406
21919SOL    HW267371   1.008   6.252   1.244 -0.0126 -1.7477  0.5009
21920SOL     OW67372   6.500   5.052   3.432  0.1417  0.2583  0.5978
21920SOL    HW167373   6.563   4.983   3.411  1.5510  1.4604  0.6843
21920SOL    HW267374   6.474   5.088   3.347  0.3927  0.4565  0.6041
21921SOL     OW67375   8.492   7.115   6.828 -0.0879  0.1437 -0.0857
21921SOL    HW167376   8.403   7.086   6.843  0.2369 -0.9729 -0.2167
21921SOL    HW267377   8.537   7.038   6.793  1.0670  0.5184  0.5168
21922SOL     OW67378   3.352   6.206   5.863  0.4816  0.2560 -0.0192
21922SOL    HW167379   3.291   6.264   5.909  1.3987  0.2740  1.2539
21922SOL    HW267380   3.313   6.191   5.777 -0.9640  0.8019  0.5248
21923SOL     OW67381   7.669   2.491   3.298  0.4791 -0.1979  0.5611
21923SOL    HW167382   7.726   2.444   3.359 -0.5313 -0.8695  1.0040
21923SOL    HW267383   7.700   2.463   3.211  1.6751  0.4742  0.7576
21924SOL     OW67384   8.356   7.856   1.668 -0.4166  0.8080  0.0641
21924SOL    HW167385   8.328   7.776   1.713  0.5890  0.5460  0.2467
21924SOL    HW267386   8.431   7.887   1.719  0.4657  0.7566 -1.1657
21925SOL     OW67387   1.248   9.429   5.887  0.6424  0.2806  0.2647
21925SOL    HW167388   1.314   9.366   5.913  1.4922  1.3983  0.9039
21925SOL    HW267389   1.180   9.422   5.954  0.4793 -0.3193  0.0378
21926SOL     OW67390   5.311   9.198   9.372  0.2680 -0.4888  0.4639
21926SOL    HW167391   5.246   9.210   9.303  0.0645 -1.4788  0.4712
21926SOL    HW267392   5.391   9.175   9.324  0.5349  0.3855  0.4754
21927SOL     OW67393   7.171   8.309   0.402 -0.0409  0.4288  0.0200
21927SOL    HW167394   7.267   8.310   0.404 -0.0251 -0.1498  2.2215
21927SOL    HW267395   7.145   8.367   0.473 -1.4005  1.8185 -1.5364
21928SOL     OW67396   7.905   5.805   2.558  0.4861 -0.2011  0.1140
21928SOL    HW167397   7.934   5.812   2.649  1.9465  0.7553 -0.3851
21928SOL    HW267398   7.859   5.888   2.542 -0.8457 -0.8757  0.3105
21929SOL     OW67399   7.909   9.290   3.943  0.0231 -0.4719 -0.0873
21929SOL    HW167400   7.952   9.204   3.948 -1.0272 -0.9571  2.2581
21929SOL    HW267401   7.819   9.271   3.919 -0.6443 -0.2893  2.0099
21930SOL     OW67402   2.539   6.929   9.350 -0.3372 -0.2188 -0.4212
21930SOL    HW167403   2.515   6.994   9.416 -1.6980 -1.7323  0.6708
21930SOL    HW267404   2.631   6.909   9.367 -0.5015 -0.1242  0.6119
21931SOL     OW67405   0.065   8.527   1.729 -0.4155  0.1204  0.6046
21931SOL    HW167406   0.012   8.495   1.656 -0.9329 -2.0486  1.8446
21931SOL    HW267407   0.150   8.546   1.690 -1.5762  2.0787 -1.1139
21932SOL     OW67408   8.443   1.731   7.927  0.4561  0.3117 -0.3759
21932SOL    HW167409   8.373   1.743   7.863  0.7800  3.1039 -0.3320
21932SOL    HW267410   8.491   1.654   7.896 -0.9704 -0.0050 -1.9590
21933SOL     OW67411   4.839   9.287   6.630 -0.8337 -0.4311 -0.4062
21933SOL    HW167412   4.746   9.295   6.653 -0.9155  0.3465 -0.9546
21933SOL    HW267413   4.864   9.375   6.601  0.1064 -0.6120 -0.1611
21934SOL     OW67414   1.242   4.329   6.024  0.8468  0.3638  0.1805
21934SOL    HW167415   1.165   4.385   6.029  0.9196  0.6366 -1.2780
21934SOL    HW267416   1.258   4.300   6.114 -1.7149 -0.7259  0.3622
21935SOL     OW67417   4.194   9.510   3.139  0.7424 -0.2111  0.0280
21935SOL    HW167418   4.231   9.581   3.190  1.1868 -0.8324  0.5950
21935SOL    HW267419   4.181   9.439   3.203  0.5508 -0.7215 -0.5653
21936SOL     OW67420   2.693   3.782   7.190  0.0951  0.5390 -0.3549
21936SOL    HW167421   2.609   3.736   7.202  1.3657 -1.1557  4.1412
21936SOL    HW267422   2.753   3.714   7.159  0.8528  0.3943  1.3410
21937SOL     OW67423   0.246   4.551   8.986  0.2560 -0.0966  0.0839
21937SOL    HW167424   0.213   4.635   8.955 -0.8321 -1.0586 -1.5199
21937SOL    HW267425   0.325   4.573   9.037  0.1756  1.8367 -0.5497
21938SOL     OW67426   1.324   0.500   2.422  0.0635 -0.4115 -0.3084
21938SOL    HW167427   1.367   0.585   2.413 -1.2054  0.4955  1.5956
21938SOL    HW267428   1.259   0.498   2.352  0.5017 -0.0953 -0.7336
21939SOL     OW67429   9.200   1.468   7.238  0.4276 -0.2171  0.8499
21939SOL    HW167430   9.226   1.434   7.324 -1.0595 -1.2490  0.9262
21939SOL    HW267431   9.257   1.422   7.176 -1.0832 -2.4358  1.0142
21940SOL     OW67432   0.739   7.626   0.375 -0.0836  0.4045 -0.5405
21940SOL    HW167433   0.781   7.712   0.367  3.1321 -0.8789  0.5924
21940SOL    HW267434   0.767   7.579   0.297  0.6693 -0.4889  0.2411
21941SOL     OW67435   0.092   9.309   4.344  0.5068 -0.1144  0.0278
21941SOL    HW167436   0.103   9.224   4.386  0.4978  0.3161  0.9234
21941SOL    HW267437   0.181   9.342   4.334  0.4669  0.1339  0.4596
21942SOL     OW67438   6.551   5.205   6.785  0.1039 -0.7215 -0.4924
21942SOL    HW167439   6.615   5.170   6.847 -0.2870  0.0059  0.3635
21942SOL    HW267440   6.468   5.202   6.833 -0.0901  0.4950 -0.7144
21943SOL     OW67441   4.549   4.123   5.737  0.0714 -0.6225 -0.8188
21943SOL    HW167442   4.539   4.218   5.728  2.0071 -0.3830 -1.0033
21943SOL    HW267443   4.535   4.088   5.649 -2.1325 -0.7181 -0.4782
21944SOL     OW67444   4.008   6.175   5.487  0.1204  0.2472  0.5014
21944SOL    HW167445   3.931   6.223   5.455 -0.0066  0.5237  1.1909
21944SOL    HW267446   4.031   6.220   5.569  0.8267 -0.0300  0.4617
21945SOL     OW67447   1.782   9.691   3.581  0.3375 -0.0644 -0.6793
21945SOL    HW167448   1.847   9.685   3.511  1.8969  0.0519  0.7185
21945SOL    HW267449   1.754   9.783   3.579  1.1667  0.2048 -0.4842
21946SOL     OW67450   0.812   7.306   8.379  0.2542  0.1374 -0.2561
21946SOL    HW167451   0.818   7.231   8.439  1.9768  0.1907 -0.3214
21946SOL    HW267452   0.897   7.308   8.335  0.0758  1.8685 -0.5747
21947SOL     OW67453   5.282   2.653   7.536 -0.3708  0.5306  0.3459
21947SOL    HW167454   5.254   2.743   7.550 -0.7028  0.7663 -1.5436
21947SOL    HW267455   5.203   2.608   7.504 -0.1093 -0.3279  0.8706
21948SOL     OW67456   4.644   0.882   7.254 -0.2036 -0.8288 -0.2655
21948SOL    HW167457   4.570   0.863   7.196 -1.5738 -0.8534  1.4010
21948SOL    HW267458   4.648   0.806   7.312  2.4392 -1.7568 -1.5163
21949SOL     OW67459   1.835   4.762   7.428  0.4920  0.0297 -0.1670
21949SOL    HW167460   1.755   4.809   7.406 -0.2529 -1.8934 -1.9065
21949SOL    HW267461   1.815   4.718   7.511 -0.3218 -0.5048 -0.6304
21950SOL     OW67462   6.911   7.345   4.146 -0.0881  0.2465 -0.1210
21950SOL    HW167463   6.923   7.253   4.169 -0.2076  0.7292  2.1257
21950SOL    HW267464   6.907   7.390   4.230  1.2040  2.4745 -1.1605
21951SOL     OW67465   9.725   7.063   7.393 -0.3666 -0.1153  0.4337
21951SOL    HW167466   9.644   7.100   7.359 -1.4523 -2.3269  0.4057
21951SOL    HW267467   9.765   7.018   7.318  1.6924  2.1222  0.0785
21952SOL     OW67468   9.625   2.781   0.768  0.6801 -0.0803  0.0841
21952SOL    HW167469   9.639   2.744   0.855  2.1745  0.6945  0.2181
21952SOL    HW267470   9.648   2.711   0.707 -0.5807 -0.6939  0.2982
21953SOL     OW67471   5.305   7.153   1.570 -0.4329  0.1191 -0.2277
21953SOL    HW167472   5.362   7.124   1.641  0.4749  0.7503 -0.6902
21953SOL    HW267473   5.272   7.072   1.531  2.2569 -0.3909 -1.6669
21954SOL     OW67474   6.811   0.610   2.102 -0.3096  0.4498  0.2302
21954SOL    HW167475   6.879   0.603   2.034 -2.1895  1.7703 -1.9288
21954SOL    HW267476   6.836   0.545   2.168  2.7789  0.5694 -0.6676
21955SOL     OW67477   1.856   3.439   8.486 -0.0620  0.3714 -0.2585
21955SOL    HW167478   1.801   3.517   8.499 -2.9612 -1.2167 -1.7703
21955SOL    HW267479   1.854   3.393   8.570  0.3993  1.1711  0.1970
21956SOL     OW67480   1.788   8.103   0.501  0.0902  0.4429  0.2666
21956SOL    HW167481   1.826   8.116   0.413  0.5089  0.6221  0.4699
21956SOL    HW267482   1.734   8.181   0.514 -0.1252  0.3260  0.0934
21957SOL     OW67483   8.571   2.359   4.714 -0.7760  0.8372 -0.4475
21957SOL    HW167484   8.492   2.306   4.723 -0.0943 -0.1778 -0.2703
21957SOL    HW267485   8.544   2.432   4.658 -2.1333  1.1547  0.5600
21958SOL     OW67486   8.069   4.102   7.501  0.3790 -0.0211  0.2231
21958SOL    HW167487   8.149   4.050   7.502 -0.4912 -1.4111  1.2105
21958SOL    HW267488   8.008   4.055   7.558 -1.1291  1.0336 -0.4240
21959SOL     OW67489   6.857   1.720   0.249  0.3711  1.3956 -0.3071
21959SOL    HW167490   6.812   1.804   0.244 -3.3955 -0.3834  0.4096
21959SOL    HW267491   6.840   1.678   0.165 -1.9161 -0.4315  0.9780
21960SOL     OW67492   3.270   3.748   8.635  0.2529  0.0051 -0.6954
21960SOL    HW167493   3.223   3.714   8.711  2.6928  0.5656  1.2264
21960SOL    HW267494   3.244   3.691   8.563 -0.0175 -2.4429  1.1826
21961SOL     OW67495   4.831   6.965   0.834 -0.2000  0.2449 -0.1528
21961SOL    HW167496   4.887   6.894   0.803 -0.5290  0.1116 -0.4492
21961SOL    HW267497   4.764   6.974   0.767  0.3490  1.4388 -0.5711
21962SOL     OW67498   5.565   4.914   6.611 -0.4196 -0.3532 -0.2653
21962SOL    HW167499   5.526   4.984   6.664  1.2149 -0.4102  1.0877
21962SOL    HW267500   5.500   4.844   6.614 -1.2555  0.4105 -0.0755
21963SOL     OW67501   5.344   7.398   1.288  0.1442 -0.3205 -0.7057
21963SOL    HW167502   5.323   7.452   1.212 -0.6561 -1.7839 -1.5839
21963SOL    HW267503   5.385   7.458   1.350  0.2490  1.0469 -2.0379
21964SOL     OW67504   7.554   7.244   7.679  0.1416  0.3435 -0.5800
21964SOL    HW167505   7.515   7.170   7.726  1.2422 -0.0829 -0.2816
21964SOL    HW267506   7.511   7.245   7.594 -1.4702  0.7543  0.2033
21965SOL     OW67507   2.956   6.465   3.437 -0.8923  0.2224  0.0982
21965SOL    HW167508   2.925   6.496   3.352 -1.0462  1.1965  0.4962
21965SOL    HW267509   3.028   6.524   3.459 -0.5720 -0.2922  0.4448
21966SOL     OW67510   3.266   2.001   0.482 -0.2086 -0.1354 -0.4154
21966SOL    HW167511   3.349   1.961   0.458 -0.8865 -1.4389 -0.6925
21966SOL    HW267512   3.289   2.066   0.548  1.1282  0.2087 -1.1653
21967SOL     OW67513   8.616   7.608   2.511  0.0588  0.3517 -0.2203
21967SOL    HW167514   8.537   7.606   2.565  0.8231  0.2658  0.9294
21967SOL    HW267515   8.682   7.563   2.563  0.5382 -0.7813 -1.7405
21968SOL     OW67516   1.707   2.313   7.886  0.0847 -0.0905 -0.9138
21968SOL    HW167517   1.648   2.279   7.818 -0.0818  0.0916 -0.8608
21968SOL    HW267518   1.689   2.407   7.888 -0.0572 -0.1272 -0.4748
21969SOL     OW67519   0.762   5.234   6.515  0.6120  0.1421  0.3481
21969SOL    HW167520   0.848   5.271   6.495  1.3643 -2.1586 -1.1190
21969SOL    HW267521   0.781   5.146   6.547 -1.1670  0.1494  1.5997
21970SOL     OW67522   0.223   0.753   4.853  0.0240  0.0406 -0.1740
21970SOL    HW167523   0.145   0.736   4.907  0.1534  0.8265  0.2813
21970SOL    HW267524   0.190   0.752   4.763 -0.3503 -0.4909 -0.0356
21971SOL     OW67525   8.377   6.882   1.484  0.0198  0.5556 -0.0254
21971SOL    HW167526   8.436   6.837   1.545  0.5192  2.6537  1.1580
21971SOL    HW267527   8.436   6.924   1.421 -0.4688 -1.0206 -1.5891
21972SOL     OW67528   5.969   9.228   3.681  0.0561  0.0664 -0.0839
21972SOL    HW167529   5.950   9.307   3.630 -0.9911 -0.6109 -0.7721
21972SOL    HW267530   6.060   9.239   3.709 -0.0778  1.5428 -0.1098
21973SOL     OW67531   9.544   8.060   1.577 -0.0865  0.3292 -0.1318
21973SOL    HW167532   9.476   8.051   1.643  0.6951  0.9555  0.7943
21973SOL    HW267533   9.526   8.144   1.534 -0.0081  0.4057 -0.0149
21974SOL     OW67534   2.052   9.156   7.130  0.1532  1.3399 -0.1076
21974SOL    HW167535   2.087   9.136   7.043  0.2855 -1.3675  0.4756
21974SOL    HW267536   1.998   9.234   7.117  0.1076  0.9686 -2.6358
21975SOL     OW67537   6.200   6.737   7.744  0.2069 -0.7558 -0.2156
21975SOL    HW167538   6.263   6.669   7.724 -1.3270 -1.5843 -2.6044
21975SOL    HW267539   6.249   6.819   7.735  1.9220 -1.3942  2.1449
21976SOL     OW67540   1.419   2.891   8.203  0.2221  0.6081 -0.2004
21976SOL    HW167541   1.337   2.854   8.170  0.0944 -1.2150  1.9109
21976SOL    HW267542   1.482   2.819   8.197  0.5942  0.6969  1.8912
21977SOL     OW67543   0.229   0.828   1.678 -0.2468  0.4284 -0.0429
21977SOL    HW167544   0.283   0.749   1.681  0.6992  0.9519 -1.7157
21977SOL    HW267545   0.224   0.858   1.768  1.0388 -0.4498  0.3442
21978SOL     OW67546   8.110   4.938   5.046 -0.1004 -0.4681  0.3875
21978SOL    HW167547   8.185   4.901   5.094  1.3593  1.0326 -0.6329
21978SOL    HW267548   8.126   5.032   5.046 -1.1357 -0.2544 -1.2794
21979SOL     OW67549   3.816   9.359   6.440 -0.3460  0.1499  0.0742
21979SOL    HW167550   3.869   9.348   6.519  0.4132  3.1427  0.0921
21979SOL    HW267551   3.835   9.281   6.388  1.8215 -0.2595  1.3493
21980SOL     OW67552   1.091   5.846   8.684  0.1385  0.0059 -0.2732
21980SOL    HW167553   1.181   5.819   8.667 -0.0161 -0.0127 -1.1480
21980SOL    HW267554   1.085   5.935   8.650  0.0599  0.3307  0.5871
21981SOL     OW67555   8.815   8.405   8.159  0.0237 -0.0725 -0.7476
21981SOL    HW167556   8.769   8.487   8.141  0.0551 -0.0663 -0.7979
21981SOL    HW267557   8.897   8.432   8.199 -0.2639 -0.1046 -0.1214
21982SOL     OW67558   9.558   4.290   1.337  0.1914 -0.0083  0.2609
21982SOL    HW167559   9.592   4.366   1.289  0.3028  0.3743  0.9339
21982SOL    HW267560   9.524   4.326   1.418  2.4892 -0.9173  1.7555
21983SOL     OW67561   8.063   6.974   9.231 -0.3887 -0.8149  0.6207
21983SOL    HW167562   8.117   6.904   9.268  2.8058  1.4253  0.6472
21983SOL    HW267563   8.032   6.938   9.147  0.6454 -2.4547  0.8843
21984SOL     OW67564   7.651   2.073   5.672 -0.3473  0.4309  0.1583
21984SOL    HW167565   7.630   2.040   5.760  0.8051  0.1376  0.3407
21984SOL    HW267566   7.742   2.101   5.678  0.4086 -1.4203 -1.4432
21985SOL     OW67567   2.958   6.550   1.145 -0.7187 -0.8668  0.3474
21985SOL    HW167568   2.893   6.609   1.107 -0.6781 -1.2266 -0.2799
21985SOL    HW267569   3.042   6.589   1.121 -0.6947 -0.4671  1.0557
21986SOL     OW67570   6.911   1.889   0.632  0.0040  0.7485 -0.1979
21986SOL    HW167571   6.885   1.960   0.690 -0.2149  0.1392  0.4567
21986SOL    HW267572   6.847   1.820   0.647  2.2520 -1.0440  1.9169
21987SOL     OW67573   2.186   8.169   0.682  0.5536  0.6904  0.1524
21987SOL    HW167574   2.194   8.108   0.755 -0.4655  0.7424  0.3234
21987SOL    HW267575   2.219   8.121   0.606  1.1548  0.4616  0.5524
21988SOL     OW67576   7.192   0.509   1.487  0.6025 -0.0206  0.4146
21988SOL    HW167577   7.216   0.498   1.395 -1.1288  0.8093 -0.1829
21988SOL    HW267578   7.184   0.604   1.498 -0.7987 -0.1818  0.9599
21989SOL     OW67579   8.924   8.201   1.183 -0.0350  0.1474 -0.4092
21989SOL    HW167580   8.888   8.281   1.146 -0.2690  0.2682  0.0665
21989SOL    HW267581   9.014   8.224   1.208 -1.1216  1.3382  2.9131
21990SOL     OW67582   6.673   4.669   1.078  0.3960 -0.3124 -0.2683
21990SOL    HW167583   6.640   4.748   1.035  0.2373 -0.1071  0.2261
21990SOL    HW267584   6.724   4.625   1.010 -0.2682 -0.2529 -0.8212
21991SOL     OW67585   1.634   2.246   8.902 -0.5418  0.2112  0.1533
21991SOL    HW167586   1.708   2.307   8.903 -1.2088  1.1366 -2.0083
21991SOL    HW267587   1.577   2.276   8.973 -0.3571  1.4863 -0.2179
21992SOL     OW67588   8.200   6.506   8.799 -0.1699 -0.4885  0.4568
21992SOL    HW167589   8.291   6.479   8.794  0.1331  0.5629 -0.1232
21992SOL    HW267590   8.199   6.577   8.864 -0.3776  0.2253 -0.3131
21993SOL     OW67591   8.337   4.448   3.037  0.4189  0.0420  0.0692
21993SOL    HW167592   8.265   4.499   3.075  0.5416  0.3447 -0.0980
21993SOL    HW267593   8.399   4.436   3.108  0.0102 -0.5740  0.3217
21994SOL     OW67594   8.058   2.001   7.987 -0.4736  0.1884 -0.2369
21994SOL    HW167595   8.073   1.927   7.928  1.4621  0.2695  0.0870
21994SOL    HW267596   8.050   2.077   7.929  1.7478  0.3184 -0.4481
21995SOL     OW67597   1.366   9.293   8.974 -0.3471  0.1059 -0.4680
21995SOL    HW167598   1.417   9.373   8.981 -1.9357  1.3757 -2.3325
21995SOL    HW267599   1.415   9.239   8.912  1.5507 -1.1562  1.9562
21996SOL     OW67600   4.033   7.223   7.222 -0.3380  0.4144  0.0826
21996SOL    HW167601   4.075   7.307   7.206  1.8655 -0.6812 -0.3397
21996SOL    HW267602   3.987   7.204   7.140  1.2789  0.0918 -0.7899
21997SOL     OW67603   8.517   5.459   9.614  0.6026 -0.2458  0.0450
21997SOL    HW167604   8.471   5.377   9.633 -1.2535  0.8586  0.5804
21997SOL    HW267605   8.566   5.478   9.694 -0.0019 -0.1877  0.4068
21998SOL     OW67606   1.808   3.061   4.371  0.4987 -0.0907 -0.5348
21998SOL    HW167607   1.819   3.063   4.466  1.5656 -0.3124 -0.6413
21998SOL    HW267608   1.889   3.022   4.338  0.6147  0.9842 -1.6058
21999SOL     OW67609   0.680   9.252   6.168  0.2799  0.3884 -0.0625
21999SOL    HW167610   0.740   9.190   6.128  1.0917  0.4371  1.0220
21999SOL    HW267611   0.600   9.202   6.185  1.0038 -0.4321  1.0063
22000SOL     OW67612   0.339   9.390   0.844 -0.3350  0.0683 -0.1201
22000SOL    HW167613   0.426   9.352   0.830 -0.2764  0.9618 -2.7267
22000SOL    HW267614   0.356   9.474   0.886 -0.1321 -0.6858  1.3647
22001SOL     OW67615   8.031   1.125   3.049  0.4052  0.3525 -0.6538
22001SOL    HW167616   7.992   1.044   3.017  0.3296  0.5086 -0.9539
22001SOL    HW267617   8.121   1.123   3.016 -0.5748  2.1158 -3.8452
22002SOL     OW67618   8.244   5.289   7.409  0.2140 -0.3867  0.1964
22002SOL    HW167619   8.264   5.380   7.386 -1.2340 -0.6367 -2.3594
22002SOL    HW267620   8.300   5.237   7.352  1.1390 -1.1870  1.7380
22003SOL     OW67621   2.547   4.635   3.223 -0.4029  0.5353  0.5318
22003SOL    HW167622   2.494   4.659   3.299 -2.6104 -1.1806 -0.3565
22003SOL    HW267623   2.502   4.560   3.185  0.6399  1.2650 -2.4312
22004SOL     OW67624   5.810   2.511   8.986 -0.2475  0.0413  0.0565
22004SOL    HW167625   5.809   2.606   8.974 -1.8470 -0.1687 -1.8471
22004SOL    HW267626   5.902   2.487   8.972  0.3185  1.3226  1.2162
22005SOL     OW67627   7.766   3.540   1.429  0.5158 -0.9737 -0.0250
22005SOL    HW167628   7.751   3.455   1.472 -0.8186 -0.8394 -0.1864
22005SOL    HW267629   7.785   3.600   1.500  0.2897 -1.1684  0.2022
22006SOL     OW67630   5.540   0.394   1.411 -0.0383 -0.0769  0.2866
22006SOL    HW167631   5.473   0.326   1.418 -0.1314  0.1012  1.2890
22006SOL    HW267632   5.515   0.459   1.476  2.3483 -1.0919  2.4015
22007SOL     OW67633   6.059   5.846   5.661 -0.4324  0.2711  0.3064
22007SOL    HW167634   6.059   5.931   5.705 -0.3406  0.8503 -0.7747
22007SOL    HW267635   5.990   5.853   5.595 -0.1236 -0.3356 -0.0937
22008SOL     OW67636   5.998   0.011   0.540  0.1901 -0.8011 -0.1697
22008SOL    HW167637   6.016   0.094   0.495 -1.7749 -0.7821 -1.0646
22008SOL    HW267638   5.909  -0.012   0.512 -0.3121 -1.9007  2.0770
22009SOL     OW67639   0.603   3.236   8.793 -0.0752  0.2371  0.7913
22009SOL    HW167640   0.645   3.171   8.736 -0.3923  1.4268 -0.8667
22009SOL    HW267641   0.663   3.310   8.793 -0.3315  0.4516  1.5999
22010SOL     OW67642   7.938   9.561   0.540 -0.8594  0.3000 -0.0925
22010SOL    HW167643   8.031   9.549   0.555 -0.8914  0.6989  0.4631
22010SOL    HW267644   7.922   9.524   0.453 -0.7672 -2.7307  1.0463
22011SOL     OW67645   9.748   7.136   2.706 -0.1574  0.2929  0.1819
22011SOL    HW167646   9.699   7.055   2.698  0.8799 -0.3725  0.3769
22011SOL    HW267647   9.736   7.163   2.798  1.4060 -0.9270  0.7897
22012SOL     OW67648   1.204   9.181   1.062  0.5353 -0.3965  0.4968
22012SOL    HW167649   1.178   9.270   1.039  2.2916 -0.1848 -0.8326
22012SOL    HW267650   1.208   9.135   0.979  0.8550 -1.3851  1.0470
22013SOL     OW67651   6.290   3.341   5.949  0.4657  0.6195 -0.2606
22013SOL    HW167652   6.251   3.271   6.002 -0.3865  0.3408 -1.2093
22013SOL    HW267653   6.291   3.305   5.860 -3.5870  3.0838 -1.5651
22014SOL     OW67654   6.299   2.252   1.816  0.0692  0.2035 -0.0617
22014SOL    HW167655   6.338   2.185   1.873 -1.9530 -0.1308  1.0117
22014SOL    HW267656   6.209   2.260   1.847 -0.2443  2.1591 -1.3469
22015SOL     OW67657   0.227   8.870   7.517  0.0654 -0.3258 -0.2317
22015SOL    HW167658   0.198   8.850   7.606  1.1008 -0.3619  0.1130
22015SOL    HW267659   0.316   8.834   7.513  0.9840  1.8633 -0.4549
22016SOL     OW67660   2.947   7.891   1.743  0.0904 -0.7561 -0.8846
22016SOL    HW167661   3.021   7.856   1.794 -0.6030  1.2302  1.7112
22016SOL    HW267662   2.975   7.978   1.717 -2.4483  1.7219  3.5225
22017SOL     OW67663   9.677   4.005   0.911  0.0817 -0.2483 -0.5215
22017SOL    HW167664   9.631   4.076   0.955 -1.4475 -1.6161  0.2206
22017SOL    HW267665   9.639   4.004   0.822 -0.2939 -0.4694 -0.3613
22018SOL     OW67666   9.623   1.563   4.851 -0.0497  0.4351  0.0195
22018SOL    HW167667   9.605   1.535   4.941 -1.8010 -1.6000 -0.8893
22018SOL    HW267668   9.546   1.613   4.826  0.2271  0.6085 -0.5004
22019SOL     OW67669   8.553   2.607   3.702 -0.4435  1.3861  0.0658
22019SOL    HW167670   8.618   2.660   3.656 -1.4474  1.6703 -1.0789
22019SOL    HW267671   8.506   2.669   3.758  1.4346  0.8800  2.3458
22020SOL     OW67672   9.430   5.137   3.641 -0.3145  0.4984  0.4239
22020SOL    HW167673   9.433   5.185   3.558 -0.5236 -1.7196 -0.9435
22020SOL    HW267674   9.337   5.136   3.665 -0.8118 -1.8550 -1.2632
22021SOL     OW67675   9.736   7.899   1.729  0.0612 -0.0999  0.0299
22021SOL    HW167676   9.683   7.955   1.672 -0.5745 -0.4134  0.3076
22021SOL    HW267677   9.683   7.885   1.807  1.0760  0.6343  0.8961
22022SOL     OW67678   7.620   4.725   4.289 -0.4097  0.6619 -0.5968
22022SOL    HW167679   7.701   4.680   4.264 -0.4541 -1.5599  2.5607
22022SOL    HW267680   7.555   4.693   4.226  0.0214 -2.2820  0.2768
22023SOL     OW67681   9.151   4.469   5.385 -0.5138 -0.6557  0.2321
22023SOL    HW167682   9.226   4.527   5.403  0.0804 -1.8616  1.8817
22023SOL    HW267683   9.190   4.392   5.344 -0.8985 -1.1277  0.7478
22024SOL     OW67684   0.684   3.285   6.149  0.0168 -0.0465 -0.4717
22024SOL    HW167685   0.589   3.278   6.156  0.0045 -0.4824 -1.0211
22024SOL    HW267686   0.708   3.352   6.213 -0.7678  0.8064 -1.0514
22025SOL     OW67687   7.923   0.334   0.092  0.2487 -0.4919 -0.2055
22025SOL    HW167688   8.006   0.290   0.073  0.1017 -0.4441 -0.9882
22025SOL    HW267689   7.857   0.279   0.051 -0.0119  0.0447 -0.5058
22026SOL     OW67690   7.454   7.225   6.434  0.5836 -0.3458  0.3772
22026SOL    HW167691   7.493   7.142   6.407 -1.7229 -0.9574 -1.4068
22026SOL    HW267692   7.494   7.290   6.376 -1.4202 -1.0839 -2.0239
22027SOL     OW67693   1.393   5.333   4.417 -0.0049 -0.1823 -0.6371
22027SOL    HW167694   1.453   5.372   4.481  1.0411 -0.7942 -1.2124
22027SOL    HW267695   1.403   5.388   4.339 -0.6397  0.0514 -0.5627
22028SOL     OW67696   3.346   3.425   2.792 -0.0810 -0.0617  0.1962
22028SOL    HW167697   3.322   3.509   2.751 -1.6435 -0.0988  0.9554
22028SOL    HW267698   3.423   3.396   2.744 -0.5208  0.9894 -1.2118
22029SOL     OW67699   8.347   7.183   8.964 -0.8328  0.0746  0.4991
22029SOL    HW167700   8.300   7.202   9.045 -0.6070  2.2135  0.1704
22029SOL    HW267701   8.284   7.199   8.894 -1.5464 -3.3063  0.1892
22030SOL     OW67702   7.580   8.752   7.315  0.1366  0.3304  0.3186
22030SOL    HW167703   7.658   8.795   7.280 -0.4622  1.4514  0.3145
22030SOL    HW267704   7.539   8.713   7.238  0.8781 -0.6091  0.3755
22031SOL     OW67705   2.702   5.933   0.605  0.1292  0.7933  0.2036
22031SOL    HW167706   2.714   5.976   0.520 -0.9113  2.0400  0.6508
22031SOL    HW267707   2.705   6.004   0.669 -1.4115  0.1994  0.9980
22032SOL     OW67708   2.493   3.214   8.213  0.4001 -0.0651 -0.5780
22032SOL    HW167709   2.520   3.132   8.253  0.7153  0.2900 -0.0511
22032SOL    HW267710   2.551   3.225   8.138  0.5240 -0.1995 -0.5019
22033SOL     OW67711   5.829   6.044   7.639  0.0048  0.4980  0.2155
22033SOL    HW167712   5.819   6.086   7.724 -2.3090 -0.1414  0.3261
22033SOL    HW267713   5.841   5.951   7.660 -2.2172  0.0791 -0.1083
22034SOL     OW67714   1.457   3.057   7.953 -0.6025 -0.0906  0.0596
22034SOL    HW167715   1.452   3.010   8.036  0.0343 -0.0078  0.1441
22034SOL    HW267716   1.383   3.118   7.956 -0.7262 -0.2548  0.4589
22035SOL     OW67717   5.110   6.153   7.557 -0.7152  0.4279 -0.2447
22035SOL    HW167718   5.072   6.127   7.640  1.2103  1.0738  0.9036
22035SOL    HW267719   5.115   6.071   7.507  0.7384 -0.5779  1.4186
22036SOL     OW67720   2.502   6.376   2.898 -0.0094 -0.1992  0.1523
22036SOL    HW167721   2.479   6.404   2.809 -0.3781  1.1416  0.6397
22036SOL    HW267722   2.485   6.282   2.899  0.7669 -0.3827 -1.4227
22037SOL     OW67723   8.922   3.143   6.286 -0.9693  0.0185  0.6783
22037SOL    HW167724   8.920   3.091   6.366 -0.7200  1.2942  1.5380
22037SOL    HW267725   8.928   3.234   6.316  0.1246  0.4727 -0.7925
22038SOL     OW67726   8.040   5.713   9.090 -0.4825  0.3504 -0.0776
22038SOL    HW167727   7.964   5.666   9.126  0.0858  0.1962  0.9546
22038SOL    HW267728   8.003   5.795   9.058 -1.1037  0.2612  0.3727
22039SOL     OW67729   2.096   8.642   0.669  0.3452  0.4208  0.0916
22039SOL    HW167730   2.068   8.551   0.653  1.1423  0.0921  0.4927
22039SOL    HW267731   2.103   8.648   0.764 -0.9882  1.3223  0.1730
22040SOL     OW67732   5.294   6.400   9.623 -0.2005  0.0443 -0.2087
22040SOL    HW167733   5.330   6.483   9.652 -1.2262  0.2495  0.5312
22040SOL    HW267734   5.276   6.352   9.704  1.3837 -1.3699 -0.6240
22041SOL     OW67735   5.047   8.120   6.824 -0.1469 -0.2025  0.1217
22041SOL    HW167736   5.028   8.089   6.736 -2.8824  0.1393  0.4781
22041SOL    HW267737   5.142   8.122   6.830  0.1113 -2.1054 -2.1290
22042SOL     OW67738   0.296   9.360   7.437  0.0477  0.4501 -0.3220
22042SOL    HW167739   0.263   9.410   7.362 -1.2233  0.5590  0.2714
22042SOL    HW267740   0.258   9.273   7.426 -1.4610  0.8941  0.9763
22043SOL     OW67741   2.824   3.486   5.107 -0.0086 -0.5077  0.3090
22043SOL    HW167742   2.803   3.560   5.050  0.3634  0.8587  1.8805
22043SOL    HW267743   2.893   3.439   5.060 -0.8811 -0.4090 -1.1348
22044SOL     OW67744   7.226   3.021   6.807 -0.0559  0.6741 -0.7014
22044SOL    HW167745   7.316   2.989   6.815 -0.0196  0.4672 -1.8567
22044SOL    HW267746   7.194   2.986   6.724 -1.9491 -1.0467  0.6394
22045SOL     OW67747   8.314   4.868   1.711  0.5475 -0.6332 -0.1095
22045SOL    HW167748   8.276   4.795   1.663 -0.4492 -0.1426 -0.0966
22045SOL    HW267749   8.238   4.918   1.743  1.1514  1.4168 -1.6625
22046SOL     OW67750   9.792   0.858   8.820  0.3564  0.0360  0.2714
22046SOL    HW167751   9.877   0.819   8.797  0.7082  1.3818 -0.8754
22046SOL    HW267752   9.779   0.925   8.754 -2.2100 -0.9295 -0.2952
22047SOL     OW67753   4.993   3.047   2.464 -0.4987  0.5248  0.0714
22047SOL    HW167754   4.923   3.092   2.417  1.0795  0.6737 -2.3184
22047SOL    HW267755   5.070   3.101   2.448  0.7271 -1.1144  0.2054
22048SOL     OW67756   5.783   0.572   6.517  0.2033  0.1699 -0.8668
22048SOL    HW167757   5.814   0.658   6.544 -1.3456  0.7183 -0.7207
22048SOL    HW267758   5.860   0.530   6.478  0.8556  1.8532 -1.5065
22049SOL     OW67759   5.064   8.634   0.700 -0.4072  0.0254 -0.3145
22049SOL    HW167760   5.040   8.686   0.623  0.4656  1.0968  0.1160
22049SOL    HW267761   5.096   8.698   0.763  1.1598 -1.0705  0.0607
22050SOL     OW67762   1.109   0.759   4.790  0.0939 -0.2418 -0.0677
22050SOL    HW167763   1.031   0.703   4.791  0.5345 -0.9194 -1.5068
22050SOL    HW267764   1.087   0.832   4.848 -0.7914 -1.4953  1.2348
22051SOL     OW67765   1.876   1.454   8.931  0.2753 -0.5144 -0.1475
22051SOL    HW167766   1.838   1.395   8.866 -0.4513 -1.3929  1.0316
22051SOL    HW267767   1.953   1.407   8.964 -0.0023 -0.5737  0.4219
22052SOL     OW67768   0.984   5.574   3.115 -0.4716  0.4175 -0.4466
22052SOL    HW167769   0.982   5.490   3.069  0.2459  0.1589 -0.0265
22052SOL    HW267770   1.029   5.554   3.198  1.7223  1.6474 -1.2605
22053SOL     OW67771   6.224   2.237   2.567  0.2155  0.4523  0.5005
22053SOL    HW167772   6.195   2.211   2.655 -0.0220  0.8296  0.5318
22053SOL    HW267773   6.300   2.181   2.550 -1.3567 -1.5985 -0.1807
22054SOL     OW67774   5.594   8.804   0.123 -0.2066 -0.3756 -0.3272
22054SOL    HW167775   5.514   8.805   0.072 -0.6192  0.7502  0.3082
22054SOL    HW267776   5.565   8.790   0.214  0.0352  2.3651  0.2588
22055SOL     OW67777   8.019   4.297   8.173  0.0696 -0.2483 -0.0477
22055SOL    HW167778   7.982   4.267   8.256 -2.6568  2.6713 -0.0119
22055SOL    HW267779   7.999   4.225   8.112  0.2529 -1.5552  1.3550
22056SOL     OW67780   8.465   1.122   6.305  0.2462 -0.5063 -0.9423
22056SOL    HW167781   8.446   1.046   6.250  1.0826  0.0677 -2.0649
22056SOL    HW267782   8.560   1.130   6.304  0.2421 -0.1173  0.1135
22057SOL     OW67783   4.755   0.441   1.363 -0.2633 -0.4882  0.6598
22057SOL    HW167784   4.839   0.438   1.408  0.4797  0.9758 -0.5795
22057SOL    HW267785   4.776   0.435   1.270 -1.7359 -2.9045  0.3832
22058SOL     OW67786   4.668   6.403   7.778  0.2745 -0.3858  0.2040
22058SOL    HW167787   4.686   6.495   7.800  1.4375 -0.8840  1.4756
22058SOL    HW267788   4.622   6.368   7.854  0.2088 -0.9798 -0.1001
22059SOL     OW67789   0.895   4.926   9.406 -0.4186  0.2072  0.7338
22059SOL    HW167790   0.900   4.979   9.327 -3.7719  0.1878  0.3587
22059SOL    HW267791   0.977   4.943   9.452  0.3989  2.4384 -1.3494
22060SOL     OW67792   9.084   6.500   7.513 -0.4047 -0.4505  0.1599
22060SOL    HW167793   9.173   6.493   7.548 -0.5829  0.8331  0.9208
22060SOL    HW267794   9.094   6.487   7.419  0.9231  1.8650 -0.0678
22061SOL     OW67795   8.264   8.051   9.124  0.3009  0.4325  0.0775
22061SOL    HW167796   8.195   8.074   9.061 -0.8092 -0.2671  0.9888
22061SOL    HW267797   8.296   8.136   9.156 -1.1460  0.7897  0.6740
22062SOL     OW67798   7.247   3.949   1.341  0.2272 -0.8625  0.6214
22062SOL    HW167799   7.251   3.915   1.252  0.2390 -3.3553  1.4877
22062SOL    HW267800   7.259   4.043   1.332 -1.2945 -0.8354 -2.1383
22063SOL     OW67801   9.610   2.084   3.335  0.2108 -0.2752  0.1687
22063SOL    HW167802   9.600   2.064   3.428 -0.0658  1.1116  0.4656
22063SOL    HW267803   9.583   2.176   3.327 -1.7710 -0.9278 -1.6381
22064SOL     OW67804   6.236   4.292   9.121 -0.4459 -0.1562 -0.0160
22064SOL    HW167805   6.196   4.205   9.114  0.5339 -0.5306 -1.2626
22064SOL    HW267806   6.187   4.347   9.061  1.7338 -0.9823 -2.7492
22065SOL     OW67807   0.064   6.238   1.605  0.2194  0.2447 -0.0471
22065SOL    HW167808   0.078   6.161   1.661 -0.1714  0.7480  0.7576
22065SOL    HW267809   0.024   6.303   1.663  2.0946  1.6731 -0.2589
22066SOL     OW67810   1.191   4.747   1.309  0.0195 -0.1608  0.2803
22066SOL    HW167811   1.193   4.836   1.345  1.1385  0.2178 -0.6280
22066SOL    HW267812   1.282   4.718   1.313 -0.2701 -1.1071  0.1770
22067SOL     OW67813   2.572   5.667   2.047 -0.1445  0.1475  0.5250
22067SOL    HW167814   2.568   5.688   2.141  0.8739 -0.3374  0.6946
22067SOL    HW267815   2.555   5.573   2.043  0.8116 -0.0275  0.3368
22068SOL     OW67816   6.431   8.265   2.968 -0.1785 -0.6344  0.2038
22068SOL    HW167817   6.524   8.262   2.991 -0.1891 -0.2313  0.3160
22068SOL    HW267818   6.429   8.256   2.873 -0.2650 -4.6261  0.4393
22069SOL     OW67819   3.643   7.342   0.501  0.0433  0.3154  0.5329
22069SOL    HW167820   3.572   7.381   0.450  2.0033  0.5081 -2.2904
22069SOL    HW267821   3.607   7.260   0.534 -0.9085 -0.6925 -2.6927
22070SOL     OW67822   7.564   7.810   1.162  0.2429  0.2284 -0.1428
22070SOL    HW167823   7.531   7.721   1.173 -0.1185  0.6069  2.5453
22070SOL    HW267824   7.629   7.803   1.092  1.6941 -2.6108  1.2845
22071SOL     OW67825   5.917   0.009   8.099 -0.0716  0.5025  0.1575
22071SOL    HW167826   5.939   0.046   8.013  0.4983  1.8062  0.8423
22071SOL    HW267827   5.998   0.017   8.149 -0.5385  0.1911  0.9684
22072SOL     OW67828   4.954   8.057   4.158  0.5279  0.1435  0.0875
22072SOL    HW167829   4.943   8.053   4.253  1.0729 -0.1045  0.1422
22072SOL    HW267830   4.885   8.117   4.129  2.2407  2.7174  0.9896
22073SOL     OW67831   1.744   2.090   3.669 -0.6217 -0.6282  0.5401
22073SOL    HW167832   1.668   2.086   3.611 -1.0811  1.2523  0.9451
22073SOL    HW267833   1.774   2.180   3.664  2.2280 -1.5120 -0.3160
22074SOL     OW67834   9.535   5.341   0.073 -0.3194  0.5505 -0.0006
22074SOL    HW167835   9.620   5.380   0.054 -0.3666  0.5681 -0.1798
22074SOL    HW267836   9.474   5.390   0.018 -0.4162  0.4042 -0.0259
22075SOL     OW67837   8.712   5.805   3.666  0.3192  0.5088 -0.0232
22075SOL    HW167838   8.752   5.861   3.732 -0.6493  0.4504  0.6309
22075SOL    HW267839   8.625   5.842   3.653  0.4605  0.4497 -1.1939
22076SOL     OW67840   1.816   8.979   9.654 -0.0636 -0.0879  0.3139
22076SOL    HW167841   1.782   8.955   9.568  0.1705  0.0589  0.1810
22076SOL    HW267842   1.905   8.944   9.656 -0.9091 -2.3248  1.4600
22077SOL     OW67843   6.576   8.921   2.458  0.3440  0.1210  0.2492
22077SOL    HW167844   6.612   8.913   2.547 -0.6018 -0.2812  0.6196
22077SOL    HW267845   6.590   9.012   2.434  2.5704 -0.2621 -0.0787
22078SOL     OW67846   0.589   5.586   1.816  0.3349 -0.5844  0.3109
22078SOL    HW167847   0.576   5.573   1.722  0.6733  1.6850 -0.1214
22078SOL    HW267848   0.545   5.512   1.857 -3.2527  0.2869 -1.5220
22079SOL     OW67849   5.796   1.414   7.038  0.1581  0.2467 -0.1105
22079SOL    HW167850   5.837   1.472   6.974  1.7731 -1.2211 -0.4836
22079SOL    HW267851   5.850   1.422   7.116 -0.6438  0.5598  0.4168
22080SOL     OW67852   2.820   3.080   0.914 -0.1885  0.1148  0.2339
22080SOL    HW167853   2.781   3.122   0.838 -0.8632  0.1230  0.5769
22080SOL    HW267854   2.900   3.038   0.881 -2.1635 -2.7936 -1.2231
22081SOL     OW67855   1.784   9.698   6.964  0.2116 -0.3617  0.8226
22081SOL    HW167856   1.814   9.712   7.054 -1.6681 -2.1449  1.8304
22081SOL    HW267857   1.719   9.766   6.949 -0.1068 -0.5925  1.1492
22082SOL     OW67858   9.200   1.871   5.288  0.1351  0.0989  0.5293
22082SOL    HW167859   9.191   1.777   5.303 -2.2240  0.2388  0.4307
22082SOL    HW267860   9.180   1.912   5.372  1.3527  0.5343  0.6281
22083SOL     OW67861   9.497   2.957   5.942  0.0882 -0.0888 -0.5373
22083SOL    HW167862   9.517   2.863   5.944 -1.6726 -0.4909 -0.6504
22083SOL    HW267863   9.453   2.974   6.026  1.4023  0.9031 -0.0107
22084SOL     OW67864   4.602   7.464   7.772 -0.0077 -0.8349  0.1311
22084SOL    HW167865   4.617   7.434   7.683  0.1411 -0.2024 -0.0607
22084SOL    HW267866   4.630   7.390   7.827 -1.4820 -1.8080 -0.3537
22085SOL     OW67867   1.227   7.728   3.496  0.0416 -0.1357 -0.1947
22085SOL    HW167868   1.282   7.681   3.559  0.2229 -0.8445 -0.8628
22085SOL    HW267869   1.165   7.663   3.465 -0.2213  0.2788 -0.5438
22086SOL     OW67870   6.416   2.938   1.750  0.5266  0.1860  0.3564
22086SOL    HW167871   6.337   2.909   1.705  0.8452 -4.4761  2.2948
22086SOL    HW267872   6.486   2.929   1.685  0.1573 -0.7252  0.0680
22087SOL     OW67873   6.301   5.548   1.287 -0.2578  0.0725 -0.0768
22087SOL    HW167874   6.233   5.614   1.297 -0.7790 -0.3291 -0.9169
22087SOL    HW267875   6.255   5.465   1.284  0.4033 -0.3520  1.0396
22088SOL     OW67876   7.956   0.180   1.027  0.0041 -0.6683  0.5337
22088SOL    HW167877   8.005   0.257   0.998 -0.9511 -0.0320  0.5799
22088SOL    HW267878   7.971   0.176   1.121 -0.8919  0.1672  0.7287
22089SOL     OW67879   3.558   7.128   8.439  0.1653  0.2262 -0.3634
22089SOL    HW167880   3.518   7.064   8.499 -0.3996  1.0037  0.1117
22089SOL    HW267881   3.549   7.088   8.352  2.1835 -1.5332  0.1421
22090SOL     OW67882   6.477   0.299   4.727  0.1103  0.0136 -0.3685
22090SOL    HW167883   6.448   0.229   4.669  2.4524 -1.1920 -0.1937
22090SOL    HW267884   6.396   0.337   4.761 -1.2541 -1.3899 -1.8837
22091SOL     OW67885   6.485   5.666   9.240  0.5279 -0.4980 -0.2273
22091SOL    HW167886   6.555   5.602   9.230  1.5959  0.7229 -1.0325
22091SOL    HW267887   6.409   5.616   9.267  1.9657 -1.7606  1.6969
22092SOL     OW67888   8.017   2.155   3.466  0.2145 -0.1441  0.3408
22092SOL    HW167889   8.046   2.221   3.529  1.6735 -1.7593  1.4679
22092SOL    HW267890   8.042   2.071   3.506 -0.8260 -1.3547 -1.3953
22093SOL     OW67891   6.003   0.028   7.819 -0.6972 -0.1042 -0.1282
22093SOL    HW167892   5.908   0.025   7.810 -0.6831  0.5775 -0.5500
22093SOL    HW267893   6.035  -0.040   7.758 -0.8597  0.5974 -1.0109
22094SOL     OW67894   6.173   3.757   8.650  0.1497 -0.4022  0.0238
22094SOL    HW167895   6.147   3.723   8.736  0.4321  0.2134  0.3553
22094SOL    HW267896   6.199   3.847   8.667  1.1888 -0.5844 -0.5400
22095SOL     OW67897   8.333   0.895   5.413 -0.2528  0.4986 -0.1512
22095SOL    HW167898   8.323   0.875   5.506  1.3291 -0.2729 -0.1079
22095SOL    HW267899   8.304   0.986   5.405 -1.2012  0.3160  0.9195
22096SOL     OW67900   2.350   2.398   7.684 -0.0732 -0.4531 -0.0451
22096SOL    HW167901   2.325   2.478   7.730 -1.1616  0.4585 -2.0813
22096SOL    HW267902   2.307   2.328   7.734 -0.9359  0.4462  0.5237
22097SOL     OW67903   8.907   1.731   6.368 -0.6844 -0.0381 -0.1886
22097SOL    HW167904   8.843   1.661   6.375 -1.4816  0.6454 -0.4809
22097SOL    HW267905   8.968   1.715   6.440  0.9646 -2.7898 -1.9971
22098SOL     OW67906   6.517   2.322   4.859 -0.2857 -0.3738 -0.4712
22098SOL    HW167907   6.442   2.323   4.800 -1.4235 -1.9925  0.8793
22098SOL    HW267908   6.543   2.231   4.864 -0.1725 -0.2710  1.4417
22099SOL     OW67909   8.879   7.098   1.790 -0.0991  0.3858  0.6602
22099SOL    HW167910   8.794   7.056   1.798  0.6628 -1.3833  0.0036
22099SOL    HW267911   8.894   7.138   1.876 -0.8976 -0.6534  1.3036
22100SOL     OW67912   6.188   0.465   5.672 -0.5794  0.1219 -0.8838
22100SOL    HW167913   6.237   0.464   5.755 -2.8622 -0.0590  0.5453
22100SOL    HW267914   6.197   0.555   5.641 -0.4734  0.4524  0.0674
22101SOL     OW67915   5.175   4.285   9.488 -1.0269  0.0714  0.5005
22101SOL    HW167916   5.158   4.227   9.414 -2.5400 -0.6822  1.3750
22101SOL    HW267917   5.130   4.243   9.561  2.1899 -0.3856  2.4130
22102SOL     OW67918   1.367   8.738   2.011  0.0633  0.6661 -0.2797
22102SOL    HW167919   1.299   8.785   2.059 -0.7946  0.2282 -1.0289
22102SOL    HW267920   1.397   8.800   1.945  0.8181  1.0592  0.4143
22103SOL     OW67921   1.891   8.032   5.882  0.5948  0.2261  0.0469
22103SOL    HW167922   1.869   7.942   5.903  1.5062 -0.0996 -0.3715
22103SOL    HW267923   1.981   8.029   5.850 -0.5580  0.7074 -3.7839
22104SOL     OW67924   5.653   0.868   6.920 -0.2799  0.2136  0.8858
22104SOL    HW167925   5.679   0.883   7.011 -0.9932  1.9674  0.8389
22104SOL    HW267926   5.686   0.945   6.872 -2.3352  0.7521  0.1991
22105SOL     OW67927   4.945   5.821   8.982  0.0280  0.2784  0.5158
22105SOL    HW167928   4.916   5.776   8.903 -2.4220 -0.1475  1.5748
22105SOL    HW267929   4.949   5.914   8.956  0.4967  0.0056 -0.4206
22106SOL     OW67930   7.512   5.464   3.817  0.2181  0.0528 -0.4034
22106SOL    HW167931   7.592   5.494   3.774 -0.1156  0.0939 -1.0221
22106SOL    HW267932   7.540   5.431   3.902  1.0425 -0.9143 -1.0324
22107SOL     OW67933   7.472   9.657   1.701  0.2083 -0.0650 -0.3160
22107SOL    HW167934   7.453   9.576   1.654  0.2095  0.5575 -1.4098
22107SOL    HW267935   7.393   9.709   1.693 -0.1886 -0.3508  1.2977
22108SOL     OW67936   8.235   8.832   1.405 -0.1936  0.0645  0.0181
22108SOL    HW167937   8.221   8.772   1.478 -1.5446  1.1007  0.6526
22108SOL    HW267938   8.261   8.914   1.446 -0.6734  0.5797 -0.6838
22109SOL     OW67939   2.153   2.090   5.643  0.6626  0.3054  0.1989
22109SOL    HW167940   2.195   2.039   5.573  0.6106 -0.0948  0.4588
22109SOL    HW267941   2.189   2.178   5.633  2.0521 -0.1722  0.8088
22110SOL     OW67942   1.021   8.517   6.433 -0.1657 -0.1608 -0.1110
22110SOL    HW167943   0.985   8.460   6.366  0.7019 -1.2234  0.2991
22110SOL    HW267944   1.074   8.580   6.384 -0.7681  0.0309 -0.5308
22111SOL     OW67945   7.820   3.933   9.464 -0.0253 -0.1387 -0.1107
22111SOL    HW167946   7.807   3.947   9.558  0.8335  0.8909 -0.1345
22111SOL    HW267947   7.912   3.908   9.456 -0.5953 -2.3947 -0.4749
22112SOL     OW67948   5.863   9.673   9.276  0.1043 -0.1255 -0.4089
22112SOL    HW167949   5.811   9.750   9.253  0.3267 -0.3892 -1.8855
22112SOL    HW267950   5.836   9.651   9.365 -1.1166  0.7150 -0.5541
22113SOL     OW67951   5.258   6.876   1.916  0.0331 -0.2835 -0.0481
22113SOL    HW167952   5.246   6.920   1.832  1.6256 -0.2156 -0.2684
22113SOL    HW267953   5.170   6.871   1.953 -0.6362  0.0848 -1.5106
22114SOL     OW67954   5.576   5.245   0.558  0.2444 -0.1296 -0.8053
22114SOL    HW167955   5.488   5.224   0.526  0.3092 -0.3643 -0.8320
22114SOL    HW267956   5.574   5.339   0.572 -0.7803 -0.4382  1.5063
22115SOL     OW67957   9.596   0.754   3.833 -0.1704  0.3380 -0.2858
22115SOL    HW167958   9.571   0.700   3.757  1.7413 -0.1723 -0.5969
22115SOL    HW267959   9.689   0.772   3.820  0.2003  0.2956  1.9194
22116SOL     OW67960   3.761   5.933   7.135  0.0857  0.6285  0.0935
22116SOL    HW167961   3.745   5.848   7.176 -0.5470  0.9968  0.6382
22116SOL    HW267962   3.772   5.914   7.042  0.8608 -0.1483  0.3385
22117SOL     OW67963   3.528   9.785   0.213  0.1786  0.0801 -0.0600
22117SOL    HW167964   3.585   9.859   0.234 -0.7665  0.9964 -0.5715
22117SOL    HW267965   3.440   9.816   0.235 -0.3679 -0.4533 -1.3765
22118SOL     OW67966   7.073   9.159   4.635  0.2363 -0.2769 -0.2519
22118SOL    HW167967   7.131   9.102   4.685 -0.1756 -0.2750  0.2305
22118SOL    HW267968   7.086   9.132   4.544 -1.5311 -2.6284  0.1144
22119SOL     OW67969   0.932   4.212   6.164  0.5129 -0.2901  0.2082
22119SOL    HW167970   0.860   4.178   6.111  0.2908 -1.0819  1.0078
22119SOL    HW267971   0.913   4.182   6.253  0.7338  1.2386  0.8040
22120SOL     OW67972   7.960   2.902   5.382  0.1404  0.3663 -0.1177
22120SOL    HW167973   7.981   2.809   5.373  1.7485  0.5295  1.3746
22120SOL    HW267974   8.041   2.947   5.359 -0.9602  1.5026 -2.0091
22121SOL     OW67975   7.808   6.372   5.757  0.0614  0.1384 -0.0703
22121SOL    HW167976   7.824   6.430   5.831 -1.1151  0.7692 -0.2758
22121SOL    HW267977   7.713   6.358   5.758  0.2569 -1.4181 -0.3092
22122SOL     OW67978   9.513   6.481   0.473 -0.1451  0.2854  0.3700
22122SOL    HW167979   9.435   6.426   0.482 -0.8793  1.2913  0.3985
22122SOL    HW267980   9.483   6.568   0.499  1.3514  0.4307  1.7527
22123SOL     OW67981   2.057   8.994   2.942  0.9027 -0.8367 -0.3601
22123SOL    HW167982   2.101   9.052   2.879  2.0344  1.0394  1.9738
22123SOL    HW267983   1.969   9.030   2.950  1.3604  0.1329  0.5071
22124SOL     OW67984   3.493   9.240   9.564 -0.0811 -0.1056  0.2973
22124SOL    HW167985   3.431   9.167   9.574  0.1827 -0.4612 -0.5192
22124SOL    HW267986   3.575   9.206   9.600 -0.0394 -0.1004  0.2071
22125SOL     OW67987   5.213   8.353   0.466  0.0665 -0.2036 -0.3416
22125SOL    HW167988   5.190   8.278   0.412  0.0648  0.1827 -0.8741
22125SOL    HW267989   5.229   8.424   0.405 -1.1705  0.5867  0.2093
22126SOL     OW67990   0.350   1.146   1.808 -0.3771 -0.2001  0.3251
22126SOL    HW167991   0.444   1.141   1.791 -0.6839  1.0069 -2.1170
22126SOL    HW267992   0.330   1.066   1.857  1.5429 -1.5908 -1.0372
22127SOL     OW67993   8.266   4.662   8.479  0.0211 -0.3069  0.1218
22127SOL    HW167994   8.333   4.680   8.546 -0.2793 -2.3027  1.0098
22127SOL    HW267995   8.299   4.585   8.433 -0.3749  0.3279 -1.2798
22128SOL     OW67996   5.186   8.919   6.362 -1.0301 -0.4748  0.5850
22128SOL    HW167997   5.210   8.849   6.302  0.6659  1.5236 -1.2368
22128SOL    HW267998   5.194   8.880   6.449  3.5767 -1.6279 -0.1280
22129SOL     OW67999   9.638   5.968   3.320  0.0334 -0.1677 -0.3041
22129SOL    HW168000   9.610   5.878   3.301 -0.0625 -0.1218 -0.3835
22129SOL    HW268001   9.640   5.972   3.415 -0.5920 -0.0632 -0.2923
22130SOL     OW68002   1.995   1.272   3.218 -0.2523  0.0960  0.3956
22130SOL    HW168003   2.055   1.336   3.259  0.5771 -0.0442 -0.5528
22130SOL    HW268004   2.001   1.291   3.125  1.1686 -2.2852 -0.0903
22131SOL     OW68005   8.424   0.256   3.483  0.3058  0.1941 -0.1093
22131SOL    HW168006   8.515   0.227   3.489 -0.1742 -1.2548  0.5928
22131SOL    HW268007   8.375   0.195   3.538 -1.1627  0.6850 -0.8082
22132SOL     OW68008   7.922   9.358   1.974  0.2394 -0.0540  0.5241
22132SOL    HW168009   7.869   9.387   2.048 -2.2044  0.2151 -1.1815
22132SOL    HW268010   7.936   9.438   1.922 -0.0356 -0.6048 -0.4239
22133SOL     OW68011   3.314   6.470   5.097  0.0022 -0.4320  1.1112
22133SOL    HW168012   3.277   6.451   5.183  0.2076  1.1859  1.5959
22133SOL    HW268013   3.240   6.498   5.044  0.1058  0.1446  1.2617
22134SOL     OW68014   1.049   0.085   0.853 -0.5196 -0.1856 -0.2639
22134SOL    HW168015   1.102   0.042   0.920 -1.3455  0.3968  0.7964
22134SOL    HW268016   1.019   0.013   0.797  0.1110 -0.7004  0.0449
22135SOL     OW68017   0.197   5.835   0.634 -0.0109  0.3036  0.0005
22135SOL    HW168018   0.129   5.767   0.629  2.3394 -2.2276 -0.1162
22135SOL    HW268019   0.257   5.814   0.563  0.7693  2.6569 -0.1086
22136SOL     OW68020   8.127   9.812   4.399 -0.7581 -0.1264  0.4130
22136SOL    HW168021   8.218   9.843   4.404 -0.9643  0.4290  0.8402
22136SOL    HW268022   8.081   9.880   4.350 -1.2269  0.2866  1.4072
22137SOL     OW68023   0.908   0.788   6.222  0.1680  0.0265  0.0776
22137SOL    HW168024   0.894   0.717   6.159 -0.1272 -0.5602  0.7936
22137SOL    HW268025   0.842   0.854   6.199 -1.2222 -1.0099  0.9449
22138SOL     OW68026   3.233   7.231   7.965 -0.3235 -0.3039  0.1774
22138SOL    HW168027   3.321   7.230   8.001 -0.0842  0.4256 -0.3578
22138SOL    HW268028   3.197   7.316   7.991  0.4124  0.9586 -2.5149
22139SOL     OW68029   5.252   1.620   0.336 -0.0010 -0.0117  0.2137
22139SOL    HW168030   5.289   1.667   0.410  1.7875 -1.3044  0.2077
22139SOL    HW268031   5.157   1.631   0.345  0.2321  0.7683  2.0618
22140SOL     OW68032   2.489   9.297   9.247 -0.1323 -0.2311 -0.2804
22140SOL    HW168033   2.468   9.347   9.168 -0.1395  1.3404  0.6682
22140SOL    HW268034   2.535   9.220   9.215  1.0843  1.0230 -1.7452
22141SOL     OW68035   6.845   6.382   7.551  0.0810 -0.1001 -0.6735
22141SOL    HW168036   6.809   6.378   7.462 -1.6022  1.5724 -0.1327
22141SOL    HW268037   6.793   6.318   7.600  1.7249 -1.8188 -1.0487
22142SOL     OW68038   1.836   9.270   0.657  0.2599  0.4086  0.0390
22142SOL    HW168039   1.923   9.230   0.672  0.4061  0.7996  0.2417
22142SOL    HW268040   1.802   9.285   0.745 -0.0667  0.1478 -0.0425
22143SOL     OW68041   1.226   4.306   6.355  0.0967  0.1537  0.2630
22143SOL    HW168042   1.296   4.241   6.365 -1.3689 -1.4277  0.7223
22143SOL    HW268043   1.155   4.258   6.312 -1.3537  1.1972  1.3898
22144SOL     OW68044   7.795   0.671   6.131 -0.2576 -0.0787 -0.3495
22144SOL    HW168045   7.818   0.591   6.179 -0.6432 -1.1599 -1.9010
22144SOL    HW268046   7.878   0.716   6.120 -0.0465 -0.1992  0.6392
22145SOL     OW68047   0.908   1.438   7.127  0.2150 -0.0840  0.0634
22145SOL    HW168048   0.956   1.476   7.200  1.6423 -0.7394 -0.5133
22145SOL    HW268049   0.816   1.458   7.147  0.6069  0.2186  1.7512
22146SOL     OW68050   8.720   6.712   3.040  0.0569  0.3858  0.1976
22146SOL    HW168051   8.718   6.754   3.126  0.1346 -1.0919  0.9505
22146SOL    HW268052   8.675   6.774   2.982  0.7064  1.7671  1.1177
22147SOL     OW68053   1.611   9.034   3.729 -0.0959 -0.5424  0.1748
22147SOL    HW168054   1.606   8.938   3.725 -0.0311 -0.5197 -0.9949
22147SOL    HW268055   1.596   9.056   3.821  1.9933 -1.7945  0.8859
22148SOL     OW68056   5.748   5.948   5.850  0.0516 -0.6628 -0.7557
22148SOL    HW168057   5.788   5.904   5.926 -0.7870  1.2774  0.9212
22148SOL    HW268058   5.664   5.902   5.838  0.6145 -1.6165 -1.1817
22149SOL     OW68059   7.896   6.123   9.777  0.3592  0.9359  0.4662
22149SOL    HW168060   7.808   6.120   9.815  0.3662  0.2376  0.4395
22149SOL    HW268061   7.952   6.151   9.849  0.1175  1.3977  0.4797
22150SOL     OW68062   5.480   2.140   0.199 -0.1022  0.1578  0.1748
22150SOL    HW168063   5.515   2.225   0.224  1.1867 -0.3568  0.2308
22150SOL    HW268064   5.430   2.156   0.120 -1.0394  1.1845  0.9477
22151SOL     OW68065   7.574   2.041   5.244 -0.3593  0.4595 -0.3696
22151SOL    HW168066   7.614   2.102   5.306  0.0020  0.3849 -0.5268
22151SOL    HW268067   7.579   1.956   5.287 -2.0359  0.7116  0.4184
22152SOL     OW68068   9.607   5.363   6.678 -0.0541  0.1686 -0.0153
22152SOL    HW168069   9.544   5.434   6.692  0.3886  0.4914  0.3520
22152SOL    HW268070   9.583   5.327   6.592  0.3937  1.4586 -0.7132
22153SOL     OW68071   7.693   0.555   9.842 -0.2602 -0.1325  0.8363
22153SOL    HW168072   7.691   0.485   9.777 -0.0566 -0.4614  1.1783
22153SOL    HW268073   7.779   0.548   9.883 -0.6462 -0.3935  1.6315
22154SOL     OW68074   4.425   3.595   3.285 -0.4347  0.5445  0.3097
22154SOL    HW168075   4.378   3.516   3.258  0.3701  0.3757 -0.6486
22154SOL    HW268076   4.432   3.647   3.206 -2.0743  2.2184  1.1809
22155SOL     OW68077   4.256   7.174   0.715 -0.2983  0.0753 -0.4181
22155SOL    HW168078   4.298   7.104   0.664 -1.7742 -1.9907  1.0676
22155SOL    HW268079   4.322   7.200   0.780  0.4287  0.4586 -1.2879
22156SOL     OW68080   5.326   7.011   3.639  0.4970  0.9834  0.1297
22156SOL    HW168081   5.398   6.960   3.676 -0.4870  0.3625  1.2752
22156SOL    HW268082   5.287   6.954   3.573  0.4153  0.9094  0.2423
22157SOL     OW68083   5.418   2.181   6.883 -0.5474  0.0872  0.6515
22157SOL    HW168084   5.477   2.236   6.832  0.3304 -0.9832  0.4904
22157SOL    HW268085   5.424   2.216   6.972 -0.5704  0.7025  0.4222
22158SOL     OW68086   0.647   5.910   4.548  0.0191 -0.3442  0.1812
22158SOL    HW168087   0.713   5.968   4.511 -0.2081  0.8458  1.5359
22158SOL    HW268088   0.697   5.839   4.590  0.4400  0.2771  0.7596
22159SOL     OW68089   9.007   5.147   1.390 -0.1816  0.0448  0.0804
22159SOL    HW168090   9.003   5.194   1.474  1.4584 -1.2993  0.9877
22159SOL    HW268091   9.080   5.187   1.344  0.6276 -0.9473  0.4652
22160SOL     OW68092   2.303   3.274   2.953  0.1651 -0.1466  0.2909
22160SOL    HW168093   2.298   3.233   3.040 -1.5745  1.8572  1.2088
22160SOL    HW268094   2.323   3.366   2.971 -0.7921  0.4309 -1.3838
22161SOL     OW68095   1.998   0.846   2.786  0.1129 -0.1282  0.1022
22161SOL    HW168096   1.917   0.876   2.827 -0.9453 -1.6508 -0.7712
22161SOL    HW268097   1.970   0.781   2.722  1.7837  1.2182 -2.1749
22162SOL     OW68098   0.469   1.496   6.517 -0.0989 -0.2020 -0.0323
22162SOL    HW168099   0.541   1.558   6.508  0.8955 -1.3148 -0.0841
22162SOL    HW268100   0.439   1.481   6.428  0.9142 -1.1831 -0.2349
22163SOL     OW68101   9.154   1.622   2.486  0.0299  0.2010 -0.1831
22163SOL    HW168102   9.095   1.567   2.435 -0.3704 -0.1471  0.6202
22163SOL    HW268103   9.114   1.626   2.573  0.4798  1.0946  0.0058
22164SOL     OW68104   5.315   0.372   6.526 -0.3966 -0.5471  0.0095
22164SOL    HW168105   5.394   0.347   6.574 -0.6351 -1.3020  0.0352
22164SOL    HW268106   5.263   0.423   6.589  0.4837  0.7719 -0.3085
22165SOL     OW68107   5.951   2.591   5.604 -0.0716 -0.0302  0.7368
22165SOL    HW168108   5.894   2.667   5.614  0.1735  0.3154 -0.3190
22165SOL    HW268109   5.899   2.528   5.554  0.7137  0.6229 -0.9996
22166SOL     OW68110   4.492   9.457   8.941 -0.0602  0.2558  0.1521
22166SOL    HW168111   4.493   9.374   8.893 -0.1313 -0.7831  1.8394
22166SOL    HW268112   4.560   9.446   9.008 -0.7158  1.1913  0.9945
22167SOL     OW68113   5.906   7.290   6.316  0.3078  0.1769 -0.0367
22167SOL    HW168114   5.929   7.210   6.364 -0.8027  0.3035  0.7442
22167SOL    HW268115   5.937   7.361   6.372  0.8360  0.3128 -0.4907
22168SOL     OW68116   2.744   2.091   7.913  0.4277  0.5236 -0.7032
22168SOL    HW168117   2.819   2.141   7.883  0.1597  0.9745 -0.6267
22168SOL    HW268118   2.673   2.113   7.852  0.4440 -0.1577 -0.9775
22169SOL     OW68119   5.643   7.733   5.026 -0.6119 -0.1464 -0.4988
22169SOL    HW168120   5.647   7.638   5.031 -0.9667 -0.1398 -0.0672
22169SOL    HW268121   5.565   7.757   5.075  0.2638  0.4654  0.6597
22170SOL     OW68122   6.642   4.523   5.652 -0.6294  0.4523 -0.2822
22170SOL    HW168123   6.585   4.598   5.637 -0.4267  1.3024  2.6833
22170SOL    HW268124   6.727   4.561   5.673 -0.0919 -0.6659 -0.3429
22171SOL     OW68125   4.277   0.858   1.826 -0.8669  1.0603 -0.1816
22171SOL    HW168126   4.354   0.895   1.782 -0.4308  1.5678  0.9882
22171SOL    HW268127   4.269   0.907   1.907 -1.5201 -0.0168  0.4323
22172SOL     OW68128   5.255   8.099   5.146  0.2417 -0.3741 -0.1277
22172SOL    HW168129   5.251   8.156   5.070 -1.6728  0.2829  0.4066
22172SOL    HW268130   5.226   8.014   5.113  0.4274 -0.3535 -0.3463
22173SOL     OW68131   1.101   2.838   3.204 -0.5329 -0.0518 -0.1099
22173SOL    HW168132   1.176   2.818   3.260 -0.8192 -1.4216 -0.1876
22173SOL    HW268133   1.139   2.870   3.123 -0.0214 -0.5968 -0.0907
22174SOL     OW68134   5.362   5.385   4.274  0.1394  0.3360  0.8612
22174SOL    HW168135   5.299   5.417   4.338 -1.0136 -0.9703  0.4463
22174SOL    HW268136   5.430   5.343   4.326 -0.1310  0.4004  1.2695
22175SOL     OW68137   7.453   5.034   6.123  0.0083 -0.6595  0.0208
22175SOL    HW168138   7.391   5.098   6.090 -0.1667 -0.4608  0.7113
22175SOL    HW268139   7.517   5.086   6.173  0.6488 -0.8755 -0.5605
22176SOL     OW68140   3.953   3.611   0.611 -0.0704  0.2822 -0.3483
22176SOL    HW168141   4.030   3.556   0.629 -0.9024 -0.4943  0.9144
22176SOL    HW268142   3.917   3.632   0.697 -1.2327  0.7152 -0.9199
22177SOL     OW68143   7.927   0.624   9.088  0.1820  0.5832 -0.4654
22177SOL    HW168144   8.000   0.685   9.093  2.4317 -1.9555  0.2808
22177SOL    HW268145   7.913   0.595   9.178 -0.7872 -0.0609 -0.7969
22178SOL     OW68146   5.113   1.497   2.024 -0.0153 -0.3712  0.1724
22178SOL    HW168147   5.156   1.537   1.948 -0.5697 -2.2101 -1.1719
22178SOL    HW268148   5.064   1.423   1.988 -1.1444 -0.6804  2.1989
22179SOL     OW68149   5.760   1.135   3.136 -0.6958  0.4331 -0.4213
22179SOL    HW168150   5.692   1.144   3.069  0.4932  0.5019 -1.6797
22179SOL    HW268151   5.753   1.044   3.165 -2.2061  0.8204  0.4789
22180SOL     OW68152   4.618   5.929   1.195 -0.3574 -0.0505 -0.1332
22180SOL    HW168153   4.589   5.842   1.168  0.6635 -0.0205 -1.3682
22180SOL    HW268154   4.647   5.917   1.286 -2.5135 -0.4478  0.5637
22181SOL     OW68155   9.055   0.038   1.937 -0.2009  0.3184 -0.3818
22181SOL    HW168156   9.083   0.074   1.852 -0.0634 -0.2384 -0.5739
22181SOL    HW268157   9.136   0.028   1.986 -0.3997  1.9326  0.3396
22182SOL     OW68158   8.314   9.256   9.627 -0.8927 -0.0762 -0.8443
22182SOL    HW168159   8.257   9.188   9.663 -0.7677 -0.5362 -1.5006
22182SOL    HW268160   8.270   9.338   9.650 -0.6975 -0.3243  0.5612
22183SOL     OW68161   9.091   9.180   0.322 -0.8314 -0.2566  0.1889
22183SOL    HW168162   9.122   9.261   0.281 -2.0754 -0.6675 -1.6620
22183SOL    HW268163   9.055   9.129   0.250 -0.1200 -2.4769  1.3266
22184SOL     OW68164   9.675   9.052   1.455  0.0048 -0.1330 -0.2316
22184SOL    HW168165   9.695   8.990   1.525 -1.3455 -1.3765 -0.8969
22184SOL    HW268166   9.650   9.133   1.501 -0.0452 -0.6541  0.6873
22185SOL     OW68167   4.818   2.643   0.022  0.2263  0.2475  0.1625
22185SOL    HW168168   4.726   2.617   0.013  0.2686 -0.4843  1.5602
22185SOL    HW268169   4.858   2.617  -0.061 -0.4367 -1.2214  0.2620
22186SOL     OW68170   0.619   4.830   1.556  0.3914  0.3065 -0.6214
22186SOL    HW168171   0.649   4.917   1.529 -0.1419  0.7841  0.3068
22186SOL    HW268172   0.547   4.810   1.496 -0.1235  0.9282 -0.2262
22187SOL     OW68173   0.054   0.418   2.953 -0.4920  0.3071  0.4745
22187SOL    HW168174   0.024   0.426   2.862  0.6617 -0.7632 -0.0319
22187SOL    HW268175   0.056   0.324   2.969  1.4770  0.3595  0.8225
22188SOL     OW68176   7.908   2.488   1.122 -0.0117  0.2855 -0.0404
22188SOL    HW168177   7.857   2.568   1.106 -0.7166 -0.2153 -0.3450
22188SOL    HW268178   7.894   2.435   1.043 -1.8442 -1.3432  1.2846
22189SOL     OW68179   5.155   2.747   7.786  0.3901 -0.4171  0.0076
22189SOL    HW168180   5.066   2.781   7.777  0.8031  0.7334  0.2361
22189SOL    HW268181   5.144   2.652   7.784 -1.1535 -0.4023  2.7095
22190SOL     OW68182   6.564   8.445   2.700  0.0952 -0.2153 -0.3998
22190SOL    HW168183   6.503   8.372   2.705 -0.3878  0.1509 -0.8132
22190SOL    HW268184   6.579   8.458   2.606  1.1927 -0.6078 -0.2941
22191SOL     OW68185   8.566   0.281   6.084  0.0866  0.0478  0.0234
22191SOL    HW168186   8.562   0.209   6.146  3.2612  0.2089  0.5589
22191SOL    HW268187   8.627   0.252   6.016  0.8519  1.9008 -0.1428
22192SOL     OW68188   7.388   5.348   6.703  0.2246 -0.1044  0.2859
22192SOL    HW168189   7.436   5.423   6.740 -0.4716  0.0014  0.9779
22192SOL    HW268190   7.296   5.369   6.715 -0.0606  0.0049 -1.6535
22193SOL     OW68191   0.230   7.129   8.250  0.2606  0.2995  0.2347
22193SOL    HW168192   0.299   7.154   8.189  1.0156  0.3152  1.0699
22193SOL    HW268193   0.213   7.037   8.231 -0.6208  0.6972 -1.0324
22194SOL     OW68194   7.703   6.557   1.846  0.2423  0.0168  0.0823
22194SOL    HW168195   7.734   6.563   1.755 -1.0084 -1.7581 -0.5246
22194SOL    HW268196   7.773   6.511   1.892  0.9357  1.0318  0.0622
22195SOL     OW68197   7.997   2.515   4.256  0.7220  0.4498  0.6122
22195SOL    HW168198   8.039   2.486   4.174 -0.2294  1.9451 -0.4686
22195SOL    HW268199   8.055   2.483   4.325  1.8791 -0.3633 -0.6702
22196SOL     OW68200   5.442   4.782   0.155  0.5429 -0.6617 -0.5546
22196SOL    HW168201   5.498   4.805   0.080 -2.8117  1.1338 -2.7551
22196SOL    HW268202   5.399   4.701   0.129  1.0420 -1.2865  0.5074
22197SOL     OW68203   6.178   4.849   7.601  0.4027  0.3332  0.2710
22197SOL    HW168204   6.156   4.784   7.667  2.4411 -0.8004 -0.1004
22197SOL    HW268205   6.196   4.929   7.651  0.0591  0.0129  0.9172
22198SOL     OW68206   8.864   3.952   0.198  0.6656 -0.3742  0.4613
22198SOL    HW168207   8.800   3.973   0.265  0.1700 -1.1627  0.2465
22198SOL    HW268208   8.813   3.916   0.126  0.9617  2.1266 -1.1219
22199SOL     OW68209   4.711   9.357   0.381 -0.4534  0.5982  0.5874
22199SOL    HW168210   4.781   9.420   0.369 -0.1931 -0.0764 -2.2347
22199SOL    HW268211   4.635   9.397   0.337 -1.4217  0.6185  2.1997
22200SOL     OW68212   4.383   0.420   7.452  0.5511  0.7734 -0.4305
22200SOL    HW168213   4.433   0.342   7.474  0.1246  0.2663 -1.2207
22200SOL    HW268214   4.388   0.475   7.531  1.3613  0.2238 -0.0931
22201SOL     OW68215   6.336   2.930   0.509 -0.7206 -0.1670 -0.3181
22201SOL    HW168216   6.263   2.992   0.505 -0.8344 -0.3452 -1.4581
22201SOL    HW268217   6.402   2.969   0.451 -0.6324 -0.8886 -0.7143
22202SOL     OW68218   5.318   9.641   5.711 -0.2619  0.2559 -0.2309
22202SOL    HW168219   5.244   9.631   5.771  0.1791  0.5062  0.3676
22202SOL    HW268220   5.384   9.688   5.762  0.3349 -0.0208 -0.7314
22203SOL     OW68221   8.392   2.447   2.344  0.2888  0.0358 -0.3847
22203SOL    HW168222   8.455   2.496   2.398 -0.2582 -1.5353  1.8189
22203SOL    HW268223   8.306   2.480   2.372  0.0237  0.7524 -1.9432
22204SOL     OW68224   9.795   1.454   4.379  0.0941 -0.0875  0.4731
22204SOL    HW168225   9.875   1.403   4.366  0.4386  0.6142 -0.2968
22204SOL    HW268226   9.813   1.538   4.337 -1.9352 -0.7748 -2.0930
22205SOL     OW68227   7.498   7.577   6.208 -0.2890  0.1981  0.7024
22205SOL    HW168228   7.489   7.629   6.128  2.9288 -0.8816 -0.5391
22205SOL    HW268229   7.538   7.636   6.271  0.3685  0.1305  0.3551
22206SOL     OW68230   2.168   0.863   7.552  0.4203 -0.5276  0.4099
22206SOL    HW168231   2.243   0.805   7.568  0.8956  0.3691  1.6572
22206SOL    HW268232   2.208   0.947   7.527 -0.1352  0.0895  1.5183
22207SOL     OW68233   9.614   4.236   8.612  0.1725 -0.0937  0.4634
22207SOL    HW168234   9.632   4.148   8.646 -0.5299 -0.4941 -0.1673
22207SOL    HW268235   9.527   4.229   8.572 -0.0741  1.0049  0.7810
22208SOL     OW68236   8.644   2.752   9.280 -0.1368 -0.2113  0.0901
22208SOL    HW168237   8.562   2.707   9.260  0.4476 -0.5193 -1.8843
22208SOL    HW268238   8.686   2.763   9.195  1.0250  1.6134  0.8302
22209SOL     OW68239   3.669   3.786   1.574 -0.2073  0.3903  0.1876
22209SOL    HW168240   3.717   3.764   1.654 -0.9494 -0.0675  0.5202
22209SOL    HW268241   3.708   3.729   1.507  0.4177  0.7762  0.2193
22210SOL     OW68242   7.468   2.170   9.842 -0.3142 -0.1139 -0.0313
22210SOL    HW168243   7.546   2.220   9.864  0.5182 -1.7843  1.1047
22210SOL    HW268244   7.497   2.078   9.846 -2.0680 -0.7360 -0.6970
22211SOL     OW68245   3.591   5.080   5.333 -0.5757 -0.0617  0.3533
22211SOL    HW168246   3.641   5.047   5.408 -1.2836  0.3518  1.0326
22211SOL    HW268247   3.556   5.002   5.291  0.3034 -0.3324  0.0987
22212SOL     OW68248   7.113   6.297   3.819  0.3424 -0.3640  0.9263
22212SOL    HW168249   7.066   6.295   3.736  0.4695  0.1548  0.8419
22212SOL    HW268250   7.174   6.223   3.814  2.3494  1.3002 -0.6067
22213SOL     OW68251   1.070   2.265   5.243  0.1080  0.1692 -0.0539
22213SOL    HW168252   1.054   2.289   5.335  1.6341  0.4986  0.1544
22213SOL    HW268253   1.114   2.180   5.248  0.3955  0.2948 -0.4820
22214SOL     OW68254   2.113   6.805   3.764  0.5031 -0.1390 -0.4399
22214SOL    HW168255   2.106   6.886   3.815  0.0989 -0.6066  0.2644
22214SOL    HW268256   2.200   6.808   3.725  0.4857  0.6359 -0.4200
22215SOL     OW68257   8.388   3.680   5.635  0.1881 -0.2481  0.3130
22215SOL    HW168258   8.321   3.734   5.678  0.7032 -0.2985  1.2213
22215SOL    HW268259   8.460   3.741   5.619  0.2942 -0.3982  0.2239
22216SOL     OW68260   1.535   2.553   5.333  0.2954 -0.0584 -0.9452
22216SOL    HW168261   1.497   2.511   5.410  0.5453 -3.0717 -2.3284
22216SOL    HW268262   1.491   2.638   5.328  0.0431  0.1222  2.2653
22217SOL     OW68263   4.743   4.803   9.202  0.2719  0.0906 -0.1494
22217SOL    HW168264   4.720   4.718   9.166 -2.4035  0.7872 -0.3052
22217SOL    HW268265   4.716   4.798   9.294  0.0953  0.7512 -0.1605
22218SOL     OW68266   0.562   5.787   1.451 -0.1874 -0.5965 -0.5291
22218SOL    HW168267   0.495   5.804   1.518  0.3164 -0.6411  0.0015
22218SOL    HW268268   0.514   5.752   1.377 -0.9557  0.9080 -0.7770
22219SOL     OW68269   4.658   2.589   7.046 -0.5035  0.0164  0.1641
22219SOL    HW168270   4.690   2.679   7.052  0.9705 -0.5091  0.5754
22219SOL    HW268271   4.612   2.575   7.129 -1.9964  0.8045 -0.4708
22220SOL     OW68272   7.669   8.881   9.568 -0.7935 -0.5494  0.1767
22220SOL    HW168273   7.669   8.806   9.627 -0.4406  0.2297  1.1943
22220SOL    HW268274   7.577   8.901   9.554 -0.9288 -1.9073 -1.0886
22221SOL     OW68275   8.924   0.590   2.490 -0.2833 -0.2096  0.3485
22221SOL    HW168276   8.893   0.613   2.403  0.4235 -2.8752 -0.7213
22221SOL    HW268277   9.014   0.621   2.492  0.8553 -3.0417 -1.2876
22222SOL     OW68278   3.754   1.976   8.422  0.0984  0.2716  0.0586
22222SOL    HW168279   3.690   1.978   8.350  0.5631  1.8311 -0.3348
22222SOL    HW268280   3.789   1.887   8.419  0.4499  0.4231 -1.9711
22223SOL     OW68281   2.454   2.673   4.229  0.1544 -0.2140 -0.6274
22223SOL    HW168282   2.434   2.600   4.287  1.1495  0.4242  0.5713
22223SOL    HW268283   2.494   2.739   4.286 -0.5097  1.1840 -1.7134
22224SOL     OW68284   2.625   7.584   5.550 -0.2675 -0.0131  0.2621
22224SOL    HW168285   2.530   7.572   5.553 -0.2903  0.1116 -0.0378
22224SOL    HW268286   2.660   7.495   5.539 -0.2868 -0.2341  1.7141
22225SOL     OW68287   9.355   8.095   7.062 -0.9061 -0.0449  0.2841
22225SOL    HW168288   9.334   8.087   7.155  1.1010  2.9101  1.1186
22225SOL    HW268289   9.449   8.078   7.056 -1.4404 -3.3385 -1.8380
22226SOL     OW68290   7.457   7.128   5.977  0.0998 -0.7824 -0.3607
22226SOL    HW168291   7.546   7.106   6.003  0.0379  0.3431  0.8849
22226SOL    HW268292   7.401   7.080   6.037 -0.1140 -0.5400 -0.3638
22227SOL     OW68293   1.045   4.372   6.586 -0.1933  0.0818  0.3461
22227SOL    HW168294   1.112   4.438   6.606 -0.6594  1.0757 -1.1957
22227SOL    HW268295   1.088   4.312   6.526 -0.0778 -0.4539  0.9584
22228SOL     OW68296   4.860   8.736   8.640 -0.1829  0.2726 -0.1757
22228SOL    HW168297   4.892   8.647   8.651  0.8136 -0.0625 -4.1834
22228SOL    HW268298   4.770   8.725   8.607 -0.4882  0.8256  0.4511
22229SOL     OW68299   0.185   4.677   7.738  0.2015  0.1338 -0.0806
22229SOL    HW168300   0.191   4.771   7.759 -1.9223  0.3493 -0.2034
22229SOL    HW268301   0.140   4.639   7.813  0.0343 -0.5920 -0.5459
22230SOL     OW68302   3.973   9.239   1.575 -0.1677 -0.2993  0.0183
22230SOL    HW168303   4.041   9.240   1.508 -1.6799  1.0189 -1.6037
22230SOL    HW268304   3.979   9.324   1.617 -1.4440  0.2483 -0.8605
22231SOL     OW68305   0.337   1.277   5.103 -0.9040 -0.0083  0.2795
22231SOL    HW168306   0.257   1.313   5.142 -0.2712  1.0553  0.6405
22231SOL    HW268307   0.311   1.192   5.068 -2.1555  0.2609  0.5237
22232SOL     OW68308   8.734   0.651   2.681  0.3272  0.2560  0.1054
22232SOL    HW168309   8.799   0.610   2.625  0.5135  0.9264 -0.1803
22232SOL    HW268310   8.701   0.580   2.737  0.0483 -0.4501 -0.9263
22233SOL     OW68311   8.133   2.442   6.855  0.0938  0.6185 -0.2058
22233SOL    HW168312   8.225   2.463   6.868 -0.0110  1.6531 -0.9802
22233SOL    HW268313   8.124   2.434   6.760 -0.4043 -0.5503 -0.0799
22234SOL     OW68314   1.505   0.034   6.599  0.6683  0.1906 -0.1406
22234SOL    HW168315   1.535  -0.036   6.541 -0.1344  0.4274 -0.8598
22234SOL    HW268316   1.416   0.052   6.570  0.0893  0.0368  1.4467
22235SOL     OW68317   6.550   5.353   5.450 -0.0113  0.3468 -0.0703
22235SOL    HW168318   6.488   5.285   5.423 -0.4641  0.3847  0.8629
22235SOL    HW268319   6.496   5.423   5.486  0.5951  0.0904  1.3779
22236SOL     OW68320   0.543   7.093   8.821  0.2909 -0.0263  0.0744
22236SOL    HW168321   0.481   7.026   8.792 -0.4960  0.4779  0.5558
22236SOL    HW268322   0.533   7.164   8.757  0.2661  0.1143  0.2332
22237SOL     OW68323   7.094   2.699   3.104 -0.0072  0.4395 -0.5215
22237SOL    HW168324   7.101   2.679   3.197 -0.3502  0.6306 -0.4512
22237SOL    HW268325   7.183   2.720   3.077  0.4255 -1.4385 -0.6721
22238SOL     OW68326   6.545   5.462   7.209  0.1981 -0.1454  0.2789
22238SOL    HW168327   6.524   5.517   7.134  0.5709 -1.0445 -0.5062
22238SOL    HW268328   6.521   5.514   7.285  1.6789  1.6063 -0.3968
22239SOL     OW68329   6.905   9.434   0.043 -0.0735 -0.1196 -0.4459
22239SOL    HW168330   6.939   9.364   0.099  0.9958  0.6844 -0.0674
22239SOL    HW268331   6.850   9.487   0.101 -1.4659 -1.0026 -0.8920
22240SOL     OW68332   9.489   1.945   5.015 -0.0209 -0.3405  0.4203
22240SOL    HW168333   9.547   1.890   4.962 -1.0269  0.7757 -1.9908
22240SOL    HW268334   9.505   1.917   5.105  1.6134 -2.5281 -0.4574
22241SOL     OW68335   5.836   9.055   3.859  0.2912  0.6802 -0.2463
22241SOL    HW168336   5.741   9.044   3.857  0.3196  0.2748  0.3084
22241SOL    HW268337   5.855   9.114   3.787 -0.3133  0.2374 -0.7809
22242SOL     OW68338   1.054   8.974   9.591 -0.0807  0.0565 -0.2313
22242SOL    HW168339   1.100   9.019   9.520  0.3212  0.8903  0.5383
22242SOL    HW268340   0.986   9.036   9.618 -2.2355 -1.4531 -1.8570
22243SOL     OW68341   8.862   0.330   9.758  0.4223 -0.4285 -0.7462
22243SOL    HW168342   8.902   0.404   9.712  4.0038 -1.9479 -0.4143
22243SOL    HW268343   8.886   0.343   9.850  0.9394 -1.8433 -0.6542
22244SOL     OW68344   7.212   4.429   3.152 -0.5246  0.2603 -0.3237
22244SOL    HW168345   7.188   4.514   3.190  0.6895 -0.5610  2.6094
22244SOL    HW268346   7.245   4.450   3.065 -0.8767  2.7048  0.0542
22245SOL     OW68347   1.047   1.116   2.871  0.1213 -0.2309 -0.6167
22245SOL    HW168348   1.128   1.165   2.879  0.5414 -1.0922  0.5700
22245SOL    HW268349   1.073   1.025   2.883 -1.2135 -0.4077  1.3111
22246SOL     OW68350   2.485   6.755   0.936 -0.0089  0.1536  0.9911
22246SOL    HW168351   2.441   6.686   0.986 -2.4336  0.1739 -0.9265
22246SOL    HW268352   2.425   6.829   0.939  0.1778  0.4513 -1.1446
22247SOL     OW68353   6.809   5.937   8.780 -0.2478 -0.3047 -0.1521
22247SOL    HW168354   6.886   5.966   8.731 -1.2294  0.1686 -1.5020
22247SOL    HW268355   6.816   5.981   8.864  1.8881 -1.7302  0.4952
22248SOL     OW68356   1.985   5.727   6.098 -0.4105  0.6295  0.1352
22248SOL    HW168357   1.939   5.654   6.139 -0.6549  1.3950  1.2715
22248SOL    HW268358   2.075   5.696   6.087 -0.9068 -0.4796 -1.0837
22249SOL     OW68359   8.628   5.403   4.466  0.6370 -0.3095 -0.3550
22249SOL    HW168360   8.632   5.349   4.387 -2.4653 -0.6726 -0.3931
22249SOL    HW268361   8.602   5.490   4.434 -1.2909 -0.6254  0.2539
22250SOL     OW68362   9.492   5.734   6.248 -0.2646 -0.0710  0.1705
22250SOL    HW168363   9.448   5.722   6.164  0.4762  0.7301 -0.3487
22250SOL    HW268364   9.431   5.785   6.300 -0.3569  0.2039 -0.2049
22251SOL     OW68365   6.476   7.283   5.317  0.0566  0.2229 -0.7368
22251SOL    HW168366   6.563   7.249   5.340  0.2863 -0.4495 -2.4280
22251SOL    HW268367   6.492   7.373   5.291  0.0354  0.4873  0.1246
22252SOL     OW68368   5.359   6.570   4.701 -0.3852  0.1576  0.3945
22252SOL    HW168369   5.317   6.643   4.745  1.3900  0.8648  1.0135
22252SOL    HW268370   5.332   6.493   4.751 -1.3726  0.5163  0.4234
22253SOL     OW68371   7.397   4.772   6.167  0.0439  0.2452  0.6757
22253SOL    HW168372   7.414   4.864   6.187 -1.1693  0.4621  0.7619
22253SOL    HW268373   7.409   4.726   6.250  1.1681  0.2243  0.5274
22254SOL     OW68374   7.881   0.212   6.757 -0.0520 -0.9193  0.8409
22254SOL    HW168375   7.795   0.198   6.718  0.2732  1.1079 -0.8227
22254SOL    HW268376   7.943   0.190   6.686  0.6526  0.5544  0.9607
22255SOL     OW68377   1.534   1.833   2.956 -0.3231  0.8596 -0.5218
22255SOL    HW168378   1.555   1.853   2.865 -0.8106  1.4321 -0.5102
22255SOL    HW268379   1.511   1.740   2.955 -0.1843  0.8290 -0.9552
22256SOL     OW68380   7.566   7.681   4.446 -0.1655 -0.6068 -0.1010
22256SOL    HW168381   7.544   7.734   4.369 -0.6941 -1.1540 -0.3327
22256SOL    HW268382   7.624   7.613   4.412  0.4328 -0.2507  0.1803
22257SOL     OW68383   6.680   4.685   6.827  0.4182 -0.2585 -0.0741
22257SOL    HW168384   6.690   4.624   6.754 -1.1583 -1.4305  0.6315
22257SOL    HW268385   6.744   4.656   6.892  0.9609  0.0257 -0.4668
22258SOL     OW68386   1.266   6.657   0.227 -0.7076 -0.5181 -0.6352
22258SOL    HW168387   1.180   6.633   0.261 -0.8469  1.3858  0.4649
22258SOL    HW268388   1.326   6.594   0.269 -1.0742  0.7861  2.0411
22259SOL     OW68389   6.502   4.805   6.406 -0.3351  0.0028  0.2761
22259SOL    HW168390   6.449   4.756   6.343  2.2041 -1.3436 -0.9926
22259SOL    HW268391   6.529   4.739   6.471 -0.6100  0.7664  1.1891
22260SOL     OW68392   8.061   8.185   8.986  0.1082  0.1075  0.2016
22260SOL    HW168393   8.012   8.251   9.034  1.0043  0.2871  0.8891
22260SOL    HW268394   8.124   8.235   8.934 -1.4943 -0.0064 -2.0022
22261SOL     OW68395   1.675   4.887   1.236  0.3444 -0.0565  0.3371
22261SOL    HW168396   1.724   4.956   1.194  0.1608  0.0924  0.3639
22261SOL    HW268397   1.599   4.873   1.180  0.3465 -0.1903  0.3655
22262SOL     OW68398   7.539   9.635   0.527  0.0082  0.0993  0.3071
22262SOL    HW168399   7.623   9.597   0.501  1.2450  0.9607  2.6670
22262SOL    HW268400   7.520   9.594   0.612 -1.1842  1.0331  0.5192
22263SOL     OW68401   1.277   3.480   6.609 -0.4351  0.0324  0.5349
22263SOL    HW168402   1.308   3.399   6.648  4.0050  0.3263 -1.7540
22263SOL    HW268403   1.283   3.545   6.679  0.0093 -0.8300  1.3076
22264SOL     OW68404   9.756   0.978   5.194  0.3237 -0.2555 -0.0582
22264SOL    HW168405   9.683   0.955   5.251 -0.6604  1.6221 -0.4497
22264SOL    HW268406   9.726   0.954   5.106 -0.1334  1.1001 -0.2975
22265SOL     OW68407   9.208   8.133   8.879 -0.3755  0.7409 -0.1968
22265SOL    HW168408   9.243   8.176   8.957  0.2790  0.0582 -0.0946
22265SOL    HW268409   9.276   8.070   8.854 -1.8259 -1.1749  0.4422
22266SOL     OW68410   6.005   3.539   7.657  0.7361 -0.1275  0.6439
22266SOL    HW168411   5.948   3.506   7.727 -0.6758  0.2744 -0.2593
22266SOL    HW268412   6.094   3.523   7.688  0.2013  1.2862  3.1433
22267SOL     OW68413   0.529   1.836   5.217  0.0687 -0.4370 -0.0411
22267SOL    HW168414   0.573   1.752   5.233 -0.7952 -1.1122 -1.0745
22267SOL    HW268415   0.445   1.812   5.179  0.1794  0.9287 -1.2308
22268SOL     OW68416   8.950   3.381   7.497  0.0062 -0.1203 -0.2200
22268SOL    HW168417   8.941   3.291   7.528  1.0357 -0.2302 -0.1967
22268SOL    HW268418   8.951   3.434   7.577 -0.9236 -0.0465 -0.2477
22269SOL     OW68419   1.650   2.038   4.790 -0.3105 -0.5243  0.0197
22269SOL    HW168420   1.691   1.959   4.825 -1.9504 -0.9181  1.1440
22269SOL    HW268421   1.671   2.107   4.854 -2.9485 -1.1520  1.6741
22270SOL     OW68422   8.010   9.496   2.440  0.1697  0.3922 -0.0848
22270SOL    HW168423   8.040   9.415   2.482 -1.6595 -0.3755 -0.1351
22270SOL    HW268424   8.074   9.513   2.371 -0.4413 -2.1909 -1.4183
22271SOL     OW68425   4.475   1.416   3.628  0.0558 -0.7570 -0.7478
22271SOL    HW168426   4.421   1.352   3.581  0.0423 -1.6043  0.3559
22271SOL    HW268427   4.476   1.383   3.718 -0.8156  1.3710  0.1145
22272SOL     OW68428   5.295   9.144   4.310 -0.2098 -0.2523 -0.3385
22272SOL    HW168429   5.228   9.105   4.254 -1.9927 -0.5229  1.8274
22272SOL    HW268430   5.247   9.175   4.387  2.1261 -0.3112  1.2674
22273SOL     OW68431   6.172   9.101   0.640 -0.1305  0.2937  0.3247
22273SOL    HW168432   6.183   9.178   0.585 -2.1187  0.7423  0.4649
22273SOL    HW268433   6.185   9.027   0.580 -1.2781  0.7661 -0.5476
22274SOL     OW68434   4.276   6.107   9.779  0.0078  0.7512 -0.3639
22274SOL    HW168435   4.246   6.016   9.777 -2.7493  1.5039  1.0901
22274SOL    HW268436   4.237   6.147   9.701 -1.0953  1.2622  0.4232
22275SOL     OW68437   5.208   5.647   0.723 -0.4045  0.2039 -0.2952
22275SOL    HW168438   5.289   5.605   0.694  0.3163  1.4783 -0.1678
22275SOL    HW268439   5.226   5.676   0.812 -0.7447  1.1284 -0.5133
22276SOL     OW68440   8.958   8.728   5.166 -0.1501  0.0778  0.0555
22276SOL    HW168441   9.008   8.801   5.202  0.4508 -0.3271  0.0574
22276SOL    HW268442   8.922   8.762   5.084  1.3875 -0.0780 -0.7245
22277SOL     OW68443   3.391   7.360   4.614  0.2243 -0.4148  0.4070
22277SOL    HW168444   3.324   7.428   4.606 -2.0045 -2.4804  0.2331
22277SOL    HW268445   3.433   7.358   4.528 -1.7755 -1.2017 -0.6377
22278SOL     OW68446   4.125   2.406   6.893  0.3336  0.2519 -0.2021
22278SOL    HW168447   4.077   2.488   6.883 -1.0131 -0.7825 -3.8883
22278SOL    HW268448   4.170   2.394   6.809  0.9001 -2.5237  0.4046
22279SOL     OW68449   2.010   5.083   6.102 -0.0660  0.5214  0.2172
22279SOL    HW168450   2.021   5.156   6.041  0.5929  0.0764 -0.2181
22279SOL    HW268451   2.018   5.122   6.188 -0.0896  1.0223 -0.0068
22280SOL     OW68452   4.110   2.526   3.430 -0.1205  0.1738  0.3997
22280SOL    HW168453   4.088   2.619   3.432 -2.6060 -0.3385  1.2572
22280SOL    HW268454   4.062   2.488   3.504  0.8994 -1.7894  0.1418
22281SOL     OW68455   2.876   9.713   4.569 -0.0643  0.2038  0.3301
22281SOL    HW168456   2.834   9.678   4.490  0.4499 -2.7276  1.2679
22281SOL    HW268457   2.960   9.667   4.575  1.1772  2.3995  1.1459
22282SOL     OW68458   9.807   6.260   2.615  0.1836  0.7185 -0.1337
22282SOL    HW168459   9.888   6.208   2.611  0.2064  0.8248 -1.3831
22282SOL    HW268460   9.836   6.351   2.610 -0.0651  0.7271 -2.3965
22283SOL     OW68461   8.903   4.310   2.612 -0.3515 -0.2622  0.2926
22283SOL    HW168462   8.856   4.234   2.578 -1.2378 -0.4350  1.7716
22283SOL    HW268463   8.971   4.327   2.548  0.2869 -2.6984  0.2145
22284SOL     OW68464   2.163   6.379   4.285 -0.1687  0.2286 -0.0383
22284SOL    HW168465   2.227   6.429   4.235 -1.5680  1.2536 -0.8807
22284SOL    HW268466   2.183   6.399   4.377  0.5877  0.6794 -0.2950
22285SOL     OW68467   9.818   3.520   4.575 -0.0715 -0.2691 -0.0004
22285SOL    HW168468   9.731   3.553   4.554 -0.4126 -1.4171 -0.4849
22285SOL    HW268469   9.818   3.429   4.544  0.4201 -1.1413  2.3260
22286SOL     OW68470   1.273   8.388   4.630  0.5495  0.1416 -0.1253
22286SOL    HW168471   1.210   8.330   4.588 -0.1969  0.5066  0.4711
22286SOL    HW268472   1.277   8.465   4.572 -0.4556  0.6321  0.4311
22287SOL     OW68473   6.036   8.264   6.144  0.2247 -0.5221  0.0186
22287SOL    HW168474   6.028   8.230   6.054  1.5391 -1.1712  0.1305
22287SOL    HW268475   6.105   8.211   6.184 -1.1052 -1.0061  1.7966
22288SOL     OW68476   6.403   8.873   7.169  0.3628  0.3539  0.4391
22288SOL    HW168477   6.473   8.820   7.207 -0.9436 -1.0609  0.9913
22288SOL    HW268478   6.381   8.936   7.238 -0.4825 -0.7617  1.2442
22289SOL     OW68479   8.118   9.323   3.644 -0.4063 -0.5878  0.2471
22289SOL    HW168480   8.183   9.334   3.714 -0.0405 -0.5176 -0.1001
22289SOL    HW268481   8.168   9.334   3.563 -1.1230  1.0217 -0.0157
22290SOL     OW68482   0.899   5.674   2.458  0.1218  0.0948  0.5850
22290SOL    HW168483   0.876   5.607   2.522  0.2290 -0.7280 -0.2175
22290SOL    HW268484   0.915   5.625   2.377 -0.8639  1.1919 -0.3053
22291SOL     OW68485   3.480   8.945   6.962  0.1146 -0.5440  0.1140
22291SOL    HW168486   3.545   8.970   7.028 -0.8637  0.1574  0.8484
22291SOL    HW268487   3.401   8.929   7.013 -0.3110 -1.3082 -0.7758
22292SOL     OW68488   2.055   6.180   3.597  0.2542  0.7056  0.4062
22292SOL    HW168489   1.993   6.247   3.570 -0.7878 -0.1050  0.7099
22292SOL    HW268490   2.007   6.127   3.660  0.6592 -0.9772 -0.6318
22293SOL     OW68491   6.802   6.754   2.548 -0.6373  0.1330 -0.1338
22293SOL    HW168492   6.727   6.813   2.563 -0.9730 -0.0604 -0.9988
22293SOL    HW268493   6.763   6.676   2.509 -0.1656 -0.6019  0.8370
22294SOL     OW68494   4.437   1.953   7.161 -0.2308 -0.0144 -0.6287
22294SOL    HW168495   4.419   1.893   7.233 -2.5979  0.7960 -0.4460
22294SOL    HW268496   4.397   2.036   7.189  0.5176  0.8552 -2.0398
22295SOL     OW68497   5.313   3.697   8.691  0.5409  0.5342  0.7342
22295SOL    HW168498   5.390   3.645   8.713  0.4416 -0.3175 -0.7614
22295SOL    HW268499   5.291   3.670   8.601 -2.3355 -0.3006  1.5799
22296SOL     OW68500   5.006   8.672   5.005  0.0081  0.0145 -0.1159
22296SOL    HW168501   4.952   8.735   4.959  0.3417 -0.4803 -1.2214
22296SOL    HW268502   5.089   8.717   5.020 -0.0974  0.1737 -0.0100
22297SOL     OW68503   4.417   4.701   3.495 -0.2293 -0.7199 -0.5614
22297SOL    HW168504   4.437   4.728   3.405 -0.4672 -1.0600 -0.7182
22297SOL    HW268505   4.352   4.632   3.485 -0.8048 -0.2496 -0.0907
22298SOL     OW68506   9.034   3.275   5.134 -0.4832  0.4949  0.0923
22298SOL    HW168507   9.023   3.189   5.094  0.0473  0.5408 -0.1562
22298SOL    HW268508   9.126   3.278   5.161 -0.6223  0.7927  0.5481
22299SOL     OW68509   0.583   3.898   8.739 -0.0873 -0.3532  0.1628
22299SOL    HW168510   0.553   3.977   8.785 -1.8430 -0.5479 -0.5885
22299SOL    HW268511   0.626   3.847   8.808 -0.3462  0.5290  1.0165
22300SOL     OW68512   3.524   1.222   5.231  0.0728 -0.5571 -0.0701
22300SOL    HW168513   3.581   1.207   5.306 -0.2616  1.4282  0.6311
22300SOL    HW268514   3.440   1.184   5.256 -0.0356  0.0891  0.5583
22301SOL     OW68515   9.195   0.515   7.640  0.4556 -0.6911  0.4620
22301SOL    HW168516   9.279   0.469   7.639  1.0023  0.2823  0.2148
22301SOL    HW268517   9.155   0.493   7.555  0.3650 -1.3138  0.6618
22302SOL     OW68518   5.192   6.283   5.805 -0.5973  0.0176 -0.4607
22302SOL    HW168519   5.148   6.360   5.770 -0.3052 -0.0968 -1.0843
22302SOL    HW268520   5.246   6.316   5.876 -0.3660  0.4108 -0.8163
22303SOL     OW68521   0.171   2.458   7.025  0.0970  0.0120  0.0465
22303SOL    HW168522   0.151   2.500   7.109  1.3007  0.4652  0.1256
22303SOL    HW268523   0.118   2.507   6.962 -0.8903 -0.3910  0.5227
22304SOL     OW68524   8.414   4.230   7.398  0.1264 -0.2884  0.7873
22304SOL    HW168525   8.409   4.298   7.465  0.5900  0.0115  0.5278
22304SOL    HW268526   8.350   4.256   7.332 -2.7539 -2.2986  2.5884
22305SOL     OW68527   5.858   6.167   5.952 -0.1121  0.0499  0.0546
22305SOL    HW168528   5.793   6.109   5.913  0.0033  0.2112 -0.3807
22305SOL    HW268529   5.844   6.158   6.047 -1.9780  1.4097 -0.0262
22306SOL     OW68530   1.643   5.598   8.342 -0.6569 -0.2346 -0.8188
22306SOL    HW168531   1.715   5.535   8.345  0.3033  0.8114 -1.4779
22306SOL    HW268532   1.677   5.672   8.292 -2.3034  0.1487 -1.4271
22307SOL     OW68533   0.210   3.731   5.186  0.2278  0.0858  0.3707
22307SOL    HW168534   0.198   3.708   5.094 -2.3577 -2.4603  1.1997
22307SOL    HW268535   0.134   3.785   5.207  0.4100  0.0317  1.1821
22308SOL     OW68536   2.067   4.281   5.636  0.4556 -0.4825  0.6248
22308SOL    HW168537   2.106   4.234   5.710  0.5142 -0.1949  0.7769
22308SOL    HW268538   1.996   4.225   5.606  1.2362 -1.2178  0.0919
22309SOL     OW68539   9.138   8.999   3.990 -0.7561 -0.4917 -0.2127
22309SOL    HW168540   9.093   9.082   3.976  0.4009  0.2216  0.1809
22309SOL    HW268541   9.210   9.001   3.928 -0.7380 -1.2245 -0.2165
22310SOL     OW68542   8.689   1.077   1.570 -0.2203 -0.0632 -0.0632
22310SOL    HW168543   8.779   1.089   1.601  0.6039 -1.9814 -1.5527
22310SOL    HW268544   8.666   1.161   1.531  0.8644  0.4900  0.4384
22311SOL     OW68545   3.039   0.735   8.514  0.4322  0.2429  0.1405
22311SOL    HW168546   3.100   0.677   8.469 -0.0495 -0.4213  0.3115
22311SOL    HW268547   2.985   0.772   8.444 -0.7075 -1.2448  0.1542
22312SOL     OW68548   7.787   7.076   8.444 -0.0603  0.8060 -0.1088
22312SOL    HW168549   7.701   7.112   8.421  0.4052  0.7656 -2.1496
22312SOL    HW268550   7.796   6.999   8.387  0.8063  0.0622  1.0070
22313SOL     OW68551   0.671   9.804   3.303  0.0943  0.1808  0.2083
22313SOL    HW168552   0.694   9.891   3.270 -2.2788 -0.0987 -2.6649
22313SOL    HW268553   0.631   9.820   3.388  0.6673  1.7837  0.2075
22314SOL     OW68554   7.338   4.061   9.840 -0.0630 -0.1956 -0.7055
22314SOL    HW168555   7.351   4.156   9.832 -0.9463 -0.0850 -0.9513
22314SOL    HW268556   7.306   4.034   9.754  0.4106 -0.7580 -0.7065
22315SOL     OW68557   8.592   8.538   2.209 -0.1557 -0.4640 -0.7231
22315SOL    HW168558   8.533   8.612   2.196  0.2502  0.1488  0.6770
22315SOL    HW268559   8.662   8.552   2.146  0.2494  0.7317 -0.0390
22316SOL     OW68560   4.863   7.640   6.103  0.0700  0.3261 -1.1761
22316SOL    HW168561   4.894   7.592   6.026 -0.4882 -0.0017 -1.2001
22316SOL    HW268562   4.806   7.578   6.149  2.0566 -0.2550  0.6707
22317SOL     OW68563   1.927   7.398   8.542  0.2935 -0.1524  0.2215
22317SOL    HW168564   1.982   7.445   8.604 -0.4342  1.6221 -0.4051
22317SOL    HW268565   1.882   7.467   8.493 -0.4217 -1.5138 -1.1273
22318SOL     OW68566   8.601   1.641   5.847 -0.1351 -0.0309 -0.5228
22318SOL    HW168567   8.600   1.735   5.868  1.0144 -0.0139 -0.4737
22318SOL    HW268568   8.647   1.635   5.764 -0.9801 -0.4888 -0.9709
22319SOL     OW68569   8.755   9.139   6.128 -0.0529 -0.1452 -0.1877
22319SOL    HW168570   8.787   9.065   6.180  0.0677 -1.3821 -1.9371
22319SOL    HW268571   8.727   9.100   6.045  0.8018  1.8813 -1.5049
22320SOL     OW68572   0.927   7.981   7.145  0.2480  0.1078 -0.1828
22320SOL    HW168573   0.895   7.929   7.218  0.2017 -0.5737 -0.6790
22320SOL    HW268574   1.022   7.980   7.155  0.2026  0.8758  0.4382
22321SOL     OW68575   6.053   8.814   7.729 -0.1019  0.1664  0.8021
22321SOL    HW168576   6.148   8.804   7.734 -0.2550 -1.3216  1.1882
22321SOL    HW268577   6.029   8.853   7.813 -0.1134 -2.3430  2.0640
22322SOL     OW68578   5.567   9.133   4.360 -0.3582  0.5537  0.9273
22322SOL    HW168579   5.474   9.152   4.356 -0.5216 -0.4800 -1.1142
22322SOL    HW268580   5.593   9.115   4.270  1.3235 -1.4805  1.7241
22323SOL     OW68581   4.547   0.196   2.848  0.2727 -0.3997  0.1357
22323SOL    HW168582   4.528   0.288   2.829  1.2617 -0.2924 -0.4078
22323SOL    HW268583   4.613   0.198   2.918  1.0032 -0.6621 -0.5315
22324SOL     OW68584   7.016   1.240   6.655 -0.2640  0.0133  0.1577
22324SOL    HW168585   7.051   1.237   6.567  1.6724  0.3519  0.8747
22324SOL    HW268586   7.007   1.333   6.675  0.1223 -0.0408  0.6122
22325SOL     OW68587   6.472   1.098   7.079  0.0360  0.0220  0.3689
22325SOL    HW168588   6.444   1.088   7.170  0.7647  0.1617  0.6133
22325SOL    HW268589   6.477   1.008   7.045 -0.9815  0.0061  0.2272
22326SOL     OW68590   7.572   1.897   2.549  0.1384  0.7086  0.1125
22326SOL    HW168591   7.587   1.830   2.616 -0.7171  0.6129  0.2133
22326SOL    HW268592   7.640   1.879   2.483  2.1187  1.8500  1.7094
22327SOL     OW68593   9.290   6.412   0.944 -0.4773 -0.0936  0.9386
22327SOL    HW168594   9.221   6.476   0.928  0.1547  0.5677  0.8425
22327SOL    HW268595   9.326   6.436   1.030 -1.3900 -1.3768  1.7090
22328SOL     OW68596   6.804   8.608   2.782  0.2176 -0.3180 -0.0546
22328SOL    HW168597   6.789   8.673   2.713 -2.3032  0.1277  0.7926
22328SOL    HW268598   6.734   8.544   2.771  0.6965 -1.0945  1.1306
22329SOL     OW68599   4.959   0.821   2.032  0.3927  0.9022 -0.1522
22329SOL    HW168600   4.880   0.876   2.030 -0.1367  0.1422 -1.0899
22329SOL    HW268601   4.926   0.731   2.035  1.2333  0.5935  0.0539
22330SOL     OW68602   8.838   3.431   9.309 -0.1559  0.5296  1.2033
22330SOL    HW168603   8.765   3.474   9.265 -0.6964 -0.5199  1.0337
22330SOL    HW268604   8.839   3.469   9.397 -1.6731 -0.2703  1.6050
22331SOL     OW68605   1.560   1.508   8.775  0.7693  0.1826 -0.4119
22331SOL    HW168606   1.539   1.582   8.718  1.1011  1.5075  1.1206
22331SOL    HW268607   1.484   1.500   8.833  2.1249  1.6445  1.7206
22332SOL     OW68608   7.695   8.952   2.015 -0.2892  0.6061  0.2634
22332SOL    HW168609   7.638   8.914   2.082  0.3435  1.3655  1.2551
22332SOL    HW268610   7.774   8.899   2.019 -0.5008  0.2341 -0.3611
22333SOL     OW68611   0.819   8.966   1.853 -0.1387  0.1739  0.1727
22333SOL    HW168612   0.837   8.886   1.804 -0.3411 -0.0792  0.5106
22333SOL    HW268613   0.879   9.031   1.816  0.1192 -0.1678 -0.0096
22334SOL     OW68614   8.678   0.868   1.926 -0.0131 -0.0835 -0.0743
22334SOL    HW168615   8.721   0.783   1.924 -1.9114 -1.1028 -0.5957
22334SOL    HW268616   8.600   0.853   1.979 -1.4677  0.7491 -1.8638
22335SOL     OW68617   2.225   5.110   6.664  0.4752 -1.0882  0.5145
22335SOL    HW168618   2.294   5.160   6.619 -0.0789 -0.3287  0.4781
22335SOL    HW268619   2.264   5.024   6.680  0.9983 -1.0815 -0.6160
22336SOL     OW68620   8.442   9.173   5.847  0.1154  0.1183  0.4283
22336SOL    HW168621   8.347   9.161   5.846  0.2457 -1.2636  1.2627
22336SOL    HW268622   8.467   9.176   5.755 -0.5619 -1.2415  0.1717
22337SOL     OW68623   2.075   9.371   7.679 -0.1116 -0.2522  0.4034
22337SOL    HW168624   2.078   9.448   7.622 -0.9061 -1.3233 -1.1442
22337SOL    HW268625   2.160   9.370   7.723  0.0513  1.2807  0.1748
22338SOL     OW68626   1.402   4.639   7.896 -0.3540  0.0368  0.4483
22338SOL    HW168627   1.437   4.673   7.813 -2.7642 -0.1241 -0.7119
22338SOL    HW268628   1.444   4.553   7.906  0.9297  0.6022  0.0835
22339SOL     OW68629   9.710   6.719   3.054  0.1177  0.5604 -0.1457
22339SOL    HW168630   9.773   6.750   3.119 -1.3095  0.6567  1.2549
22339SOL    HW268631   9.682   6.634   3.086 -1.1469  0.9253 -0.2181
22340SOL     OW68632   7.453   5.103   6.557 -0.2598  0.5297 -0.0175
22340SOL    HW168633   7.535   5.090   6.510  0.0325 -0.2909  0.6871
22340SOL    HW268634   7.455   5.194   6.585 -0.9077  1.3623 -2.4225
22341SOL     OW68635   4.130   3.040   8.158 -0.0212 -0.0125  0.3477
22341SOL    HW168636   4.154   3.130   8.136  0.4680  0.0028  0.8970
22341SOL    HW268637   4.210   3.003   8.196 -0.3397 -0.5466  0.5108
22342SOL     OW68638   7.901   9.766   0.930 -0.1728  0.3603 -0.4018
22342SOL    HW168639   7.988   9.752   0.893  0.8186  1.2017  1.4458
22342SOL    HW268640   7.899   9.859   0.952 -0.8202 -0.0056  1.2310
22343SOL     OW68641   1.406   0.919   0.026 -0.4943 -0.0836  0.4131
22343SOL    HW168642   1.366   0.978   0.091 -0.9198  1.0469 -0.8331
22343SOL    HW268643   1.462   0.861   0.078 -0.1061  1.3758  1.7012
22344SOL     OW68644   2.998   1.345   4.212  0.2100  0.3655 -0.4669
22344SOL    HW168645   2.984   1.364   4.305 -2.1096 -2.3853 -0.1129
22344SOL    HW268646   3.012   1.251   4.208 -2.1243 -0.0334 -3.0294
22345SOL     OW68647   4.696   0.168   4.359  0.2652  0.4265 -0.4038
22345SOL    HW168648   4.678   0.176   4.265 -1.5714  0.1970 -0.1155
22345SOL    HW268649   4.614   0.134   4.396  0.0297  2.8933  1.6183
22346SOL     OW68650   2.831   3.212   6.541 -0.0218  0.4938 -0.1952
22346SOL    HW168651   2.841   3.123   6.573  0.0641 -0.7501 -3.3244
22346SOL    HW268652   2.765   3.251   6.598 -0.5240 -1.7689  0.8766
22347SOL     OW68653   7.506   8.364   6.965  0.2929 -0.1078  0.4626
22347SOL    HW168654   7.558   8.370   6.885 -1.3243 -2.7102 -0.9120
22347SOL    HW268655   7.560   8.313   7.025 -0.0850 -1.6873 -0.4923
22348SOL     OW68656   1.683   0.928   2.675 -0.1469  0.2149 -0.1507
22348SOL    HW168657   1.731   0.899   2.598  1.5037  0.9439  0.5577
22348SOL    HW268658   1.712   1.018   2.690 -0.3259  0.0446  1.3917
22349SOL     OW68659   8.626   7.165   8.889  0.3915 -0.3109 -0.3539
22349SOL    HW168660   8.533   7.155   8.911 -0.1294 -0.8178 -2.5615
22349SOL    HW268661   8.626   7.197   8.799  2.3632 -1.7711 -0.9291
22350SOL     OW68662   4.784   5.572   5.423 -0.4242  0.3725 -0.2274
22350SOL    HW168663   4.815   5.645   5.369  0.6921 -0.0498 -0.1690
22350SOL    HW268664   4.852   5.560   5.489 -2.3716  1.8289  2.2595
22351SOL     OW68665   1.923   2.189   4.880  0.3828 -0.6310 -0.3347
22351SOL    HW168666   1.868   2.241   4.939  1.7829 -1.8769  2.2512
22351SOL    HW268667   2.005   2.238   4.875  0.4196 -0.7509 -0.9431
22352SOL     OW68668   8.590   4.086   2.767  0.3872 -0.5527 -0.2846
22352SOL    HW168669   8.518   4.048   2.818 -0.8220  0.3132 -1.2709
22352SOL    HW268670   8.634   4.145   2.828  0.7134 -1.6194  0.5348
22353SOL     OW68671   5.030   7.937   4.626 -0.0315  0.1065  0.0042
22353SOL    HW168672   5.004   7.934   4.718 -1.7516 -2.4774 -0.4613
22353SOL    HW268673   5.123   7.914   4.625 -0.1652 -0.4902  1.0425
22354SOL     OW68674   9.649   0.998   8.579  0.1515 -0.3292 -0.4877
22354SOL    HW168675   9.638   1.059   8.506  0.8646 -0.8364 -1.0227
22354SOL    HW268676   9.711   0.932   8.547  0.5784 -0.4848  0.6133
22355SOL     OW68677   6.732   7.253   7.785  0.2597  0.0005  0.1091
22355SOL    HW168678   6.668   7.315   7.821  0.0883 -0.1484  0.0605
22355SOL    HW268679   6.691   7.220   7.706  1.2564  1.4613 -1.0864
22356SOL     OW68680   2.623   4.303   3.722 -0.1497  0.2947 -0.6076
22356SOL    HW168681   2.631   4.209   3.704  1.6865  0.4889 -1.0056
22356SOL    HW268682   2.667   4.345   3.648  0.0236  1.4258  0.1122
22357SOL     OW68683   2.161   5.154   0.487 -0.0723  0.3030 -0.0002
22357SOL    HW168684   2.197   5.159   0.575  1.7880  2.1780 -0.7901
22357SOL    HW268685   2.071   5.184   0.495  0.7934  2.8633  0.9448
22358SOL     OW68686   5.158   1.223   4.487  0.5838  0.3290  0.2589
22358SOL    HW168687   5.074   1.179   4.473  0.1509  0.9952  0.6947
22358SOL    HW268688   5.138   1.317   4.482  1.5459  0.4948 -0.9844
22359SOL     OW68689   6.623   4.936   1.042 -0.1437 -0.2091 -0.4192
22359SOL    HW168690   6.680   4.958   0.968  0.5335 -0.8234 -0.0955
22359SOL    HW268691   6.536   4.926   1.003 -0.0920  1.0105 -0.8835
22360SOL     OW68692   1.362   0.996   7.386  0.3912  0.2202 -0.3198
22360SOL    HW168693   1.289   0.960   7.436 -0.2996  0.6931 -0.9808
22360SOL    HW268694   1.367   0.942   7.307  0.2408  0.6813 -0.6510
22361SOL     OW68695   9.326   8.896   1.596  0.2176 -0.0354 -0.6557
22361SOL    HW168696   9.274   8.885   1.676 -1.2344 -1.9215 -1.7640
22361SOL    HW268697   9.297   8.980   1.559  0.0331  0.2704  0.1734
22362SOL     OW68698   4.880   1.114   9.635 -0.2254  0.1096  0.0016
22362SOL    HW168699   4.849   1.159   9.557 -0.3813 -0.3032 -0.1743
22362SOL    HW268700   4.975   1.106   9.622 -0.2923 -0.2533 -0.3050
22363SOL     OW68701   3.346   0.905   8.765 -0.0324  0.0428  0.0794
22363SOL    HW168702   3.354   0.880   8.673 -1.4294  2.2946 -0.7398
22363SOL    HW268703   3.418   0.967   8.779 -0.3091  0.3260  0.2617
22364SOL     OW68704   8.824   9.695   7.180  0.0284  0.0081  0.4472
22364SOL    HW168705   8.866   9.695   7.267 -0.3404 -0.8707  0.6414
22364SOL    HW268706   8.850   9.778   7.141  0.6658  0.1715  1.1816
22365SOL     OW68707   3.678   2.610   5.376 -0.3801  0.2566 -0.0204
22365SOL    HW168708   3.683   2.647   5.464  0.5856 -2.4208  1.1164
22365SOL    HW268709   3.594   2.565   5.373 -0.3585  0.2336 -0.4319
22366SOL     OW68710   4.540   3.621   2.187 -0.2636  0.3152 -0.0250
22366SOL    HW168711   4.617   3.564   2.192 -1.8912 -1.9139  1.6806
22366SOL    HW268712   4.506   3.606   2.098  0.6071  0.4161 -0.3857
22367SOL     OW68713   4.112   2.089   8.496  0.2437  0.0025  0.2728
22367SOL    HW168714   4.150   2.047   8.419  1.8820  1.3993  0.2667
22367SOL    HW268715   4.021   2.104   8.473  1.0430  1.7901 -2.0420
22368SOL     OW68716   2.169   4.864   3.088  0.1470  0.5673  0.0220
22368SOL    HW168717   2.248   4.915   3.074  0.3755  0.3338  0.4650
22368SOL    HW268718   2.097   4.926   3.076  0.3935  0.7596 -0.4574
22369SOL     OW68719   6.942   7.384   0.713 -0.0601 -0.0936  0.2324
22369SOL    HW168720   6.996   7.311   0.742  1.6682  1.4337  1.0798
22369SOL    HW268721   6.862   7.379   0.767  0.3043 -0.9856  0.6981
22370SOL     OW68722   1.123   1.659   9.436 -0.7593 -0.0739  0.5114
22370SOL    HW168723   1.135   1.753   9.449 -0.7584  0.3414 -2.0321
22370SOL    HW268724   1.091   1.627   9.521  1.9110  1.6887  2.3138
22371SOL     OW68725   9.458   4.396   0.956  0.6701  0.1909 -0.2020
22371SOL    HW168726   9.531   4.390   0.894  1.5074 -0.4502  0.7975
22371SOL    HW268727   9.485   4.462   1.019  1.2007 -1.2517  1.1540
22372SOL     OW68728   0.212   5.762   3.841  0.1380  0.0312 -0.1902
22372SOL    HW168729   0.205   5.767   3.937  0.6834 -2.0300 -0.0130
22372SOL    HW268730   0.290   5.709   3.825 -0.0223  0.2349 -1.7966
22373SOL     OW68731   4.720   0.083   7.631  0.1056  0.2102 -0.0812
22373SOL    HW168732   4.758   0.113   7.713  0.0139 -1.5087  0.6353
22373SOL    HW268733   4.795   0.058   7.577  0.1198 -1.4160  0.6259
22374SOL     OW68734   6.374   3.944   0.905  0.0567 -0.0769  0.1914
22374SOL    HW168735   6.287   3.977   0.884  0.1562 -0.0251 -0.1446
22374SOL    HW268736   6.389   3.971   0.996  0.7404  2.1850 -0.5203
22375SOL     OW68737   0.958   4.681   8.215 -0.0220  0.9525 -0.0438
22375SOL    HW168738   0.981   4.747   8.150 -0.3011 -0.7368 -1.9486
22375SOL    HW268739   0.924   4.608   8.164  1.6104 -1.2601  1.8362
22376SOL     OW68740   7.296   3.916   0.318  0.6222 -0.3674  0.3070
22376SOL    HW168741   7.258   3.953   0.238  1.0324 -0.8306 -0.1084
22376SOL    HW268742   7.315   3.825   0.296  1.5248 -0.2791  0.6563
22377SOL     OW68743   4.043   8.800   1.724  0.1462 -0.2697 -0.6314
22377SOL    HW168744   3.965   8.853   1.709  1.0564  1.5950  0.9186
22377SOL    HW268745   4.114   8.847   1.680  0.6400 -1.3467 -1.0516
22378SOL     OW68746   1.471   7.330   8.310 -0.5445  0.0096 -0.0588
22378SOL    HW168747   1.529   7.311   8.236 -0.5003 -0.3358  0.0598
22378SOL    HW268748   1.530   7.354   8.381 -0.6231  1.0333 -0.3306
22379SOL     OW68749   7.280   7.647   5.526  0.0449  0.6497 -0.5036
22379SOL    HW168750   7.318   7.568   5.488 -3.3430 -0.9465 -0.9644
22379SOL    HW268751   7.256   7.700   5.451 -0.8584  0.4634 -0.3571
22380SOL     OW68752   6.017   2.268   5.382  0.3495 -0.3992  0.1162
22380SOL    HW168753   6.106   2.253   5.414  0.5636  0.6814  0.0449
22380SOL    HW268754   6.028   2.327   5.307 -0.4480 -0.0799  0.2431
22381SOL     OW68755   8.695   9.787   2.243 -0.4740  0.0699 -0.1585
22381SOL    HW168756   8.769   9.840   2.214  0.5624 -0.7885  0.8479
22381SOL    HW268757   8.709   9.701   2.202 -1.8304  0.3619 -1.3154
22382SOL     OW68758   9.207   4.993   5.174  0.3481  0.0481 -0.1502
22382SOL    HW168759   9.270   5.021   5.107 -1.0802  0.1405 -1.5150
22382SOL    HW268760   9.183   4.904   5.148 -0.4336  0.1908  0.0484
22383SOL     OW68761   8.967   3.066   0.166  0.0664 -0.4181 -0.2308
22383SOL    HW168762   9.042   3.082   0.224 -1.4075 -1.9711  2.2799
22383SOL    HW268763   9.007   3.044   0.082  2.3343  1.0208  0.3751
22384SOL     OW68764   9.007   0.037   4.626 -0.2931 -0.1391  0.1255
22384SOL    HW168765   9.059  -0.040   4.645 -0.5938 -0.0754  1.2981
22384SOL    HW268766   8.917   0.011   4.644 -0.5026  0.1997 -0.4006
22385SOL     OW68767   7.003   3.755   1.714  0.0637 -0.3438 -0.6151
22385SOL    HW168768   7.004   3.847   1.740  1.9023 -0.8030  1.2564
22385SOL    HW268769   7.074   3.747   1.651 -0.9006 -0.2870 -1.7448
22386SOL     OW68770   9.417   5.002   3.075  0.7439  0.3126  0.4370
22386SOL    HW168771   9.341   5.020   3.130  0.1986 -1.4621  0.3475
22386SOL    HW268772   9.449   5.088   3.048 -1.6332  1.1187 -0.0382
22387SOL     OW68773   9.682   2.240   8.115  0.5575  0.1831  0.4040
22387SOL    HW168774   9.730   2.286   8.047 -1.4618  0.0509 -1.2051
22387SOL    HW268775   9.718   2.151   8.114 -1.0994 -0.5642 -2.3420
22388SOL     OW68776   0.609   5.122   2.667 -0.1998  0.2770  0.4862
22388SOL    HW168777   0.516   5.128   2.647  0.0274  2.6558 -0.1189
22388SOL    HW268778   0.653   5.130   2.582  0.5861  0.4283  0.8962
22389SOL     OW68779   4.420   9.559   2.053  0.0277  0.3482  0.0632
22389SOL    HW168780   4.353   9.585   2.116 -3.0078 -0.1636 -2.7012
22389SOL    HW268781   4.443   9.639   2.007 -0.4786  0.1509 -0.5503
22390SOL     OW68782   0.543   7.653   7.667 -0.0224  0.3029  0.4347
22390SOL    HW168783   0.605   7.679   7.735 -1.3491 -0.1113  1.8487
22390SOL    HW268784   0.470   7.614   7.714  0.4010 -3.0525 -1.4007
22391SOL     OW68785   1.611   7.314   3.273  0.2167  0.2418 -0.0506
22391SOL    HW168786   1.679   7.287   3.212  0.2570 -0.3840  0.2636
22391SOL    HW268787   1.658   7.354   3.346  0.2464 -0.2209  0.1817
22392SOL     OW68788   7.306   0.647   5.546  0.0675 -0.3131 -0.1366
22392SOL    HW168789   7.378   0.620   5.603 -0.5761 -0.2778  0.7001
22392SOL    HW268790   7.238   0.582   5.560  0.4001 -1.0968 -1.9074
22393SOL     OW68791   7.295   6.009   6.445  0.1393  0.0513 -0.3348
22393SOL    HW168792   7.366   6.060   6.484  0.2799 -1.5077  1.5851
22393SOL    HW268793   7.318   5.918   6.462 -2.4433 -0.5118  0.7195
22394SOL     OW68794   4.521   0.415   3.156 -0.5419  0.0116 -0.4124
22394SOL    HW168795   4.587   0.434   3.089  0.0666 -0.7210 -0.0467
22394SOL    HW268796   4.449   0.474   3.137 -0.0678  0.3319 -1.2604
22395SOL     OW68797   1.103   1.178   4.570 -0.1544  0.4447 -0.2181
22395SOL    HW168798   1.079   1.174   4.662 -1.8231  0.1524 -0.6307
22395SOL    HW268799   1.094   1.088   4.539  2.3400  0.1485 -0.2502
22396SOL     OW68800   8.610   4.918   9.319  1.1268  0.0193  0.0044
22396SOL    HW168801   8.638   5.007   9.298  3.1737 -0.2200  1.4287
22396SOL    HW268802   8.675   4.862   9.276  0.5374 -0.7585  0.1066
22397SOL     OW68803   5.053   3.510   2.716  0.2998  0.1531 -0.4277
22397SOL    HW168804   5.009   3.595   2.721 -0.3053 -0.1515 -0.4074
22397SOL    HW268805   4.989   3.453   2.672  1.3562  0.1247 -2.0006
22398SOL     OW68806   0.203   9.058   6.510 -0.1845 -0.1122 -0.4513
22398SOL    HW168807   0.176   9.117   6.581 -0.1117 -0.9858  0.3328
22398SOL    HW268808   0.176   9.103   6.430 -1.5786  0.2663  0.1898
22399SOL     OW68809   6.394   3.702   2.183  0.4333  0.1559  0.5828
22399SOL    HW168810   6.327   3.734   2.123  0.1115  1.5743  1.6352
22399SOL    HW268811   6.388   3.607   2.178 -1.3870  0.2465  0.3540
22400SOL     OW68812   4.983   8.936   3.282 -0.1177 -0.1196  0.1340
22400SOL    HW168813   5.071   8.910   3.254 -0.2388 -1.8222  1.2146
22400SOL    HW268814   4.980   8.914   3.375 -1.2825  1.0654  0.3923
22401SOL     OW68815   9.544   4.022   1.279 -0.4399  0.3495 -0.0875
22401SOL    HW168816   9.571   4.111   1.302  0.1780  0.4985 -1.3388
22401SOL    HW268817   9.454   4.016   1.311 -0.3054  1.2393  0.4890
22402SOL     OW68818   8.375   3.091   1.824  0.1404 -0.0787  0.1880
22402SOL    HW168819   8.303   3.039   1.860 -0.3019  0.5999  0.3176
22402SOL    HW268820   8.391   3.158   1.890  1.5904 -0.8253  0.6266
22403SOL     OW68821   7.550   4.317   1.462  0.3681 -0.1922 -0.4518
22403SOL    HW168822   7.489   4.302   1.390 -0.2722  0.5246 -0.0762
22403SOL    HW268823   7.538   4.409   1.485  0.2579 -0.5089  0.8350
22404SOL     OW68824   2.022   5.775   0.874 -0.2171 -0.0973 -0.0264
22404SOL    HW168825   1.961   5.824   0.929  0.8744 -0.9966  2.1055
22404SOL    HW268826   2.102   5.828   0.875 -0.0525 -0.3398 -0.4044
22405SOL     OW68827   1.867   8.921   2.729 -0.1112 -0.3502 -0.0450
22405SOL    HW168828   1.836   8.956   2.813 -1.2054  0.1138 -0.6281
22405SOL    HW268829   1.916   8.993   2.690  1.0163 -0.7984  0.4857
22406SOL     OW68830   2.865   8.607   1.016  0.1496 -0.3617  0.3475
22406SOL    HW168831   2.917   8.586   1.094  1.1868  0.3146 -0.1512
22406SOL    HW268832   2.929   8.619   0.947 -0.4398  2.8962  0.2468
22407SOL     OW68833   3.239   8.973   4.932  0.1263 -0.3795  0.6819
22407SOL    HW168834   3.237   9.033   5.006  0.3126  0.6779 -0.1366
22407SOL    HW268835   3.154   8.983   4.890  0.5758  0.2108 -0.1284
22408SOL     OW68836   3.314   8.780   0.947 -0.4297 -0.0489  0.4998
22408SOL    HW168837   3.405   8.791   0.976 -0.2019 -0.0814 -0.1858
22408SOL    HW268838   3.316   8.706   0.886 -0.8127  0.2975  0.0502
22409SOL     OW68839   6.555   1.263   7.318 -0.1202 -0.1741 -0.0247
22409SOL    HW168840   6.539   1.288   7.409 -1.3361 -2.3076  0.4117
22409SOL    HW268841   6.596   1.177   7.323  2.4878  0.8752 -1.4893
22410SOL     OW68842   5.038   0.586   1.747 -0.7848  0.7262 -0.2362
22410SOL    HW168843   5.030   0.562   1.654  0.6070 -0.1310 -0.1669
22410SOL    HW268844   5.117   0.640   1.751  0.3726 -0.9363  0.7103
22411SOL     OW68845   9.685   8.606   7.242  0.3589  1.0826 -0.2835
22411SOL    HW168846   9.770   8.562   7.234  0.3325  0.6649  1.3904
22411SOL    HW268847   9.703   8.684   7.294  0.0288  1.9760 -1.4866
22412SOL     OW68848   1.855   8.611   0.430 -0.6980  0.2803 -0.4250
22412SOL    HW168849   1.806   8.602   0.512  0.6007  0.5150  0.4052
22412SOL    HW268850   1.788   8.634   0.365 -2.0466 -1.8039  0.1347
22413SOL     OW68851   2.913   8.978   1.270  0.2658 -0.4437 -0.0127
22413SOL    HW168852   2.861   8.949   1.195 -0.1056 -1.9617  0.7914
22413SOL    HW268853   2.995   8.929   1.263  1.4375  1.5330 -0.9693
22414SOL     OW68854   9.183   9.237   8.115  0.5396 -0.3245 -0.5291
22414SOL    HW168855   9.142   9.320   8.090 -0.1489 -0.5503 -0.1715
22414SOL    HW268856   9.228   9.208   8.036  1.4768  0.7828 -0.4332
22415SOL     OW68857   4.025   2.592   9.595  0.2800  0.0432  0.2674
22415SOL    HW168858   4.001   2.501   9.610 -2.1651  0.8193  1.6757
22415SOL    HW268859   3.965   2.642   9.651  2.0572  2.4932  0.1518
22416SOL     OW68860   2.916   0.650   7.294 -0.0317 -0.1246 -0.2797
22416SOL    HW168861   2.903   0.738   7.261  2.3286  0.4878  0.2507
22416SOL    HW268862   3.007   0.648   7.323 -0.3499 -2.3847  0.8124
22417SOL     OW68863   2.928   2.774   4.830 -0.3380  0.7425 -0.6292
22417SOL    HW168864   2.865   2.717   4.784 -0.3522  0.4551 -0.2573
22417SOL    HW268865   2.999   2.786   4.767 -0.1721  0.0267 -0.5889
22418SOL     OW68866   8.891   3.078   6.633  0.0106  0.8978  0.6939
22418SOL    HW168867   8.960   3.029   6.678  0.1028 -1.0969 -1.4535
22418SOL    HW268868   8.822   3.088   6.699 -0.6247 -3.4443  0.9929
22419SOL     OW68869   8.509   8.392   4.820 -0.1851  0.0353  0.5112
22419SOL    HW168870   8.417   8.392   4.846 -0.1662 -0.7116  0.5791
22419SOL    HW268871   8.553   8.339   4.887 -0.1026 -1.7312 -0.8844
22420SOL     OW68872   6.694   9.786   4.761  0.2917  0.3224  0.2024
22420SOL    HW168873   6.758   9.721   4.792  0.6573  0.5580 -0.0419
22420SOL    HW268874   6.652   9.818   4.841  0.5911  0.2771  0.3813
22421SOL     OW68875   6.980   5.408   1.979  0.2618 -0.0893 -0.6172
22421SOL    HW168876   7.031   5.343   1.931 -0.1099 -0.0389 -1.0993
22421SOL    HW268877   6.969   5.371   2.066  2.1614  0.4618 -0.1155
22422SOL     OW68878   4.991   5.628   1.003  0.2824  0.2025 -0.8260
22422SOL    HW168879   4.934   5.611   1.078  2.6355 -0.7272  0.8835
22422SOL    HW268880   4.951   5.580   0.931  0.2525 -2.6877  0.9560
22423SOL     OW68881   1.572   4.620   3.432 -0.6094  0.4554  0.4756
22423SOL    HW168882   1.538   4.533   3.451  0.9343 -0.8769 -2.1796
22423SOL    HW268883   1.631   4.640   3.505 -0.0224 -1.3362  0.5344
22424SOL     OW68884   3.415   8.365   8.467  0.1104  0.0440  0.2159
22424SOL    HW168885   3.391   8.402   8.382  1.4402  0.1443 -0.1377
22424SOL    HW268886   3.392   8.272   8.460 -0.8687  0.2808  0.1800
22425SOL     OW68887   0.461   2.220   0.165  0.4487  0.1724  0.3349
22425SOL    HW168888   0.510   2.285   0.115  0.1230  0.6371  0.6103
22425SOL    HW268889   0.523   2.147   0.177  0.9150  0.5508  0.2732
22426SOL     OW68890   3.494   5.285   0.605 -0.3325 -0.1457 -0.4067
22426SOL    HW168891   3.402   5.288   0.579 -0.9205  1.7205  1.5503
22426SOL    HW268892   3.518   5.377   0.621  1.0877 -0.7645  1.5106
22427SOL     OW68893   1.037   8.800   6.093 -0.0285  0.1800 -0.2504
22427SOL    HW168894   0.970   8.734   6.074 -0.2608  0.3045  0.1208
22427SOL    HW268895   1.093   8.759   6.159 -0.3715  0.4795  0.2278
22428SOL     OW68896   0.768   8.417   1.645  0.6426  0.2665 -0.3991
22428SOL    HW168897   0.792   8.331   1.680  0.9860  0.8428  0.8511
22428SOL    HW268898   0.719   8.459   1.715  2.6503  2.0463  0.0756
22429SOL     OW68899   1.020   7.998   3.308  0.3042  0.3124 -0.2016
22429SOL    HW168900   1.000   7.995   3.401 -0.1335 -0.5963 -0.3208
22429SOL    HW268901   1.101   7.948   3.299  0.4830  0.6079 -0.2860
22430SOL     OW68902   6.964   9.039   5.249 -0.5082  0.4348  0.3255
22430SOL    HW168903   6.894   9.015   5.189  1.3757 -1.0337 -1.4479
22430SOL    HW268904   7.014   9.106   5.201  0.2126  0.2869  0.8569
22431SOL     OW68905   2.415   7.824   2.015  0.0315 -0.1874  0.2227
22431SOL    HW168906   2.479   7.787   2.076  0.9826  0.0754 -0.5893
22431SOL    HW268907   2.383   7.903   2.058  1.0836  0.2813  0.1840
22432SOL     OW68908   1.724   1.243   7.311 -0.7533 -0.3188 -0.2579
22432SOL    HW168909   1.670   1.313   7.276 -1.6376 -1.7632 -1.9694
22432SOL    HW268910   1.667   1.195   7.371 -0.5727 -0.3531 -0.1115
22433SOL     OW68911   8.467   0.937   1.175 -0.1183  0.5369  0.8130
22433SOL    HW168912   8.464   0.892   1.259 -1.3198  2.2128  1.7318
22433SOL    HW268913   8.390   0.904   1.128  0.4289 -0.2331  0.4357
22434SOL     OW68914   7.061   5.125   9.488  0.0810  0.1964 -0.2450
22434SOL    HW168915   7.111   5.201   9.518  1.2825 -0.4778 -0.4639
22434SOL    HW268916   7.062   5.132   9.393  0.5083 -0.2950 -0.2735
22435SOL     OW68917   1.013   8.933   7.785  0.2667 -0.8006  0.2020
22435SOL    HW168918   1.053   8.960   7.867 -0.3898 -0.0550  0.2892
22435SOL    HW268919   0.949   9.002   7.765  1.6298 -0.0189 -1.8212
22436SOL     OW68920   9.214   8.227   2.448 -0.3306  0.8376 -0.1985
22436SOL    HW168921   9.291   8.282   2.462 -0.8973  1.3414  1.1466
22436SOL    HW268922   9.145   8.269   2.500 -1.5664  0.4962 -1.5232
22437SOL     OW68923   7.740   4.875   1.840 -0.1563  0.6128 -0.2668
22437SOL    HW168924   7.777   4.896   1.926 -1.4503  0.3904  0.3730
22437SOL    HW268925   7.814   4.844   1.789  0.5496  0.2443  0.9421
22438SOL     OW68926   3.143   5.887   7.031  0.2451  0.1358  0.0544
22438SOL    HW168927   3.189   5.956   6.982  2.5236 -0.5850  1.0538
22438SOL    HW268928   3.108   5.932   7.108 -0.2374  0.5769 -0.4089
22439SOL     OW68929   1.241   3.291   8.982 -0.1193  0.1933  0.4594
22439SOL    HW168930   1.320   3.288   8.927  0.2425  0.0107  0.9895
22439SOL    HW268931   1.251   3.218   9.042 -0.7748  0.0738  0.4260
22440SOL     OW68932   2.105   7.601   2.330  0.3065  0.0612 -0.2580
22440SOL    HW168933   2.166   7.537   2.293  0.8532 -0.0165  0.7403
22440SOL    HW268934   2.093   7.573   2.421  1.6579  2.1095  0.6486
22441SOL     OW68935   1.146   7.922   0.972 -0.2564 -0.5216  0.5597
22441SOL    HW168936   1.233   7.959   0.956  0.1476 -1.4997  0.3769
22441SOL    HW268937   1.097   7.992   1.013  0.5663  0.1106  0.4929
22442SOL     OW68938   2.496   5.350   3.930  0.2652 -0.0419 -0.3565
22442SOL    HW168939   2.473   5.307   3.847 -0.7195  0.4849 -0.3704
22442SOL    HW268940   2.498   5.279   3.994  0.9042 -0.4346 -0.8044
22443SOL     OW68941   4.725   1.170   0.949 -0.1914  0.5790 -0.1420
22443SOL    HW168942   4.687   1.163   1.036  0.8335 -1.3582  0.2165
22443SOL    HW268943   4.658   1.133   0.891  0.9892 -3.0137  0.5070
22444SOL     OW68944   5.722   7.774   0.165  0.0201  0.3782 -0.3569
22444SOL    HW168945   5.807   7.748   0.199 -0.3503 -0.7354 -0.2362
22444SOL    HW268946   5.662   7.706   0.196 -0.9329  1.1963 -0.3526
22445SOL     OW68947   8.850   2.155   3.886 -1.0482  0.4199 -0.0463
22445SOL    HW168948   8.795   2.228   3.855 -0.1428 -0.0626 -3.1523
22445SOL    HW268949   8.933   2.196   3.911 -0.7256  0.5659 -1.2842
22446SOL     OW68950   7.969   0.532   5.845  0.8966  0.1095 -0.2516
22446SOL    HW168951   7.984   0.446   5.886  1.3482  0.7033  0.8747
22446SOL    HW268952   7.979   0.515   5.751 -2.6046 -1.8188 -0.4739
22447SOL     OW68953   0.245   8.520   4.962  0.7958 -0.0427  1.0331
22447SOL    HW168954   0.157   8.555   4.948  1.0560 -0.5452 -3.0197
22447SOL    HW268955   0.230   8.436   5.005 -0.9298 -0.7604 -0.7627
22448SOL     OW68956   8.815   8.723   9.614  0.3452  0.3940  0.0948
22448SOL    HW168957   8.831   8.628   9.613 -1.3587  0.0748 -0.4582
22448SOL    HW268958   8.783   8.743   9.526  0.4880  1.4520  0.2749
22449SOL     OW68959   8.248   7.832   6.343 -0.1817 -0.3518  0.3006
22449SOL    HW168960   8.282   7.807   6.429  1.1644  0.2822 -0.0177
22449SOL    HW268961   8.164   7.874   6.362 -0.4872 -1.3318  1.1838
22450SOL     OW68962   6.120   7.880   9.569 -0.3087  0.2162 -0.0677
22450SOL    HW168963   6.062   7.810   9.540  0.4969 -0.5916  0.2432
22450SOL    HW268964   6.063   7.957   9.573 -1.2236 -0.4203 -0.3495
22451SOL     OW68965   8.722   3.453   6.725 -0.2351  0.0365  0.6081
22451SOL    HW168966   8.689   3.537   6.695 -0.1127  0.4867  1.6865
22451SOL    HW268967   8.719   3.459   6.821  0.4142 -0.9284  0.7000
22452SOL     OW68968   3.100   4.146   9.697 -0.1047 -0.1948 -0.0168
22452SOL    HW168969   3.174   4.091   9.668 -0.6071  0.7515 -3.6430
22452SOL    HW268970   3.128   4.235   9.677 -2.0109  0.2182 -1.0402
22453SOL     OW68971   9.035   3.866   8.406  0.4472 -0.1421 -0.2467
22453SOL    HW168972   9.086   3.788   8.425  0.2887 -0.0165  0.7195
22453SOL    HW268973   9.054   3.926   8.478 -1.4119 -0.2640  0.4092
22454SOL     OW68974   5.231   8.517   3.653 -0.3100 -0.1196  0.3025
22454SOL    HW168975   5.250   8.501   3.561  0.3004  0.1953  0.3676
22454SOL    HW268976   5.312   8.554   3.689 -0.5756 -0.1283  0.9378
22455SOL     OW68977   8.653   9.499   3.122 -0.3105  0.7003  1.0644
22455SOL    HW168978   8.744   9.470   3.115 -1.0610 -1.9417  1.1743
22455SOL    HW268979   8.645   9.531   3.212  0.4923  0.9612  1.0502
22456SOL     OW68980   2.393   6.974   6.048 -0.1687 -0.0612  0.5165
22456SOL    HW168981   2.340   6.953   6.125 -0.4696 -1.7852 -0.1100
22456SOL    HW268982   2.336   7.024   5.991 -0.6435 -0.6018  0.5107
22457SOL     OW68983   8.741   5.033   0.418 -0.0631 -0.6652  0.4714
22457SOL    HW168984   8.792   5.028   0.337  0.0853 -0.3918  0.5455
22457SOL    HW268985   8.692   5.115   0.410 -0.2483 -0.7690  0.5424
22458SOL     OW68986   4.174   6.539   9.203  0.3833 -0.8439  0.3669
22458SOL    HW168987   4.101   6.493   9.161 -0.8030  1.5747 -0.4686
22458SOL    HW268988   4.246   6.533   9.140  0.0425 -1.0164 -0.0095
22459SOL     OW68989   6.759   5.865   8.165 -0.2772  0.0382 -0.4952
22459SOL    HW168990   6.847   5.830   8.156 -0.1743  0.5181 -1.5093
22459SOL    HW268991   6.757   5.904   8.253  0.0643 -1.1859  0.0719
22460SOL     OW68992   8.210   9.470   0.878 -0.1363  0.2266 -0.0751
22460SOL    HW168993   8.287   9.506   0.922 -0.1038  0.0007  0.0531
22460SOL    HW268994   8.167   9.416   0.944 -0.2399  0.1095 -0.2367
22461SOL     OW68995   5.880   0.757   1.880  0.2386 -0.0192 -0.6633
22461SOL    HW168996   5.972   0.760   1.908  0.4755 -1.1017 -1.2747
22461SOL    HW268997   5.873   0.824   1.812  0.1671  1.1795  0.4889
22462SOL     OW68998   3.999   6.385   9.067  0.0874  0.0368  0.3045
22462SOL    HW168999   3.917   6.347   9.099 -0.6344 -0.1784 -1.6444
22462SOL    HW269000   3.978   6.415   8.979  1.6805  1.5221  0.3797
22463SOL     OW69001   7.474   7.699   5.086 -0.2239  0.3072  0.6145
22463SOL    HW169002   7.444   7.686   4.996 -1.2070  1.6041  0.7336
22463SOL    HW269003   7.395   7.718   5.136 -0.1585 -3.3005  2.3991
22464SOL     OW69004   5.140   9.349   4.808  0.2609 -0.0508  0.3255
22464SOL    HW169005   5.178   9.414   4.748  0.3881 -0.4266 -0.0020
22464SOL    HW269006   5.052   9.333   4.773  0.3144 -0.2292  0.2733
22465SOL     OW69007   3.860   4.483   4.783  0.2959 -0.2903 -0.2573
22465SOL    HW169008   3.777   4.470   4.736  1.1772 -0.6192 -1.7718
22465SOL    HW269009   3.870   4.578   4.789  0.7406 -0.2010 -1.8486
22466SOL     OW69010   0.833   8.069   1.945 -0.1046 -0.0641  0.1703
22466SOL    HW169011   0.836   7.974   1.944  0.3293 -0.1208  2.6331
22466SOL    HW269012   0.828   8.093   2.037 -0.8975  2.3015 -0.3990
22467SOL     OW69013   0.917   9.193   5.075  0.2870  0.1600  0.2350
22467SOL    HW169014   0.839   9.138   5.065  0.0082  0.7547 -1.0182
22467SOL    HW269015   0.886   9.282   5.060  1.1337  0.4494  0.1796
22468SOL     OW69016   8.544   3.605   1.188 -0.7450 -0.1719  0.1029
22468SOL    HW169017   8.575   3.666   1.255 -0.0104  1.2335 -1.4272
22468SOL    HW269018   8.611   3.610   1.119 -1.6443 -1.2735 -0.8853
22469SOL     OW69019   7.321   7.459   9.009  0.1829 -0.3713 -0.2463
22469SOL    HW169020   7.308   7.429   8.919 -0.3390  2.1708 -1.0998
22469SOL    HW269021   7.243   7.511   9.028  0.3252 -0.7980  1.6801
22470SOL     OW69022   2.418   1.063   4.522 -0.6423 -0.0727  0.2251
22470SOL    HW169023   2.333   1.030   4.491 -0.7766 -0.6884  1.1830
22470SOL    HW269024   2.395   1.135   4.580 -0.5974 -0.8510  1.2529
22471SOL     OW69025   6.392   7.175   1.954 -0.3373  0.2833 -0.3366
22471SOL    HW169026   6.452   7.186   2.028 -1.5183 -0.4995  0.7721
22471SOL    HW269027   6.359   7.086   1.962 -2.0327  0.8476 -0.6116
22472SOL     OW69028   8.337   5.857   1.359  0.3404 -0.1132 -0.6343
22472SOL    HW169029   8.405   5.907   1.404 -1.6869  1.6482  0.6586
22472SOL    HW269030   8.355   5.870   1.266  0.9600  1.5201 -0.3132
22473SOL     OW69031   0.927   0.213   2.430 -0.1368  0.4564  0.4766
22473SOL    HW169032   0.947   0.231   2.338 -0.0337  1.5327  0.6893
22473SOL    HW269033   0.866   0.283   2.455  0.2555  0.4985  1.3652
22474SOL     OW69034   3.543   5.157   4.295  0.1454  0.3075  0.1843
22474SOL    HW169035   3.470   5.096   4.296 -0.0972  0.5876 -0.0476
22474SOL    HW269036   3.530   5.209   4.215  0.5171  0.4544  0.2143
22475SOL     OW69037   7.148   4.243   0.538 -0.4139  0.6693 -0.3612
22475SOL    HW169038   7.069   4.189   0.528 -0.7257  1.5098 -3.4293
22475SOL    HW269039   7.206   4.189   0.592 -1.6685 -1.6472 -1.1588
22476SOL     OW69040   0.663   6.553   6.071  1.1637 -0.2762  0.1508
22476SOL    HW169041   0.664   6.547   6.167 -0.8329  0.8878  0.3216
22476SOL    HW269042   0.720   6.483   6.041  0.6610 -1.6275  2.1714
22477SOL     OW69043   5.617   8.732   2.986  0.0457  0.5750 -0.5076
22477SOL    HW169044   5.652   8.801   3.043  3.1676 -1.1849 -0.0975
22477SOL    HW269045   5.666   8.741   2.904  0.1525 -0.8067 -0.6238
22478SOL     OW69046   9.159   2.471   7.791  0.3937 -0.2402 -0.0164
22478SOL    HW169047   9.208   2.493   7.711 -0.7865 -1.1578 -1.0374
22478SOL    HW269048   9.130   2.381   7.776 -1.4982  0.2409  0.5877
22479SOL     OW69049   7.626   6.181   6.252  0.4784  0.7827  0.2920
22479SOL    HW169050   7.635   6.257   6.195 -0.8664  1.3907  0.8431
22479SOL    HW269051   7.571   6.120   6.203  1.2897  0.2953 -0.0185
22480SOL     OW69052   6.447   1.354   9.083  0.1329 -0.0610  0.5477
22480SOL    HW169053   6.529   1.402   9.070  0.9374 -1.2715  1.0004
22480SOL    HW269054   6.428   1.314   8.998 -0.0980  0.3650  0.3947
22481SOL     OW69055   0.160   6.783   2.788  0.4997  0.0411  0.5064
22481SOL    HW169056   0.154   6.857   2.727 -0.8872  0.0378  0.6254
22481SOL    HW269057   0.076   6.738   2.781  1.2896 -1.4933  0.5097
22482SOL     OW69058   8.735   1.361   8.544  0.3408 -0.9807  0.0334
22482SOL    HW169059   8.778   1.333   8.463  1.6449 -2.2299  1.0848
22482SOL    HW269060   8.800   1.343   8.612 -2.1120 -3.8830  1.8814
22483SOL     OW69061   1.112   1.728   0.224 -0.0322 -0.2497  0.1106
22483SOL    HW169062   1.115   1.689   0.312 -1.2525 -0.5639  0.0300
22483SOL    HW269063   1.106   1.822   0.240  0.6973 -0.2380  0.3450
22484SOL     OW69064   8.472   6.366   0.580  0.0525  0.2905  0.3690
22484SOL    HW169065   8.559   6.337   0.607  0.2936  0.4455 -0.2286
22484SOL    HW269066   8.487   6.417   0.500 -0.5675  0.4676  0.3599
22485SOL     OW69067   3.396   5.478   0.361  0.0261 -0.3295  0.3319
22485SOL    HW169068   3.461   5.478   0.291  0.4963 -0.3809  0.7577
22485SOL    HW269069   3.446   5.457   0.440 -0.2102  1.2390  0.9342
22486SOL     OW69070   3.008   5.326   1.650 -0.8289 -0.1194 -0.5089
22486SOL    HW169071   2.922   5.368   1.649  0.4836  2.7945 -0.3194
22486SOL    HW269072   3.061   5.380   1.708  1.7581 -0.4532 -2.3700
22487SOL     OW69073   8.339   9.533   3.347  0.2692 -0.2840  0.1389
22487SOL    HW169074   8.432   9.547   3.364  0.2639  0.1090 -0.1391
22487SOL    HW269075   8.337   9.474   3.271  0.2880 -0.5627  0.3510
22488SOL     OW69076   4.655   0.274   8.716 -0.0642  0.0603  0.4295
22488SOL    HW169077   4.715   0.288   8.643 -1.0625  1.2152 -0.2051
22488SOL    HW269078   4.679   0.341   8.780 -1.2514  1.1793 -0.2397
22489SOL     OW69079   7.747   8.209   2.522  0.1292  0.2425 -0.7251
22489SOL    HW169080   7.840   8.187   2.511 -0.0187  0.1441 -1.8805
22489SOL    HW269081   7.718   8.234   2.435 -0.9156  0.3708 -0.3510
22490SOL     OW69082   1.541   4.625   9.436 -0.1120  0.1323  0.3785
22490SOL    HW169083   1.537   4.676   9.355 -0.2442  0.7271  0.7491
22490SOL    HW269084   1.456   4.640   9.478 -0.8291 -1.7690 -0.3030
22491SOL     OW69085   0.025   7.351   5.893  0.0206  0.1138 -0.4177
22491SOL    HW169086  -0.054   7.371   5.843  0.7368  1.0112 -1.2354
22491SOL    HW269087   0.096   7.389   5.841  0.8604  0.5066  0.9687
22492SOL     OW69088   9.089   7.338   1.418 -0.7072  0.1267  0.6680
22492SOL    HW169089   8.995   7.341   1.439 -1.4575 -2.5200 -1.5967
22492SOL    HW269090   9.103   7.413   1.360 -1.5811  0.2048  0.5364
22493SOL     OW69091   7.285   0.865   3.959  0.0418 -0.1095 -0.7885
22493SOL    HW169092   7.291   0.893   3.867  1.8662  0.7363 -0.4545
22493SOL    HW269093   7.354   0.914   4.003 -1.1833 -0.0410  1.1735
22494SOL     OW69094   9.729   5.532   3.428  0.2004 -0.2342 -0.3076
22494SOL    HW169095   9.802   5.577   3.471  0.8702 -1.6710  0.1050
22494SOL    HW269096   9.758   5.442   3.417 -1.8399 -1.0977  0.7213
22495SOL     OW69097   7.346   4.483   7.167  0.2960 -0.1896  0.0147
22495SOL    HW169098   7.442   4.482   7.176  0.3081  0.5948  0.0626
22495SOL    HW269099   7.318   4.557   7.220 -0.1425  0.9244 -1.6938
22496SOL     OW69100   6.460   6.508   9.455 -0.4388 -0.0054 -0.2254
22496SOL    HW169101   6.552   6.533   9.469 -0.5389 -0.6853  2.0071
22496SOL    HW269102   6.410   6.585   9.485 -0.6073 -0.2134  0.0348
22497SOL     OW69103   1.536   6.322   2.412  0.0201 -0.1205  0.3618
22497SOL    HW169104   1.478   6.254   2.447  0.9733 -1.1876 -0.0549
22497SOL    HW269105   1.540   6.303   2.318 -0.1258  0.8561  0.1511
22498SOL     OW69106   1.895   9.283   5.474  0.5792  0.3893  0.4915
22498SOL    HW169107   1.831   9.343   5.435  0.1597 -0.4378 -0.1314
22498SOL    HW269108   1.845   9.203   5.492  1.7637 -0.8958 -1.5902
22499SOL     OW69109   4.679   4.703   6.040  0.3300 -0.2530  0.1700
22499SOL    HW169110   4.701   4.666   5.954 -0.5391 -1.7958  0.5776
22499SOL    HW269111   4.589   4.674   6.056  0.4929 -0.0035  1.6158
22500SOL     OW69112   4.878   2.505   8.677  0.2660 -0.4389  0.1355
22500SOL    HW169113   4.795   2.525   8.634  0.7006 -0.6227 -0.8168
22500SOL    HW269114   4.905   2.422   8.637  1.0744 -0.1999  0.1840
22501SOL     OW69115   4.703   4.800   5.570 -0.8832 -0.2152 -0.2223
22501SOL    HW169116   4.663   4.823   5.486  1.9372 -0.7477 -1.8403
22501SOL    HW269117   4.781   4.749   5.546 -1.8797 -3.5964  2.8432
22502SOL     OW69118   8.932   0.746   4.175  0.6023  0.0396 -0.1903
22502SOL    HW169119   8.944   0.841   4.175  0.7413  0.1021 -2.6712
22502SOL    HW269120   9.020   0.710   4.179  0.6306  0.0681 -0.4976
22503SOL     OW69121   7.301   1.376   8.639  0.2876 -0.3878 -0.7519
22503SOL    HW169122   7.307   1.468   8.615 -2.2993 -0.6963 -3.1001
22503SOL    HW269123   7.224   1.370   8.696  0.7606 -1.0196 -0.1635
22504SOL     OW69124   9.257   6.582   4.419 -0.6908  0.3983  0.0079
22504SOL    HW169125   9.320   6.515   4.389  0.0745  1.4819 -0.8848
22504SOL    HW269126   9.209   6.539   4.490  0.1010 -0.9423 -0.2205
22505SOL     OW69127   7.241   0.673   7.137  0.6108  0.1076  0.1202
22505SOL    HW169128   7.312   0.706   7.193 -0.9345  1.1799  1.5672
22505SOL    HW269129   7.217   0.748   7.082 -0.4200  0.2733  0.7613
22506SOL     OW69130   1.807   0.589   4.579  0.0390  1.1764  0.2078
22506SOL    HW169131   1.831   0.647   4.507  1.3455  0.2078 -0.1585
22506SOL    HW269132   1.738   0.533   4.544  0.8801  0.5045 -0.4144
22507SOL     OW69133   3.370   0.966   2.578  0.2000 -0.4363 -0.4029
22507SOL    HW169134   3.341   0.886   2.623 -2.4112  1.9402  2.5677
22507SOL    HW269135   3.289   1.004   2.542  1.2856  1.1449 -1.2777
22508SOL     OW69136   6.601   8.397   6.665  0.1279  0.5578 -0.7388
22508SOL    HW169137   6.605   8.473   6.722 -1.1191  0.5070 -0.5547
22508SOL    HW269138   6.568   8.431   6.582 -2.6174 -0.0611 -0.0094
22509SOL     OW69139   7.579   9.669   7.949 -0.2185 -0.4461  0.0612
22509SOL    HW169140   7.558   9.578   7.927 -0.4272 -0.8368  1.7395
22509SOL    HW269141   7.516   9.692   8.017  0.8260  0.4497  0.7510
22510SOL     OW69142   4.943   5.931   2.942  0.2594 -0.0978 -0.1979
22510SOL    HW169143   4.898   5.860   2.986  0.2013 -0.6878 -1.1832
22510SOL    HW269144   4.945   5.905   2.850  2.3147  0.0556 -0.2472
22511SOL     OW69145   1.269   9.763   0.659 -0.3125 -0.2644 -0.3426
22511SOL    HW169146   1.182   9.754   0.698  0.5229 -0.7000  1.4988
22511SOL    HW269147   1.292   9.675   0.630  0.5425 -0.6836  1.5115
22512SOL     OW69148   4.440   9.776   1.670 -0.1511  0.3220 -0.3773
22512SOL    HW169149   4.445   9.783   1.766 -0.7903 -0.3786 -0.2844
22512SOL    HW269150   4.385   9.851   1.645  0.0811  0.5534 -0.2089
22513SOL     OW69151   5.043   4.467   3.878 -0.0608 -0.2179  0.4726
22513SOL    HW169152   4.978   4.521   3.923  0.4077  0.3853  0.4453
22513SOL    HW269153   5.123   4.478   3.930  0.2290 -0.2940  0.0475
22514SOL     OW69154   2.326   3.354   3.442  0.0658 -0.1369 -0.6371
22514SOL    HW169155   2.252   3.383   3.495 -1.3555 -0.8527 -2.1395
22514SOL    HW269156   2.375   3.434   3.424 -0.4368  0.3803  0.2294
22515SOL     OW69157   7.979   3.865   4.024  0.7178  0.1143  0.4166
22515SOL    HW169158   8.011   3.776   4.010 -0.7240 -0.5541  1.1608
22515SOL    HW269159   8.016   3.915   3.951 -0.9282 -1.7637 -1.8605
22516SOL     OW69160   7.191   1.626   0.124  0.0282  0.0797  0.4043
22516SOL    HW169161   7.157   1.644   0.212  0.4234  0.3934  0.5006
22516SOL    HW269162   7.144   1.548   0.095 -0.3265  0.1510  0.7724
22517SOL     OW69163   5.157   1.168   9.601 -0.3563 -0.5367  0.3635
22517SOL    HW169164   5.206   1.110   9.543 -2.2944 -0.9969 -0.9088
22517SOL    HW269165   5.211   1.247   9.607  2.0465 -2.1231  1.6277
22518SOL     OW69166   3.149   8.013   2.840  0.2950  0.1305 -0.5085
22518SOL    HW169167   3.159   8.100   2.877  0.9122  0.1671 -0.7347
22518SOL    HW269168   3.207   7.958   2.892  0.4568  0.0008 -0.8207
22519SOL     OW69169   7.434   5.605   8.446  0.0026  0.0601  0.2738
22519SOL    HW169170   7.493   5.667   8.403 -0.9989  0.5544 -0.4282
22519SOL    HW269171   7.376   5.574   8.377  0.3531 -1.5313  0.6622
22520SOL     OW69172   3.247   9.288   5.741  0.7459  0.0915  0.5624
22520SOL    HW169173   3.228   9.320   5.830  0.4698  0.9684  0.1988
22520SOL    HW269174   3.267   9.195   5.753 -0.8111 -0.1715  1.3569
22521SOL     OW69175   2.286   4.016   9.109  0.5923  0.3977 -0.1251
22521SOL    HW169176   2.230   4.050   9.039 -1.3086 -0.1368  1.0670
22521SOL    HW269177   2.374   4.017   9.072 -0.1633  1.4479 -2.0178
22522SOL     OW69178   2.872   0.740   7.582 -0.5576  0.2452 -0.4216
22522SOL    HW169179   2.851   0.743   7.675 -2.1382 -0.6805 -0.7263
22522SOL    HW269180   2.917   0.823   7.565  2.5085 -0.7835  1.7667
22523SOL     OW69181   9.606   0.379   4.713  0.3012  0.3604 -0.2550
22523SOL    HW169182   9.554   0.311   4.755  1.9420 -1.3179 -0.7913
22523SOL    HW269183   9.623   0.442   4.783  0.8586 -1.0854  0.9832
22524SOL     OW69184   2.448   5.071   8.299 -0.3615  0.5477  0.1454
22524SOL    HW169185   2.495   5.045   8.378  0.1968 -1.7065 -0.8640
22524SOL    HW269186   2.423   5.162   8.316 -0.8392 -0.0304  3.1628
22525SOL     OW69187   3.859   5.732   6.573  0.3993  0.0114  0.2614
22525SOL    HW169188   3.835   5.813   6.528  3.3770  0.4126 -0.8414
22525SOL    HW269189   3.787   5.671   6.554  0.3074  0.9734 -2.9344
22526SOL     OW69190   7.392   8.074   2.298 -0.4654  1.3605 -0.2697
22526SOL    HW169191   7.474   8.043   2.261  0.2715  0.6185  1.8792
22526SOL    HW269192   7.324   8.027   2.249  0.5396 -1.5236  0.9625
22527SOL     OW69193   5.361   4.011   1.118  0.1890 -0.1996 -0.1529
22527SOL    HW169194   5.429   4.010   1.186 -0.9923  0.4409  1.0866
22527SOL    HW269195   5.283   3.974   1.161  0.1183 -2.4502 -2.0126
22528SOL     OW69196   7.504   0.815   7.161 -1.1989 -0.5289  0.0472
22528SOL    HW169197   7.546   0.884   7.110 -1.9422 -1.2175 -1.5665
22528SOL    HW269198   7.479   0.858   7.243 -1.5403  1.0955 -0.8628
22529SOL     OW69199   1.661   7.251   7.847 -0.3360 -0.1517  0.1600
22529SOL    HW169200   1.605   7.270   7.772 -1.4020  0.0403  0.9684
22529SOL    HW269201   1.612   7.286   7.922  1.2513  0.7571  0.8100
22530SOL     OW69202   0.750   4.335   3.156  0.4990  0.0195  0.4470
22530SOL    HW169203   0.669   4.308   3.198  0.2158  2.4622  1.5979
22530SOL    HW269204   0.740   4.307   3.064 -1.6463  0.3195  0.5572
22531SOL     OW69205   1.094   8.852   2.038 -0.3576 -0.3713 -0.0337
22531SOL    HW169206   1.081   8.768   1.993  0.4928 -0.4485 -0.1548
22531SOL    HW269207   1.084   8.831   2.131 -0.6710 -0.4978 -0.0916
22532SOL     OW69208   3.133   3.934   7.238  0.2974  0.2171 -0.2199
22532SOL    HW169209   3.173   3.858   7.281 -0.2862  1.5642  3.0214
22532SOL    HW269210   3.042   3.908   7.223  0.1598  0.1518  0.6564
22533SOL     OW69211   6.786   5.288   7.620 -0.6313 -0.4446 -0.2544
22533SOL    HW169212   6.765   5.196   7.635  1.0062 -1.0484 -1.4263
22533SOL    HW269213   6.742   5.309   7.537 -1.9670  0.2000  0.5831
22534SOL     OW69214   6.868   3.120   4.367  0.0064  0.1166 -0.3889
22534SOL    HW169215   6.957   3.118   4.403 -0.4480  0.1533  0.7581
22534SOL    HW269216   6.866   3.047   4.306  0.8883  0.2424 -0.5895
22535SOL     OW69217   2.696   5.753   6.354  0.9323 -0.8769 -0.2374
22535SOL    HW169218   2.727   5.737   6.265  0.0308 -1.7816 -0.4006
22535SOL    HW269219   2.708   5.670   6.399  0.8739 -0.5806  0.3299
22536SOL     OW69220   0.865   4.321   8.307 -0.6020 -0.0451  0.0012
22536SOL    HW169221   0.816   4.241   8.290 -0.5591 -0.0571 -0.0647
22536SOL    HW269222   0.815   4.366   8.375 -0.9832  0.1878 -0.4267
22537SOL     OW69223   4.712   4.500   3.254  0.2678  0.5919 -0.6601
22537SOL    HW169224   4.726   4.584   3.298 -0.4807  0.2534  0.2638
22537SOL    HW269225   4.633   4.513   3.202 -0.0918  0.3541 -0.1892
22538SOL     OW69226   1.328   1.811   2.107 -0.1544 -0.2573  0.0278
22538SOL    HW169227   1.418   1.784   2.090 -0.3863 -1.9188  1.2289
22538SOL    HW269228   1.305   1.769   2.189 -1.7261  0.9384  0.2517
22539SOL     OW69229   1.999   5.533   4.935  0.4374 -0.2236 -0.1579
22539SOL    HW169230   2.070   5.508   4.995  0.7613 -1.0620 -0.8723
22539SOL    HW269231   1.953   5.603   4.981  0.1897 -1.3663  1.4354
22540SOL     OW69232   2.807   8.201   2.442 -0.0309 -0.2979  0.3919
22540SOL    HW169233   2.859   8.232   2.516 -1.9879  0.5454  1.4838
22540SOL    HW269234   2.767   8.120   2.474 -0.9093  0.0869  0.2898
22541SOL     OW69235   7.064   5.999   2.142 -0.1202 -0.1982 -0.5339
22541SOL    HW169236   7.053   6.064   2.212  0.3156  0.4271 -1.0322
22541SOL    HW269237   7.017   6.036   2.067 -1.0176 -1.0992 -0.4411
22542SOL     OW69238   3.546   6.621   4.690  0.4206  0.0261 -0.0963
22542SOL    HW169239   3.637   6.600   4.710  0.4541  0.8128  0.6535
22542SOL    HW269240   3.532   6.707   4.731 -0.9573 -0.5420  0.6945
22543SOL     OW69241   9.592   5.056   7.988 -0.4854  0.5364  0.1091
22543SOL    HW169242   9.521   5.075   8.049  0.3671 -0.0266  1.3204
22543SOL    HW269243   9.551   5.008   7.916 -1.3685  0.4270  0.6787
22544SOL     OW69244   4.164   4.484   4.268  0.1452 -0.0450 -0.0939
22544SOL    HW169245   4.194   4.464   4.179 -0.1917  0.5352 -0.3382
22544SOL    HW269246   4.107   4.411   4.291  1.4451 -0.9940  0.2458
22545SOL     OW69247   4.678   9.394   5.638  0.8949 -0.2591  0.2438
22545SOL    HW169248   4.734   9.471   5.639  1.8456 -0.8768 -1.3617
22545SOL    HW269249   4.600   9.421   5.589  0.9227 -0.1241  0.2743
22546SOL     OW69250   2.024   9.190   4.891 -0.1425  0.1695  0.0687
22546SOL    HW169251   1.931   9.168   4.893 -0.0707 -0.3984 -1.3567
22546SOL    HW269252   2.030   9.275   4.934 -1.5599  0.9319 -1.1446
22547SOL     OW69253   6.982   7.280   3.270  0.5104 -0.0282 -0.4426
22547SOL    HW169254   7.006   7.243   3.185 -1.3506 -1.1113 -0.5537
22547SOL    HW269255   7.066   7.297   3.313  1.5063  0.6726 -2.5108
22548SOL     OW69256   3.404   9.682   4.564 -0.1653 -0.6989 -0.1377
22548SOL    HW169257   3.439   9.759   4.519  0.1295  0.1952  1.5709
22548SOL    HW269258   3.310   9.701   4.574  0.3942  1.0362  3.1566
22549SOL     OW69259   6.801   9.499   7.889  0.0854 -0.0996 -0.4701
22549SOL    HW169260   6.836   9.588   7.884 -1.4006  0.5915  0.5138
22549SOL    HW269261   6.874   9.443   7.864  1.7543  1.2726  1.0170
22550SOL     OW69262   6.618   5.495   4.316 -0.6253 -0.1155 -0.2747
22550SOL    HW169263   6.536   5.458   4.349  0.9247 -2.5324  1.1938
22550SOL    HW269264   6.667   5.519   4.395  1.7285 -2.7138 -0.7637
22551SOL     OW69265   0.892   3.962   5.470 -0.3060 -0.5029  0.2560
22551SOL    HW169266   0.834   3.907   5.523 -0.5725  0.9248  1.5259
22551SOL    HW269267   0.950   4.004   5.533 -0.3252  0.9075 -0.6152
22552SOL     OW69268   5.846   4.045   8.062 -1.0334  0.4002 -0.0636
22552SOL    HW169269   5.824   4.123   8.112 -1.9262  0.7578 -0.9858
22552SOL    HW269270   5.852   4.075   7.971 -1.0574 -0.5394 -0.3897
22553SOL     OW69271   4.371   4.523   1.791  0.4973 -0.0393 -0.5936
22553SOL    HW169272   4.389   4.611   1.757  2.2288 -0.3007 -0.4509
22553SOL    HW269273   4.371   4.467   1.714 -0.0987 -0.0007 -0.6277
22554SOL     OW69274   9.096   2.783   8.867 -0.1947 -0.3641  0.0314
22554SOL    HW169275   9.077   2.780   8.961  1.3133 -2.3038  0.3451
22554SOL    HW269276   9.078   2.694   8.836  2.9455 -0.8703 -0.6921
22555SOL     OW69277   4.745   7.079   3.597  0.1788 -0.5763  0.2245
22555SOL    HW169278   4.763   7.067   3.690 -1.6199  0.4045  0.7577
22555SOL    HW269279   4.708   6.995   3.569 -0.6579 -0.4090  0.7856
22556SOL     OW69280   6.610   9.435   7.654  0.0544 -0.4588 -0.1211
22556SOL    HW169281   6.566   9.353   7.678 -1.0500  0.9827  3.5125
22556SOL    HW269282   6.673   9.450   7.724  1.4626  1.0055 -1.6102
22557SOL     OW69283   7.787   7.521   2.757  0.1112 -0.0298  0.3323
22557SOL    HW169284   7.881   7.538   2.764 -0.1419  1.4849  0.4828
22557SOL    HW269285   7.770   7.448   2.817  1.3860 -1.2066 -0.6932
22558SOL     OW69286   0.253   9.796   1.625  0.0879 -0.3430 -0.4143
22558SOL    HW169287   0.298   9.725   1.581  0.1674 -0.1337 -0.6691
22558SOL    HW269288   0.313   9.870   1.621  0.4552 -0.5507  0.7849
22559SOL     OW69289   9.350   6.287   4.020 -1.1764 -0.4879  0.0000
22559SOL    HW169290   9.319   6.222   4.083 -0.5318  0.0786  0.9180
22559SOL    HW269291   9.330   6.249   3.934  0.0699 -2.3293  0.4895
22560SOL     OW69292   0.858   5.552   6.989 -0.4436 -0.2129 -0.1329
22560SOL    HW169293   0.831   5.483   7.050  0.2084 -0.2354  0.1372
22560SOL    HW269294   0.788   5.555   6.923 -1.1914 -0.1358  0.6503
22561SOL     OW69295   3.002   0.865   1.200 -0.0450  0.3794  0.3827
22561SOL    HW169296   3.084   0.848   1.246  0.2672 -0.3539 -0.4186
22561SOL    HW269297   2.964   0.941   1.244 -0.2852 -0.9140  2.5256
22562SOL     OW69298   4.068   6.344   5.105 -0.5018 -0.0718  0.5615
22562SOL    HW169299   3.995   6.335   5.043 -0.0188 -0.0027 -0.0273
22562SOL    HW269300   4.146   6.335   5.051 -0.0717 -0.1839  1.1965
22563SOL     OW69301   1.699   7.750   7.794  0.3715 -0.3698 -0.1136
22563SOL    HW169302   1.707   7.705   7.710  1.9256 -1.1541  0.4179
22563SOL    HW269303   1.773   7.719   7.845  0.2820  1.2015  1.0449
22564SOL     OW69304   1.408   0.593   8.454  0.4751  0.8259  0.3052
22564SOL    HW169305   1.342   0.660   8.438 -1.3505 -0.9198  0.1726
22564SOL    HW269306   1.437   0.566   8.367  0.1651  0.4595  0.3149
22565SOL     OW69307   4.110   9.688   1.860  0.0863  0.0285  0.1219
22565SOL    HW169308   4.195   9.733   1.856  0.8058 -1.2428  0.6598
22565SOL    HW269309   4.052   9.742   1.805  1.3945  0.5544 -0.7912
22566SOL     OW69310   4.607   7.020   1.020 -0.2464 -0.1504 -0.3348
22566SOL    HW169311   4.692   7.014   0.976 -0.7975 -2.4620 -1.2256
22566SOL    HW269312   4.625   7.000   1.111  0.5845  2.5851  0.2001
22567SOL     OW69313   0.788   2.467   7.754 -0.2659 -0.3781  0.5706
22567SOL    HW169314   0.858   2.440   7.815  1.2725  0.5504 -0.6982
22567SOL    HW269315   0.804   2.416   7.675 -0.4277  0.5354 -0.0646
22568SOL     OW69316   8.265   7.563   7.753  0.2205  0.3134 -0.6649
22568SOL    HW169317   8.328   7.628   7.721  1.1656 -0.0019  0.4755
22568SOL    HW269318   8.282   7.558   7.847 -1.9316  0.6361 -0.2204
22569SOL     OW69319   3.755   3.432   4.977 -0.0856  0.1567  0.2831
22569SOL    HW169320   3.681   3.437   4.916  1.1855  1.7259 -1.2436
22569SOL    HW269321   3.741   3.506   5.037  1.4705  2.1406 -1.6177
22570SOL     OW69322   1.988   1.123   6.536 -0.3418  0.3226 -0.1134
22570SOL    HW169323   1.895   1.105   6.547 -0.1529 -0.8847 -0.3426
22570SOL    HW269324   1.998   1.144   6.443 -0.0804 -1.7560 -0.6069
22571SOL     OW69325   3.929   4.374   2.181 -0.8320  0.3829 -0.2086
22571SOL    HW169326   4.003   4.325   2.144 -0.8058 -0.4952  0.9326
22571SOL    HW269327   3.886   4.414   2.106  1.3018  1.6355 -0.8345
22572SOL     OW69328   6.747   2.472   4.111  0.4985  0.5086  0.2119
22572SOL    HW169329   6.704   2.535   4.053  2.7705  0.7502 -1.3143
22572SOL    HW269330   6.794   2.527   4.174 -0.8653  0.2445  1.5327
22573SOL     OW69331   0.853   1.290   1.362  0.4806  0.4091  0.1238
22573SOL    HW169332   0.778   1.349   1.374  0.2484 -0.1267  1.5398
22573SOL    HW269333   0.858   1.277   1.268 -1.9511 -0.4506  0.0391
22574SOL     OW69334   7.923   4.573   0.292 -0.8796 -0.0886  0.0099
22574SOL    HW169335   8.014   4.570   0.265 -0.1067 -1.1986  2.4436
22574SOL    HW269336   7.919   4.646   0.354 -2.2579  1.4849 -1.7969
22575SOL     OW69337   7.692   4.505   1.716 -0.3133 -0.4876  0.0957
22575SOL    HW169338   7.637   4.583   1.717  0.0626 -0.2292  0.6567
22575SOL    HW269339   7.736   4.508   1.630  0.0686  0.1755  0.3073
22576SOL     OW69340   8.213   2.282   9.261 -0.1716 -0.8618  0.7138
22576SOL    HW169341   8.297   2.257   9.224  0.3091  1.2498  0.2401
22576SOL    HW269342   8.225   2.275   9.356  0.8433  0.1674  0.6921
22577SOL     OW69343   3.902   0.034   9.723 -0.7030 -0.3687 -0.7077
22577SOL    HW169344   3.990   0.066   9.744 -0.6638 -0.7934 -0.1935
22577SOL    HW269345   3.855   0.111   9.693 -0.9035  0.4361  1.4657
22578SOL     OW69346   7.982   8.438   5.796  0.3382 -0.4558  0.4057
22578SOL    HW169347   8.018   8.401   5.876  3.1590 -0.9299 -0.9368
22578SOL    HW269348   7.889   8.417   5.799  0.9914 -3.7614  1.8427
22579SOL     OW69349   9.471   4.880   4.555  0.0820  0.3709  1.3540
22579SOL    HW169350   9.436   4.957   4.598  0.7013  0.6241  1.4081
22579SOL    HW269351   9.544   4.852   4.610  0.8463  0.6671  0.5120
22580SOL     OW69352   5.354   2.481   9.532 -0.1013  0.3616 -0.2434
22580SOL    HW169353   5.265   2.503   9.559  0.0083 -0.7631  1.1480
22580SOL    HW269354   5.410   2.543   9.580 -0.0188 -0.3944  0.6571
22581SOL     OW69355   7.831   2.433   9.303 -0.1180  0.4760  0.3867
22581SOL    HW169356   7.901   2.444   9.239  0.5108 -1.0926  0.7600
22581SOL    HW269357   7.798   2.522   9.319  2.7017  1.4589  1.2223
22582SOL     OW69358   9.036   4.883   2.000 -0.2578 -0.0059  0.1507
22582SOL    HW169359   9.012   4.884   1.908 -1.0792  0.6875  0.3614
22582SOL    HW269360   9.044   4.975   2.024  0.8368 -0.1852  0.5639
22583SOL     OW69361   1.994   8.186   8.910 -0.3036 -0.0023  0.1063
22583SOL    HW169362   2.064   8.132   8.948  1.5109  1.4244 -1.0769
22583SOL    HW269363   1.976   8.146   8.825 -0.6237 -0.0911  0.2132
22584SOL     OW69364   5.551   1.514   3.974  0.1462 -0.1759  0.4518
22584SOL    HW169365   5.595   1.598   3.992 -0.0911  0.0733 -0.0948
22584SOL    HW269366   5.595   1.451   4.031  0.7215  0.2109  0.4462
22585SOL     OW69367   0.323   2.121   8.560 -0.0779  0.1756 -0.4139
22585SOL    HW169368   0.296   2.109   8.651 -1.1799  1.6012 -0.5143
22585SOL    HW269369   0.319   2.216   8.547 -1.0103 -0.0762 -2.2550
22586SOL     OW69370   1.889   3.515   7.748  0.5565  0.3539  0.3073
22586SOL    HW169371   1.847   3.467   7.819 -0.4453  1.4023  0.4495
22586SOL    HW269372   1.823   3.578   7.718  2.0643  2.2286  0.6892
22587SOL     OW69373   3.925   9.657   3.356  0.1005  0.7853  0.4195
22587SOL    HW169374   3.888   9.571   3.334 -0.6999  0.7224  1.8563
22587SOL    HW269375   4.018   9.641   3.366  0.2858  0.5375 -1.3786
22588SOL     OW69376   2.524   2.736   6.915  0.5507 -0.2651 -0.1888
22588SOL    HW169377   2.610   2.694   6.914  0.9490  0.4158  1.5551
22588SOL    HW269378   2.479   2.700   6.838  2.1862 -1.0325 -0.8434
22589SOL     OW69379   8.801   8.189   4.962 -0.7145 -0.2586 -0.1125
22589SOL    HW169380   8.783   8.226   4.875  0.1017  1.4173  0.3758
22589SOL    HW269381   8.752   8.245   5.022 -0.9446 -1.1557  0.5423
22590SOL     OW69382   7.965   8.684   7.365 -0.3108  0.3480  0.2060
22590SOL    HW169383   8.036   8.647   7.312 -0.8354 -1.6788  0.8087
22590SOL    HW269384   7.905   8.722   7.301  0.1485 -0.0892 -0.5043
22591SOL     OW69385   3.487   1.704   6.588 -0.2361 -0.8839  0.2269
22591SOL    HW169386   3.402   1.738   6.617  0.8100  0.5963  1.8276
22591SOL    HW269387   3.539   1.783   6.571  1.2202 -1.7150  0.6253
22592SOL     OW69388   3.084   5.303   8.866  0.1821  0.4756  0.3354
22592SOL    HW169389   3.091   5.399   8.869 -1.2075  0.5666  1.3697
22592SOL    HW269390   3.166   5.272   8.904  1.6184  1.1833 -1.9920
22593SOL     OW69391   1.325   8.741   5.179 -0.0050  0.3807  0.1252
22593SOL    HW169392   1.355   8.763   5.091 -0.3070  0.9810  0.1622
22593SOL    HW269393   1.366   8.657   5.199  2.5680  1.6598  0.6202
22594SOL     OW69394   2.928   6.974   6.568  0.5160 -0.3188 -0.1113
22594SOL    HW169395   2.854   6.954   6.510  2.1719 -1.1267 -2.0906
22594SOL    HW269396   2.933   6.899   6.627  0.6603 -1.0568 -1.0191
22595SOL     OW69397   5.791   9.616   1.376 -0.2373  0.1368 -0.5720
22595SOL    HW169398   5.839   9.538   1.347 -0.0191  0.3595 -0.8151
22595SOL    HW269399   5.784   9.606   1.471  1.0668  0.5171 -0.4100
22596SOL     OW69400   7.636   9.217   8.286  0.4127 -0.0519 -0.2393
22596SOL    HW169401   7.583   9.145   8.319  0.1146 -0.0141 -0.6239
22596SOL    HW269402   7.687   9.179   8.215  1.2637 -0.1999  0.4337
22597SOL     OW69403   5.709   4.214   8.893 -0.3127  0.2586  0.0962
22597SOL    HW169404   5.791   4.167   8.900 -0.2965 -0.3573 -2.8020
22597SOL    HW269405   5.687   4.240   8.983  3.2929  0.9614  0.9213
22598SOL     OW69406   5.460   6.437   2.186  0.3864  0.2513 -0.0266
22598SOL    HW169407   5.504   6.353   2.174 -1.1363 -0.4168 -1.2964
22598SOL    HW269408   5.438   6.465   2.097  1.6336  2.4647  0.2800
22599SOL     OW69409   4.536   7.028   9.313  0.2407 -0.4674  0.2642
22599SOL    HW169410   4.607   7.078   9.353  0.8107 -0.9928 -0.0512
22599SOL    HW269411   4.535   7.057   9.222  0.6306 -1.0662  0.0584
22600SOL     OW69412   0.310   5.986   4.984  0.5177  0.1512 -0.2881
22600SOL    HW169413   0.365   5.985   5.062  0.1995  2.3644  0.0435
22600SOL    HW269414   0.223   5.960   5.016  0.3076  1.3857  0.2227
22601SOL     OW69415   5.332   6.855   6.006 -0.3855  0.4276 -0.0414
22601SOL    HW169416   5.240   6.841   6.025 -0.7872  0.9182 -1.5114
22601SOL    HW269417   5.357   6.782   5.950  0.3917 -0.2147  1.0963
22602SOL     OW69418   7.719   9.522   6.741 -0.2828  0.3387  0.2630
22602SOL    HW169419   7.694   9.585   6.808 -0.9711 -0.1484  0.4781
22602SOL    HW269420   7.801   9.556   6.705 -0.0362  0.7435  1.1750
22603SOL     OW69421   8.482   0.366   9.171  0.3574 -0.4746  0.0332
22603SOL    HW169422   8.417   0.342   9.238  0.8452  0.1643  0.7485
22603SOL    HW269423   8.430   0.405   9.101 -0.0593 -0.1783  0.4964
22604SOL     OW69424   9.645   6.279   0.231 -0.0077  0.5117  0.6105
22604SOL    HW169425   9.555   6.268   0.260  0.4868 -1.2673  1.6139
22604SOL    HW269426   9.648   6.368   0.195 -3.2038 -0.6620 -3.3275
22605SOL     OW69427   7.733   4.797   7.541 -0.3655 -0.0749  0.7241
22605SOL    HW169428   7.681   4.863   7.495 -1.4399 -1.0106  0.5581
22605SOL    HW269429   7.800   4.771   7.477  1.1190  1.9601  1.3237
22606SOL     OW69430   3.545   5.719   4.986  0.3811  0.6691 -0.4436
22606SOL    HW169431   3.580   5.808   4.996  0.6783  0.5346 -0.2433
22606SOL    HW269432   3.589   5.685   4.908  1.4744  0.1467  0.3798
22607SOL     OW69433   2.701   1.274   7.922 -0.3927 -0.3679  0.0657
22607SOL    HW169434   2.762   1.200   7.916 -0.0822 -0.2217  1.1139
22607SOL    HW269435   2.671   1.288   7.832  0.2085 -1.2080 -0.2819
22608SOL     OW69436   4.126   0.261   3.895  0.1944 -0.0285  0.5011
22608SOL    HW169437   4.153   0.341   3.850  0.1737 -0.6914 -0.7582
22608SOL    HW269438   4.198   0.199   3.877 -0.6664 -0.8602 -0.2125
22609SOL     OW69439   9.768   7.412   4.824 -0.1894 -0.3343  0.5263
22609SOL    HW169440   9.861   7.422   4.846 -0.0757 -1.3980  0.5875
22609SOL    HW269441   9.750   7.319   4.838 -1.6508  0.1255  1.9754
22610SOL     OW69442   8.025   4.383   5.212 -0.4417 -0.7249  0.1298
22610SOL    HW169443   7.949   4.369   5.270 -0.6410  0.9623  0.3288
22610SOL    HW269444   8.037   4.299   5.169 -2.6515 -0.9711 -0.1562
22611SOL     OW69445   1.055   9.135   4.805 -0.0332  0.0745  0.3177
22611SOL    HW169446   1.116   9.208   4.798  1.3890 -1.1437 -0.4111
22611SOL    HW269447   1.008   9.151   4.887 -1.5949  3.1343 -1.0336
22612SOL     OW69448   3.829   1.270   9.693 -0.2184 -0.1925 -0.0430
22612SOL    HW169449   3.776   1.297   9.769 -0.1587  3.1255 -1.0318
22612SOL    HW269450   3.861   1.352   9.656 -1.5945 -1.4693 -4.6892
22613SOL     OW69451   4.325   8.205   8.605  0.0015 -0.2241  0.0335
22613SOL    HW169452   4.243   8.211   8.556 -0.1008  1.2930  0.3451
22613SOL    HW269453   4.315   8.127   8.659 -0.9769 -0.4242 -0.4118
22614SOL     OW69454   0.563   0.569   6.328  0.2236  0.2027  0.5824
22614SOL    HW169455   0.545   0.637   6.263 -0.3463  0.0502  0.5763
22614SOL    HW269456   0.651   0.590   6.361  0.4706  0.3460 -0.1502
22615SOL     OW69457   1.960   1.799   7.386  0.0166 -0.0403  0.5590
22615SOL    HW169458   1.967   1.745   7.465  0.4189 -0.2855  0.3610
22615SOL    HW269459   2.043   1.784   7.340 -0.1720  0.1856  0.1444
22616SOL     OW69460   7.486   6.947   8.152  0.0588 -0.5415 -0.0032
22616SOL    HW169461   7.533   6.916   8.075 -0.5711  0.5615 -0.8683
22616SOL    HW269462   7.541   6.922   8.226  1.1352 -0.8120 -0.8755
22617SOL     OW69463   8.654   1.146   7.991  0.0162  0.0536  0.3120
22617SOL    HW169464   8.666   1.228   7.943  0.1043 -1.0778 -1.6971
22617SOL    HW269465   8.559   1.140   8.004 -0.0981 -0.0465 -0.5258
22618SOL     OW69466   4.586   3.444   2.976 -0.2259 -0.5080  0.0493
22618SOL    HW169467   4.647   3.495   2.924 -0.4332  0.9586  1.1879
22618SOL    HW269468   4.499   3.471   2.945 -0.3623  0.7787  1.4762
22619SOL     OW69469   5.250   7.589   0.139  0.2938  0.4597  0.1539
22619SOL    HW169470   5.317   7.560   0.078  0.6953 -0.9374  1.2172
22619SOL    HW269471   5.299   7.631   0.210  0.1194 -0.8452  1.0907
22620SOL     OW69472   9.145   3.995   1.060  0.0633  0.6979  0.2205
22620SOL    HW169473   9.228   3.994   1.107  0.1023  2.5238  0.2438
22620SOL    HW269474   9.164   4.036   0.976 -0.8304  1.3646  0.3184
22621SOL     OW69475   5.518   2.796   1.491 -0.3216  0.6385  0.1523
22621SOL    HW169476   5.491   2.803   1.583 -1.9515  2.4773 -0.3995
22621SOL    HW269477   5.441   2.760   1.446 -0.0823  1.1790 -0.7065
22622SOL     OW69478   1.109   1.945   1.988 -0.1871  0.4816  0.1828
22622SOL    HW169479   1.086   1.877   1.925 -1.5602  0.8203  0.2924
22622SOL    HW269480   1.195   1.919   2.022 -0.0508 -0.4272 -0.8134
22623SOL     OW69481   4.696   7.764   2.603  0.1162  0.1942  0.0465
22623SOL    HW169482   4.665   7.832   2.543 -0.4300  1.2080  1.4306
22623SOL    HW269483   4.779   7.799   2.637  0.8949 -0.7871 -0.7559
22624SOL     OW69484   2.577   5.225   2.230 -0.6681 -0.0364 -0.1512
22624SOL    HW169485   2.623   5.240   2.313  0.6947 -0.9642 -0.7003
22624SOL    HW269486   2.617   5.288   2.169 -0.3123 -0.6507 -0.5638
22625SOL     OW69487   8.488   4.967   2.981  0.0078  0.4986 -0.5533
22625SOL    HW169488   8.436   5.039   3.017 -0.4123  0.8570 -1.8055
22625SOL    HW269489   8.424   4.909   2.939  0.2477 -1.1001  1.1811
22626SOL     OW69490   6.763   6.337   1.650  0.0553 -0.4299 -0.2625
22626SOL    HW169491   6.763   6.271   1.719  2.8806  0.6906  0.9854
22626SOL    HW269492   6.780   6.289   1.569 -1.6621 -1.5733  0.0005
22627SOL     OW69493   7.623   5.314   1.890  0.0270  0.3996 -0.5633
22627SOL    HW169494   7.583   5.230   1.914  0.2569 -0.2102 -2.2121
22627SOL    HW269495   7.656   5.349   1.973 -0.0240 -1.1616  0.1520
22628SOL     OW69496   8.186   1.160   0.213  0.3429  0.1277 -0.1350
22628SOL    HW169497   8.190   1.081   0.268  0.3059  0.5243  0.4474
22628SOL    HW269498   8.189   1.233   0.275  2.5888  0.6361 -0.7605
22629SOL     OW69499   6.874   5.007   5.104  0.7306  0.1206  0.4276
22629SOL    HW169500   6.925   4.940   5.149  1.5617  1.3824  1.4280
22629SOL    HW269501   6.818   5.045   5.171  1.2367  1.3253  0.2007
22630SOL     OW69502   8.628   9.499   3.388 -0.1453 -0.3964  0.1342
22630SOL    HW169503   8.649   9.501   3.481  0.5125 -2.7698  0.0930
22630SOL    HW269504   8.688   9.434   3.351 -0.6090  0.2622 -1.9040
22631SOL     OW69505   9.575   8.573   1.915  0.2225  0.2618  0.3790
22631SOL    HW169506   9.627   8.512   1.863 -0.3569 -1.7461  2.0329
22631SOL    HW269507   9.632   8.597   1.989  0.3554  1.5882 -0.1193
22632SOL     OW69508   3.866   7.309   1.936  0.2931  0.3562  0.0016
22632SOL    HW169509   3.859   7.397   1.899 -2.4130 -0.4515 -1.7437
22632SOL    HW269510   3.890   7.254   1.861  0.1864 -0.6021  0.6518
22633SOL     OW69511   2.610   0.345   7.004  0.0887  0.1536 -0.4844
22633SOL    HW169512   2.629   0.282   6.935  3.8689  1.5540 -0.9432
22633SOL    HW269513   2.683   0.406   7.002 -1.0178  1.8753  2.9948
22634SOL     OW69514   4.248   0.812   4.775 -0.1403  0.1354 -0.2677
22634SOL    HW169515   4.246   0.740   4.838  1.3390 -0.8947 -1.3299
22634SOL    HW269516   4.326   0.862   4.799 -0.5524  0.7645 -0.2165
22635SOL     OW69517   0.510   8.307   0.943  0.2976 -0.4915  0.2200
22635SOL    HW169518   0.488   8.377   0.881 -0.8364 -0.1339  1.0067
22635SOL    HW269519   0.587   8.339   0.989 -0.0806  0.1535  0.4135
22636SOL     OW69520   2.606   3.310   3.904 -0.2791 -0.1176 -0.1106
22636SOL    HW169521   2.688   3.287   3.861  1.0195  0.7100  1.7845
22636SOL    HW269522   2.543   3.321   3.833  0.7784 -2.4189 -1.5254
22637SOL     OW69523   3.098   4.024   6.464  0.3471  0.0879  0.5363
22637SOL    HW169524   3.115   4.069   6.546  1.7691 -2.9476  2.0446
22637SOL    HW269525   3.184   4.004   6.428 -0.2335 -0.7092 -0.4846
22638SOL     OW69526   0.671   4.735   4.687  0.6055  0.7129  0.0494
22638SOL    HW169527   0.597   4.771   4.736  0.4560 -0.9409  1.1547
22638SOL    HW269528   0.731   4.703   4.755  1.1064 -0.3083 -0.8388
22639SOL     OW69529   3.964   1.635   7.463 -0.0282  0.0424 -0.1241
22639SOL    HW169530   4.024   1.653   7.391  1.6736 -3.5632  0.1265
22639SOL    HW269531   3.999   1.685   7.537  1.0959  0.0903 -0.6649
22640SOL     OW69532   3.321   9.559   3.155 -0.1282  0.2138 -0.1205
22640SOL    HW169533   3.291   9.574   3.244 -0.5795 -1.4297  0.0309
22640SOL    HW269534   3.407   9.601   3.151  0.5993 -1.0598  1.5784
22641SOL     OW69535   9.652   1.514   3.577 -0.0911 -0.2673  0.2831
22641SOL    HW169536   9.644   1.424   3.545  0.8383 -0.4558  0.5507
22641SOL    HW269537   9.737   1.516   3.622 -0.5071  0.5036  1.0630
22642SOL     OW69538   4.535   8.302   3.941 -0.3451 -0.3595  0.0458
22642SOL    HW169539   4.453   8.291   3.892 -1.3931 -0.6433  1.7891
22642SOL    HW269540   4.532   8.392   3.973  1.0129  0.2942 -1.5218
22643SOL     OW69541   8.203   1.529   6.430  0.4133 -0.0731  0.4974
22643SOL    HW169542   8.294   1.502   6.418  0.0192 -0.6474 -1.5849
22643SOL    HW269543   8.162   1.457   6.477  0.8221 -0.2375  0.6073
22644SOL     OW69544   7.973   4.986   0.221 -0.0336  0.0158 -0.3663
22644SOL    HW169545   7.902   4.926   0.239 -0.1142  0.0372 -0.6027
22644SOL    HW269546   8.041   4.932   0.180  0.8526 -0.3816  1.5264
22645SOL     OW69547   7.999   0.807   7.574 -0.1050  0.7095  0.4041
22645SOL    HW169548   8.048   0.831   7.653  1.4259 -3.0053  0.8072
22645SOL    HW269549   8.067   0.787   7.510 -1.2236  0.0777 -0.6182
22646SOL     OW69550   3.965   9.258   8.887 -0.6669 -0.4261  0.0332
22646SOL    HW169551   4.029   9.193   8.857 -0.6660  0.4193 -1.9318
22646SOL    HW269552   3.906   9.208   8.945 -1.0789 -2.3995 -1.9284
22647SOL     OW69553   8.841   5.512   8.084 -0.2293 -0.2110  0.3236
22647SOL    HW169554   8.934   5.537   8.085 -0.2559 -0.0652  2.0816
22647SOL    HW269555   8.798   5.576   8.141 -0.6758 -2.6979  3.0412
22648SOL     OW69556   7.482   1.136   2.799 -0.2441 -0.1855 -0.1682
22648SOL    HW169557   7.447   1.095   2.878 -2.1369  0.6579 -0.5152
22648SOL    HW269558   7.541   1.204   2.831 -1.4718  0.5703  0.5751
22649SOL     OW69559   7.001   7.632   7.294 -0.2458  0.2131 -0.1811
22649SOL    HW169560   7.021   7.679   7.213  1.0330  1.0132  0.5737
22649SOL    HW269561   7.084   7.595   7.322 -0.9094 -1.0991  0.1451
22650SOL     OW69562   6.764   1.843   4.864 -0.6671  0.0035 -0.0553
22650SOL    HW169563   6.725   1.838   4.952  1.0596 -0.4337  0.7268
22650SOL    HW269564   6.813   1.761   4.855  1.1668  1.0951 -0.4244
22651SOL     OW69565   6.270   2.232   6.860  0.3064 -0.3119 -0.1993
22651SOL    HW169566   6.304   2.319   6.839 -2.0022  0.8165  0.3635
22651SOL    HW269567   6.347   2.181   6.886  1.8688  1.1974 -1.6434
22652SOL     OW69568   8.447   4.024   5.767  0.8450  0.7839 -0.1435
22652SOL    HW169569   8.407   4.029   5.854  1.6557  2.9133  0.1563
22652SOL    HW269570   8.510   3.953   5.774  1.0008  1.0297  1.0631
22653SOL     OW69571   1.360   4.896   3.570 -0.4146 -0.1663 -0.0408
22653SOL    HW169572   1.286   4.844   3.599 -0.0782 -0.7975 -0.2877
22653SOL    HW269573   1.412   4.910   3.649 -1.0188  0.6618  0.2201
22654SOL     OW69574   2.022   7.436   2.072 -0.5150 -0.9160  0.0303
22654SOL    HW169575   2.053   7.353   2.037  0.0515 -0.6292 -0.1664
22654SOL    HW269576   1.927   7.432   2.064 -0.4707 -1.4180 -0.2585
22655SOL     OW69577   3.800   4.638   0.649 -0.2256  0.2201  0.3097
22655SOL    HW169578   3.874   4.663   0.705 -0.6551  0.6072  0.7076
22655SOL    HW269579   3.841   4.614   0.566  0.2395  1.9292  0.0159
22656SOL     OW69580   7.661   3.663   2.617  0.0223 -0.2030 -0.0751
22656SOL    HW169581   7.653   3.701   2.529 -1.5058 -1.2127 -0.4065
22656SOL    HW269582   7.633   3.734   2.676  1.1056  0.4948 -0.3687
22657SOL     OW69583   0.099   6.726   3.847  0.1368  0.3854 -0.0526
22657SOL    HW169584   0.007   6.752   3.857 -0.2984 -1.5196  1.4329
22657SOL    HW269585   0.096   6.646   3.795  0.6476 -1.1522  2.1459
22658SOL     OW69586   6.572   1.211   0.210  0.0611  0.4016  0.3203
22658SOL    HW169587   6.493   1.229   0.261  0.5510 -0.3331  1.3745
22658SOL    HW269588   6.562   1.121   0.181 -1.2639  1.4226 -2.9027
22659SOL     OW69589   4.453   8.523   3.084 -0.4327  0.2396 -0.0269
22659SOL    HW169590   4.473   8.589   3.151  0.3785  0.7574 -0.7665
22659SOL    HW269591   4.456   8.440   3.132  1.8884  0.4223  0.2906
22660SOL     OW69592   0.193   0.418   1.787 -0.3499  0.5465  0.0559
22660SOL    HW169593   0.171   0.325   1.798 -2.5784  1.2124  2.0141
22660SOL    HW269594   0.139   0.447   1.713  0.0937  0.3911 -0.3373
22661SOL     OW69595   6.036   7.401   2.586 -0.1471 -0.2099 -0.3326
22661SOL    HW169596   6.066   7.472   2.642  1.0542 -1.1229  0.2242
22661SOL    HW269597   6.061   7.428   2.498 -1.2753  0.8376 -0.3617
22662SOL     OW69598   9.628   4.643   2.761 -0.2537 -0.1265  0.1783
22662SOL    HW169599   9.586   4.636   2.675 -1.5799  0.0243  0.7942
22662SOL    HW269600   9.561   4.681   2.817  0.7610  0.2401  1.1776
22663SOL     OW69601   7.699   2.552   4.550  0.0837  0.0630 -0.0034
22663SOL    HW169602   7.773   2.610   4.569 -1.0846  1.4505  0.4621
22663SOL    HW269603   7.688   2.558   4.455  0.4685 -0.0376 -0.0574
22664SOL     OW69604   1.699   0.211   5.850 -0.3372  0.0595 -0.0268
22664SOL    HW169605   1.732   0.139   5.797 -2.0271  1.0657 -2.6369
22664SOL    HW269606   1.610   0.185   5.874 -0.5433  0.7736  0.0075
22665SOL     OW69607   4.093   6.900   7.204 -0.1830  0.1363 -0.0205
22665SOL    HW169608   4.185   6.910   7.229 -0.6644  0.9961  1.5281
22665SOL    HW269609   4.084   6.955   7.126  0.8901 -0.9953 -0.9850
22666SOL     OW69610   9.696   3.443   2.859 -0.3871  0.4907 -0.5002
22666SOL    HW169611   9.691   3.371   2.796  1.9289 -0.9280  0.7502
22666SOL    HW269612   9.758   3.505   2.819  0.3758  0.0265 -0.0744
22667SOL     OW69613   8.286   4.502   5.149  0.1897  0.3937 -0.7085
22667SOL    HW169614   8.207   4.452   5.170  2.1074 -1.9452  1.6250
22667SOL    HW269615   8.328   4.451   5.080  0.4659  0.7137 -0.7751
22668SOL     OW69616   2.196   3.013   6.490 -0.2894 -0.4036 -0.0954
22668SOL    HW169617   2.210   3.055   6.575  1.0182  0.9187 -0.9225
22668SOL    HW269618   2.169   3.084   6.433 -0.2038 -1.1104 -1.0331
22669SOL     OW69619   4.831   9.517   8.107 -0.2184  0.5581  0.2870
22669SOL    HW169620   4.803   9.451   8.171 -1.8989  0.2287 -0.7227
22669SOL    HW269621   4.749   9.552   8.071  0.5096 -1.0535 -3.4754
22670SOL     OW69622   4.661   6.692   7.840 -0.4365 -0.4974  0.2166
22670SOL    HW169623   4.755   6.710   7.831 -0.1933 -1.0314  1.4647
22670SOL    HW269624   4.629   6.758   7.901 -0.6726 -0.8947  0.5268
22671SOL     OW69625   1.641   0.538   1.536  0.2436  0.2345 -0.6679
22671SOL    HW169626   1.546   0.539   1.523  0.0159 -0.3359  0.7703
22671SOL    HW269627   1.657   0.460   1.588  1.5120  0.3544 -0.8557
22672SOL     OW69628   3.414   2.379   1.897 -0.5418  0.2416 -0.3825
22672SOL    HW169629   3.380   2.446   1.837  0.3342  0.3310 -0.7971
22672SOL    HW269630   3.428   2.426   1.979  0.0120  0.5639 -0.6549
22673SOL     OW69631   8.449   7.719   1.450  0.0744 -0.2765 -0.2314
22673SOL    HW169632   8.428   7.799   1.499 -1.2858 -1.5640  1.3890
22673SOL    HW269633   8.368   7.669   1.450  1.3685 -2.4858  0.4121
22674SOL     OW69634   2.296   8.705   6.767  0.1152 -0.2036 -0.3890
22674SOL    HW169635   2.345   8.767   6.820 -0.5513  0.0057 -0.0177
22674SOL    HW269636   2.276   8.633   6.826 -2.1840  0.8236  0.1827
22675SOL     OW69637   6.160   4.163   9.772  0.3588 -0.3041  0.0307
22675SOL    HW169638   6.204   4.241   9.737 -0.1327  0.3132  0.7631
22675SOL    HW269639   6.067   4.186   9.771  0.2652 -0.6315  0.8745
22676SOL     OW69640   4.200   0.107   1.929 -0.1327  0.0171  0.1903
22676SOL    HW169641   4.111   0.095   1.962 -0.3197 -0.9526 -0.5999
22676SOL    HW269642   4.190   0.166   1.855 -0.0785  0.1740  0.3098
22677SOL     OW69643   2.391   2.711   5.381 -0.2295 -0.0965  0.1641
22677SOL    HW169644   2.332   2.646   5.420 -0.4213  0.1929  0.3555
22677SOL    HW269645   2.378   2.702   5.286  0.1763 -0.7426  0.1583
22678SOL     OW69646   5.039   4.256   7.629  0.2803  0.7608  0.6139
22678SOL    HW169647   5.130   4.239   7.605 -0.4977 -1.0798 -1.3226
22678SOL    HW269648   4.992   4.261   7.546 -1.2386  3.0002  1.4998
22679SOL     OW69649   1.609   7.578   1.562 -0.1481 -0.3515 -0.1419
22679SOL    HW169650   1.654   7.544   1.640 -0.3543  0.7570  0.4795
22679SOL    HW269651   1.516   7.564   1.581 -0.3675  2.1600  0.9573
22680SOL     OW69652   7.883   3.247   2.821 -0.1442  0.1243 -0.3585
22680SOL    HW169653   7.882   3.248   2.725  0.4208 -1.3157 -0.4141
22680SOL    HW269654   7.974   3.227   2.844 -0.0107  1.6253  0.5324
22681SOL     OW69655   6.906   8.919   9.021 -0.5420  0.9642  0.3752
22681SOL    HW169656   6.923   9.013   9.023 -1.1901  1.1401 -0.8820
22681SOL    HW269657   6.978   8.883   8.970 -1.8460  1.2371 -1.8279
22682SOL     OW69658   2.533   2.765   3.993  0.0055 -0.4649 -1.1181
22682SOL    HW169659   2.459   2.794   3.940 -0.3357 -0.5964 -0.7216
22682SOL    HW269660   2.498   2.758   4.081  0.8578  0.8771 -0.6380
22683SOL     OW69661   3.831   2.304   0.425 -0.3941  0.1041 -0.3536
22683SOL    HW169662   3.874   2.227   0.388  1.0638 -0.2350  1.8316
22683SOL    HW269663   3.740   2.297   0.396 -0.3215 -2.4665 -0.2157
22684SOL     OW69664   6.326   0.216   7.787  0.4110  0.2912 -0.0901
22684SOL    HW169665   6.420   0.234   7.793  0.4936 -0.2419  0.2720
22684SOL    HW269666   6.319   0.152   7.716  0.3725 -0.0118  0.1858
22685SOL     OW69667   0.575   3.085   2.140 -0.0907 -0.2271 -0.0980
22685SOL    HW169668   0.553   3.150   2.207  1.4083 -0.1594  0.3565
22685SOL    HW269669   0.494   3.034   2.129 -0.6777  0.4215  0.9963
22686SOL     OW69670   8.987   5.022   4.967 -0.2609 -0.0231  0.2386
22686SOL    HW169671   9.072   5.062   4.951 -1.0962  1.4456 -0.6769
22686SOL    HW269672   8.935   5.043   4.890 -1.9232  0.3638  1.4042
22687SOL     OW69673   7.321   3.613   7.726 -0.7020 -0.0284 -0.0047
22687SOL    HW169674   7.410   3.603   7.693 -1.2254  0.0551 -1.4890
22687SOL    HW269675   7.327   3.685   7.789  0.2407  0.0987 -0.2270
22688SOL     OW69676   8.443   8.840   7.182  0.3786  0.0309 -0.0348
22688SOL    HW169677   8.395   8.844   7.099 -0.3404 -0.3851  0.3459
22688SOL    HW269678   8.515   8.779   7.166 -0.5878 -1.1590  0.0430
22689SOL     OW69679   1.496   5.669   5.434 -0.0718  0.7553  0.3921
22689SOL    HW169680   1.518   5.761   5.447  0.4491  0.8489 -1.0320
22689SOL    HW269681   1.581   5.625   5.425 -0.3018  0.0832  1.3030
22690SOL     OW69682   7.139   5.240   7.385 -0.6518  0.2495  0.5186
22690SOL    HW169683   7.090   5.173   7.434 -2.2304  1.1646  0.2568
22690SOL    HW269684   7.072   5.301   7.355  0.5010  0.7411 -1.1762
22691SOL     OW69685   1.862   1.269   8.703 -0.3893 -0.2944 -0.0112
22691SOL    HW169686   1.938   1.218   8.732  0.3244  1.5777  1.6332
22691SOL    HW269687   1.880   1.291   8.612  1.2686  0.4411  0.4604
22692SOL     OW69688   7.483   4.075   1.842  0.1567 -0.6416  0.9884
22692SOL    HW169689   7.389   4.058   1.847  0.2967 -1.3234  1.3716
22692SOL    HW269690   7.524   3.992   1.865  0.8562 -0.1442  1.5809
22693SOL     OW69691   6.845   2.770   8.792  0.1392 -0.3360 -0.3462
22693SOL    HW169692   6.934   2.798   8.769  0.1305 -0.5618 -0.6444
22693SOL    HW269693   6.858   2.698   8.854  0.1737  1.0383  1.3508
22694SOL     OW69694   9.558   6.921   5.287 -0.6266  0.3389  0.1072
22694SOL    HW169695   9.485   6.959   5.336  0.1754  0.2306  1.4052
22694SOL    HW269696   9.588   6.849   5.341 -0.9983 -1.0839 -1.5057
22695SOL     OW69697   8.033   7.735   3.264 -0.1306 -0.3263  0.2808
22695SOL    HW169698   8.114   7.714   3.218 -0.9285 -0.2557 -1.2416
22695SOL    HW269699   7.974   7.662   3.242 -1.3409  0.9541 -0.9453
22696SOL     OW69700   4.483   7.777   5.350 -0.1700 -0.3716  0.1424
22696SOL    HW169701   4.463   7.864   5.385 -2.1471 -0.1465 -1.3162
22696SOL    HW269702   4.545   7.739   5.412  0.2589  1.8332  1.1487
22697SOL     OW69703   5.425   6.113   8.607 -0.2121  0.1264  0.5637
22697SOL    HW169704   5.470   6.196   8.622 -1.4250  0.8023  0.6327
22697SOL    HW269705   5.492   6.054   8.574  0.6493  1.1707  0.4096
22698SOL     OW69706   0.378   7.163   6.129  0.1852 -0.1062 -0.1727
22698SOL    HW169707   0.466   7.132   6.148 -0.6778 -2.5221  0.3034
22698SOL    HW269708   0.328   7.144   6.208 -1.0917 -0.2190 -0.9686
22699SOL     OW69709   8.365   6.392   1.116  0.1378  0.4200 -0.1997
22699SOL    HW169710   8.448   6.429   1.145 -0.9386  1.2927  1.9253
22699SOL    HW269711   8.302   6.464   1.121 -1.0371 -0.5442 -0.4425
22700SOL     OW69712   5.633   0.419   4.780 -0.8226 -0.2950 -0.1857
22700SOL    HW169713   5.648   0.427   4.686 -1.3182 -1.9135 -0.4335
22700SOL    HW269714   5.586   0.499   4.804  0.2882  0.6640 -1.0801
22701SOL     OW69715   8.430   5.135   3.689  0.1473 -0.5888 -0.4661
22701SOL    HW169716   8.335   5.128   3.676  0.2679  1.0266 -2.8375
22701SOL    HW269717   8.443   5.114   3.781 -2.6478  0.3022  0.2291
22702SOL     OW69718   5.152   6.568   7.720 -0.7109 -0.1537 -0.1585
22702SOL    HW169719   5.099   6.517   7.658  0.5291 -1.2883 -0.3150
22702SOL    HW269720   5.234   6.519   7.728 -0.3909  0.5963  1.4944
22703SOL     OW69721   8.816   1.113   2.229  0.1615  0.4060 -0.0824
22703SOL    HW169722   8.881   1.181   2.248  0.7555 -0.6738  2.2047
22703SOL    HW269723   8.849   1.068   2.151  0.7050  1.5861 -0.5435
22704SOL     OW69724   5.087   3.900   4.813  0.0768 -0.1252 -0.2327
22704SOL    HW169725   5.083   3.807   4.837 -0.4064 -0.0311  0.0572
22704SOL    HW269726   5.013   3.940   4.860 -0.7599  0.1040 -1.6939
22705SOL     OW69727   4.260   0.805   5.791  0.0766  0.3702  0.5537
22705SOL    HW169728   4.348   0.785   5.758  1.4105  2.3360  2.6119
22705SOL    HW269729   4.238   0.731   5.848 -0.7596 -1.3204 -1.7837
22706SOL     OW69730   9.466   7.808   9.396  0.3030 -0.6468 -0.0436
22706SOL    HW169731   9.539   7.762   9.439 -1.2577  0.2837  4.0564
22706SOL    HW269732   9.389   7.758   9.421 -0.9375  1.3086  0.1984
22707SOL     OW69733   1.336   5.023   0.600  0.2113  0.1179  0.0467
22707SOL    HW169734   1.369   5.078   0.670 -0.4285  0.4021  0.1336
22707SOL    HW269735   1.273   4.964   0.643  1.1673 -0.9568  0.0261
22708SOL     OW69736   6.428   3.893   5.846  0.0627 -0.4699  0.1005
22708SOL    HW169737   6.487   3.966   5.866  0.7183 -0.2207 -2.3421
22708SOL    HW269738   6.392   3.867   5.930  4.6064 -1.4815  1.9962
22709SOL     OW69739   0.500   1.576   5.100  0.0860 -0.4749 -0.2587
22709SOL    HW169740   0.555   1.501   5.078  1.4470  0.4165 -0.0209
22709SOL    HW269741   0.411   1.548   5.077  0.3626 -2.5992  0.9232
22710SOL     OW69742   7.295   4.665   0.316 -0.3691  0.4511  0.1087
22710SOL    HW169743   7.315   4.745   0.267  1.9415 -1.0840 -1.6528
22710SOL    HW269744   7.367   4.606   0.297 -1.1145 -1.5014  2.7446
22711SOL     OW69745   3.558   8.273   9.695  0.3197 -0.6020  0.6339
22711SOL    HW169746   3.643   8.310   9.669  0.2913 -0.6085  0.5298
22711SOL    HW269747   3.564   8.180   9.672  0.9225 -0.9720  2.2132
22712SOL     OW69748   8.887   5.946   2.705 -0.8055  0.6210  0.1078
22712SOL    HW169749   8.922   5.859   2.726  0.8701  1.2639  0.1482
22712SOL    HW269750   8.828   5.931   2.632 -0.3432 -0.5309 -0.0545
22713SOL     OW69751   5.139   6.466   3.712  0.3305  0.3065 -0.2608
22713SOL    HW169752   5.134   6.492   3.620  2.8456  1.2116 -0.2117
22713SOL    HW269753   5.120   6.546   3.761 -1.0796 -0.1877  0.0760
22714SOL     OW69754   2.199   1.434   3.311 -0.2560  0.1851  0.2260
22714SOL    HW169755   2.193   1.514   3.260  0.0485  0.5411  0.7404
22714SOL    HW269756   2.291   1.429   3.337  0.2999 -1.5720 -1.7827
22715SOL     OW69757   2.010   8.390   0.608 -0.6401 -0.3129  0.4705
22715SOL    HW169758   2.055   8.324   0.661 -1.2053 -0.0089  1.3513
22715SOL    HW269759   1.997   8.348   0.523  0.2327 -0.8314  0.5877
22716SOL     OW69760   0.923   6.776   6.285 -0.9581 -0.5391 -0.4633
22716SOL    HW169761   0.973   6.728   6.352 -0.4949  1.4319  0.6995
22716SOL    HW269762   0.842   6.800   6.329 -0.8706  0.3303 -0.7475
22717SOL     OW69763   0.366   1.125   0.567 -0.2880 -0.6083 -0.7668
22717SOL    HW169764   0.435   1.189   0.551 -0.3833 -0.7976 -2.1145
22717SOL    HW269765   0.398   1.071   0.639  0.2453  0.3033 -0.3066
22718SOL     OW69766   0.137   4.562   0.575  0.7659  0.6905  0.3130
22718SOL    HW169767   0.225   4.600   0.573  1.2723 -0.4289 -1.4217
22718SOL    HW269768   0.123   4.532   0.485 -0.4280 -1.3072  1.1002
22719SOL     OW69769   3.974   0.404   7.162  0.3218  0.0688 -0.6091
22719SOL    HW169770   3.948   0.311   7.162 -1.5495  0.5538 -0.3526
22719SOL    HW269771   4.019   0.415   7.246  0.1529 -0.5065 -0.4326
22720SOL     OW69772   7.293   7.889   7.685 -0.2769  0.1499 -0.1338
22720SOL    HW169773   7.284   7.824   7.755  0.4918  0.4499  0.2585
22720SOL    HW269774   7.203   7.917   7.667 -0.3908  1.3980  2.0056
22721SOL     OW69775   0.830   7.877   0.389  0.0323  0.1308 -0.0426
22721SOL    HW169776   0.813   7.949   0.329  2.6793  1.6797  0.8795
22721SOL    HW269777   0.846   7.919   0.474 -0.2321 -1.7202  1.0009
22722SOL     OW69778   1.340   0.779   2.437 -0.4646  0.1027  0.3589
22722SOL    HW169779   1.410   0.839   2.410 -1.7978  1.2033 -0.8389
22722SOL    HW269780   1.306   0.816   2.518  0.5969 -0.6810  1.1830
22723SOL     OW69781   4.479   7.513   8.870  0.3350 -0.2213  0.2448
22723SOL    HW169782   4.471   7.420   8.846 -1.3864 -0.4475  1.5041
22723SOL    HW269783   4.550   7.515   8.934  2.2579 -0.1992 -1.7794
22724SOL     OW69784   2.569   3.269   9.266 -0.0251  0.1123  0.1539
22724SOL    HW169785   2.620   3.190   9.248  0.8628  0.3057  1.6015
22724SOL    HW269786   2.626   3.320   9.324 -0.5348  1.8674 -0.8266
22725SOL     OW69787   4.868   6.473   9.581 -0.0239 -0.3696  0.1305
22725SOL    HW169788   4.944   6.450   9.636  0.2880 -0.9609 -0.5250
22725SOL    HW269789   4.807   6.400   9.593 -0.1686 -0.2600  0.0681
22726SOL     OW69790   4.476   5.377   6.527  0.0230 -0.2183 -0.0975
22726SOL    HW169791   4.382   5.371   6.507  0.0558 -1.8804  0.0593
22726SOL    HW269792   4.484   5.337   6.614  0.8072  0.4486  0.1467
22727SOL     OW69793   5.898   5.312   7.932 -0.5159 -0.0309 -0.0471
22727SOL    HW169794   5.884   5.353   7.846  0.1543  0.2534 -0.0253
22727SOL    HW269795   5.921   5.222   7.912 -0.7232 -0.0626 -0.1484
22728SOL     OW69796   0.547   2.971   3.443 -0.2966  0.5009  0.9300
22728SOL    HW169797   0.623   2.953   3.388  0.0104  0.0448  1.4872
22728SOL    HW269798   0.479   3.001   3.383  0.0192 -0.0262  0.3059
22729SOL     OW69799   1.936   9.731   2.966 -0.1022 -0.2498  0.0321
22729SOL    HW169800   1.879   9.710   2.891 -0.5057 -1.0724  0.5598
22729SOL    HW269801   1.988   9.805   2.935  0.3083 -1.0768 -1.3531
22730SOL     OW69802   0.597   0.577   3.739  0.1198 -0.3545 -0.0667
22730SOL    HW169803   0.615   0.561   3.831  0.0282 -0.8142 -0.1244
22730SOL    HW269804   0.630   0.666   3.722  1.0861 -0.6598  0.1547
22731SOL     OW69805   5.334   9.222   2.681  0.1146 -0.6760 -0.4547
22731SOL    HW169806   5.355   9.279   2.606 -0.4309  1.2738  0.7846
22731SOL    HW269807   5.297   9.282   2.746 -0.2724 -2.4597  1.0378
22732SOL     OW69808   3.398   3.901   0.337 -0.3015 -0.4853  0.0641
22732SOL    HW169809   3.464   3.835   0.356 -0.3357 -0.8856 -1.1230
22732SOL    HW269810   3.381   3.943   0.421  1.0844 -0.7178  0.4922
22733SOL     OW69811   0.965   5.231   3.854  0.5052 -0.3136 -0.1130
22733SOL    HW169812   1.045   5.283   3.863  0.8634 -0.1531 -3.1571
22733SOL    HW269813   0.969   5.196   3.765 -2.6636 -0.5691 -0.2649
22734SOL     OW69814   7.896   5.860   3.569  0.0209 -0.1791  0.0719
22734SOL    HW169815   7.965   5.820   3.516  2.6200  3.5165  0.2385
22734SOL    HW269816   7.838   5.903   3.506 -0.1647 -0.4899  0.0324
22735SOL     OW69817   2.657   9.041   0.317 -0.1185 -0.0066  0.2137
22735SOL    HW169818   2.671   8.952   0.352 -1.9462 -0.0588  0.8976
22735SOL    HW269819   2.698   9.098   0.381 -0.1808 -0.2925  0.5133
22736SOL     OW69820   3.663   5.988   1.128 -0.3101 -0.0877 -0.0185
22736SOL    HW169821   3.707   6.045   1.064  0.3510  1.6586  1.8591
22736SOL    HW269822   3.584   6.036   1.152  0.8487  0.7533  2.4758
22737SOL     OW69823   3.203   0.478   4.710 -0.0955 -0.1405  0.9769
22737SOL    HW169824   3.208   0.565   4.669 -2.7482 -0.2907  0.1731
22737SOL    HW269825   3.268   0.482   4.781  2.0743  1.3774 -0.9351
22738SOL     OW69826   1.157   4.847   4.949  0.4525  0.4866 -0.2232
22738SOL    HW169827   1.135   4.870   4.859  1.1025  0.4137 -0.4066
22738SOL    HW269828   1.247   4.877   4.960 -0.6205  3.4422  1.4175
22739SOL     OW69829   3.696   0.840   6.703 -0.5054 -0.3723 -0.4462
22739SOL    HW169830   3.606   0.807   6.699 -0.6245 -0.0329 -0.6600
22739SOL    HW269831   3.719   0.835   6.796 -1.0728  0.3742 -0.2484
22740SOL     OW69832   0.211   4.010   9.535 -0.3339  0.1944 -0.1567
22740SOL    HW169833   0.268   3.947   9.580  1.5191  0.4374 -2.0379
22740SOL    HW269834   0.243   4.096   9.564 -0.5585  0.3242 -0.2897
22741SOL     OW69835   0.311   7.946   5.000 -0.7469  0.2188 -0.5432
22741SOL    HW169836   0.394   7.990   4.984  0.2582 -0.5751  1.8952
22741SOL    HW269837   0.328   7.855   4.977 -0.5576 -0.1397  0.8889
22742SOL     OW69838   3.019   9.150   1.474 -0.3892  0.1314  0.3447
22742SOL    HW169839   3.093   9.089   1.479  0.2525  0.8666 -0.0491
22742SOL    HW269840   2.958   9.108   1.413  0.0583 -0.1031  0.0571
22743SOL     OW69841   7.515   3.471   5.220 -0.1147 -0.4572 -0.1741
22743SOL    HW169842   7.440   3.420   5.191 -1.7441  2.5379 -1.7704
22743SOL    HW269843   7.537   3.526   5.144  1.2092  1.4624  1.4730
22744SOL     OW69844   9.640   4.848   0.141 -0.5230 -0.5215 -0.2673
22744SOL    HW169845   9.665   4.809   0.057 -0.4534 -2.2586  0.5104
22744SOL    HW269846   9.592   4.928   0.117 -0.1344 -0.7400 -1.9327
22745SOL     OW69847   7.400   4.279   0.321 -0.1749 -0.4428  0.1293
22745SOL    HW169848   7.468   4.216   0.343  0.4683  0.0246 -0.4792
22745SOL    HW269849   7.326   4.226   0.293  0.3730 -0.9283 -0.4186
22746SOL     OW69850   2.772   5.260   9.816  0.3521  0.2170 -0.4136
22746SOL    HW169851   2.677   5.259   9.807  0.4866 -1.8115 -2.7016
22746SOL    HW269852   2.790   5.203   9.890 -0.1857 -0.4878 -0.8150
22747SOL     OW69853   4.234   3.491   9.215 -0.3043 -1.1165 -0.4730
22747SOL    HW169854   4.268   3.410   9.253  0.1194 -0.4508  0.6358
22747SOL    HW269855   4.310   3.530   9.172 -0.4803 -1.2550 -0.9076
22748SOL     OW69856   8.518   8.896   2.661  0.3843 -0.3986  0.3735
22748SOL    HW169857   8.508   8.852   2.577 -2.7580 -0.8354  0.8813
22748SOL    HW269858   8.476   8.981   2.649  1.9896  0.5228  0.8898
22749SOL     OW69859   0.176   7.429   3.342  0.4730 -0.0036  0.0204
22749SOL    HW169860   0.134   7.369   3.405  0.5225 -1.6565 -1.4552
22749SOL    HW269861   0.151   7.395   3.256  0.5733  2.0910 -0.9020
22750SOL     OW69862   0.629   4.292   8.096  0.0794  0.3697  0.4886
22750SOL    HW169863   0.628   4.235   8.172  0.6687 -0.8821 -0.4066
22750SOL    HW269864   0.646   4.380   8.131  2.3985 -0.4550  1.6424
22751SOL     OW69865   6.692   7.400   7.037 -0.3667 -0.2888  0.2896
22751SOL    HW169866   6.705   7.308   7.057 -0.6702 -0.5160 -0.5105
22751SOL    HW269867   6.639   7.400   6.957 -0.2965  0.5743  0.2328
22752SOL     OW69868   1.389   1.532   4.638  0.0059  0.3206  0.0708
22752SOL    HW169869   1.392   1.558   4.730  0.2224  2.7657 -0.5659
22752SOL    HW269870   1.296   1.527   4.617 -0.0715 -1.3463  0.6596
22753SOL     OW69871   1.807   1.674   9.099 -0.2313 -0.1629 -0.0810
22753SOL    HW169872   1.807   1.715   9.012  2.1451 -1.3638 -0.7418
22753SOL    HW269873   1.819   1.581   9.082  0.4561 -0.4100  1.5348
22754SOL     OW69874   9.356   7.356   7.495  0.3454 -0.3043  0.1934
22754SOL    HW169875   9.438   7.384   7.456 -0.0031  0.3504 -0.0891
22754SOL    HW269876   9.311   7.308   7.425  1.1473 -2.0486  0.8187
22755SOL     OW69877   3.008   8.298   8.666  0.0524  0.5278  0.4974
22755SOL    HW169878   3.034   8.224   8.613 -2.0491 -0.6674  1.0275
22755SOL    HW269879   3.064   8.294   8.743  0.9805  0.4186 -0.1761
22756SOL     OW69880   2.060   0.344   6.430 -0.3300  0.5277 -0.1016
22756SOL    HW169881   2.093   0.325   6.342 -0.3856  1.1102 -0.2532
22756SOL    HW269882   1.971   0.309   6.431  0.1636 -0.7565  0.1998
22757SOL     OW69883   1.096   7.863   6.895  0.2678 -0.4549 -0.0455
22757SOL    HW169884   1.019   7.877   6.951 -0.1199  0.3619 -0.7590
22757SOL    HW269885   1.140   7.788   6.934 -1.6618 -1.8597 -0.4196
22758SOL     OW69886   3.277   0.477   5.504  0.2030  0.5080  0.0163
22758SOL    HW169887   3.188   0.508   5.519  0.4827  1.4052 -0.1708
22758SOL    HW269888   3.289   0.482   5.409  0.6075  0.8253  0.0820
22759SOL     OW69889   3.709   0.725   0.266  0.4207 -0.6084  0.1294
22759SOL    HW169890   3.641   0.785   0.294  0.9621  0.0959 -0.0450
22759SOL    HW269891   3.671   0.678   0.192  0.1490 -0.1729 -0.0080
22760SOL     OW69892   7.797   9.555   7.881  0.8581  0.0898  0.2260
22760SOL    HW169893   7.756   9.491   7.823  0.1900  1.0610 -0.4037
22760SOL    HW269894   7.724   9.598   7.925  1.3493 -0.4239  1.5856
22761SOL     OW69895   6.692   3.750   6.833  0.3941 -0.2729 -0.2220
22761SOL    HW169896   6.696   3.725   6.925 -0.4230  1.9525  0.4881
22761SOL    HW269897   6.623   3.816   6.828  0.6286 -0.0932 -2.3744
22762SOL     OW69898   2.477   1.395   2.546  0.1399  0.4063 -0.0150
22762SOL    HW169899   2.536   1.319   2.552 -0.4894 -0.0613  0.3751
22762SOL    HW269900   2.535   1.469   2.529  0.9181  0.0558  0.9860
22763SOL     OW69901   0.687   8.683   4.556  0.0066 -0.3269  0.2075
22763SOL    HW169902   0.676   8.651   4.645 -0.9787 -1.3755 -0.2689
22763SOL    HW269903   0.655   8.612   4.500 -1.9873  1.3631 -0.9293
22764SOL     OW69904   5.239   2.273   1.058  0.6464  0.0433  0.2828
22764SOL    HW169905   5.238   2.238   0.969 -1.7151 -0.5553  0.4702
22764SOL    HW269906   5.253   2.197   1.114  0.6635  0.1931  0.4853
22765SOL     OW69907   7.305   2.979   6.046  0.9380  0.6569 -0.3215
22765SOL    HW169908   7.222   3.027   6.055  0.5663  0.4038 -2.1176
22765SOL    HW269909   7.297   2.906   6.107 -0.4877  0.2223 -0.9926
22766SOL     OW69910   4.417   0.407   9.028  0.2865 -0.1162  0.4781
22766SOL    HW169911   4.470   0.424   9.107  0.9521  0.8369 -0.1436
22766SOL    HW269912   4.436   0.316   9.006 -1.0680 -0.8957  2.2442
22767SOL     OW69913   7.757   0.452   4.651 -0.2471  0.5784  0.7119
22767SOL    HW169914   7.723   0.535   4.684 -1.3362  0.2477  0.4552
22767SOL    HW269915   7.776   0.402   4.730  1.3161  1.3979  0.8924
22768SOL     OW69916   6.857   7.449   0.460 -0.1087 -0.6963 -0.4038
22768SOL    HW169917   6.794   7.378   0.451  0.1827 -1.0110  0.0088
22768SOL    HW269918   6.883   7.447   0.552  0.7204 -0.7642 -0.6272
22769SOL     OW69919   5.948   0.856   7.399 -0.3408  0.3180  0.5469
22769SOL    HW169920   6.010   0.795   7.360 -1.5265  0.1985 -1.2234
22769SOL    HW269921   5.900   0.804   7.463 -0.9174 -0.4791 -0.5102
22770SOL     OW69922   9.838   6.072   6.190  0.5906 -0.5529  0.0057
22770SOL    HW169923   9.799   6.150   6.150  2.5093  0.1545 -0.6031
22770SOL    HW269924   9.835   6.089   6.284  1.5010  0.5295 -0.1447
22771SOL     OW69925   2.957   0.978   4.000 -0.1956  0.0313 -0.1634
22771SOL    HW169926   3.030   1.039   4.010 -0.2359  0.0908 -0.2330
22771SOL    HW269927   2.887   1.030   3.961 -0.4279  0.0903  0.3195
22772SOL     OW69928   8.477   9.094   9.449  0.2781 -0.6189  0.0785
22772SOL    HW169929   8.491   9.165   9.387  0.3776 -0.6004  0.1216
22772SOL    HW269930   8.417   9.131   9.514  0.3689 -0.5583  0.1280
22773SOL     OW69931   3.835   4.622   5.261  0.2872 -0.4167  0.5142
22773SOL    HW169932   3.896   4.617   5.187 -1.2013 -0.6399 -0.7568
22773SOL    HW269933   3.834   4.715   5.285 -0.4004 -0.0463 -0.8257
22774SOL     OW69934   6.543   0.336   0.086  0.0071 -0.0228 -0.3733
22774SOL    HW169935   6.542   0.399   0.158 -0.1467 -0.3180 -0.1098
22774SOL    HW269936   6.490   0.263   0.119  0.2390 -0.3142 -0.6495
22775SOL     OW69937   0.259   1.449   9.565 -0.6653  0.2638 -0.1382
22775SOL    HW169938   0.294   1.444   9.476  0.8982 -0.4356  0.4855
22775SOL    HW269939   0.194   1.519   9.561  0.3685  1.2051 -1.5106
22776SOL     OW69940   8.731   7.841   9.683 -0.4036  0.4223  0.0228
22776SOL    HW169941   8.674   7.773   9.719 -2.1099  0.5121 -2.2650
22776SOL    HW269942   8.670   7.907   9.648  1.1847  2.1221  0.3276
22777SOL     OW69943   3.926   5.888   3.412 -0.3903  0.3762  0.3041
22777SOL    HW169944   3.958   5.822   3.474  0.3670 -0.2523 -0.7122
22777SOL    HW269945   3.915   5.840   3.330  1.3721  1.7062 -0.8022
22778SOL     OW69946   2.219   7.801   4.209  0.5099 -0.1044  0.0515
22778SOL    HW169947   2.199   7.821   4.118  2.1902 -1.0015 -0.5661
22778SOL    HW269948   2.314   7.792   4.211  0.5165  0.0268  1.9296
22779SOL     OW69949   1.591   5.659   5.119 -0.1874  0.1849 -0.2481
22779SOL    HW169950   1.646   5.637   5.194  0.5582 -0.7137 -1.0328
22779SOL    HW269951   1.569   5.752   5.131  0.2997  0.1696  0.8285
22780SOL     OW69952   6.767   2.827   1.781 -0.0046 -1.0473 -0.0235
22780SOL    HW169953   6.774   2.889   1.854 -1.0939 -2.6500  1.5244
22780SOL    HW269954   6.750   2.743   1.823  0.9734 -2.3481 -2.0782
22781SOL     OW69955   5.958   7.331   5.210  0.1108  0.2775  0.6431
22781SOL    HW169956   5.949   7.284   5.127  0.4327  0.5000  0.4793
22781SOL    HW269957   5.906   7.280   5.273  0.0050  0.0157  0.3428
22782SOL     OW69958   0.334   9.398   4.238  0.2640  0.2610 -0.5447
22782SOL    HW169959   0.418   9.354   4.218 -1.1720 -2.1804 -1.6952
22782SOL    HW269960   0.295   9.415   4.152 -0.1815  1.9940 -0.0425
22783SOL     OW69961   6.175   1.025   5.667  0.1997  0.2339 -0.0221
22783SOL    HW169962   6.137   1.085   5.603 -1.1216 -0.0809  0.4183
22783SOL    HW269963   6.269   1.027   5.650 -0.0946  0.3112 -1.8218
22784SOL     OW69964   1.987   6.559   3.724 -0.0408 -0.5930  0.2783
22784SOL    HW169965   2.065   6.520   3.763  0.0507 -0.6785  0.0129
22784SOL    HW269966   2.006   6.652   3.720  0.2672 -0.6765 -0.2784
22785SOL     OW69967   9.780   2.859   8.714 -0.1694 -0.0603  0.5953
22785SOL    HW169968   9.731   2.934   8.679 -0.2420  0.3227  1.5104
22785SOL    HW269969   9.795   2.804   8.637 -1.9155 -0.1297  0.2465
22786SOL     OW69970   2.227   2.414   9.695 -0.0177  0.6844  0.7240
22786SOL    HW169971   2.221   2.324   9.728  0.0026  0.3901 -0.0574
22786SOL    HW269972   2.316   2.421   9.661  0.1559  1.1771  1.2662
22787SOL     OW69973   0.514   7.545   1.523 -0.2587 -0.4173 -0.3549
22787SOL    HW169974   0.538   7.452   1.524 -1.1510 -0.6636  0.3020
22787SOL    HW269975   0.427   7.547   1.484  0.3132  0.3204 -1.6623
22788SOL     OW69976   2.497   8.998   3.868 -0.2423 -0.6879  0.2236
22788SOL    HW169977   2.541   8.920   3.834 -1.0683 -1.1683  0.2283
22788SOL    HW269978   2.475   8.976   3.959 -2.1806 -1.2199 -0.3186
22789SOL     OW69979   4.225   7.154   9.379 -0.0973 -0.1481  0.3899
22789SOL    HW169980   4.155   7.102   9.417 -1.0552  0.3394 -0.6486
22789SOL    HW269981   4.268   7.195   9.454 -0.4127 -1.0728  1.0935
22790SOL     OW69982   2.674   8.161   0.499 -0.4353  0.5983  0.5750
22790SOL    HW169983   2.634   8.239   0.537  0.4221  2.0328 -1.3477
22790SOL    HW269984   2.753   8.147   0.551 -0.6457  0.9429  0.9936
22791SOL     OW69985   7.130   3.577   2.782  0.0757 -0.1748  0.1960
22791SOL    HW169986   7.215   3.571   2.738  0.1658 -1.1875  0.4677
22791SOL    HW269987   7.075   3.625   2.720  0.8240  0.4559 -0.0032
22792SOL     OW69988   7.583   6.416   4.453 -0.3880  0.1544 -0.7205
22792SOL    HW169989   7.496   6.387   4.480 -0.7132  1.6183 -0.1344
22792SOL    HW269990   7.592   6.504   4.490  1.0273  0.3436 -1.4493
22793SOL     OW69991   0.101   3.149   7.425  0.2767  0.6762 -0.1018
22793SOL    HW169992   0.113   3.179   7.335  0.4805  0.6457 -0.0871
22793SOL    HW269993   0.189   3.121   7.452 -0.1607 -1.3799 -0.6277
22794SOL     OW69994   5.976   6.138   1.215 -0.5761 -0.1649 -0.1231
22794SOL    HW169995   5.945   6.078   1.148  2.1437 -3.0499  0.9174
22794SOL    HW269996   6.059   6.173   1.180  1.0622 -1.9792  1.6774
22795SOL     OW69997   1.329   0.769   3.859 -0.4230  0.2175 -0.3849
22795SOL    HW169998   1.335   0.768   3.763  1.1598  1.2840 -0.3295
22795SOL    HW269999   1.240   0.797   3.877 -0.7537 -0.0371 -1.5397
22796SOL     OW70000   6.978   0.958   8.872  0.1429 -0.1286  0.2485
22796SOL    HW170001   7.070   0.980   8.885  0.6103 -1.1807 -1.0097
22796SOL    HW270002   6.977   0.907   8.791 -1.6671  0.5657 -0.2127
22797SOL     OW70003   5.514   0.255   7.798 -0.3264 -0.0528 -0.1911
22797SOL    HW170004   5.525   0.191   7.869 -0.2791 -0.0694 -0.2135
22797SOL    HW270005   5.420   0.276   7.799 -0.2912  0.0933  0.0022
22798SOL     OW70006   9.618   9.665   1.696 -0.1315  0.4887 -0.3987
22798SOL    HW170007   9.574   9.670   1.611 -2.0145 -2.2501  0.2977
22798SOL    HW270008   9.708   9.640   1.675 -0.0371  1.7559 -1.6395
22799SOL     OW70009   4.629   5.069   6.240  0.4722 -0.3054  0.3824
22799SOL    HW170010   4.577   5.011   6.296 -1.2687  1.5679  0.8349
22799SOL    HW270011   4.568   5.140   6.217  2.2119  0.8215 -0.9484
22800SOL     OW70012   2.067   0.106   0.756 -0.4189 -0.0006 -0.4398
22800SOL    HW170013   2.072   0.178   0.694 -0.4970  1.7246  1.4802
22800SOL    HW270014   2.158   0.079   0.768 -0.4004 -0.3329 -1.2503
22801SOL     OW70015   7.394   7.228   4.732 -0.0702 -0.4395  0.3845
22801SOL    HW170016   7.467   7.198   4.785  0.2834  0.3505  0.3624
22801SOL    HW270017   7.426   7.307   4.689 -0.7024 -0.4765 -0.1823
22802SOL     OW70018   0.581   4.289   9.824 -0.5593 -0.6540  0.0384
22802SOL    HW170019   0.653   4.244   9.867  0.5037  0.9197 -0.0497
22802SOL    HW270020   0.618   4.321   9.741 -0.5446  2.4127  1.1226
22803SOL     OW70021   8.695   0.930   8.231 -0.2598  0.4049 -0.5526
22803SOL    HW170022   8.691   0.996   8.162  0.0188  0.5119 -0.4677
22803SOL    HW270023   8.613   0.942   8.280  0.4718  1.7326  0.4139
22804SOL     OW70024   6.874   4.486   8.472  0.0561 -0.6184 -0.0294
22804SOL    HW170025   6.847   4.578   8.482  2.0416  0.0631 -0.3410
22804SOL    HW270026   6.857   4.466   8.380 -0.5354 -0.6220  0.0774
22805SOL     OW70027   4.369   5.139   5.711  0.1130  0.3130 -0.2750
22805SOL    HW170028   4.293   5.095   5.748 -1.3203  1.9452 -1.1596
22805SOL    HW270029   4.344   5.159   5.621  2.1779 -0.4324 -1.0841
22806SOL     OW70030   6.232   2.197   3.750  0.0180 -0.0511  0.7339
22806SOL    HW170031   6.312   2.155   3.718 -0.5645 -1.4570  1.0083
22806SOL    HW270032   6.169   2.124   3.757 -1.0649  0.9032  1.1950
22807SOL     OW70033   3.508   0.456   0.233 -0.4232 -0.0068 -0.3800
22807SOL    HW170034   3.454   0.507   0.173 -1.4508  0.6061  0.9912
22807SOL    HW270035   3.445   0.405   0.285  0.4139 -0.4292  0.2560
22808SOL     OW70036   0.459   9.581   5.633  0.3346  0.5777  0.3778
22808SOL    HW170037   0.455   9.661   5.581 -0.6797  2.4781  3.1250
22808SOL    HW270038   0.397   9.521   5.591 -0.5921  2.0928 -0.4886
22809SOL     OW70039   2.007   9.687   0.458 -0.0456  0.2964 -0.0365
22809SOL    HW170040   2.044   9.630   0.525 -1.8908 -0.3734  0.4574
22809SOL    HW270041   1.989   9.629   0.384 -2.1035  0.1611  0.5328
22810SOL     OW70042   9.234   5.615   1.244  0.0047  0.5201 -0.0463
22810SOL    HW170043   9.162   5.554   1.257 -2.2072  2.7004 -1.1553
22810SOL    HW270044   9.218   5.684   1.309  1.5321  0.7258  0.1544
22811SOL     OW70045   3.149   7.875   2.248 -0.2790  0.2819  0.1624
22811SOL    HW170046   3.152   7.953   2.193  2.2345  0.9740  1.1355
22811SOL    HW270047   3.110   7.905   2.330 -0.4751  0.2085  0.0952
22812SOL     OW70048   8.347   7.992   7.061 -0.2491 -0.4481  0.7954
22812SOL    HW170049   8.420   8.046   7.030 -0.2225 -0.6701  0.4679
22812SOL    HW270050   8.273   8.016   7.005 -0.3127 -0.5459  0.8367
22813SOL     OW70051   9.621   1.633   4.145 -0.2954 -0.5809 -0.3263
22813SOL    HW170052   9.583   1.707   4.193  0.4721  0.4503 -1.2524
22813SOL    HW270053   9.714   1.654   4.138 -0.3472 -0.7893 -2.0818
22814SOL     OW70054   8.391   4.024   3.029  0.3234  0.1846  0.1570
22814SOL    HW170055   8.394   4.094   3.094  2.2093  0.9565 -0.6896
22814SOL    HW270056   8.309   4.037   2.982 -0.0227  0.9328  0.9445
22815SOL     OW70057   3.696   2.902   8.056 -0.2152  0.1939  0.1749
22815SOL    HW170058   3.645   2.961   8.112 -1.7687  0.9932 -1.9540
22815SOL    HW270059   3.716   2.828   8.112 -1.0730  1.2580  1.9886
22816SOL     OW70060   5.194   5.789   2.203  0.2651 -0.3932 -0.3756
22816SOL    HW170061   5.260   5.837   2.252 -0.3633 -0.2757  0.3646
22816SOL    HW270062   5.245   5.735   2.142  1.0534 -0.5101  0.3623
22817SOL     OW70063   3.630   6.964   5.203 -0.2288  0.1466 -0.0834
22817SOL    HW170064   3.567   7.022   5.161  0.3785  0.9889  0.1633
22817SOL    HW270065   3.662   6.908   5.132 -0.5921  0.3100 -0.3774
22818SOL     OW70066   3.077   4.972   6.292 -0.4215 -0.2229 -0.4340
22818SOL    HW170067   3.127   5.041   6.248  2.3659 -0.0762  2.6070
22818SOL    HW270068   3.080   4.898   6.232  0.7754  0.7967 -1.6898
22819SOL     OW70069   4.154   2.003   5.942  0.3223 -0.1179 -0.5157
22819SOL    HW170070   4.207   1.996   6.021 -0.0508 -0.1488 -0.2669
22819SOL    HW270071   4.183   1.930   5.887 -1.0997 -1.6040  0.6013
22820SOL     OW70072   3.393   5.423   6.458 -0.1838  0.5082  0.3649
22820SOL    HW170073   3.326   5.490   6.471 -1.4198 -0.3979 -1.0268
22820SOL    HW270074   3.359   5.346   6.505 -0.8148 -0.3512 -1.3959
22821SOL     OW70075   8.118   1.768   1.144  0.1033  0.4543 -0.2104
22821SOL    HW170076   8.186   1.823   1.106  1.5489 -2.1922 -1.7143
22821SOL    HW270077   8.037   1.799   1.104  0.7883  1.8183 -0.5977
22822SOL     OW70078   1.899   7.317   4.607 -0.5966  0.5934 -0.4295
22822SOL    HW170079   1.834   7.343   4.542 -0.9023 -1.3316 -0.9605
22822SOL    HW270080   1.979   7.303   4.556 -0.2768  1.0466 -0.0660
22823SOL     OW70081   0.724   0.200   3.210 -0.9092 -0.0379 -0.2189
22823SOL    HW170082   0.693   0.289   3.195  0.4187  0.3337 -0.8964
22823SOL    HW270083   0.813   0.211   3.244  0.1605 -1.0786 -2.4183
22824SOL     OW70084   1.571   9.529   9.533 -0.2228  0.8979  0.3311
22824SOL    HW170085   1.553   9.579   9.612  2.1410  2.3215  0.0948
22824SOL    HW270086   1.492   9.538   9.480 -1.2041  1.3341  1.7997
22825SOL     OW70087   8.094   2.243   4.948 -0.4903 -0.5736 -0.0383
22825SOL    HW170088   8.003   2.257   4.975 -0.9874 -2.0751 -0.8344
22825SOL    HW270089   8.104   2.148   4.945  1.1508 -0.4370  0.1292
22826SOL     OW70090   7.764   4.738   3.396  0.1396 -0.5986 -0.5723
22826SOL    HW170091   7.727   4.679   3.331 -2.4731 -0.3277  0.5339
22826SOL    HW270092   7.737   4.701   3.480  2.3388 -0.2568  0.3635
22827SOL     OW70093   9.530   9.422   8.744  0.0780 -0.3264  0.0380
22827SOL    HW170094   9.497   9.512   8.733  1.5714 -0.0254 -3.4697
22827SOL    HW270095   9.614   9.433   8.789 -0.3998 -0.1407  0.8988
22828SOL     OW70096   2.273   7.271   5.530  0.6990 -0.9214 -0.0883
22828SOL    HW170097   2.238   7.282   5.442  0.9596  0.5084 -0.0308
22828SOL    HW270098   2.198   7.284   5.588  0.7666 -0.6624 -0.0588
22829SOL     OW70099   4.500   9.264   7.603  0.0521  0.1544  0.3943
22829SOL    HW170100   4.591   9.238   7.608  0.0854  0.5023  2.1043
22829SOL    HW270101   4.478   9.293   7.691 -2.2986 -1.8473  0.5823
22830SOL     OW70102   4.322   9.146   3.861 -0.2214  0.3793 -0.6566
22830SOL    HW170103   4.364   9.178   3.941 -0.6919 -1.3495  0.3406
22830SOL    HW270104   4.246   9.202   3.849 -0.1760  0.6213  0.1375
22831SOL     OW70105   7.416   6.949   1.659  0.0592 -0.0616 -0.1510
22831SOL    HW170106   7.485   6.891   1.692 -0.1272 -0.5548 -0.6118
22831SOL    HW270107   7.342   6.934   1.718  0.0589 -0.1895 -0.1833
22832SOL     OW70108   7.924   2.507   2.548  0.2048  0.4288 -0.3629
22832SOL    HW170109   7.919   2.581   2.609  0.5270  0.4930 -0.4131
22832SOL    HW270110   7.840   2.462   2.558  0.0473  0.7465 -0.2616
22833SOL     OW70111   0.980   7.766   5.331  0.2543 -0.1550  0.1816
22833SOL    HW170112   0.934   7.768   5.415  2.2580 -0.7921  1.3686
22833SOL    HW270113   0.929   7.707   5.276 -2.3478  1.9891  0.0934
22834SOL     OW70114   3.803   0.891   3.184  0.3515  0.0246  0.1066
22834SOL    HW170115   3.816   0.868   3.092  0.4300 -0.8725  0.3376
22834SOL    HW270116   3.710   0.911   3.191  0.6617  1.9623 -0.5571
22835SOL     OW70117   3.098   3.578   6.960  0.0660 -0.5552  0.2584
22835SOL    HW170118   3.137   3.664   6.943 -0.2572 -0.8699 -2.4647
22835SOL    HW270119   3.173   3.519   6.970  0.2870 -0.0233  2.0698
22836SOL     OW70120   3.529   0.868   0.794  0.1894  0.0621 -0.3361
22836SOL    HW170121   3.590   0.861   0.868 -1.7090 -0.7879  1.2242
22836SOL    HW270122   3.518   0.962   0.780  1.2672  0.2263 -0.1749
22837SOL     OW70123   6.832   7.037   6.674  0.0152 -0.2401 -0.1315
22837SOL    HW170124   6.743   7.073   6.682 -0.6209 -1.5299 -1.0520
22837SOL    HW270125   6.874   7.092   6.607 -0.8250 -0.9455 -1.2690
22838SOL     OW70126   4.476   7.336   9.840 -0.4929  0.5213  0.1882
22838SOL    HW170127   4.563   7.369   9.861 -0.8293  2.1074 -0.7403
22838SOL    HW270128   4.435   7.320   9.926  0.2935  0.9225  0.6443
22839SOL     OW70129   5.145   4.600   8.407  0.5102  0.5585 -0.1687
22839SOL    HW170130   5.228   4.646   8.405  0.1800  1.2958  1.3580
22839SOL    HW270131   5.109   4.611   8.319  1.5375  1.1343 -0.5293
22840SOL     OW70132   3.665   7.545   7.955  0.3236 -0.3265 -0.2443
22840SOL    HW170133   3.587   7.494   7.977  0.5776 -0.7055 -0.2174
22840SOL    HW270134   3.671   7.540   7.859 -0.2721  0.5761 -0.3473
22841SOL     OW70135   1.337   5.971   4.221  0.0334 -0.0482  0.8230
22841SOL    HW170136   1.385   5.888   4.228 -0.8424 -0.4454  3.1213
22841SOL    HW270137   1.405   6.038   4.217  0.7840 -0.7726  1.1457
22842SOL     OW70138   3.690   2.646   9.602 -0.0656  0.0459  0.2407
22842SOL    HW170139   3.738   2.647   9.519 -1.7176 -0.4782 -0.7725
22842SOL    HW270140   3.744   2.697   9.662  0.3488  1.9544 -1.6513
22843SOL     OW70141   8.227   0.857   1.069 -0.5199  0.4811  0.0032
22843SOL    HW170142   8.152   0.912   1.091 -0.5135  0.1351  0.9230
22843SOL    HW270143   8.192   0.768   1.068 -0.2697  0.3823 -0.2910
22844SOL     OW70144   1.089   8.634   9.324  0.3217  0.1220  0.0256
22844SOL    HW170145   1.175   8.597   9.343 -0.5350 -2.8920 -1.2732
22844SOL    HW270146   1.046   8.638   9.409  1.2983  0.4610  0.5170
22845SOL     OW70147   5.112   1.133   6.375  0.3792  0.6799  0.0662
22845SOL    HW170148   5.155   1.076   6.312 -0.4207 -1.7493  1.5539
22845SOL    HW270149   5.022   1.140   6.343  0.4811  1.1686 -0.1265
22846SOL     OW70150   4.406   9.567   0.914 -0.7652  0.0441  0.2145
22846SOL    HW170151   4.462   9.551   0.838 -1.3823 -1.3921  0.0437
22846SOL    HW270152   4.466   9.562   0.989 -0.5872 -1.0584  0.0079
22847SOL     OW70153   5.740   9.296   7.490  0.2328  0.1672  0.2823
22847SOL    HW170154   5.751   9.289   7.584  1.0810 -1.5611  0.0787
22847SOL    HW270155   5.830   9.298   7.455 -0.0082  2.4388 -0.4380
22848SOL     OW70156   3.982   6.331   0.690  0.1016  0.0193  0.0049
22848SOL    HW170157   4.050   6.394   0.666  1.6367 -1.8604 -0.8703
22848SOL    HW270158   4.010   6.296   0.775 -0.0670 -0.3407 -0.0848
22849SOL     OW70159   3.685   3.797   2.404 -0.1206 -0.4632  0.2910
22849SOL    HW170160   3.683   3.792   2.309 -1.0328 -0.1199  0.2803
22849SOL    HW270161   3.758   3.855   2.424  0.1925 -0.6853 -0.1861
22850SOL     OW70162   0.320   1.610   1.594  0.0412  0.4444  0.2416
22850SOL    HW170163   0.403   1.638   1.554  0.1666  0.6786  0.6522
22850SOL    HW270164   0.346   1.549   1.662 -0.2491 -0.8813 -0.7942
22851SOL     OW70165   4.259   0.340   9.670  0.2596  0.2261  0.8459
22851SOL    HW170166   4.309   0.404   9.720  0.8282 -0.0542  0.6474
22851SOL    HW270167   4.279   0.360   9.579 -0.9195  0.8587  0.7016
22852SOL     OW70168   4.510   1.289   0.257 -0.2079  0.0258 -0.5131
22852SOL    HW170169   4.456   1.241   0.195 -2.3627  2.6782 -0.8766
22852SOL    HW270170   4.453   1.306   0.332  0.9832  0.6219  0.2993
22853SOL     OW70171   0.960   8.420   8.091  0.4731 -0.4376  0.3735
22853SOL    HW170172   0.937   8.340   8.044 -0.1726 -0.4093  0.6333
22853SOL    HW270173   1.032   8.458   8.040 -0.9126  0.1616 -1.2078
22854SOL     OW70174   9.027   8.322   3.913  0.0951  0.1649 -0.2034
22854SOL    HW170175   8.952   8.378   3.893 -1.2132 -0.8004  1.7317
22854SOL    HW270176   9.101   8.364   3.868 -1.5288  1.2542 -1.9879
22855SOL     OW70177   5.724   3.613   9.764  0.2032  0.0480  0.5291
22855SOL    HW170178   5.684   3.564   9.692  1.3434 -0.7308  0.3915
22855SOL    HW270179   5.806   3.567   9.781  1.3168  1.9108  0.4127
22856SOL     OW70180   4.076   1.930   0.600 -0.0267  0.0927 -0.0290
22856SOL    HW170181   4.094   2.018   0.568 -0.9665  0.3726  0.1800
22856SOL    HW270182   4.162   1.894   0.621  0.3473  1.0512  0.1260
22857SOL     OW70183   8.012   6.664   7.993  0.3459 -0.3558 -0.4091
22857SOL    HW170184   8.066   6.647   8.070 -0.7254 -1.2847  0.1651
22857SOL    HW270185   7.963   6.583   7.979  0.3827 -0.1344 -1.9687
22858SOL     OW70186   7.778   2.719   1.752  0.1927  0.0741 -0.5161
22858SOL    HW170187   7.792   2.689   1.842  2.1280  1.6720 -0.2043
22858SOL    HW270188   7.683   2.721   1.742 -0.0925 -3.2155  0.3435
22859SOL     OW70189   7.449   0.528   7.916 -0.3980 -0.0647  0.3983
22859SOL    HW170190   7.465   0.470   7.841  2.5459  0.9832  0.1040
22859SOL    HW270191   7.402   0.602   7.878  2.0785  1.0195 -0.8001
22860SOL     OW70192   3.534   6.514   5.652  0.0958  0.5947  0.0634
22860SOL    HW170193   3.462   6.495   5.592 -0.5818  2.8086  0.1110
22860SOL    HW270194   3.599   6.559   5.598  0.1830  1.1659  0.6404
22861SOL     OW70195   3.219   8.849   2.945  0.0786  0.1667 -0.1465
22861SOL    HW170196   3.234   8.756   2.963  1.1698  0.1434 -1.0982
22861SOL    HW270197   3.125   8.860   2.956  0.1414 -0.6853  1.6110
22862SOL     OW70198   4.291   6.701   1.129 -0.3916  0.1279  0.3762
22862SOL    HW170199   4.361   6.679   1.189 -0.4780  0.6812  0.6927
22862SOL    HW270200   4.331   6.696   1.042 -0.2786 -0.7163  0.4739
22863SOL     OW70201   6.419   0.491   3.447 -0.0084  0.0765  0.2147
22863SOL    HW170202   6.373   0.519   3.527  1.3839 -0.1666  1.1362
22863SOL    HW270203   6.357   0.509   3.376 -2.0185 -1.4105  1.5060
22864SOL     OW70204   0.794   1.689   9.040  0.1776  0.1798  0.3793
22864SOL    HW170205   0.792   1.769   8.988  0.4225  0.5519  0.9266
22864SOL    HW270206   0.864   1.704   9.104  0.5005 -0.6353  0.2312
22865SOL     OW70207   3.939   4.187   7.887  0.2698 -0.0798 -0.2089
22865SOL    HW170208   3.916   4.278   7.910 -3.0542 -0.4957 -1.2795
22865SOL    HW270209   3.894   4.134   7.954  1.2167 -0.9792 -0.2731
22866SOL     OW70210   3.609   9.107   4.463 -0.6273  0.2099  0.6950
22866SOL    HW170211   3.563   9.035   4.508 -0.2232 -1.5410 -1.5153
22866SOL    HW270212   3.558   9.121   4.384  1.3491 -0.2680 -0.7399
22867SOL     OW70213   3.399   7.460   3.044 -0.5100 -0.1102 -0.0353
22867SOL    HW170214   3.329   7.480   2.982 -1.4738 -0.6424  0.8421
22867SOL    HW270215   3.418   7.544   3.087  1.4469  0.6759 -2.2533
22868SOL     OW70216   8.421   3.565   0.281 -0.3176  0.0177  0.0149
22868SOL    HW170217   8.473   3.540   0.205 -0.5312  0.8490 -0.4079
22868SOL    HW270218   8.370   3.487   0.302 -0.0750 -0.2953 -0.5365
22869SOL     OW70219   5.162   2.636   2.844 -0.2544  0.0153 -0.3118
22869SOL    HW170220   5.186   2.727   2.825 -0.8901  0.0143 -1.1914
22869SOL    HW270221   5.239   2.585   2.820 -0.0427  0.2849 -0.2084
22870SOL     OW70222   4.247   5.196   2.301  0.5187  0.3212 -0.2364
22870SOL    HW170223   4.195   5.141   2.242  0.5191 -1.5215  1.3709
22870SOL    HW270224   4.244   5.283   2.262 -0.9651 -0.4484 -1.9720
22871SOL     OW70225   4.975   9.108   0.330  0.3766 -0.0875 -0.6206
22871SOL    HW170226   4.904   9.101   0.393 -0.2895  0.9810 -1.2186
22871SOL    HW270227   4.948   9.052   0.256 -0.0189  0.5817 -0.9917
22872SOL     OW70228   3.965   5.406   7.331 -0.1377  0.4728  0.3920
22872SOL    HW170229   4.001   5.327   7.372  0.3831 -0.0230 -0.9671
22872SOL    HW270230   3.875   5.383   7.309  0.4658 -0.3550 -1.4354
22873SOL     OW70231   4.361   2.201   0.561  0.0493  0.5901  0.3163
22873SOL    HW170232   4.352   2.158   0.476 -1.0825  0.9625  0.2412
22873SOL    HW270233   4.432   2.264   0.548 -0.0180  0.5432 -0.3039
22874SOL     OW70234   6.631   1.270   2.790  0.6710 -0.2728 -0.3077
22874SOL    HW170235   6.622   1.270   2.695 -1.6243 -0.8757 -0.1647
22874SOL    HW270236   6.681   1.349   2.810 -0.9366  1.2275 -1.8890
22875SOL     OW70237   4.872   2.039   2.109  0.3454  0.3353  0.2190
22875SOL    HW170238   4.954   2.001   2.141 -0.1977 -1.1257 -0.0639
22875SOL    HW270239   4.809   1.968   2.113  0.0454  0.2338 -3.2659
22876SOL     OW70240   2.953   7.878   6.103  0.4550  0.1146  0.3942
22876SOL    HW170241   2.938   7.968   6.132  2.5427  0.6335 -0.0106
22876SOL    HW270242   2.987   7.887   6.014  2.8030 -0.9084  1.1189
22877SOL     OW70243   7.377   8.640   4.711  0.0882  0.1843  0.5011
22877SOL    HW170244   7.368   8.733   4.689  2.3316  0.5372  0.8270
22877SOL    HW270245   7.330   8.594   4.642 -2.8480  1.5591  1.4200
22878SOL     OW70246   4.778   4.905   3.021 -0.2043  0.4419  0.4982
22878SOL    HW170247   4.765   4.822   2.975 -0.7900  1.1319 -0.6034
22878SOL    HW270248   4.845   4.885   3.087  0.6251 -0.5859 -0.6074
22879SOL     OW70249   1.357   2.377   9.297  0.3409  0.1093 -0.4838
22879SOL    HW170250   1.352   2.325   9.216 -1.5810  0.3702 -0.5738
22879SOL    HW270251   1.331   2.317   9.366  0.1586  0.3796 -0.3145
22880SOL     OW70252   4.912   3.345   5.253  0.2483 -0.0941  0.0309
22880SOL    HW170253   4.838   3.320   5.198  0.3251 -0.1152 -0.0646
22880SOL    HW270254   4.929   3.437   5.230 -0.6461  0.3576  1.0796
22881SOL     OW70255   6.001   2.659   1.373  0.6795 -0.2890 -0.0871
22881SOL    HW170256   6.066   2.685   1.439  1.9934  2.9964 -2.4052
22881SOL    HW270257   6.046   2.670   1.289 -2.1140 -0.4131 -1.7144
22882SOL     OW70258   1.162   3.898   6.373  0.0760 -0.3607  0.2449
22882SOL    HW170259   1.256   3.894   6.385  0.1676  0.8274  0.0014
22882SOL    HW270260   1.150   3.918   6.280 -0.4147 -0.5486  0.2645
22883SOL     OW70261   3.980   4.288   6.474 -1.0693 -0.4457 -0.3265
22883SOL    HW170262   3.991   4.328   6.560 -3.8406  0.8582 -0.4667
22883SOL    HW270263   3.956   4.361   6.416 -0.5038 -1.4806 -1.9283
22884SOL     OW70264   6.261   4.066   7.026 -0.0618  0.4972 -0.2648
22884SOL    HW170265   6.296   3.979   7.045 -1.5389  0.0066  0.3127
22884SOL    HW270266   6.303   4.092   6.944 -1.1749 -1.6579 -1.5810
22885SOL     OW70267   3.347   4.788   3.004 -0.6062 -0.3971  0.1858
22885SOL    HW170268   3.302   4.871   3.019 -2.7766 -1.2021 -1.3122
22885SOL    HW270269   3.395   4.771   3.085 -2.7374  0.7517  1.7839
22886SOL     OW70270   4.729   9.703   7.191  0.7165 -0.6343  0.0902
22886SOL    HW170271   4.824   9.688   7.191  0.9208  0.5740  0.5193
22886SOL    HW270272   4.711   9.734   7.102  0.7450 -0.6761  0.0692
22887SOL     OW70273   6.852   9.343   4.295 -0.0275 -0.4731 -0.1777
22887SOL    HW170274   6.847   9.303   4.382 -1.3761  1.3090  0.6355
22887SOL    HW270275   6.813   9.278   4.236  3.7596 -3.1169 -0.1178
22888SOL     OW70276   1.874   8.777   8.418  0.3143 -0.1458  0.2988
22888SOL    HW170277   1.783   8.780   8.388  0.3665  2.3212  0.2241
22888SOL    HW270278   1.926   8.774   8.338  0.3388 -0.2041  0.3164
22889SOL     OW70279   9.797   2.345   4.817 -0.0028  0.1964  0.5918
22889SOL    HW170280   9.830   2.348   4.907  0.3031 -0.3032  0.4998
22889SOL    HW270281   9.770   2.253   4.805 -1.0627  0.4960  0.5376
22890SOL     OW70282   4.851   4.880   4.904  0.3040  0.1139  0.2618
22890SOL    HW170283   4.766   4.903   4.868  1.2871  2.1008 -0.9940
22890SOL    HW270284   4.864   4.788   4.881 -1.4291 -0.1820  0.3971
22891SOL     OW70285   3.895   1.456   6.566  0.3502 -0.0164  0.0427
22891SOL    HW170286   3.948   1.445   6.645  0.7197 -0.9110 -0.3191
22891SOL    HW270287   3.862   1.546   6.572  0.2389 -0.1137  1.2928
22892SOL     OW70288   4.728   7.349   6.767  0.3506  0.1915  0.1385
22892SOL    HW170289   4.688   7.341   6.854  2.4850  2.8538  1.5545
22892SOL    HW270290   4.786   7.273   6.760 -1.0484 -0.9191  0.2868
22893SOL     OW70291   3.494   3.387   4.532  0.1179 -0.0856 -0.0777
22893SOL    HW170292   3.416   3.443   4.529 -1.1348 -1.5648  2.0623
22893SOL    HW270293   3.475   3.316   4.472 -0.7709 -1.0450  1.2682
22894SOL     OW70294   7.892   0.142   2.132  0.4173  0.3929  1.2994
22894SOL    HW170295   7.817   0.192   2.161  0.3302 -0.0630  1.8670
22894SOL    HW270296   7.967   0.201   2.143  0.1434  0.8734  0.6580
22895SOL     OW70297   2.503   2.615   7.574  0.3224 -0.5745  0.2138
22895SOL    HW170298   2.451   2.534   7.570 -0.2559 -0.2563  1.0639
22895SOL    HW270299   2.575   2.595   7.633  1.2831 -1.0573 -1.0678
22896SOL     OW70300   7.753   5.822   2.224 -0.5649 -0.5955 -0.3031
22896SOL    HW170301   7.771   5.837   2.131 -1.2367  0.7329 -0.2503
22896SOL    HW270302   7.796   5.740   2.244  0.2894 -0.4903 -1.5941
22897SOL     OW70303   3.103   6.683   7.261  0.3859 -0.3674  0.6336
22897SOL    HW170304   3.012   6.685   7.289  0.4351 -1.6327  0.9659
22897SOL    HW270305   3.150   6.642   7.334  0.9440 -1.2245 -0.1842
22898SOL     OW70306   5.183   0.917   5.510  0.4034 -0.5544  0.4203
22898SOL    HW170307   5.226   0.899   5.593  3.9713 -0.2780 -1.1248
22898SOL    HW270308   5.179   0.833   5.465 -0.5029 -0.5318  0.4450
22899SOL     OW70309   4.794   6.553   2.268 -0.3917 -0.1426 -0.2353
22899SOL    HW170310   4.758   6.465   2.271  0.0933 -0.3541 -0.6474
22899SOL    HW270311   4.719   6.610   2.289 -0.0974 -0.7719  3.2263
22900SOL     OW70312   7.466   3.845   3.114 -0.4319 -0.0399  0.2870
22900SOL    HW170313   7.405   3.825   3.042  0.1859  1.8642 -0.8394
22900SOL    HW270314   7.547   3.800   3.090 -0.9219 -1.4008  1.0675
22901SOL     OW70315   5.539   2.724   7.398 -0.0689 -0.0268  0.4967
22901SOL    HW170316   5.513   2.744   7.308  2.6870  3.1946  0.2268
22901SOL    HW270317   5.459   2.735   7.449 -0.8519  2.3405 -1.0720
22902SOL     OW70318   5.566   2.966   1.981 -0.0967 -0.1760 -0.0847
22902SOL    HW170319   5.606   2.944   1.896 -1.3763 -2.3663 -0.1953
22902SOL    HW270320   5.504   3.036   1.960 -0.4662 -0.7524 -1.0099
22903SOL     OW70321   5.638   0.033   4.121  0.1069 -0.1054 -0.6705
22903SOL    HW170322   5.659   0.113   4.170  1.2802  1.4755 -3.4738
22903SOL    HW270323   5.717  -0.021   4.129 -0.0392 -0.2396 -0.1274
22904SOL     OW70324   6.710   5.690   8.666 -0.3068 -0.2840 -0.1143
22904SOL    HW170325   6.752   5.733   8.741 -0.6268  0.8887 -0.5807
22904SOL    HW270326   6.772   5.622   8.640  0.9267  0.8391 -0.2346
22905SOL     OW70327   0.744   8.566   5.603 -0.4958  0.0419  0.4191
22905SOL    HW170328   0.662   8.577   5.556 -0.1538  1.2713  0.0780
22905SOL    HW270329   0.741   8.476   5.636 -1.4040 -0.3489 -0.6773
22906SOL     OW70330   1.799   0.848   2.433 -0.0009 -0.8454  0.3645
22906SOL    HW170331   1.824   0.885   2.348  1.5821 -1.4051  0.5571
22906SOL    HW270332   1.819   0.755   2.425 -2.0255 -1.3322  0.5803
22907SOL     OW70333   5.746   8.111   4.719 -0.4618 -0.0059  0.1296
22907SOL    HW170334   5.759   8.050   4.792 -0.0252 -0.5466 -0.3996
22907SOL    HW270335   5.744   8.197   4.761  1.8630 -0.1283  0.5872
22908SOL     OW70336   7.457   8.025   1.277  0.3278  0.1520 -0.3576
22908SOL    HW170337   7.531   8.084   1.263  0.0658  0.9999  1.5767
22908SOL    HW270338   7.481   7.945   1.230  1.5866  1.0823 -1.3604
22909SOL     OW70339   0.859   7.595   7.142  0.2255  0.1146  0.5250
22909SOL    HW170340   0.836   7.535   7.071 -1.6018 -1.2532  2.1771
22909SOL    HW270341   0.775   7.630   7.173  0.8462 -0.1569  2.6854
22910SOL     OW70342   2.538   8.508   8.587 -0.4788 -0.2442  0.1236
22910SOL    HW170343   2.542   8.416   8.616 -2.0911 -0.6809 -0.9078
22910SOL    HW270344   2.582   8.557   8.656 -0.6641 -1.6693  1.3005
22911SOL     OW70345   9.226   3.341   7.431  0.7438 -0.3341 -0.1674
22911SOL    HW170346   9.255   3.268   7.485 -0.3654 -0.2835  0.5275
22911SOL    HW270347   9.138   3.361   7.462  0.8414  1.0008 -0.6538
22912SOL     OW70348   5.776   2.633   3.596 -0.1157  0.0961 -0.0408
22912SOL    HW170349   5.691   2.659   3.559  0.0594  0.0005 -0.5155
22912SOL    HW270350   5.755   2.602   3.684 -0.4938  0.6659  0.0798
22913SOL     OW70351   3.342   5.470   3.388 -0.4156  0.1668  0.0179
22913SOL    HW170352   3.429   5.448   3.422 -0.8142 -0.0699  0.9127
22913SOL    HW270353   3.287   5.395   3.411 -0.7219  0.0216 -1.1216
22914SOL     OW70354   6.594   3.886   8.773 -0.2716 -0.2081 -0.1629
22914SOL    HW170355   6.537   3.872   8.697 -0.8695 -0.3459  0.3053
22914SOL    HW270356   6.671   3.930   8.737  0.4657 -2.2349 -1.2337
22915SOL     OW70357   6.511   4.575   1.260  0.2493  0.3303 -0.3504
22915SOL    HW170358   6.587   4.610   1.212  0.6191  0.1975  0.1314
22915SOL    HW270359   6.436   4.595   1.203  0.6549  0.3532 -0.8898
22916SOL     OW70360   1.954   3.388   2.410 -0.0855 -0.4489  0.3912
22916SOL    HW170361   2.033   3.440   2.399  0.7095 -0.7807  3.5584
22916SOL    HW270362   1.943   3.342   2.327  1.9848  1.0081 -0.7520
22917SOL     OW70363   3.093   0.097   9.227  0.4932  0.4009 -0.1925
22917SOL    HW170364   3.143   0.099   9.146 -0.7725 -0.7929 -1.0410
22917SOL    HW270365   3.101   0.007   9.258  0.5234  0.7095  0.7325
22918SOL     OW70366   6.433   7.446   4.116 -0.0817  0.3413 -0.2810
22918SOL    HW170367   6.354   7.475   4.163 -1.0670 -1.4089 -0.7620
22918SOL    HW270368   6.419   7.477   4.026  0.8973  2.0207  0.1133
22919SOL     OW70369   8.313   2.450   1.802  0.0696  0.0554  0.4558
22919SOL    HW170370   8.222   2.471   1.822 -0.0189  1.4882 -1.2885
22919SOL    HW270371   8.330   2.370   1.853 -1.8127  0.3412  1.6402
22920SOL     OW70372   3.059   5.941   1.347 -0.5074  0.0344  0.1708
22920SOL    HW170373   3.028   5.979   1.265  0.6988 -0.2289 -0.4165
22920SOL    HW270374   3.110   5.865   1.321  0.4606  0.3351  1.1147
22921SOL     OW70375   7.232   9.822   2.161 -0.5096  0.4523  0.0506
22921SOL    HW170376   7.147   9.803   2.122  1.5094 -3.0769 -3.2583
22921SOL    HW270377   7.276   9.877   2.096  0.6597 -0.0041  0.4363
22922SOL     OW70378   3.086   8.706   6.616  0.4825  0.5803  0.3661
22922SOL    HW170379   3.136   8.697   6.697  0.8238 -1.1209  0.0008
22922SOL    HW270380   2.995   8.689   6.641  0.2535  2.1821  0.7501
22923SOL     OW70381   6.217   5.256   5.083  0.2016  0.1217 -0.2216
22923SOL    HW170382   6.133   5.268   5.127  0.0211  2.4544 -1.0883
22923SOL    HW270383   6.208   5.171   5.039 -1.7542  0.3459 -0.3664
22924SOL     OW70384   1.036   7.826   4.242 -0.0602 -0.2923 -0.4304
22924SOL    HW170385   1.124   7.809   4.209 -0.2590 -1.3615 -0.4401
22924SOL    HW270386   1.050   7.846   4.335  0.2988  0.7317 -0.6932
22925SOL     OW70387   1.926   8.912   2.271  0.4148  0.1858  0.1796
22925SOL    HW170388   1.841   8.874   2.289 -0.2146  1.2483 -0.4286
22925SOL    HW270389   1.916   8.953   2.185  1.1310  1.4535  0.6761
22926SOL     OW70390   9.461   2.038   7.492  0.3063 -0.1423  0.6502
22926SOL    HW170391   9.541   2.089   7.505 -0.8846  1.5274  1.8900
22926SOL    HW270392   9.400   2.074   7.556 -1.8788 -0.4301 -1.1737
22927SOL     OW70393   1.311   1.534   6.731 -0.1031  0.2549  0.0987
22927SOL    HW170394   1.373   1.574   6.670  0.6273 -2.5552 -1.1275
22927SOL    HW270395   1.270   1.464   6.681 -3.7805  1.4682  1.1046
22928SOL     OW70396   0.257   0.946   1.948  0.7248  0.5763 -0.2793
22928SOL    HW170397   0.321   0.883   1.982  0.4080 -0.6953 -1.9257
22928SOL    HW270398   0.206   0.972   2.025  0.7028 -1.3779  0.4294
22929SOL     OW70399   2.019   6.893   2.050 -0.3104  0.0891  0.3756
22929SOL    HW170400   1.979   6.806   2.042  1.2788 -0.5431 -1.3602
22929SOL    HW270401   2.113   6.877   2.048  0.1121  1.9589 -3.1378
22930SOL     OW70402   5.744   5.129   4.830  0.1839 -0.0029 -0.4033
22930SOL    HW170403   5.683   5.196   4.862 -0.7003  0.1603 -2.3099
22930SOL    HW270404   5.775   5.085   4.910 -1.0423  1.0896  0.7308
22931SOL     OW70405   4.518   8.674   4.941 -0.5949 -0.0920  0.4059
22931SOL    HW170406   4.539   8.735   5.012  1.1675  0.1289 -0.2550
22931SOL    HW270407   4.574   8.599   4.956  1.7963  1.0063 -2.0841
22932SOL     OW70408   3.291   0.217   4.221 -0.3529 -0.0273 -0.6495
22932SOL    HW170409   3.239   0.289   4.256  1.8872  1.0272  0.7140
22932SOL    HW270410   3.364   0.258   4.176  0.3411 -1.4350 -0.8841
22933SOL     OW70411   3.354   1.085   4.231  0.1114 -0.0697  0.0303
22933SOL    HW170412   3.407   1.120   4.160 -0.8818 -1.3233 -1.3974
22933SOL    HW270413   3.264   1.089   4.197 -0.3853 -0.6974  1.2207
22934SOL     OW70414   5.617   2.686   6.905 -0.2397 -0.6036  0.3275
22934SOL    HW170415   5.690   2.692   6.843  1.5756  0.5572  2.4187
22934SOL    HW270416   5.596   2.777   6.926 -0.3791 -0.9530  1.8378
22935SOL     OW70417   9.175   2.981   2.691 -0.3685  0.0895 -0.1574
22935SOL    HW170418   9.269   2.975   2.711  0.0202  0.4228 -1.7276
22935SOL    HW270419   9.154   2.899   2.647 -1.1563 -0.5581  1.3649
22936SOL     OW70420   0.042   4.291   3.152 -0.0502 -0.1856 -0.1816
22936SOL    HW170421   0.105   4.282   3.081 -1.9281 -0.3282 -1.9153
22936SOL    HW270422   0.037   4.386   3.168  2.3270 -0.2724  1.7157
22937SOL     OW70423   2.443   4.217   8.884  0.1272  0.7956 -0.4455
22937SOL    HW170424   2.492   4.144   8.923 -0.6650  0.1963 -0.5472
22937SOL    HW270425   2.435   4.192   8.792  0.7025  1.4910 -0.6890
22938SOL     OW70426   9.326   7.560   1.679 -0.5581 -0.3644  0.3326
22938SOL    HW170427   9.326   7.470   1.648 -0.4696 -0.4013  0.4411
22938SOL    HW270428   9.236   7.590   1.667 -0.7278 -0.6588  0.8614
22939SOL     OW70429   6.623   0.657   7.045  0.2457  0.3337  0.1966
22939SOL    HW170430   6.568   0.730   7.019  0.7329  0.3490 -0.8326
22939SOL    HW270431   6.698   0.661   6.986  0.1544 -1.1509 -0.0624
22940SOL     OW70432   1.605   1.276   4.992 -0.3044  0.3162 -0.5519
22940SOL    HW170433   1.602   1.206   4.927  0.7961  1.6349 -2.0980
22940SOL    HW270434   1.601   1.230   5.076 -2.7003 -1.4005 -1.4745
22941SOL     OW70435   6.024   4.752   5.731 -0.2142 -0.2337 -0.2241
22941SOL    HW170436   5.951   4.772   5.790  1.0894  1.3906  0.9324
22941SOL    HW270437   5.983   4.737   5.646 -1.9860 -0.6678  0.6689
22942SOL     OW70438   4.400   3.249   8.442 -1.0138  0.2261  0.4903
22942SOL    HW170439   4.424   3.321   8.501 -1.4290 -0.0070  0.9504
22942SOL    HW270440   4.460   3.258   8.368 -0.5517  0.5865  0.8992
22943SOL     OW70441   4.931   4.936   5.318  0.1561  0.2078  0.3914
22943SOL    HW170442   4.869   5.007   5.302 -0.9763 -0.6672  0.7626
22943SOL    HW270443   4.882   4.856   5.298  1.3875 -0.4759  0.0315
22944SOL     OW70444   4.047   4.719   7.979 -0.0286  0.2809  0.7214
22944SOL    HW170445   4.125   4.745   8.028 -0.6266 -0.8511  2.3685
22944SOL    HW270446   4.072   4.730   7.887  3.1374 -2.7505  0.9957
22945SOL     OW70447   2.975   3.021   4.052  0.0029 -0.5002  0.6764
22945SOL    HW170448   2.923   2.974   4.117  0.7836 -1.5479  0.5548
22945SOL    HW270449   3.034   2.955   4.016 -0.1905  0.1334 -0.8689
22946SOL     OW70450   7.468   7.737   8.848  0.3665 -0.3148 -0.4252
22946SOL    HW170451   7.419   7.801   8.797  0.9102  0.9975  0.6425
22946SOL    HW270452   7.402   7.677   8.882 -0.3859  0.8044  0.1373
22947SOL     OW70453   0.987   6.535   2.937 -0.3374 -0.0839 -0.3731
22947SOL    HW170454   0.952   6.614   2.897 -1.2366 -0.6801 -0.7977
22947SOL    HW270455   0.933   6.521   3.015 -0.3082 -0.3885 -0.4075
22948SOL     OW70456   7.365   0.960   1.581  0.4310  0.1951  0.6133
22948SOL    HW170457   7.305   1.025   1.546 -1.7877 -0.2150  3.3028
22948SOL    HW270458   7.415   1.008   1.648  1.6176  0.0201 -0.1242
22949SOL     OW70459   9.524   3.007   6.308  0.2335  0.3585 -0.0652
22949SOL    HW170460   9.595   2.991   6.370 -0.3901 -1.2601  0.2702
22949SOL    HW270461   9.552   3.084   6.258  1.3935  0.8256  1.2521
22950SOL     OW70462   5.106   7.255   5.025 -0.3617  0.5253  0.1001
22950SOL    HW170463   5.165   7.258   5.100  1.8690 -3.2160 -1.2093
22950SOL    HW270464   5.031   7.203   5.056 -1.1576  1.9116  0.6132
22951SOL     OW70465   1.217   1.307   2.945 -0.8824 -0.1113  0.3791
22951SOL    HW170466   1.265   1.347   2.873  1.6245 -1.0382  1.4300
22951SOL    HW270467   1.159   1.377   2.977  0.1221  1.2303 -0.6417
22952SOL     OW70468   2.444   0.234   9.195 -0.3400  0.3234  0.4920
22952SOL    HW170469   2.480   0.182   9.123 -2.7474 -0.1811 -0.4380
22952SOL    HW270470   2.506   0.222   9.267  0.7519 -1.3514 -0.6545
22953SOL     OW70471   0.665   1.496   9.361  0.0381  0.1535  0.1039
22953SOL    HW170472   0.628   1.421   9.313  0.3550 -0.4537  0.7967
22953SOL    HW270473   0.749   1.513   9.319 -0.0914  0.2108 -0.1362
22954SOL     OW70474   9.202   4.546   7.205  0.0840  0.0908 -0.1389
22954SOL    HW170475   9.130   4.572   7.149 -0.3732  0.1397  0.4615
22954SOL    HW270476   9.187   4.592   7.287  1.0664  0.4879 -0.1628
22955SOL     OW70477   8.320   0.147   5.596  0.5678 -0.3260  0.0135
22955SOL    HW170478   8.352   0.162   5.507  1.4852 -3.5079 -0.3110
22955SOL    HW270479   8.399   0.144   5.650  0.0694  0.7670  0.8463
22956SOL     OW70480   5.107   0.799   7.891  1.0267  0.4583  0.3985
22956SOL    HW170481   5.159   0.749   7.828  1.7673  1.0693  0.5065
22956SOL    HW270482   5.025   0.818   7.846  1.0245 -0.2241  0.1000
22957SOL     OW70483   3.188   5.051   9.174  0.0461 -0.6163 -0.0054
22957SOL    HW170484   3.197   5.023   9.265 -0.1588  2.0658  0.9078
22957SOL    HW270485   3.094   5.049   9.158  0.1395 -2.2844 -0.6471
22958SOL     OW70486   7.196   6.773   1.792  0.7301  0.2965  0.1486
22958SOL    HW170487   7.145   6.768   1.711 -0.0953  1.0861  0.6068
22958SOL    HW270488   7.133   6.753   1.861  1.7981 -2.2236  0.5223
22959SOL     OW70489   3.296   6.695   7.827  0.4273 -0.5558 -0.2409
22959SOL    HW170490   3.223   6.633   7.833  0.6744 -0.7873  0.3741
22959SOL    HW270491   3.268   6.757   7.759 -0.5873 -0.3122  0.3752
22960SOL     OW70492   8.265   2.816   5.770  0.2365  0.0957  0.3564
22960SOL    HW170493   8.274   2.843   5.678 -2.4775 -2.4116 -0.7955
22960SOL    HW270494   8.325   2.742   5.778  1.7328  1.3293  1.2039
22961SOL     OW70495   7.042   4.909   0.565  0.0062 -0.1224  0.1522
22961SOL    HW170496   7.117   4.967   0.579  0.2245 -0.6317  1.2365
22961SOL    HW270497   7.065   4.858   0.488 -0.6189  1.8742 -1.4297
22962SOL     OW70498   1.487   8.231   4.654 -0.0245  0.2786  0.3706
22962SOL    HW170499   1.441   8.307   4.690 -0.4953  1.0705 -1.7798
22962SOL    HW270500   1.422   8.161   4.651 -0.1674  0.4126  0.3737
22963SOL     OW70501   9.114   0.802   1.523 -0.5150  0.1957 -0.0588
22963SOL    HW170502   9.141   0.883   1.565 -0.1144  0.3041 -0.5284
22963SOL    HW270503   9.150   0.806   1.435 -0.1580 -0.6673  0.0356
22964SOL     OW70504   0.873   0.857   6.696 -0.8283 -0.2143  0.2246
22964SOL    HW170505   0.933   0.877   6.624 -0.0298 -2.5117  0.1696
22964SOL    HW270506   0.907   0.907   6.770  0.1199 -0.1271 -0.2498
22965SOL     OW70507   0.907   7.101   8.542 -0.4660 -0.2678 -0.3888
22965SOL    HW170508   0.893   7.050   8.622 -1.0530 -0.1262 -0.3979
22965SOL    HW270509   0.978   7.161   8.565  0.7596 -1.5721 -0.6184
22966SOL     OW70510   8.203   7.178   0.189 -0.1662  0.1377  0.6805
22966SOL    HW170511   8.175   7.158   0.100  0.9973 -0.9815  0.5390
22966SOL    HW270512   8.203   7.094   0.234  1.0163  0.4117  1.2289
22967SOL     OW70513   4.886   4.981   8.759 -0.3245 -0.4772  0.3217
22967SOL    HW170514   4.937   4.901   8.765  0.1782 -0.0712  1.9399
22967SOL    HW270515   4.795   4.952   8.761 -0.2142 -1.1251 -1.4997
22968SOL     OW70516   6.632   8.055   6.505 -0.4712  0.3972 -0.3658
22968SOL    HW170517   6.657   7.975   6.551  0.6455  0.5503 -0.6755
22968SOL    HW270518   6.549   8.080   6.545 -0.2969 -0.3199  0.4906
22969SOL     OW70519   5.809   3.768   9.013  0.0654  0.1705 -0.3383
22969SOL    HW170520   5.750   3.819   8.958  1.0836  2.3634  0.4753
22969SOL    HW270521   5.758   3.747   9.091  0.0677  1.3577  0.0100
22970SOL     OW70522   8.712   6.410   8.131 -0.4166  0.2953 -0.0571
22970SOL    HW170523   8.793   6.419   8.182 -0.5429  0.6346  0.0869
22970SOL    HW270524   8.668   6.494   8.141 -0.3057  0.4725 -0.9703
22971SOL     OW70525   9.187   7.521   2.674 -0.0880  0.0451  0.0091
22971SOL    HW170526   9.192   7.550   2.765 -0.7810  0.2546 -0.0160
22971SOL    HW270527   9.207   7.599   2.622  0.6480 -0.1546 -0.0188
22972SOL     OW70528   1.283   1.033   7.851  0.3843  0.1719 -0.0524
22972SOL    HW170529   1.310   0.964   7.912  2.6331  1.2436  0.2516
22972SOL    HW270530   1.241   1.099   7.907  1.0339  0.4403  0.1271
22973SOL     OW70531   9.336   1.031   7.409  0.2404  0.4366  0.7090
22973SOL    HW170532   9.301   0.946   7.381 -0.6219  0.9461  0.2128
22973SOL    HW270533   9.322   1.088   7.334  0.8718  1.0113  1.0211
22974SOL     OW70534   2.889   0.460   6.098 -0.1295  0.4254 -0.1304
22974SOL    HW170535   2.905   0.397   6.028 -0.8891  1.9406 -1.7388
22974SOL    HW270536   2.814   0.511   6.068 -0.3369  1.2842  1.6924
22975SOL     OW70537   4.747   0.361   0.608 -0.3251  0.1367 -0.3116
22975SOL    HW170538   4.733   0.291   0.544  1.4106 -1.7105  1.2081
22975SOL    HW270539   4.799   0.426   0.562 -0.5917 -0.3197 -1.2873
22976SOL     OW70540   2.910   4.498   0.633  0.3078 -0.1182 -0.2880
22976SOL    HW170541   2.888   4.410   0.662  1.3149 -1.1704 -2.4638
22976SOL    HW270542   2.911   4.551   0.713 -0.9685 -1.9162  0.9844
22977SOL     OW70543   0.198   2.375   5.125 -0.0954  0.1044 -0.4246
22977SOL    HW170544   0.236   2.288   5.122  0.3089  0.2657 -0.1492
22977SOL    HW270545   0.230   2.418   5.045  0.3555  0.2602 -0.1619
22978SOL     OW70546   6.535   5.150   7.082 -0.2340 -0.1982 -0.1295
22978SOL    HW170547   6.587   5.214   7.131  0.1288 -0.6057  0.0202
22978SOL    HW270548   6.450   5.193   7.070 -0.4148 -0.1804  1.0709
22979SOL     OW70549   9.610   4.277   2.357  0.0284 -0.3375  0.1369
22979SOL    HW170550   9.651   4.210   2.413  1.4379  0.1199 -0.3145
22979SOL    HW270551   9.683   4.333   2.329 -0.9049  0.4587 -0.7717
22980SOL     OW70552   7.794   7.366   7.093 -0.5444 -0.0184 -0.1036
22980SOL    HW170553   7.832   7.448   7.125 -1.4710 -0.1056  1.3366
22980SOL    HW270554   7.699   7.380   7.101 -0.7074 -1.5450  1.0681
22981SOL     OW70555   8.637   0.486   6.246  0.1262  0.0091 -0.5208
22981SOL    HW170556   8.725   0.504   6.213  0.0907  0.8130 -0.2206
22981SOL    HW270557   8.609   0.407   6.200  0.4111  0.6031 -1.7685
22982SOL     OW70558   7.803   7.762   2.647 -0.0587  0.9573  0.4079
22982SOL    HW170559   7.790   7.677   2.687  1.1747 -0.6388 -2.2731
22982SOL    HW270560   7.723   7.776   2.595 -0.9628  2.2713  2.0474
22983SOL     OW70561   2.571   6.723   3.956 -0.4994 -0.0353  0.2358
22983SOL    HW170562   2.538   6.763   4.036  1.8184  1.8318  0.3588
22983SOL    HW270563   2.634   6.658   3.985  0.3503  0.6474 -0.0415
22984SOL     OW70564   1.827   4.958   4.895  0.3177 -0.6078 -0.2692
22984SOL    HW170565   1.875   4.894   4.948  1.8320 -0.7878 -1.7824
22984SOL    HW270566   1.819   4.917   4.809 -0.5187  0.4134 -0.6967
22985SOL     OW70567   5.187   9.313   0.297 -0.9615 -0.4141 -0.0472
22985SOL    HW170568   5.177   9.348   0.385 -0.8824  1.4392 -0.7436
22985SOL    HW270569   5.129   9.236   0.295  0.1723 -1.4147  2.0469
22986SOL     OW70570   4.173   2.851   1.130 -0.3415 -0.2133 -0.8291
22986SOL    HW170571   4.096   2.878   1.081 -0.7578 -2.3795 -1.4621
22986SOL    HW270572   4.239   2.832   1.064  0.2056  0.0650 -0.3749
22987SOL     OW70573   0.197   9.067   4.480  0.1516 -0.1888 -0.0500
22987SOL    HW170574   0.271   9.047   4.422  0.0594  0.7499 -0.5049
22987SOL    HW270575   0.172   8.982   4.517  2.3106 -0.3289  1.1837
22988SOL     OW70576   6.694   1.788   2.958 -0.4725  0.4719 -0.0264
22988SOL    HW170577   6.709   1.881   2.943  1.3482  0.1111 -0.7871
22988SOL    HW270578   6.779   1.747   2.943 -1.4241 -1.4333 -0.6929
22989SOL     OW70579   1.532   7.851   3.457 -0.4125  0.3701 -0.3418
22989SOL    HW170580   1.617   7.894   3.448 -0.1562  0.1165  0.7234
22989SOL    HW270581   1.544   7.790   3.530 -1.3646 -0.0283 -0.5071
22990SOL     OW70582   0.708   7.536   2.194  0.0274 -0.6175  0.1833
22990SOL    HW170583   0.746   7.448   2.190 -1.2022 -1.1067 -1.7031
22990SOL    HW270584   0.642   7.538   2.125  1.3633  2.4293 -1.2054
22991SOL     OW70585   9.757   5.801   7.601 -0.4143  1.0160  0.3138
22991SOL    HW170586   9.806   5.823   7.522 -0.3674  0.7643  0.2719
22991SOL    HW270587   9.784   5.712   7.621  0.1479  1.3351  1.0435
22992SOL     OW70588   7.251   0.779   4.245  0.3292 -0.4790  0.4479
22992SOL    HW170589   7.211   0.702   4.285  0.3376  0.3249  2.0846
22992SOL    HW270590   7.286   0.747   4.162 -0.5477 -2.0021  0.6249
22993SOL     OW70591   3.207   6.794   1.439 -0.4640 -0.1663  0.6278
22993SOL    HW170592   3.209   6.832   1.527  0.5383 -2.2853  1.5945
22993SOL    HW270593   3.189   6.701   1.453  3.3045 -1.3377 -1.0448
22994SOL     OW70594   8.842   1.897   5.311  0.2279 -0.1220 -0.4617
22994SOL    HW170595   8.875   1.827   5.367  0.3833  0.2429 -0.0973
22994SOL    HW270596   8.837   1.857   5.224  0.0132 -0.6802 -0.2000
22995SOL     OW70597   8.268   1.505   4.191  0.2904 -0.3108  0.0610
22995SOL    HW170598   8.220   1.580   4.155 -0.8128 -0.8141  0.4226
22995SOL    HW270599   8.348   1.543   4.227 -0.9951  0.9671  1.7510
22996SOL     OW70600   6.291   0.658   3.194  0.1333 -0.1016  0.0454
22996SOL    HW170601   6.213   0.685   3.146  0.2390 -1.2364 -0.8240
22996SOL    HW270602   6.269   0.571   3.228  1.3876 -0.9608 -1.2059
22997SOL     OW70603   6.739   9.341   5.996 -0.4109  0.1714  0.5736
22997SOL    HW170604   6.730   9.342   5.901  0.2713  1.9213  0.4809
22997SOL    HW270605   6.677   9.408   6.027 -0.5310 -0.2869  1.3495
22998SOL     OW70606   0.447   5.251   1.559  0.5301  0.3064 -0.2017
22998SOL    HW170607   0.533   5.212   1.540 -0.1867 -2.7492  1.9533
22998SOL    HW270608   0.390   5.216   1.490  0.5544  0.3560 -0.2470
22999SOL     OW70609   7.440   4.645   6.728  0.2600 -0.3384  0.5500
22999SOL    HW170610   7.439   4.628   6.822 -1.4229  1.3332  0.8734
22999SOL    HW270611   7.411   4.736   6.719 -0.8191 -0.8333 -1.6495
23000SOL     OW70612   3.796   3.864   6.722 -0.3519 -0.8062 -1.0006
23000SOL    HW170613   3.798   3.926   6.649  0.7488 -1.1235 -1.2538
23000SOL    HW270614   3.790   3.919   6.800 -1.6485 -0.4687 -1.3163
23001SOL     OW70615   7.880   0.287   9.418 -0.4894  0.3057  0.0429
23001SOL    HW170616   7.951   0.267   9.479  1.2320  1.7606 -1.3960
23001SOL    HW270617   7.800   0.274   9.470  0.8288 -0.2234  2.0577
23002SOL     OW70618   4.950   8.339   2.396 -0.4090 -0.5450 -0.0977
23002SOL    HW170619   4.886   8.393   2.349 -1.1363 -0.5390  0.8806
23002SOL    HW270620   5.003   8.401   2.445  0.4678 -0.5396 -1.0081
23003SOL     OW70621   9.240   5.305   1.271 -0.2776 -0.2347  0.5416
23003SOL    HW170622   9.317   5.350   1.308 -1.2450  1.4104  0.6348
23003SOL    HW270623   9.256   5.305   1.177 -0.5793  0.9125  0.4881
23004SOL     OW70624   7.993   7.550   1.646 -0.2293 -0.0882  0.2963
23004SOL    HW170625   7.981   7.465   1.687  1.1355 -0.3205  0.2374
23004SOL    HW270626   7.971   7.536   1.554 -1.5409  0.0190  0.5653
23005SOL     OW70627   5.592   0.953   2.988 -0.3237  0.2103 -0.0932
23005SOL    HW170628   5.571   0.984   2.900 -0.6985 -0.4919 -0.2567
23005SOL    HW270629   5.521   0.988   3.043 -1.8399 -1.8620 -0.5863
23006SOL     OW70630   5.532   1.613   6.422 -0.1448  0.3485  0.3554
23006SOL    HW170631   5.575   1.536   6.461 -1.1740 -0.3920  0.0712
23006SOL    HW270632   5.603   1.676   6.409  0.4984  0.0196  1.9568
23007SOL     OW70633   0.651   0.835   9.214 -0.0657  0.1570  0.2039
23007SOL    HW170634   0.702   0.780   9.274  0.1945 -0.5492 -0.6333
23007SOL    HW270635   0.643   0.781   9.135 -0.3739  1.0759 -0.3975
23008SOL     OW70636   5.039   1.142   5.163  0.2417 -0.1416 -1.1351
23008SOL    HW170637   4.955   1.123   5.121  0.2848 -0.0746 -1.2514
23008SOL    HW270638   5.015   1.186   5.245  0.0566 -2.0926 -0.0662
23009SOL     OW70639   8.056   8.579   9.781  0.6194  0.0590  0.0678
23009SOL    HW170640   8.008   8.582   9.698  0.2546  0.3175  0.2847
23009SOL    HW270641   8.123   8.646   9.772 -0.0444  0.7806  0.3545
23010SOL     OW70642   9.755   0.976   6.226 -0.4442  0.2783  0.0566
23010SOL    HW170643   9.755   1.028   6.306  1.1809 -1.3959  1.2342
23010SOL    HW270644   9.828   1.011   6.175 -1.5842  1.4568 -0.8259
23011SOL     OW70645   9.749   0.616   3.520 -0.4525 -0.1337 -0.3462
23011SOL    HW170646   9.661   0.597   3.553 -0.4199  0.7436  0.2890
23011SOL    HW270647   9.777   0.534   3.478 -1.3296 -0.6120 -0.0316
23012SOL     OW70648   2.421   6.919   9.114 -0.1844 -1.3011 -0.3871
23012SOL    HW170649   2.447   6.926   9.206 -1.0608 -3.2771  0.0792
23012SOL    HW270650   2.497   6.950   9.065  0.4327 -0.5302  0.9951
23013SOL     OW70651   2.646   0.340   6.539  0.4458 -0.9043  0.3890
23013SOL    HW170652   2.699   0.286   6.597  0.9300 -2.8828 -1.7514
23013SOL    HW270653   2.704   0.361   6.465 -0.4860  0.5243  0.0124
23014SOL     OW70654   6.409   8.353   3.440  0.1757 -0.2438  0.1644
23014SOL    HW170655   6.406   8.449   3.448 -1.5684 -0.1022 -1.4345
23014SOL    HW270656   6.361   8.322   3.516 -1.1192  0.2876 -0.3978
23015SOL     OW70657   4.448   0.122   4.706  0.1571 -0.0734  0.2038
23015SOL    HW170658   4.360   0.096   4.679 -0.0849  1.5971 -0.7377
23015SOL    HW270659   4.435   0.195   4.766  0.8751 -0.0150  0.3001
23016SOL     OW70660   9.806   2.414   5.256 -0.2243  0.3175 -0.3638
23016SOL    HW170661   9.858   2.388   5.180 -0.4057  0.0827 -0.4088
23016SOL    HW270662   9.870   2.447   5.319  0.0399 -0.4150 -0.2342
23017SOL     OW70663   9.026   5.561   4.022  0.4911 -0.2963  0.0952
23017SOL    HW170664   8.987   5.525   3.942 -1.0688  1.3237  0.0712
23017SOL    HW270665   9.113   5.591   3.995  0.0126  0.1668 -0.9973
23018SOL     OW70666   4.608   4.594   7.292 -0.4332 -0.0603  0.3177
23018SOL    HW170667   4.663   4.672   7.281 -0.3125 -0.2340 -0.3728
23018SOL    HW270668   4.529   4.613   7.241  0.3389 -1.0819 -1.3308
23019SOL     OW70669   6.401   3.686   4.754  0.1384 -0.3231  0.4649
23019SOL    HW170670   6.486   3.708   4.716  0.1380  2.6441  1.9052
23019SOL    HW270671   6.388   3.750   4.824 -2.5747 -1.7106  1.4000
23020SOL     OW70672   9.258   1.622   6.359 -0.5002  0.1353  0.5816
23020SOL    HW170673   9.258   1.702   6.410 -2.0049  1.8220 -1.8464
23020SOL    HW270674   9.198   1.563   6.405 -0.9949  1.1989  1.3190
23021SOL     OW70675   3.656   5.199   7.592  0.5822 -0.2627 -0.6980
23021SOL    HW170676   3.606   5.127   7.631 -0.1817 -0.1969 -1.5227
23021SOL    HW270677   3.748   5.175   7.608  0.3442 -1.4352 -0.9702
23022SOL     OW70678   4.646   0.660   6.151 -0.6317  0.5501 -0.3176
23022SOL    HW170679   4.633   0.710   6.070 -0.3537 -0.0347 -0.7387
23022SOL    HW270680   4.559   0.648   6.187 -0.8227  0.3092 -0.8496
23023SOL     OW70681   8.878   3.449   5.005 -0.2543 -0.1808  0.5548
23023SOL    HW170682   8.937   3.411   5.070  0.2874  0.0748  0.2163
23023SOL    HW270683   8.837   3.523   5.049  0.0675 -0.0452  0.6300
23024SOL     OW70684   7.297   1.033   4.590 -0.5073 -0.1053  0.2844
23024SOL    HW170685   7.327   1.066   4.675  0.0041  0.0644  0.0414
23024SOL    HW270686   7.237   1.100   4.558  0.6990  0.7383 -0.3129
23025SOL     OW70687   7.187   7.401   4.068  0.0300  0.0139  0.0762
23025SOL    HW170688   7.135   7.323   4.084  1.0900 -1.0079 -1.2147
23025SOL    HW270689   7.138   7.472   4.110 -1.6913 -1.1032  0.0466
23026SOL     OW70690   3.608   7.819   0.963 -0.7335 -0.6798 -0.2220
23026SOL    HW170691   3.606   7.723   0.963  2.2267 -0.8555 -1.4242
23026SOL    HW270692   3.672   7.841   1.030  1.0649  0.2139 -2.1085
23027SOL     OW70693   0.027   7.549   5.468  0.2542  0.3101  0.0500
23027SOL    HW170694   0.088   7.618   5.444  1.0532  0.1367  1.4976
23027SOL    HW270695  -0.019   7.527   5.386 -0.0971  2.5944 -0.4122
23028SOL     OW70696   3.120   0.428   9.789  0.1458  0.1684 -0.0204
23028SOL    HW170697   3.064   0.457   9.861  0.1431  0.0485  0.0268
23028SOL    HW270698   3.063   0.433   9.712 -0.0251 -0.2462  0.0739
23029SOL     OW70699   2.191   7.281   3.294 -0.2760  1.0085 -0.6336
23029SOL    HW170700   2.200   7.186   3.295 -1.1167  0.9026  1.2260
23029SOL    HW270701   2.126   7.299   3.227 -1.6878  0.0724  0.4373
23030SOL     OW70702   3.043   1.043   1.478 -0.3230  0.0588 -0.4374
23030SOL    HW170703   3.019   1.101   1.549 -0.8499 -1.8418  1.0113
23030SOL    HW270704   3.133   1.068   1.455 -1.0147  2.3622 -0.9025
23031SOL     OW70705   7.454   2.708   8.228  0.2592  0.0739  0.3643
23031SOL    HW170706   7.408   2.665   8.155 -0.3467 -0.1532  0.8766
23031SOL    HW270707   7.540   2.665   8.230  0.7229  0.8710 -0.9391
23032SOL     OW70708   6.780   4.214   1.664  0.4595 -0.3447  0.6815
23032SOL    HW170709   6.791   4.120   1.677  1.9213 -0.1917  0.7116
23032SOL    HW270710   6.724   4.222   1.586  0.1497 -1.2264  0.8078
23033SOL     OW70711   2.712   9.664   1.857  0.2490  0.0364 -0.2657
23033SOL    HW170712   2.667   9.747   1.875 -1.6108 -1.0142  0.1563
23033SOL    HW270713   2.773   9.685   1.786 -0.1501  1.7697 -0.1465
23034SOL     OW70714   1.363   9.666   5.221 -0.4185 -0.8168  0.3655
23034SOL    HW170715   1.347   9.638   5.131 -0.7587 -0.6411  0.3699
23034SOL    HW270716   1.288   9.631   5.271 -0.5473 -0.3986  0.4716
23035SOL     OW70717   7.047   8.000   7.665  0.4482  0.2232 -0.3301
23035SOL    HW170718   7.031   8.051   7.586  2.3172 -2.0293 -2.3083
23035SOL    HW270719   6.961   7.966   7.690  0.0214 -0.3709 -2.4423
23036SOL     OW70720   9.341   0.520   1.723 -0.6558  0.1519 -0.3071
23036SOL    HW170721   9.329   0.470   1.803  0.2281 -1.1299 -0.9517
23036SOL    HW270722   9.253   0.529   1.686 -0.9411 -0.0801  0.3163
23037SOL     OW70723   4.288   6.881   0.416 -0.4539 -0.2116 -0.2001
23037SOL    HW170724   4.306   6.815   0.350 -1.3667 -0.1659 -0.5152
23037SOL    HW270725   4.263   6.959   0.366 -0.2975  0.0912  0.1844
23038SOL     OW70726   2.414   8.133   1.236  0.8105  0.3749 -0.0693
23038SOL    HW170727   2.338   8.191   1.234  0.4225 -0.1320 -0.0827
23038SOL    HW270728   2.472   8.172   1.301  1.4189  1.8658 -1.4318
23039SOL     OW70729   2.566   6.836   1.322  0.3517 -0.2074  0.2421
23039SOL    HW170730   2.552   6.927   1.294  0.2745  0.0092  0.9661
23039SOL    HW270731   2.651   6.837   1.364  0.0514 -0.3212  0.8605
23040SOL     OW70732   5.844   4.149   9.720 -0.4925 -0.0302  0.0707
23040SOL    HW170733   5.857   4.078   9.784  2.1809 -1.9837 -2.4126
23040SOL    HW270734   5.776   4.116   9.661  0.0097 -0.0932 -0.4819
23041SOL     OW70735   6.026   6.927   3.529  0.0571 -0.2521 -0.1299
23041SOL    HW170736   6.054   6.876   3.605  0.9118 -0.5916 -0.6483
23041SOL    HW270737   6.085   7.002   3.528  0.8062 -0.8181 -1.0664
23042SOL     OW70738   1.212   5.985   1.018  0.1193  0.2002  0.6465
23042SOL    HW170739   1.289   5.948   1.063 -1.3395 -2.2800  1.3242
23042SOL    HW270740   1.174   6.046   1.082  0.5675  0.1198  0.9946
23043SOL     OW70741   7.367   9.295   5.443  0.1786  0.0666 -0.2116
23043SOL    HW170742   7.455   9.267   5.467  0.1960  0.0899 -0.2482
23043SOL    HW270743   7.332   9.338   5.521 -0.1226 -0.7164  0.0924
23044SOL     OW70744   7.000   1.634   5.481  0.9211  0.1933 -0.0329
23044SOL    HW170745   7.018   1.671   5.567  0.5683  0.2939 -0.0003
23044SOL    HW270746   7.075   1.660   5.427  1.4757 -0.4501  0.4184
23045SOL     OW70747   7.374   5.706   2.006  0.2605 -0.7285 -0.5103
23045SOL    HW170748   7.398   5.778   1.948  2.5979 -0.0607  1.1084
23045SOL    HW270749   7.308   5.743   2.065  0.1823 -0.4478 -0.7730
23046SOL     OW70750   1.943   4.397   3.804 -0.4683 -0.2446  0.0030
23046SOL    HW170751   2.032   4.381   3.836 -1.2515  0.5969  2.8428
23046SOL    HW270752   1.950   4.389   3.709  2.6295 -0.2157  0.1386
23047SOL     OW70753   3.435   2.626   5.034  0.7906 -0.1315  0.1288
23047SOL    HW170754   3.440   2.668   5.120 -0.1540 -0.3524  0.2941
23047SOL    HW270755   3.418   2.534   5.052  0.8242 -0.2227 -0.2903
23048SOL     OW70756   0.068   4.729   4.506  0.7892  0.4078  0.0486
23048SOL    HW170757   0.058   4.699   4.415  1.5867 -1.7577  0.6040
23048SOL    HW270758   0.161   4.751   4.513  0.7604  0.4271  0.3730
23049SOL     OW70759   7.063   8.919   1.623 -0.1961  0.2954 -0.2372
23049SOL    HW170760   7.044   8.830   1.651  0.5855 -0.2003 -1.2263
23049SOL    HW270761   7.054   8.918   1.528  2.1453  0.6255 -0.5375
23050SOL     OW70762   9.598   5.682   3.264  0.2546  0.4335  0.4677
23050SOL    HW170763   9.644   5.652   3.342 -0.8413 -0.0933  0.9411
23050SOL    HW270764   9.573   5.602   3.219 -0.5928  0.6819  0.4760
23051SOL     OW70765   3.738   1.401   0.080  0.2564 -0.0284 -0.1795
23051SOL    HW170766   3.644   1.382   0.077  0.6678 -2.3275 -1.1602
23051SOL    HW270767   3.753   1.438   0.167 -1.6200  0.8361 -0.1893
23052SOL     OW70768   1.744   5.955   9.823  0.5574 -0.1946 -0.4881
23052SOL    HW170769   1.773   5.910   9.902 -1.0696 -1.0000 -0.3271
23052SOL    HW270770   1.701   6.035   9.854 -1.3198 -1.1772 -0.4203
23053SOL     OW70771   5.483   1.077   5.181 -0.4162 -0.0326 -0.3074
23053SOL    HW170772   5.552   1.026   5.139 -0.1749  0.0141  0.0331
23053SOL    HW270773   5.529   1.137   5.239 -0.6474  1.0881 -1.2470
23054SOL     OW70774   4.020   8.144   8.242 -0.0374 -0.3368  0.1811
23054SOL    HW170775   4.028   8.168   8.149 -0.0975 -1.2259 -0.0643
23054SOL    HW270776   3.967   8.065   8.242 -1.1941  0.3980  1.0986
23055SOL     OW70777   1.829   2.989   4.703  0.6487  0.1798 -0.0487
23055SOL    HW170778   1.884   2.911   4.698 -1.0518 -1.2011  1.3909
23055SOL    HW270779   1.810   3.000   4.796 -0.0061  1.7029 -0.3258
23056SOL     OW70780   8.535   3.480   9.222 -0.2624  0.2630  0.0537
23056SOL    HW170781   8.475   3.487   9.296 -1.1048  1.4863 -0.7034
23056SOL    HW270782   8.478   3.464   9.146  0.5977 -1.2195 -0.3239
23057SOL     OW70783   7.395   9.016   8.843 -0.2262  0.4833  0.1839
23057SOL    HW170784   7.482   8.993   8.875  0.3774  0.7074 -1.2223
23057SOL    HW270785   7.369   8.942   8.789 -0.6663  0.6795  0.1208
23058SOL     OW70786   8.135   0.148   0.372  0.4665  0.5483 -0.4656
23058SOL    HW170787   8.146   0.088   0.446  0.1383 -0.7718 -1.4459
23058SOL    HW270788   8.068   0.209   0.400  1.1812  0.7962  0.7582
23059SOL     OW70789   2.532   7.318   5.238 -0.4776 -0.2924 -0.1566
23059SOL    HW170790   2.579   7.397   5.266  1.7629 -1.1023 -1.3691
23059SOL    HW270791   2.499   7.340   5.151 -0.8960 -0.3209 -0.0097
23060SOL     OW70792   3.733   0.902   3.837 -0.0378 -0.1884 -0.2473
23060SOL    HW170793   3.744   0.989   3.875  0.8878  0.0476 -1.0091
23060SOL    HW270794   3.795   0.847   3.885 -0.1124 -0.2698 -0.2442
23061SOL     OW70795   6.215   2.492   4.813 -0.2638  0.2002  0.0148
23061SOL    HW170796   6.146   2.475   4.878  0.4766  0.1897  0.8108
23061SOL    HW270797   6.221   2.588   4.810 -0.3416  0.2024 -0.0953
23062SOL     OW70798   7.830   5.644   7.867 -0.2007  0.0028  0.2020
23062SOL    HW170799   7.819   5.555   7.834  0.0785 -0.1401  0.4848
23062SOL    HW270800   7.749   5.664   7.913 -0.0372 -0.3263  0.6393
23063SOL     OW70801   8.330   7.320   5.461 -0.4543 -0.2513  0.2127
23063SOL    HW170802   8.312   7.398   5.409 -1.4927 -0.0170  0.8901
23063SOL    HW270803   8.378   7.352   5.537  1.2454 -0.6206 -0.6537
23064SOL     OW70804   2.882   7.185   3.033  0.2276 -0.4198  0.1057
23064SOL    HW170805   2.838   7.231   3.104 -1.0096  1.2567 -1.6328
23064SOL    HW270806   2.975   7.193   3.053 -0.0150  1.5549  0.6610
23065SOL     OW70807   9.682   7.482   4.556  0.1524  0.1479  0.2422
23065SOL    HW170808   9.750   7.425   4.519 -0.2253 -0.9261  1.1202
23065SOL    HW270809   9.691   7.471   4.651  0.8944  2.5809  0.5216
23066SOL     OW70810   8.586   2.795   4.623 -0.4964  0.1734 -0.8132
23066SOL    HW170811   8.616   2.834   4.541 -0.7949  0.2079 -0.9076
23066SOL    HW270812   8.491   2.797   4.617 -0.5474  1.0544 -0.0644
23067SOL     OW70813   6.828   1.808   6.263  0.2021  0.6444  0.6689
23067SOL    HW170814   6.854   1.900   6.274 -1.1302  1.2479 -0.8050
23067SOL    HW270815   6.733   1.810   6.262  0.1494 -0.8296  1.0389
23068SOL     OW70816   8.915   8.253   3.425  0.5624 -0.0309 -0.7838
23068SOL    HW170817   8.922   8.162   3.452  0.8556  0.0764 -0.4878
23068SOL    HW270818   8.838   8.255   3.368  0.1914 -0.3454 -0.3044
23069SOL     OW70819   9.524   8.714   3.994 -0.1238 -0.2619  0.1471
23069SOL    HW170820   9.590   8.764   4.042 -1.1101  0.8066  0.4380
23069SOL    HW270821   9.470   8.673   4.062  1.1331 -2.4239 -0.0797
23070SOL     OW70822   6.611   1.913   0.879  0.0544 -0.1583 -0.0812
23070SOL    HW170823   6.684   1.974   0.880 -1.4266  1.7141  0.9444
23070SOL    HW270824   6.649   1.829   0.851  2.1554  1.2060 -1.5922
23071SOL     OW70825   6.682   6.974   5.107  0.2913 -0.0502 -0.4260
23071SOL    HW170826   6.629   6.977   5.027 -0.7213  0.2086  0.2384
23071SOL    HW270827   6.701   6.881   5.120 -0.2175 -0.1697 -0.5310
23072SOL     OW70828   2.863   4.295   7.495 -0.0749 -0.4319  0.1979
23072SOL    HW170829   2.837   4.330   7.410  1.3592  2.1690  0.7246
23072SOL    HW270830   2.789   4.313   7.552 -0.6105 -1.2073 -0.2371
23073SOL     OW70831   8.018   7.544   4.511 -0.3313 -0.3084  0.1713
23073SOL    HW170832   7.949   7.486   4.545  1.2898 -2.3041  0.2871
23073SOL    HW270833   7.987   7.570   4.424 -1.5098 -0.6328  0.4773
23074SOL     OW70834   0.513   3.070   5.466  0.2347 -0.1982 -0.6092
23074SOL    HW170835   0.495   3.145   5.522 -1.0306 -1.2430  0.4547
23074SOL    HW270836   0.495   3.101   5.377 -1.5412  0.4224 -0.0791
23075SOL     OW70837   0.180   7.975   9.207  0.0564 -0.0612 -0.2545
23075SOL    HW170838   0.168   7.906   9.141 -1.3404  0.3050 -0.4278
23075SOL    HW270839   0.126   7.947   9.281  0.6284  0.1485  0.2471
23076SOL     OW70840   4.158   5.104   5.915 -0.4461  0.0572  0.1219
23076SOL    HW170841   4.214   5.126   5.990  0.5992 -0.3533 -0.5238
23076SOL    HW270842   4.137   5.188   5.876  0.7671  0.1529 -0.3615
23077SOL     OW70843   1.394   2.219   6.580 -0.0217 -0.1972 -0.0485
23077SOL    HW170844   1.365   2.132   6.609 -1.2852  0.5808  1.1199
23077SOL    HW270845   1.426   2.205   6.491 -1.9856 -1.5272 -0.5970
23078SOL     OW70846   5.770   0.445   0.778  0.8164 -0.4263  0.1539
23078SOL    HW170847   5.775   0.361   0.823 -0.8287 -0.0826  1.0626
23078SOL    HW270848   5.765   0.509   0.849 -0.6670  0.2166 -0.5067
23079SOL     OW70849   9.107   7.253   4.822 -0.2246  0.2557  0.2267
23079SOL    HW170850   9.184   7.280   4.872 -0.7314  1.4727  0.4085
23079SOL    HW270851   9.092   7.162   4.847  0.3119  0.4423  1.2949
23080SOL     OW70852   6.074   3.273   1.765 -0.2200 -0.1242  0.0555
23080SOL    HW170853   6.031   3.357   1.755 -0.0919 -0.0672 -0.0216
23080SOL    HW270854   6.082   3.239   1.675 -0.8535 -0.5107  0.1428
23081SOL     OW70855   6.371   0.739   0.720  0.0447  0.0016  0.0712
23081SOL    HW170856   6.280   0.763   0.734  0.2457  0.4535  0.6336
23081SOL    HW270857   6.373   0.644   0.729 -0.0054  0.1622  2.2537
23082SOL     OW70858   8.958   1.451   2.076 -0.0659 -0.6216  0.3000
23082SOL    HW170859   9.027   1.515   2.065  0.1989 -1.0802 -0.8358
23082SOL    HW270860   8.984   1.377   2.021 -1.1622 -1.0377  0.3028
23083SOL     OW70861   3.973   4.247   3.537  0.6161  0.2049 -0.1622
23083SOL    HW170862   3.944   4.163   3.499  0.3287  1.1803 -2.2695
23083SOL    HW270863   3.912   4.263   3.609  0.8414 -1.4993  0.4623
23084SOL     OW70864   5.030   1.951   5.246 -0.3582  0.7150  0.2340
23084SOL    HW170865   5.073   1.939   5.161  0.5071 -1.7709  0.9482
23084SOL    HW270866   5.045   2.044   5.267  1.4455  0.8331 -1.2838
23085SOL     OW70867   4.589   6.780   9.687  0.0558 -0.8369  0.3612
23085SOL    HW170868   4.519   6.841   9.709 -0.2515 -0.6079 -1.1178
23085SOL    HW270869   4.552   6.693   9.706 -1.8907 -0.9754 -3.1720
23086SOL     OW70870   6.951   7.032   3.058  0.2987  0.4505 -0.2756
23086SOL    HW170871   6.977   7.040   2.966  0.7747  0.4017 -0.1476
23086SOL    HW270872   7.033   7.016   3.105 -0.2531 -2.6557 -0.1953
23087SOL     OW70873   3.078   3.799   0.599  0.2478 -0.1564  0.1007
23087SOL    HW170874   3.169   3.798   0.569  0.0463  0.4688 -0.5512
23087SOL    HW270875   3.071   3.723   0.657  1.4410  0.3378  0.9301
23088SOL     OW70876   3.145   1.274   5.683  0.8086  0.5163 -0.3147
23088SOL    HW170877   3.078   1.214   5.651  0.2792  0.0025  1.6157
23088SOL    HW270878   3.228   1.235   5.655  0.5117 -1.4657  1.3394
23089SOL     OW70879   5.812   8.141   3.062 -0.3361  0.0613 -0.4296
23089SOL    HW170880   5.898   8.184   3.061  1.0743 -2.5352 -0.2675
23089SOL    HW270881   5.803   8.103   2.974 -1.8591  1.1805 -0.8013
23090SOL     OW70882   2.883   0.913   8.311 -0.5605 -0.1358 -0.1425
23090SOL    HW170883   2.837   0.897   8.229  2.9805 -0.3758 -2.3220
23090SOL    HW270884   2.952   0.975   8.287  0.9910 -0.7100  2.5010
23091SOL     OW70885   6.964   7.633   3.612  0.0986  0.1205 -0.4840
23091SOL    HW170886   6.892   7.571   3.606 -0.8938  1.2547 -0.6764
23091SOL    HW270887   7.025   7.594   3.675 -0.8124 -0.7140 -0.1039
23092SOL     OW70888   9.533   1.518   2.583  0.0485 -0.4698  0.1778
23092SOL    HW170889   9.510   1.455   2.651 -1.4553  0.9837  1.1040
23092SOL    HW270890   9.481   1.492   2.507 -0.6747 -0.3039  0.6011
23093SOL     OW70891   3.552   2.312   5.330 -0.2063 -0.1869 -0.2048
23093SOL    HW170892   3.513   2.356   5.406  1.6243 -0.0068  0.6836
23093SOL    HW270893   3.545   2.218   5.350  2.8612 -0.1563  1.7042
23094SOL     OW70894   7.955   2.709   2.719 -0.2578  0.3292 -0.1823
23094SOL    HW170895   7.891   2.708   2.790 -2.9061 -1.6641 -2.3855
23094SOL    HW270896   8.040   2.716   2.763 -1.7861 -0.0057  3.0869
23095SOL     OW70897   3.132   4.716   1.103  0.4407  0.0091  0.2925
23095SOL    HW170898   3.185   4.648   1.062 -0.2637 -0.1105 -0.4589
23095SOL    HW270899   3.192   4.789   1.116  1.5005 -1.1143  2.1579
23096SOL     OW70900   1.774   7.964   3.426 -0.0644  0.2223  0.0335
23096SOL    HW170901   1.863   7.969   3.460  0.0143  1.4090 -0.3285
23096SOL    HW270902   1.768   8.034   3.361 -1.1166 -0.1412 -0.2888
23097SOL     OW70903   5.255   6.982   9.037 -0.1308 -0.0517 -0.1078
23097SOL    HW170904   5.288   7.041   8.969 -0.0832  0.4313  0.3291
23097SOL    HW270905   5.331   6.931   9.064 -0.7132 -2.4911 -2.5812
23098SOL     OW70906   0.229   5.505   1.872 -0.6314  0.4738 -0.3293
23098SOL    HW170907   0.282   5.452   1.813 -1.3002 -1.1532  0.4642
23098SOL    HW270908   0.173   5.557   1.815 -0.3174 -0.0569 -1.1283
23099SOL     OW70909   4.043   8.127   6.207  0.5281  0.6383 -0.6905
23099SOL    HW170910   4.137   8.134   6.224  0.6250 -0.6252 -0.6097
23099SOL    HW270911   4.004   8.111   6.293  0.1567  1.6785 -0.6443
23100SOL     OW70912   1.914   7.825   8.878  0.1488  0.5137  0.5628
23100SOL    HW170913   1.934   7.881   8.804  0.1815 -0.1711  0.0387
23100SOL    HW270914   1.921   7.736   8.843 -1.0267  0.1979  1.0786
23101SOL     OW70915   7.042   2.845   7.329  0.0088 -0.0316  0.2614
23101SOL    HW170916   7.005   2.759   7.351 -3.6321  1.3285  0.1640
23101SOL    HW270917   7.039   2.849   7.234  2.0900 -0.4654  0.1294
23102SOL     OW70918   0.482   0.312   6.624  0.8509  0.4389 -0.1590
23102SOL    HW170919   0.505   0.224   6.655  0.7500  0.1769 -0.8070
23102SOL    HW270920   0.460   0.299   6.531 -0.7166  0.8801  0.1307
23103SOL     OW70921   7.509   8.372   2.133  0.5956 -0.5471  0.4154
23103SOL    HW170922   7.528   8.462   2.106  1.5480 -0.5486  1.0021
23103SOL    HW270923   7.430   8.348   2.086  0.7843  0.3231 -0.3625
23104SOL     OW70924   3.661   2.908   2.865  0.7247 -0.3370  0.3831
23104SOL    HW170925   3.698   2.970   2.927 -1.0715  0.2512  0.9330
23104SOL    HW270926   3.666   2.953   2.780  0.4760  0.1027  0.5978
23105SOL     OW70927   5.862   0.951   1.305  0.3721  0.0402  0.1474
23105SOL    HW170928   5.865   0.858   1.329  0.0732 -0.0395 -0.1061
23105SOL    HW270929   5.859   0.950   1.209 -0.2986  0.2886  0.1597
23106SOL     OW70930   2.361   1.380   9.703  0.2406 -0.6548  0.5855
23106SOL    HW170931   2.413   1.458   9.720  1.3686 -1.4319  0.8136
23106SOL    HW270932   2.277   1.413   9.671  2.3127  0.7175 -4.5082
23107SOL     OW70933   2.583   9.767   6.037 -0.3040 -0.4043 -0.0772
23107SOL    HW170934   2.532   9.689   6.060  0.2376 -0.4731  0.9570
23107SOL    HW270935   2.532   9.809   5.967 -0.7976 -1.4749 -0.3911
23108SOL     OW70936   0.230   6.899   3.198 -0.7724  0.1252 -0.1197
23108SOL    HW170937   0.155   6.841   3.199 -0.7821 -0.0823  3.6699
23108SOL    HW270938   0.306   6.841   3.198 -0.6752  0.2473 -0.6430
23109SOL     OW70939   1.769   1.003   0.127 -0.3280 -1.0494  0.3183
23109SOL    HW170940   1.697   0.946   0.154  1.0749 -2.3142  1.5691
23109SOL    HW270941   1.805   1.038   0.208  0.1778 -0.0455 -0.3137
23110SOL     OW70942   2.133   8.232   7.806  0.5114  0.0051  0.6087
23110SOL    HW170943   2.062   8.168   7.800  0.0163  0.4292  1.7518
23110SOL    HW270944   2.089   8.317   7.805  1.2262  0.4303 -2.0682
23111SOL     OW70945   1.395   5.984   9.501  0.0760 -0.1465 -0.3670
23111SOL    HW170946   1.391   5.988   9.597  0.1848  0.0400 -0.3693
23111SOL    HW270947   1.303   5.981   9.474  0.0366 -1.9288 -0.1961
23112SOL     OW70948   2.263   4.808   8.969 -0.3757 -0.1232  0.0052
23112SOL    HW170949   2.240   4.731   8.917 -0.1152  0.4559 -1.0140
23112SOL    HW270950   2.199   4.810   9.040  0.2508 -1.8497  0.6760
23113SOL     OW70951   2.114   6.313   7.269  0.6108 -0.1296 -0.5248
23113SOL    HW170952   2.174   6.254   7.314 -0.0764 -1.1863 -0.9783
23113SOL    HW270953   2.039   6.259   7.246 -1.3772  1.4797  1.5825
23114SOL     OW70954   0.695   0.527   7.996 -0.0448  0.0254 -0.5516
23114SOL    HW170955   0.761   0.467   8.030 -1.7002  0.1243  3.2809
23114SOL    HW270956   0.746   0.602   7.964  1.7949 -0.0704  1.8710
23115SOL     OW70957   5.528   7.286   0.859 -0.4508  0.1032  0.1733
23115SOL    HW170958   5.544   7.192   0.855  0.6432  0.2144  1.3674
23115SOL    HW270959   5.591   7.318   0.922 -1.8774  1.4131  0.9972
23116SOL     OW70960   7.848   2.387   7.241 -0.2041  0.0942 -0.1304
23116SOL    HW170961   7.763   2.359   7.208 -1.0705  0.4343  1.7004
23116SOL    HW270962   7.910   2.325   7.202 -1.4686 -1.1755 -0.2071
23117SOL     OW70963   9.696   1.276   9.641  0.4978  0.1691 -0.2903
23117SOL    HW170964   9.716   1.201   9.697  1.9155  1.8199  1.5744
23117SOL    HW270965   9.743   1.259   9.560  2.5382 -0.0247  0.8837
23118SOL     OW70966   6.146   8.994   2.012  0.1431 -0.8702  0.3227
23118SOL    HW170967   6.182   8.913   2.049  1.4543  0.5565  2.4229
23118SOL    HW270968   6.065   9.008   2.062  0.7884 -0.0634  1.1767
23119SOL     OW70969   1.705   4.371   7.579  0.0122 -0.1615 -0.7405
23119SOL    HW170970   1.629   4.318   7.554  1.6864 -2.1738 -1.8582
23119SOL    HW270971   1.771   4.307   7.606  1.4489  1.5054 -0.1302
23120SOL     OW70972   2.591   6.952   4.851  0.8946 -0.3789  0.9621
23120SOL    HW170973   2.646   6.994   4.917  0.5326  0.3388  0.8255
23120SOL    HW270974   2.556   6.874   4.894 -0.2358  0.6740  2.0309
23121SOL     OW70975   8.396   2.495   8.479 -0.5070 -0.1067  0.5084
23121SOL    HW170976   8.381   2.482   8.385  0.3605  0.8477  0.2085
23121SOL    HW270977   8.340   2.431   8.522 -0.0976 -1.3152 -0.6928
23122SOL     OW70978   9.643   6.694   7.245  0.6236  0.0408 -0.0564
23122SOL    HW170979   9.625   6.772   7.192 -0.8044 -1.1479 -1.4422
23122SOL    HW270980   9.592   6.707   7.325  1.4801  1.1068  0.3504
23123SOL     OW70981   8.654   6.189   3.059  0.4615  0.7227 -0.2653
23123SOL    HW170982   8.712   6.154   3.126 -0.5804  1.2362  0.9703
23123SOL    HW270983   8.663   6.284   3.068  0.0451  0.7948 -0.5902
23124SOL     OW70984   2.348   7.404   3.491  0.2723 -0.1374 -0.5366
23124SOL    HW170985   2.279   7.347   3.457 -0.0495  0.0016 -0.1350
23124SOL    HW270986   2.419   7.345   3.515  0.2687 -0.2882 -0.9020
23125SOL     OW70987   8.078   9.320   1.071  0.1712 -0.1811  0.4915
23125SOL    HW170988   8.089   9.254   1.140 -2.8367 -2.3844 -0.8869
23125SOL    HW270989   8.010   9.378   1.104  0.4008  0.1739  0.3408
23126SOL     OW70990   1.540   9.705   4.090 -0.4606 -0.1215 -0.0384
23126SOL    HW170991   1.628   9.670   4.103 -0.6207 -0.6602 -0.3902
23126SOL    HW270992   1.497   9.643   4.031 -1.2278 -0.1001  0.4781
23127SOL     OW70993   6.406   8.764   5.904 -0.1953 -0.3684 -0.0437
23127SOL    HW170994   6.375   8.680   5.939  1.3972 -0.7761  0.5035
23127SOL    HW270995   6.368   8.769   5.816 -0.5450 -1.5306  0.0247
23128SOL     OW70996   4.514   8.313   8.739  0.1376  0.1662 -0.2264
23128SOL    HW170997   4.449   8.270   8.683 -1.7493  0.3344  1.7132
23128SOL    HW270998   4.579   8.245   8.757  0.2325 -0.1857 -1.7187
23129SOL     OW70999   8.560   7.099   3.919 -0.0374 -0.1585 -0.3781
23129SOL    HW171000   8.619   7.024   3.913  0.2210  0.0225 -0.0866
23129SOL    HW271001   8.477   7.062   3.950 -1.4539 -1.1630 -4.6544
23130SOL     OW71002   7.563   9.356   4.972 -0.1764  0.4446  0.7320
23130SOL    HW171003   7.625   9.406   4.919 -1.1048  0.9939  0.1263
23130SOL    HW271004   7.537   9.417   5.042 -1.8804  1.1443 -0.4338
23131SOL     OW71005   3.179   7.703   5.602  0.2766  0.1803 -0.1663
23131SOL    HW171006   3.141   7.615   5.600 -0.2935  0.3474  1.7187
23131SOL    HW271007   3.228   7.709   5.520  0.9329 -2.1473 -0.0349
23132SOL     OW71008   3.662   1.954   2.552  0.2631  0.1251  0.5288
23132SOL    HW171009   3.682   2.047   2.554  2.9246 -0.3423 -0.2029
23132SOL    HW271010   3.600   1.944   2.480 -0.6007  1.3766  1.0576
23133SOL     OW71011   0.455   8.661   2.027  0.1962 -0.3503  0.0724
23133SOL    HW171012   0.367   8.699   2.035  0.5758  0.5662  0.0169
23133SOL    HW271013   0.512   8.737   2.017  0.8382 -0.9957 -1.3890
23134SOL     OW71014   0.676   6.369   2.932 -0.2556  0.1693  0.3391
23134SOL    HW171015   0.722   6.430   2.990  1.0580  0.1410 -0.6270
23134SOL    HW271016   0.606   6.332   2.986  1.4853 -0.5728  2.2072
23135SOL     OW71017   0.964   3.083   8.421 -0.5508 -0.1012 -0.1772
23135SOL    HW171018   0.870   3.068   8.427 -0.0720 -3.4130  1.4233
23135SOL    HW271019   0.990   3.037   8.341 -0.2389  0.7580 -0.5854
23136SOL     OW71020   9.432   5.064   2.510  0.1709 -0.0098  0.1852
23136SOL    HW171021   9.525   5.086   2.517  0.3040 -0.3739 -0.4094
23136SOL    HW271022   9.393   5.104   2.588  0.5735  1.4384 -0.3128
23137SOL     OW71023   2.607   9.266   6.650 -0.1845 -0.5982  0.0732
23137SOL    HW171024   2.557   9.332   6.603  1.1684  0.7727  0.4814
23137SOL    HW271025   2.570   9.267   6.739 -1.9628 -2.3751 -0.5468
23138SOL     OW71026   4.502   8.072   8.452  0.0301 -0.7037 -0.2526
23138SOL    HW171027   4.462   8.126   8.520 -0.9118 -0.7806 -0.7354
23138SOL    HW271028   4.487   7.982   8.481 -0.6834 -0.7428 -0.7312
23139SOL     OW71029   3.396   4.597   3.306  0.3693 -0.4101 -0.4965
23139SOL    HW171030   3.394   4.542   3.384  2.2672  0.8023  0.4603
23139SOL    HW271031   3.308   4.634   3.300  0.1355 -0.6777  0.9498
23140SOL     OW71032   6.656   1.632   5.969  0.0292  0.1588  0.0822
23140SOL    HW171033   6.739   1.680   5.973 -0.4362  0.9667  0.3652
23140SOL    HW271034   6.674   1.558   5.911  0.3101  1.6299 -1.8235
23141SOL     OW71035   3.339   0.888   6.928 -0.2754  0.0428  0.1406
23141SOL    HW171036   3.410   0.951   6.940 -0.2105  0.1350 -0.6420
23141SOL    HW271037   3.382   0.803   6.928  0.3067  0.1943 -3.0872
23142SOL     OW71038   0.998   7.622   4.726 -0.3939 -0.1857 -0.1744
23142SOL    HW171039   1.040   7.574   4.797  1.1447  0.6179 -0.5031
23142SOL    HW271040   1.039   7.589   4.646 -0.3093  0.6874 -0.5007
23143SOL     OW71041   5.901   5.753   4.778 -0.2410  0.1752  0.2905
23143SOL    HW171042   5.892   5.841   4.815  0.4643 -0.2837  1.6007
23143SOL    HW271043   5.812   5.717   4.780 -0.3948  0.5611  0.5162
23144SOL     OW71044   1.770   6.668   8.182 -0.4122  0.0674  0.6262
23144SOL    HW171045   1.678   6.681   8.203 -0.6713 -0.2973 -0.2398
23144SOL    HW271046   1.805   6.757   8.172 -1.2048  0.2062 -1.2368
23145SOL     OW71047   4.905   7.644   7.293  0.2822 -0.3449  0.2050
23145SOL    HW171048   4.864   7.710   7.237  1.9296 -0.2691 -0.9900
23145SOL    HW271049   4.846   7.568   7.288 -1.7299  0.9975  1.7341
23146SOL     OW71050   7.350   4.058   7.736 -0.1846 -0.8217  0.0563
23146SOL    HW171051   7.255   4.059   7.725 -0.1689 -2.9625 -0.8231
23146SOL    HW271052   7.382   4.121   7.671 -0.9656 -0.4625  0.0035
23147SOL     OW71053   0.316   0.216   1.370  0.1991 -0.4515  0.4888
23147SOL    HW171054   0.366   0.155   1.315  0.5690 -0.5305  0.9068
23147SOL    HW271055   0.289   0.285   1.310  2.7041  0.7765  0.6480
23148SOL     OW71056   3.217   5.651   1.559  0.1507 -0.2697 -0.0489
23148SOL    HW171057   3.132   5.644   1.602 -0.1738 -1.1390 -0.7966
23148SOL    HW271058   3.222   5.573   1.503  0.6427  0.7052 -1.4243
23149SOL     OW71059   0.201   6.148   9.126 -0.4244 -0.0761 -0.5432
23149SOL    HW171060   0.282   6.136   9.076  0.0000 -1.1565  0.3701
23149SOL    HW271061   0.172   6.059   9.145 -2.5146  0.2395 -1.9020
23150SOL     OW71062   3.655   5.982   5.393 -0.3044 -0.0169 -0.1582
23150SOL    HW171063   3.713   5.960   5.466  1.3382  2.2515 -0.6836
23150SOL    HW271064   3.712   5.987   5.317 -1.7182 -0.6284 -1.3212
23151SOL     OW71065   6.081   8.365   4.190  0.1878 -0.0329 -0.6518
23151SOL    HW171066   6.151   8.345   4.252  0.5761 -0.9585 -1.3767
23151SOL    HW271067   6.053   8.279   4.157  0.0146  0.4458 -1.7896
23152SOL     OW71068   6.206   6.044   4.578  0.3030 -0.2181  0.5443
23152SOL    HW171069   6.116   6.074   4.573  0.6232  0.6087 -0.4076
23152SOL    HW271070   6.204   5.955   4.542  0.0753  0.2757 -0.6952
23153SOL     OW71071   4.431   0.967   2.317 -0.0071  0.2508 -0.6308
23153SOL    HW171072   4.429   1.004   2.405 -0.4900  1.4063 -1.1032
23153SOL    HW271073   4.437   0.872   2.330  0.0376  0.4164  0.6318
23154SOL     OW71074   3.663   2.306   1.767 -0.2706  0.2055  0.0879
23154SOL    HW171075   3.577   2.292   1.805  0.5216 -1.1792  1.4792
23154SOL    HW271076   3.681   2.225   1.719  0.2483  0.4971 -0.2211
23155SOL     OW71077   0.885   8.150   8.864  0.0264  0.6090 -0.4819
23155SOL    HW171078   0.962   8.207   8.867 -0.1363  0.8017  1.4311
23155SOL    HW271079   0.813   8.208   8.843 -0.2104  1.2899  1.8977
23156SOL     OW71080   1.580   9.721   1.965 -0.0649  0.7055 -0.3543
23156SOL    HW171081   1.553   9.700   2.055 -0.4676  1.8331 -0.1948
23156SOL    HW271082   1.663   9.675   1.954 -1.6263 -2.2825 -0.6095
23157SOL     OW71083   6.180   9.475   2.993 -0.6967  0.0685  0.3359
23157SOL    HW171084   6.157   9.390   3.030  2.0468 -0.6221  0.6853
23157SOL    HW271085   6.223   9.454   2.910 -2.3739  1.3322 -0.9279
23158SOL     OW71086   8.299   2.929   7.343 -0.2820 -0.2538  0.0434
23158SOL    HW171087   8.217   2.979   7.345 -0.0765  0.0978 -0.0939
23158SOL    HW271088   8.363   2.992   7.311  0.6280  0.3297  2.7646
23159SOL     OW71089   9.135   6.460   0.090 -0.2350 -0.2981  0.0651
23159SOL    HW171090   9.153   6.468  -0.004 -0.5531 -2.5539 -0.2448
23159SOL    HW271091   9.140   6.550   0.123  0.6971  0.4548 -1.9480
23160SOL     OW71092   5.154   1.537   1.195 -0.3649 -0.1732  0.1256
23160SOL    HW171093   5.186   1.448   1.179 -1.5435 -1.2272  2.9569
23160SOL    HW271094   5.065   1.537   1.160 -1.0072 -0.7557  1.6528
23161SOL     OW71095   5.817   7.729   9.017  0.0990 -0.3962  0.4725
23161SOL    HW171096   5.886   7.776   8.969 -0.1853 -0.6736 -0.2136
23161SOL    HW271097   5.772   7.797   9.067  1.4750 -0.3350  1.7080
23162SOL     OW71098   0.275   1.482   6.710  0.5035  0.3213  0.3523
23162SOL    HW171099   0.184   1.467   6.686  0.2728  0.8811  0.8393
23162SOL    HW271100   0.325   1.467   6.630 -0.0342  0.1892  0.0406
23163SOL     OW71101   1.419   9.644   9.730 -0.1150 -0.0565  0.3527
23163SOL    HW171102   1.490   9.617   9.789  1.2393  2.6006  0.0734
23163SOL    HW271103   1.355   9.687   9.786 -0.6212 -0.7823  0.3458
23164SOL     OW71104   8.089   6.214   8.382  0.0711  0.5651 -0.2986
23164SOL    HW171105   8.077   6.225   8.477 -1.7944  1.1534 -0.5774
23164SOL    HW271106   8.046   6.131   8.362  1.4450 -0.1281 -0.4869
23165SOL     OW71107   3.787   0.545   1.748  0.4763 -0.0276  0.0327
23165SOL    HW171108   3.806   0.495   1.669  2.5322 -1.2137  1.1893
23165SOL    HW271109   3.796   0.482   1.819 -1.5344  0.9525  1.2489
23166SOL     OW71110   1.541   3.776   9.460 -0.5341  0.3606  0.8276
23166SOL    HW171111   1.482   3.738   9.393 -0.7098 -0.5834  1.4913
23166SOL    HW271112   1.629   3.761   9.425 -0.6484  0.5725  0.4457
23167SOL     OW71113   3.965   3.921   5.115  0.5689 -0.0646 -0.4273
23167SOL    HW171114   3.959   3.962   5.029 -2.5764 -0.8110 -0.6779
23167SOL    HW271115   3.992   3.831   5.097  0.1931 -0.1407 -0.6220
23168SOL     OW71116   6.070   3.695   4.040  0.1131 -0.4030 -0.7368
23168SOL    HW171117   6.024   3.775   4.013  0.1940 -0.5126 -1.2039
23168SOL    HW271118   6.161   3.724   4.054  0.4621 -0.6733 -2.2639
23169SOL     OW71119   7.208   7.640   6.181  0.2920 -0.9815 -0.3089
23169SOL    HW171120   7.254   7.558   6.161  1.3932 -0.6337  0.6674
23169SOL    HW271121   7.224   7.653   6.274 -2.1306 -1.0178  0.1696
23170SOL     OW71122   9.724   8.366   9.116 -0.5542  0.0071 -0.3119
23170SOL    HW171123   9.656   8.300   9.108 -0.2527 -0.1157 -2.5884
23170SOL    HW271124   9.800   8.328   9.073 -0.1643  1.5237 -1.0466
23171SOL     OW71125   5.278   2.068   1.244 -0.0231  0.3252 -0.2823
23171SOL    HW171126   5.359   2.056   1.295  0.3413 -0.4673 -1.0194
23171SOL    HW271127   5.251   1.979   1.220 -0.2077  0.6673 -1.4192
23172SOL     OW71128   4.578   7.157   6.156 -0.4759 -0.0801 -0.5354
23172SOL    HW171129   4.534   7.185   6.076 -2.6469  1.3216  1.0401
23172SOL    HW271130   4.508   7.149   6.221  1.4800  1.7597  2.0094
23173SOL     OW71131   6.031   3.978   5.792  0.0507 -0.3480  0.9196
23173SOL    HW171132   5.975   3.905   5.766 -1.5374  1.1321 -0.1333
23173SOL    HW271133   6.054   3.960   5.883  0.0079 -2.3060  0.5760
23174SOL     OW71134   2.569   8.391   7.943 -0.7449 -0.0926 -0.5098
23174SOL    HW171135   2.480   8.399   7.908 -0.4537 -0.0539 -1.2574
23174SOL    HW271136   2.580   8.298   7.959 -0.9608 -0.0832 -0.2923
23175SOL     OW71137   9.800   5.716   9.030 -0.5605  0.4325 -0.3535
23175SOL    HW171138   9.792   5.645   8.966 -1.0926 -0.0474  0.2211
23175SOL    HW271139   9.744   5.688   9.103 -0.4397  1.2483  0.0635
23176SOL     OW71140   7.850   1.198   0.050  0.1154 -0.3988  0.3136
23176SOL    HW171141   7.825   1.110   0.024  0.8848 -1.6259  3.2785
23176SOL    HW271142   7.772   1.251   0.035 -1.1160 -2.0786  0.5586
23177SOL     OW71143   4.214   8.873   8.438  0.1897 -0.1257  0.1132
23177SOL    HW171144   4.222   8.778   8.436  1.0952 -0.0680  0.4044
23177SOL    HW271145   4.120   8.890   8.429  0.1269 -1.0009 -1.0389
23178SOL     OW71146   5.251   7.361   9.404 -0.1449 -0.0489 -0.2444
23178SOL    HW171147   5.309   7.437   9.395  1.3033 -1.0752  0.0885
23178SOL    HW271148   5.267   7.309   9.325 -2.1049  0.5879 -1.1164
23179SOL     OW71149   8.294   4.283   2.822  0.7360 -0.3870  0.4262
23179SOL    HW171150   8.334   4.341   2.757 -0.0747 -0.7629 -0.4282
23179SOL    HW271151   8.307   4.328   2.905 -0.3492  1.2867 -0.2719
23180SOL     OW71152   6.850   6.771   2.235  0.0658  0.1017 -0.1018
23180SOL    HW171153   6.886   6.747   2.320  0.3910  0.1143 -0.2308
23180SOL    HW271154   6.768   6.722   2.228  0.9119 -1.3069 -0.5325
23181SOL     OW71155   3.332   1.242   8.392 -0.3886 -0.8759 -0.4490
23181SOL    HW171156   3.312   1.314   8.452  1.8281 -0.5043 -0.0953
23181SOL    HW271157   3.383   1.180   8.444  0.1832 -1.3383 -1.5232
23182SOL     OW71158   3.844   3.938   4.265 -0.1013  0.0212 -0.1882
23182SOL    HW171159   3.812   3.882   4.336 -1.2724 -0.0786 -0.7664
23182SOL    HW271160   3.782   4.011   4.261 -0.5046 -0.3572 -1.5815
23183SOL     OW71161   2.980   6.575   0.624 -0.2140 -0.1798 -0.0841
23183SOL    HW171162   3.005   6.485   0.644 -1.1298 -0.0966  1.5986
23183SOL    HW271163   2.895   6.586   0.667 -1.4852  0.6440 -2.5918
23184SOL     OW71164   1.796   0.462   5.917 -0.2241 -0.1241 -0.5103
23184SOL    HW171165   1.839   0.454   6.002 -0.2468  1.2080 -0.3565
23184SOL    HW271166   1.794   0.372   5.883  3.1384 -0.2261 -0.7692
23185SOL     OW71167   1.806   5.845   0.208  0.4860 -0.3341  0.6251
23185SOL    HW171168   1.900   5.859   0.218  0.6111 -0.2919 -0.5331
23185SOL    HW271169   1.791   5.759   0.248  1.6228 -1.9259 -2.1383
23186SOL     OW71170   0.161   8.260   0.333  0.1250  0.5747  0.0547
23186SOL    HW171171   0.250   8.256   0.367 -0.3045 -1.4495  1.0511
23186SOL    HW271172   0.171   8.252   0.238  1.0227  0.9880  0.1062
23187SOL     OW71173   3.944   8.976   0.663 -0.0625  0.2069 -0.6038
23187SOL    HW171174   3.931   8.885   0.691  0.2713  0.0146 -1.0552
23187SOL    HW271175   3.877   9.025   0.710 -0.1798 -0.2596 -0.2755
23188SOL     OW71176   4.952   4.914   4.366 -0.7136  0.6144  0.2939
23188SOL    HW171177   4.888   4.884   4.301  0.2905 -0.4152 -0.2669
23188SOL    HW271178   5.037   4.890   4.328 -0.0345  1.2784  1.3533
23189SOL     OW71179   6.283   7.340   6.492 -0.0867  0.4379 -1.2730
23189SOL    HW171180   6.308   7.431   6.506  0.5493  0.4201 -2.2007
23189SOL    HW271181   6.361   7.300   6.451 -0.7696 -0.2202 -1.9631
23190SOL     OW71182   1.167   0.699   8.274 -0.3455  0.0161 -0.3369
23190SOL    HW171183   1.125   0.710   8.359 -1.5395 -1.3398 -0.7210
23190SOL    HW271184   1.142   0.612   8.245  0.2474  0.3433 -1.9748
23191SOL     OW71185   3.046   4.117   5.583  0.4059 -0.1772  0.4551
23191SOL    HW171186   3.002   4.090   5.503  0.9181 -0.7346  0.3542
23191SOL    HW271187   2.990   4.084   5.654 -1.3105  2.3211  0.3974
23192SOL     OW71188   8.671   2.487   7.818 -1.1394 -0.1357  0.1768
23192SOL    HW171189   8.686   2.394   7.837  1.6061 -0.2410 -1.8709
23192SOL    HW271190   8.625   2.520   7.895 -2.4756 -3.2273  0.8534
23193SOL     OW71191   2.789   0.603   8.564 -0.2198 -0.4764 -0.2703
23193SOL    HW171192   2.883   0.620   8.560  0.0564 -1.9804 -0.9184
23193SOL    HW271193   2.779   0.538   8.633 -0.6289 -1.1552 -0.9502
23194SOL     OW71194   8.795   8.071   4.365 -1.1353  0.0964 -0.2468
23194SOL    HW171195   8.760   8.001   4.419 -1.3636 -0.1050 -0.6474
23194SOL    HW271196   8.794   8.148   4.421 -0.9876 -0.1945  0.1631
23195SOL     OW71197   5.768   1.583   3.198 -0.0272  0.1220 -0.1927
23195SOL    HW171198   5.673   1.574   3.198 -0.3408  2.7133 -0.1454
23195SOL    HW271199   5.797   1.525   3.127 -1.5232 -1.3577  0.3393
23196SOL     OW71200   0.974   8.064   2.995 -0.2853 -0.4473 -0.2689
23196SOL    HW171201   1.006   8.153   3.009 -0.9092 -0.4153  1.0302
23196SOL    HW271202   0.997   8.017   3.075 -1.5522 -0.9748 -0.1914
23197SOL     OW71203   0.617   0.676   2.500 -0.2404  0.1241  0.0216
23197SOL    HW171204   0.576   0.722   2.427  0.5009  2.7473  1.1201
23197SOL    HW271205   0.706   0.658   2.470 -0.3787 -0.1261 -0.2363
23198SOL     OW71206   2.513   5.745   0.160 -0.1946 -0.4977 -0.5038
23198SOL    HW171207   2.514   5.771   0.252 -0.3604  2.7724 -1.3016
23198SOL    HW271208   2.557   5.661   0.158  3.3431  1.0421  2.1353
23199SOL     OW71209   8.507   2.499   2.108  0.4363 -0.4920 -0.4105
23199SOL    HW171210   8.435   2.460   2.059  1.2656 -1.1575 -1.1389
23199SOL    HW271211   8.472   2.512   2.196 -0.8846  0.1534 -1.0021
23200SOL     OW71212   2.220   2.396   6.298  0.1398 -0.0297 -0.8662
23200SOL    HW171213   2.183   2.401   6.386  0.6195  1.1487 -0.7129
23200SOL    HW271214   2.206   2.483   6.261  2.1178  0.2368 -1.0582
23201SOL     OW71215   5.911   3.236   5.138  0.3335  0.1471  0.0943
23201SOL    HW171216   5.933   3.327   5.156 -0.1842  0.3488 -0.2761
23201SOL    HW271217   5.824   3.239   5.099  0.3029 -0.5091  0.0952
23202SOL     OW71218   9.301   6.548   5.471  0.1307 -0.2405 -0.1419
23202SOL    HW171219   9.224   6.604   5.468 -0.9715 -1.7327 -1.4889
23202SOL    HW271220   9.333   6.547   5.380  0.4026 -1.4234 -0.0416
23203SOL     OW71221   7.645   1.904   0.294  0.2516  0.9703 -0.0523
23203SOL    HW171222   7.688   1.824   0.325 -2.2863 -1.5328 -2.3267
23203SOL    HW271223   7.555   1.897   0.328 -0.5100  1.8811 -1.7807
23204SOL     OW71224   6.092   1.434   5.202  0.4223 -1.0822  0.2269
23204SOL    HW171225   6.102   1.413   5.109 -1.0294 -1.2651  0.0875
23204SOL    HW271226   6.035   1.365   5.236 -0.2407 -0.2219  0.9208
23205SOL     OW71227   5.149   7.357   7.689 -0.2494  0.3380  0.3539
23205SOL    HW171228   5.202   7.278   7.693  0.1524  0.6041  0.3927
23205SOL    HW271229   5.122   7.363   7.597 -0.5550 -0.0200  0.4201
23206SOL     OW71230   8.836   9.195   9.468 -0.0051  0.5065  0.3227
23206SOL    HW171231   8.931   9.188   9.476  0.1228  0.1398 -1.1704
23206SOL    HW271232   8.820   9.205   9.374 -1.4979 -0.4310  0.4334
23207SOL     OW71233   7.319   3.729   5.795 -0.6865  0.5787 -0.2115
23207SOL    HW171234   7.244   3.703   5.849  1.5836 -0.7075  2.6159
23207SOL    HW271235   7.285   3.730   5.706 -3.5165 -2.1631  0.6506
23208SOL     OW71236   1.701   6.652   4.979 -0.1679  0.2811  0.1908
23208SOL    HW171237   1.622   6.686   5.022  0.9194  2.4905  0.5866
23208SOL    HW271238   1.717   6.568   5.021 -2.6220 -0.5380 -0.3195
23209SOL     OW71239   9.277   2.616   3.136  0.4246  0.3343  0.4568
23209SOL    HW171240   9.203   2.668   3.105 -1.0097 -1.9617 -0.2562
23209SOL    HW271241   9.342   2.621   3.066 -0.1262  0.3462 -0.0618
23210SOL     OW71242   8.245   8.374   9.262 -0.1251 -0.0349 -0.1115
23210SOL    HW171243   8.234   8.438   9.332  0.0733 -1.0056  0.8316
23210SOL    HW271244   8.227   8.423   9.182 -0.4785  1.0689  0.6196
23211SOL     OW71245   6.508   0.372   8.916  0.6378 -0.2010 -0.5647
23211SOL    HW171246   6.590   0.322   8.907  0.2456 -0.9905  0.1015
23211SOL    HW271247   6.439   0.305   8.913  0.0706  0.3525 -0.1544
23212SOL     OW71248   3.944   6.409   8.774 -0.1585  0.6441 -0.2002
23212SOL    HW171249   3.994   6.397   8.693  1.5683 -0.6090  0.9874
23212SOL    HW271250   3.882   6.336   8.775  0.4494  0.1222  0.0305
23213SOL     OW71251   8.817   2.746   2.523 -0.4331  0.1099 -0.0777
23213SOL    HW171252   8.837   2.729   2.431  2.2671  0.9893  0.2582
23213SOL    HW271253   8.813   2.841   2.529 -0.2568  0.0711  0.7504
23214SOL     OW71254   8.146   1.506   3.901  0.2015 -0.4057  0.6457
23214SOL    HW171255   8.095   1.425   3.891  0.3217 -0.6260  1.7178
23214SOL    HW271256   8.106   1.549   3.976 -0.7801  1.2429 -0.7634
23215SOL     OW71257   4.139   0.048   3.625 -0.8811  0.9672  0.7285
23215SOL    HW171258   4.058  -0.002   3.639  1.1230 -3.0251 -0.7261
23215SOL    HW271259   4.193   0.028   3.702  0.3992 -0.1665 -0.4271
23216SOL     OW71260   6.177   1.812   3.094  0.4997 -0.7157 -0.3251
23216SOL    HW171261   6.271   1.830   3.107  0.3026  1.3459 -1.2557
23216SOL    HW271262   6.143   1.892   3.054 -1.7018 -1.3738  0.0826
23217SOL     OW71263   1.141   2.833   5.433  0.4441 -0.4651 -0.5065
23217SOL    HW171264   1.075   2.785   5.483  0.6466 -1.2256 -0.9488
23217SOL    HW271265   1.100   2.850   5.348  0.5339 -0.2466 -0.5070
23218SOL     OW71266   8.293   5.944   7.547 -0.2150 -0.4354  0.1448
23218SOL    HW171267   8.274   5.869   7.604 -3.5676 -0.6918 -1.0561
23218SOL    HW271268   8.274   6.020   7.601 -1.8215 -0.6351 -0.0963
23219SOL     OW71269   3.748   7.629   5.167 -0.1124 -0.2986 -0.5189
23219SOL    HW171270   3.771   7.668   5.251 -0.7622  0.4089 -0.6583
23219SOL    HW271271   3.812   7.666   5.106  0.9096 -1.4839 -0.2010
23220SOL     OW71272   8.117   0.643   1.637 -0.4890 -0.2195  0.1619
23220SOL    HW171273   8.205   0.673   1.659  0.5452 -1.7391 -1.6641
23220SOL    HW271274   8.059   0.698   1.690  1.3044  3.6303 -1.5245
23221SOL     OW71275   5.219   8.834   3.202 -0.2845 -0.4244 -0.0480
23221SOL    HW171276   5.230   8.740   3.187  1.6552 -0.3590  0.7273
23221SOL    HW271277   5.280   8.876   3.142 -1.0098  0.3585 -0.2595
23222SOL     OW71278   1.364   3.974   4.705 -0.2185  0.5237 -0.4316
23222SOL    HW171279   1.288   4.009   4.752 -1.8554 -0.0030 -2.4925
23222SOL    HW271280   1.334   3.968   4.614  2.0722 -0.4377 -1.1860
23223SOL     OW71281   6.809   7.867   7.138  0.4790  0.0270 -0.2180
23223SOL    HW171282   6.903   7.881   7.145  0.7623 -0.7864 -1.7588
23223SOL    HW271283   6.801   7.782   7.093 -0.9779  0.2960 -0.5210
23224SOL     OW71284   2.102   7.778   5.864 -0.3237 -0.6155  0.0410
23224SOL    HW171285   2.052   7.814   5.790  0.0144 -0.8435 -0.3001
23224SOL    HW271286   2.168   7.845   5.883  0.2375 -1.0087 -0.5243
23225SOL     OW71287   6.538   5.615   2.937  0.3561  0.1252 -0.2378
23225SOL    HW171288   6.566   5.531   2.901 -1.1958 -0.6757  0.3644
23225SOL    HW271289   6.474   5.649   2.874 -0.1643  0.1166  0.2784
23226SOL     OW71290   5.829   2.249   7.583  0.2013 -0.3246 -0.0528
23226SOL    HW171291   5.785   2.333   7.568  0.0817 -0.1305  1.2955
23226SOL    HW271292   5.757   2.185   7.585  0.3245 -0.5375 -1.4615
23227SOL     OW71293   1.347   6.865   8.027  0.0096  0.0693  0.1609
23227SOL    HW171294   1.420   6.924   8.011 -1.3288  1.8390  0.2553
23227SOL    HW271295   1.319   6.837   7.939  1.8748 -2.1269  0.1659
23228SOL     OW71296   9.294   5.558   7.664 -0.1512 -0.8736 -0.7482
23228SOL    HW171297   9.357   5.622   7.631 -0.1412 -0.7746 -0.5376
23228SOL    HW271298   9.336   5.521   7.742  0.3094 -1.9092 -1.4657
23229SOL     OW71299   9.635   7.807   8.402  0.7427  0.6589 -0.4992
23229SOL    HW171300   9.624   7.717   8.370  1.3705  0.5569 -0.4440
23229SOL    HW271301   9.708   7.801   8.463 -0.2604  0.9074  0.7577
23230SOL     OW71302   1.002   9.640   1.813 -0.0646 -0.3033 -0.0950
23230SOL    HW171303   1.040   9.696   1.881 -1.6646 -1.1591  1.5845
23230SOL    HW271304   0.908   9.655   1.820 -0.2729 -0.4656 -2.1276
23231SOL     OW71305   7.597   3.436   2.038 -0.3961  0.0895 -0.1060
23231SOL    HW171306   7.665   3.370   2.027  0.2402  0.6988  0.1364
23231SOL    HW271307   7.526   3.407   1.981  0.7749  0.4146 -1.8106
23232SOL     OW71308   6.598   8.496   8.780  0.3233  0.2941  0.0754
23232SOL    HW171309   6.658   8.421   8.786  0.8828  0.7064 -0.2820
23232SOL    HW271310   6.566   8.494   8.690  1.1998  1.1194 -0.2757
23233SOL     OW71311   7.816   2.752   3.219  0.1142  0.2130 -0.1170
23233SOL    HW171312   7.847   2.700   3.292 -1.0425 -0.2853  0.0407
23233SOL    HW271313   7.881   2.821   3.209  1.4703 -1.0109 -0.0760
23234SOL     OW71314   7.250   8.239   3.444 -0.0616  0.0656 -0.0257
23234SOL    HW171315   7.239   8.148   3.415  0.0566 -0.9562  2.7819
23234SOL    HW271316   7.163   8.264   3.477  0.5390 -0.1634  1.9029
23235SOL     OW71317   0.948   2.526   6.805  0.1338  0.3124 -0.4707
23235SOL    HW171318   0.877   2.461   6.805  0.9549 -0.6300  0.6535
23235SOL    HW271319   1.019   2.483   6.852  0.7715  1.9849  0.1550
23236SOL     OW71320   6.718   1.266   2.283 -0.3240 -0.2078  0.2739
23236SOL    HW171321   6.791   1.318   2.248 -0.1008 -0.0955  0.8937
23236SOL    HW271322   6.711   1.192   2.222 -1.4461  1.1506 -1.3522
23237SOL     OW71323   8.138   8.826   3.314  0.0466 -0.6123 -0.6787
23237SOL    HW171324   8.177   8.845   3.399 -0.3527  1.6064 -0.9334
23237SOL    HW271325   8.202   8.858   3.251 -0.4993 -0.4828 -1.1699
23238SOL     OW71326   3.871   7.109   3.391 -0.3691  0.7084 -0.4091
23238SOL    HW171327   3.948   7.140   3.343 -1.2239  2.2472 -0.8466
23238SOL    HW271328   3.841   7.032   3.343  2.3271 -1.5320  1.1988
23239SOL     OW71329   9.302   5.863   6.361  0.0509 -0.4514 -0.7673
23239SOL    HW171330   9.256   5.936   6.402  0.9480 -1.2457  1.8559
23239SOL    HW271331   9.243   5.831   6.293 -1.8216  0.5606  0.3282
23240SOL     OW71332   3.522   6.183   3.869 -0.2550  0.1816  0.2252
23240SOL    HW171333   3.453   6.152   3.810  0.1590 -0.2917 -0.0217
23240SOL    HW271334   3.562   6.256   3.822  0.3823 -0.4894 -0.3138
23241SOL     OW71335   7.388   0.790   3.702  0.1798 -0.0620  0.2020
23241SOL    HW171336   7.369   0.727   3.633 -3.1761 -1.7335  2.3431
23241SOL    HW271337   7.368   0.875   3.663  0.6087 -0.7147 -1.5101
23242SOL     OW71338   6.233   7.576   4.273  0.2098 -0.6856  0.3154
23242SOL    HW171339   6.225   7.662   4.316  1.8417  1.2760 -2.8746
23242SOL    HW271340   6.148   7.560   4.234 -0.5765 -1.3622  2.1953
23243SOL     OW71341   8.669   4.154   7.669  0.1075 -0.4341  0.1407
23243SOL    HW171342   8.663   4.177   7.576 -3.6466  3.2792  0.9722
23243SOL    HW271343   8.757   4.183   7.695  0.0653  1.6199 -1.6754
23244SOL     OW71344   3.424   4.286   3.699 -0.0322  0.5648  0.1803
23244SOL    HW171345   3.397   4.349   3.766 -0.4525  1.3789 -0.7254
23244SOL    HW271346   3.346   4.274   3.645  0.5153  0.5123 -0.6185
23245SOL     OW71347   6.869   1.295   5.879 -0.3414 -0.1020 -0.0789
23245SOL    HW171348   6.870   1.220   5.938  2.0477 -0.4662 -0.4604
23245SOL    HW271349   6.939   1.277   5.816 -0.0747  2.1641 -0.5352
23246SOL     OW71350   2.450   1.277   8.310  0.7609  0.4514 -0.6277
23246SOL    HW171351   2.443   1.306   8.401  0.9232  0.3002 -0.5678
23246SOL    HW271352   2.447   1.182   8.314  1.9949  0.3978 -0.6767
23247SOL     OW71353   7.791   6.476   1.014  0.3351  0.3715 -0.1793
23247SOL    HW171354   7.757   6.553   1.060  0.9563  0.0479  0.8633
23247SOL    HW271355   7.731   6.405   1.038  0.9555  0.0853  0.6167
23248SOL     OW71356   2.499   7.205   7.439 -0.1667  0.2923  0.0401
23248SOL    HW171357   2.499   7.173   7.529  0.2344  1.6057  0.5322
23248SOL    HW271358   2.576   7.166   7.399  0.6201  1.0537  0.7857
23249SOL     OW71359   8.123   7.535   5.964  0.2921 -0.6607 -0.5796
23249SOL    HW171360   8.097   7.447   5.938 -2.0503 -0.3263  0.3962
23249SOL    HW271361   8.147   7.527   6.056  0.9587 -0.4454 -0.7343
23250SOL     OW71362   4.267   1.303   2.246  0.0178 -0.2590 -0.0493
23250SOL    HW171363   4.189   1.359   2.236  0.5096  0.2032 -1.6680
23250SOL    HW271364   4.243   1.241   2.315 -1.4313  0.4716  0.1548
23251SOL     OW71365   5.849   1.302   6.637 -0.0215  0.0762  0.2237
23251SOL    HW171366   5.916   1.329   6.574  1.3300 -0.0458  1.5573
23251SOL    HW271367   5.818   1.384   6.676 -0.7747  0.1429 -0.4874
23252SOL     OW71368   3.039   7.652   3.433  0.0443 -0.5739 -0.0952
23252SOL    HW171369   2.945   7.652   3.454  0.7781 -0.8685  3.9120
23252SOL    HW271370   3.066   7.743   3.446  0.5461 -0.7253 -0.0785
23253SOL     OW71371   9.141   8.394   7.870  0.3816  0.1845 -0.1742
23253SOL    HW171372   9.167   8.429   7.956  0.3493  0.2867 -0.2061
23253SOL    HW271373   9.047   8.375   7.880  0.2048  0.9068 -0.4242
23254SOL     OW71374   2.034   4.169   8.102  0.3828 -0.7185 -0.1525
23254SOL    HW171375   2.125   4.165   8.131 -0.2885 -1.7823  2.0898
23254SOL    HW271376   1.984   4.145   8.180 -1.8882  0.9460 -1.0006
23255SOL     OW71377   7.619   5.071   7.141  0.7206 -0.1807 -0.2619
23255SOL    HW171378   7.644   4.991   7.095  1.7285  0.1667 -0.3521
23255SOL    HW271379   7.698   5.096   7.190  0.0568  0.1283  0.6884
23256SOL     OW71380   4.812   5.491   0.866  0.7326 -0.1454  0.1190
23256SOL    HW171381   4.841   5.460   0.781  0.1101 -3.4149  0.9601
23256SOL    HW271382   4.738   5.550   0.847 -0.8376 -2.5054 -1.5821
23257SOL     OW71383   3.334   3.294   0.677  0.1895  0.1239  0.6084
23257SOL    HW171384   3.403   3.302   0.611 -0.4628  1.7137  0.0800
23257SOL    HW271385   3.376   3.247   0.749  0.9753 -1.4972 -0.8224
23258SOL     OW71386   8.062   8.224   6.322  0.0990  0.0906 -0.1784
23258SOL    HW171387   8.083   8.150   6.379  0.6697  0.0939 -0.3720
23258SOL    HW271388   8.140   8.280   6.328  0.6275 -0.4239 -1.7863
23259SOL     OW71389   6.088   5.344   3.953  0.8953 -0.1474 -0.0162
23259SOL    HW171390   6.026   5.401   3.909  1.2237 -0.5002 -0.9633
23259SOL    HW271391   6.138   5.303   3.882  1.1656 -1.0421  0.6658
23260SOL     OW71392   6.188   3.233   0.839 -0.3283 -0.4350 -0.4615
23260SOL    HW171393   6.212   3.310   0.786 -0.9420 -0.0928 -0.2515
23260SOL    HW271394   6.122   3.188   0.786  0.1337 -0.8993 -0.6470
23261SOL     OW71395   2.841   4.488   4.915 -0.0426  0.6544  0.1682
23261SOL    HW171396   2.857   4.500   5.009 -0.6973 -2.1380  0.7299
23261SOL    HW271397   2.920   4.522   4.873  1.5869 -0.6872  1.9640
23262SOL     OW71398   4.200   8.500   4.245 -0.4892  0.1890 -0.2232
23262SOL    HW171399   4.172   8.588   4.218  0.0588  0.1816 -0.8410
23262SOL    HW271400   4.154   8.485   4.327  0.1934  1.4739  0.4293
23263SOL     OW71401   3.233   5.680   1.176 -0.2624  0.2732  1.0234
23263SOL    HW171402   3.328   5.687   1.184 -0.1802  2.0364 -0.7153
23263SOL    HW271403   3.219   5.652   1.085 -1.3858  2.7908  0.3234
23264SOL     OW71404   9.445   1.837   3.338 -0.1720 -0.5188 -0.1598
23264SOL    HW171405   9.512   1.820   3.405 -0.6592 -1.1769  0.1634
23264SOL    HW271406   9.364   1.802   3.375 -0.6030 -0.1889 -0.7710
23265SOL     OW71407   3.204   4.204   8.176 -0.6816  0.2352 -0.0979
23265SOL    HW171408   3.172   4.137   8.236 -0.2490  0.8898  0.8891
23265SOL    HW271409   3.256   4.156   8.112  0.0168 -0.3295  0.8713
23266SOL     OW71410   4.572   7.732   6.597  0.0467 -0.3404  0.1343
23266SOL    HW171411   4.635   7.705   6.665  0.9401 -1.3709 -1.0499
23266SOL    HW271412   4.622   7.789   6.539 -0.9308  1.1955  0.7365
23267SOL     OW71413   2.200   4.869   8.249 -0.3894  0.0725  0.6282
23267SOL    HW171414   2.271   4.933   8.253  0.8219 -1.2974  1.8675
23267SOL    HW271415   2.128   4.917   8.208  1.4879  1.2253 -1.5301
23268SOL     OW71416   2.196   9.419   3.437 -0.4711  0.1908  0.4264
23268SOL    HW171417   2.226   9.389   3.351  0.3309  1.3307  0.2856
23268SOL    HW271418   2.104   9.394   3.440 -0.6327  0.5374 -0.9520
23269SOL     OW71419   4.581   5.352   2.463 -0.1995  0.4453 -0.0833
23269SOL    HW171420   4.590   5.259   2.486  0.6080  0.3490 -0.7165
23269SOL    HW271421   4.669   5.378   2.437 -0.0522  1.8568  1.6682
23270SOL     OW71422   5.797   0.723   0.635  0.1875  0.5150 -0.2551
23270SOL    HW171423   5.880   0.770   0.633  0.5794  0.0055  1.6320
23270SOL    HW271424   5.821   0.632   0.620 -0.2716  0.5747 -1.4486
23271SOL     OW71425   7.058   1.372   4.958  0.7645  0.4774 -0.5137
23271SOL    HW171426   7.077   1.435   4.889 -1.1210 -0.5128 -2.0565
23271SOL    HW271427   7.105   1.293   4.932 -0.5449 -0.1334 -1.1424
23272SOL     OW71428   7.377   1.318   5.876 -0.1983 -0.1148  0.4932
23272SOL    HW171429   7.398   1.411   5.877 -2.3647  0.4409 -0.7389
23272SOL    HW271430   7.292   1.312   5.919 -0.6054 -1.3616 -0.4399
23273SOL     OW71431   5.837   8.855   3.394  0.3751  0.2024 -0.0711
23273SOL    HW171432   5.931   8.869   3.398  0.8084 -0.6921 -3.7561
23273SOL    HW271433   5.804   8.929   3.344 -0.9191  0.4947  1.1576
23274SOL     OW71434   9.030   7.679   7.523 -0.2923  0.0623  0.1946
23274SOL    HW171435   9.095   7.731   7.570  0.0488  1.8493 -2.0150
23274SOL    HW271436   9.081   7.628   7.460 -0.7787 -1.6237  1.1353
23275SOL     OW71437   5.255   7.160   7.436 -0.1577  0.6936  0.0017
23275SOL    HW171438   5.325   7.131   7.377 -0.5564  0.1617 -0.2190
23275SOL    HW271439   5.189   7.197   7.378  0.1066  1.5570  0.2414
23276SOL     OW71440   5.547   5.585   6.012 -0.3012 -0.3699 -0.4793
23276SOL    HW171441   5.600   5.581   6.092 -0.3128  2.2251 -0.2417
23276SOL    HW271442   5.608   5.612   5.944 -0.3914 -2.1005 -1.2961
23277SOL     OW71443   6.353   7.928   9.417  0.2746 -0.1913  0.3061
23277SOL    HW171444   6.396   7.842   9.415 -0.3724 -0.5665  1.3368
23277SOL    HW271445   6.267   7.910   9.457  0.3423  1.0223  1.0319
23278SOL     OW71446   1.645   9.826   9.148 -0.7748 -0.0582  0.4513
23278SOL    HW171447   1.725   9.797   9.193  0.1791  1.7917  0.0753
23278SOL    HW271448   1.677   9.874   9.072 -2.2779  0.2470 -0.0117
23279SOL     OW71449   5.960   0.530   5.289  0.1042 -0.4293 -0.1888
23279SOL    HW171450   5.890   0.592   5.266  0.7780  0.7795  0.8376
23279SOL    HW271451   5.922   0.478   5.360  0.4592  0.7335  0.8931
23280SOL     OW71452   4.802   1.657   1.398  0.3288 -0.0246  0.5861
23280SOL    HW171453   4.850   1.740   1.402 -0.9687  0.7240  1.4199
23280SOL    HW271454   4.827   1.619   1.314 -0.1580  1.9208 -0.4983
23281SOL     OW71455   7.067   6.040   0.844  0.6841  0.0941 -0.3744
23281SOL    HW171456   7.049   6.103   0.774  0.2797  0.6138  0.1969
23281SOL    HW271457   6.985   6.033   0.892 -0.1700 -2.9093 -1.9948
23282SOL     OW71458   5.415   5.374   8.204 -0.1517  0.2217  0.2042
23282SOL    HW171459   5.427   5.287   8.243  1.1214  1.3612  2.6284
23282SOL    HW271460   5.320   5.387   8.203 -0.5086 -1.9115 -2.0980
23283SOL     OW71461   8.913   2.494   3.186  0.7657  0.3412  0.8530
23283SOL    HW171462   8.958   2.576   3.171  0.0247  1.2199  3.0479
23283SOL    HW271463   8.941   2.466   3.273 -3.3752  1.3956  2.7726
23284SOL     OW71464   1.652   5.671   3.215  0.9359  0.1113  0.5721
23284SOL    HW171465   1.648   5.605   3.146 -0.5843  0.9375 -0.1881
23284SOL    HW271466   1.615   5.750   3.175  1.9128  1.1972  1.7209
23285SOL     OW71467   4.791   8.920   8.368  0.0570  0.0528 -0.2733
23285SOL    HW171468   4.710   8.927   8.316  0.6370  2.0177 -0.9725
23285SOL    HW271469   4.830   8.837   8.340 -1.3052 -0.5445 -0.4966
23286SOL     OW71470   7.006   3.404   3.252 -0.1163 -0.3968  0.2010
23286SOL    HW171471   7.005   3.442   3.164 -0.1322  0.9444  0.7577
23286SOL    HW271472   6.914   3.397   3.277 -0.0980 -0.4700  0.2491
23287SOL     OW71473   7.628   2.356   4.807 -0.0140  0.5403  0.0519
23287SOL    HW171474   7.687   2.429   4.828  0.6821  0.4719 -1.5554
23287SOL    HW271475   7.664   2.282   4.855 -0.0590  0.9752  0.7850
23288SOL     OW71476   7.175   4.435   6.302 -0.1359  0.1526  0.5272
23288SOL    HW171477   7.122   4.355   6.308  0.1930  0.0053  1.8728
23288SOL    HW271478   7.168   4.475   6.389  2.2885 -0.0961  0.9096
23289SOL     OW71479   6.332   6.163   2.115 -0.0893 -0.3021 -0.2340
23289SOL    HW171480   6.422   6.153   2.144 -0.2574 -0.5322  0.2134
23289SOL    HW271481   6.280   6.159   2.195 -0.6120 -1.5104 -0.6037
23290SOL     OW71482   3.208   1.907   8.390  0.3402  0.1627  0.4365
23290SOL    HW171483   3.219   1.812   8.383  1.4638  0.0174  3.0265
23290SOL    HW271484   3.117   1.919   8.417 -0.9096  0.1593 -3.2128
23291SOL     OW71485   3.334   3.985   9.632 -0.0568  0.4376  0.7854
23291SOL    HW171486   3.358   4.003   9.541  0.6039  0.4891  0.9611
23291SOL    HW271487   3.362   3.895   9.647  1.8175  1.0977  1.5492
23292SOL     OW71488   2.304   0.466   0.580 -0.0648  0.0055  0.6405
23292SOL    HW171489   2.219   0.473   0.625 -0.5040 -0.4979 -0.0965
23292SOL    HW271490   2.331   0.376   0.595 -0.9986 -0.6685 -1.4525
23293SOL     OW71491   2.425   2.646   3.472  0.3804 -0.3478  0.1193
23293SOL    HW171492   2.513   2.654   3.435  0.1674 -0.5223 -0.4310
23293SOL    HW271493   2.439   2.617   3.562  0.8874 -0.3332  0.0459
23294SOL     OW71494   6.048   9.394   5.210  0.3240  0.2039 -0.1025
23294SOL    HW171495   6.122   9.449   5.183  1.3296 -0.8614  0.3845
23294SOL    HW271496   6.017   9.434   5.291  0.3224  0.7060 -0.3497
23295SOL     OW71497   7.192   5.147   3.189 -0.8383 -0.3036  0.0826
23295SOL    HW171498   7.249   5.156   3.266 -0.9755 -0.3542  0.1907
23295SOL    HW271499   7.235   5.079   3.136 -1.9460 -1.9704  1.2176
23296SOL     OW71500   6.631   7.936   1.218  0.5299 -0.0892  0.3130
23296SOL    HW171501   6.541   7.965   1.233  0.1713 -1.6682  1.4844
23296SOL    HW271502   6.625   7.884   1.138  0.3614 -0.3264  0.4774
23297SOL     OW71503   3.161   3.278   7.547  0.3868 -0.3571  0.0043
23297SOL    HW171504   3.186   3.272   7.455  0.5765  0.8830 -0.0364
23297SOL    HW271505   3.245   3.284   7.594  0.2987 -1.2379  0.2868
23298SOL     OW71506   2.538   3.881   2.150  0.2914 -0.1937 -0.4740
23298SOL    HW171507   2.627   3.909   2.173 -0.6752  2.3292  0.6052
23298SOL    HW271508   2.508   3.833   2.227  0.6505 -0.9776 -0.8070
23299SOL     OW71509   2.529   0.317   9.731  0.0272 -0.6100  0.3907
23299SOL    HW171510   2.556   0.369   9.807  1.0112 -0.4886 -0.0155
23299SOL    HW271511   2.605   0.261   9.714  0.2177  0.0695 -1.0998
23300SOL     OW71512   4.198   3.378   8.616  0.0978 -0.2781  0.1044
23300SOL    HW171513   4.103   3.390   8.627 -0.1993 -2.1819 -0.0544
23300SOL    HW271514   4.207   3.289   8.582  1.9338  0.0396 -0.3256
23301SOL     OW71515   2.315   2.900   3.242 -0.0803  0.6446 -0.1678
23301SOL    HW171516   2.398   2.925   3.283  0.2548 -0.6032 -0.0503
23301SOL    HW271517   2.334   2.898   3.149  0.3060 -0.5792 -0.0792
23302SOL     OW71518   1.236   0.119   9.725 -0.3919 -0.3291  0.5103
23302SOL    HW171519   1.186   0.158   9.797 -0.4393 -0.2008  0.4087
23302SOL    HW271520   1.308   0.180   9.710 -0.1586 -0.5553  0.7105
23303SOL     OW71521   8.369   0.056   1.113 -0.2009  0.4649 -0.2422
23303SOL    HW171522   8.383   0.147   1.138 -0.1220  0.3518  0.1280
23303SOL    HW271523   8.452   0.029   1.073 -0.3949  0.7062 -0.8206
23304SOL     OW71524   7.508   4.713   1.712  0.1224 -0.3302 -0.1925
23304SOL    HW171525   7.566   4.784   1.739  0.0292 -0.3798  0.1361
23304SOL    HW271526   7.420   4.745   1.730  0.1053 -0.8065  0.6513
23305SOL     OW71527   1.059   7.021   5.902 -0.6445  0.3748  0.3155
23305SOL    HW171528   1.026   6.995   5.988  1.8360  0.0457  1.2549
23305SOL    HW271529   1.017   6.960   5.841 -0.8742 -0.7405  1.5471
23306SOL     OW71530   9.675   7.995   7.545 -0.3788 -0.2852  0.2403
23306SOL    HW171531   9.635   8.022   7.463  2.0705  0.0587 -0.9392
23306SOL    HW271532   9.601   7.974   7.602 -2.1858  0.5647 -1.6485
23307SOL     OW71533   3.690   4.588   1.184 -0.0976  0.3437 -0.1781
23307SOL    HW171534   3.687   4.676   1.148  0.1787  0.0467 -0.9395
23307SOL    HW271535   3.611   4.546   1.152  0.0703  0.1253 -0.3044
23308SOL     OW71536   3.105   6.078   5.731  0.0473  0.0042 -0.2950
23308SOL    HW171537   3.086   6.015   5.801  1.0462 -2.0212 -1.7531
23308SOL    HW271538   3.028   6.135   5.729  0.1491  0.4221  2.6781
23309SOL     OW71539   4.781   8.533   1.342  0.5229 -0.1117 -0.1408
23309SOL    HW171540   4.688   8.547   1.358 -0.0331 -0.2576 -2.8459
23309SOL    HW271541   4.825   8.601   1.393 -1.1785  1.1712 -0.3212
23310SOL     OW71542   2.008   0.101   1.064  0.9303 -0.1529 -0.0528
23310SOL    HW171543   2.103   0.112   1.065  0.9092  0.0261  0.3786
23310SOL    HW271544   1.974   0.181   1.025  0.8989  0.3115  0.9006
23311SOL     OW71545   4.168   4.037   1.055  0.3883  0.3033 -0.5627
23311SOL    HW171546   4.122   4.103   1.004  0.6960  2.1650  1.4252
23311SOL    HW271547   4.114   4.023   1.133 -1.4519 -4.4293 -2.3217
23312SOL     OW71548   7.661   1.061   8.186  0.4061 -0.1519 -0.0201
23312SOL    HW171549   7.730   1.068   8.120  1.5473 -0.6633  1.0788
23312SOL    HW271550   7.705   1.023   8.262 -1.3065 -1.3681  0.4034
23313SOL     OW71551   7.099   3.989   5.674  0.2916  0.4046  0.8977
23313SOL    HW171552   7.161   4.053   5.710  0.6268  0.7044 -0.1725
23313SOL    HW271553   7.154   3.924   5.630  0.0355 -1.2553  2.8277
23314SOL     OW71554   4.308   3.913   6.418 -0.1973 -0.3064  0.2992
23314SOL    HW171555   4.217   3.882   6.424 -1.0232  1.4693 -1.7366
23314SOL    HW271556   4.300   4.007   6.405  1.9433 -0.1740 -0.3769
23315SOL     OW71557   7.916   2.970   7.461  0.4022  0.2422  0.2473
23315SOL    HW171558   7.984   2.909   7.492  1.0518  0.6605 -0.3414
23315SOL    HW271559   7.964   3.037   7.414 -0.3923  0.7859  0.2028
23316SOL     OW71560   8.809   1.571   7.345  0.1680  0.3239 -0.3369
23316SOL    HW171561   8.885   1.622   7.318  0.6414 -0.6475 -0.9040
23316SOL    HW271562   8.752   1.569   7.268 -0.0894  0.4369 -0.1506
23317SOL     OW71563   1.832   0.343   2.392  0.3051 -0.0468 -0.3738
23317SOL    HW171564   1.809   0.385   2.475 -1.5404  0.9412 -1.3173
23317SOL    HW271565   1.758   0.285   2.374 -0.6021  1.6574 -2.5334
23318SOL     OW71566   1.958   0.793   1.046 -0.0065 -0.2329  0.0538
23318SOL    HW171567   2.022   0.738   1.000 -0.0775 -0.5286  0.3043
23318SOL    HW271568   1.996   0.805   1.133  0.3548  0.7199 -0.2241
23319SOL     OW71569   3.766   4.705   6.926  0.1039 -0.5466 -0.1815
23319SOL    HW171570   3.718   4.718   7.008 -2.0189  0.3895 -1.4869
23319SOL    HW271571   3.834   4.772   6.926 -2.1739  1.9547 -0.7149
23320SOL     OW71572   2.149   2.315   7.389  0.1636  0.0758  0.4170
23320SOL    HW171573   2.157   2.220   7.383  0.9053  0.1690 -0.2898
23320SOL    HW271574   2.104   2.331   7.472  0.6894 -0.8559  0.8880
23321SOL     OW71575   7.834   7.934   3.282  0.0179 -0.2511  0.2721
23321SOL    HW171576   7.901   7.866   3.277  0.3099 -0.1298  2.1172
23321SOL    HW271577   7.768   7.907   3.218  1.2034 -1.0262 -0.6743
23322SOL     OW71578   7.225   9.348   2.122  0.1056 -0.3493  0.1910
23322SOL    HW171579   7.236   9.356   2.217 -0.0243 -1.9597  0.3728
23322SOL    HW271580   7.260   9.429   2.087 -0.3321  0.5169  1.6486
23323SOL     OW71581   6.153   9.695   4.437  0.3142 -0.1648  0.0345
23323SOL    HW171582   6.203   9.753   4.495  2.9623 -1.4802 -0.7510
23323SOL    HW271583   6.165   9.734   4.350 -0.4766 -0.2413 -0.1121
23324SOL     OW71584   6.305   3.946   2.987  0.3716  0.4140  0.0063
23324SOL    HW171585   6.347   3.877   3.038  0.1329  0.3073  0.0617
23324SOL    HW271586   6.240   3.984   3.047  0.2007  0.3950 -0.1652
23325SOL     OW71587   6.644   0.390   1.769 -0.1352 -0.9766 -1.0915
23325SOL    HW171588   6.685   0.327   1.709  2.0257 -1.1340  0.4492
23325SOL    HW271589   6.652   0.349   1.855 -1.4510  0.0984 -0.4266
23326SOL     OW71590   4.214   7.325   3.849 -0.5766 -0.8908  0.5004
23326SOL    HW171591   4.202   7.277   3.767  0.7247 -0.3720 -0.0213
23326SOL    HW271592   4.309   7.333   3.859 -0.7338  0.9915  0.9023
23327SOL     OW71593   3.820   8.052   6.402 -0.1714 -0.3643  0.3610
23327SOL    HW171594   3.821   7.956   6.404  0.1758 -0.3711  0.1093
23327SOL    HW271595   3.733   8.077   6.431  0.3321 -0.7078  2.2641
23328SOL     OW71596   8.130   0.155   4.176 -0.2129 -0.1790 -0.0265
23328SOL    HW171597   8.076   0.204   4.114  0.2807 -0.8874 -1.0444
23328SOL    HW271598   8.185   0.221   4.219  2.1461  0.0389 -3.0543
23329SOL     OW71599   0.471   2.777   2.928 -0.4986  0.0791  0.2289
23329SOL    HW171600   0.458   2.823   2.846  0.7881 -0.0921 -0.0994
23329SOL    HW271601   0.455   2.843   2.996  0.7856  0.9069 -0.2216
23330SOL     OW71602   2.837   8.234   7.579  0.1007 -0.8365 -0.1158
23330SOL    HW171603   2.825   8.191   7.664  0.3448 -0.2053  0.2487
23330SOL    HW271604   2.752   8.272   7.559  0.3637  0.0820  0.4581
23331SOL     OW71605   1.980   7.751   4.024 -0.1272 -0.2601 -0.2998
23331SOL    HW171606   2.011   7.692   3.955 -1.0560 -2.1155  0.7855
23331SOL    HW271607   2.020   7.717   4.104  2.0018  2.6223  0.0362
23332SOL     OW71608   1.422   3.605   2.411 -0.3815 -0.1240  0.3969
23332SOL    HW171609   1.385   3.693   2.414 -0.8627 -0.3210  0.3409
23332SOL    HW271610   1.486   3.603   2.482  0.2278  0.5336 -0.1178
23333SOL     OW71611   1.299   4.816   5.487 -0.2232 -0.0101 -0.1064
23333SOL    HW171612   1.356   4.819   5.564 -0.6134 -1.0820  0.2372
23333SOL    HW271613   1.212   4.796   5.521 -0.3406 -0.8310 -0.8395
23334SOL     OW71614   6.334   4.892   1.426 -0.2394  0.0548 -0.0361
23334SOL    HW171615   6.289   4.808   1.423 -0.0692 -0.0148 -1.6025
23334SOL    HW271616   6.392   4.886   1.502  0.4180 -1.6074 -0.6181
23335SOL     OW71617   1.797   7.402   0.317  0.7956  1.0247 -0.0935
23335SOL    HW171618   1.724   7.395   0.378  0.5050 -1.6909 -0.6249
23335SOL    HW271619   1.756   7.411   0.231  1.0421 -0.2598 -0.3671
23336SOL     OW71620   9.595   5.596   0.548 -0.4401  0.2037 -0.1185
23336SOL    HW171621   9.552   5.511   0.534 -0.2230 -0.1795  1.3531
23336SOL    HW271622   9.523   5.659   0.555 -0.6086  0.1261 -1.0714
23337SOL     OW71623   1.735   1.376   2.671 -0.4246  0.4967  0.5778
23337SOL    HW171624   1.716   1.342   2.583  2.4090  1.7041 -0.6085
23337SOL    HW271625   1.814   1.329   2.697  2.4266  4.3886 -0.2489
23338SOL     OW71626   5.648   1.769   0.709 -0.2245  0.2059 -0.8916
23338SOL    HW171627   5.691   1.834   0.763 -1.2324 -0.5679  0.9271
23338SOL    HW271628   5.718   1.711   0.679  0.4099  0.9465 -0.8407
23339SOL     OW71629   9.507   0.120   4.727 -1.0834  0.1718 -0.3681
23339SOL    HW171630   9.485   0.060   4.798 -1.4162 -0.0046 -0.6135
23339SOL    HW271631   9.573   0.073   4.676  1.3477  1.4597  1.4245
23340SOL     OW71632   3.010   0.148   8.361 -0.2667 -0.8398  0.0025
23340SOL    HW171633   3.031   0.074   8.418 -0.8657 -0.1062  1.2034
23340SOL    HW271634   3.072   0.216   8.385  1.6308 -1.5501 -2.4894
23341SOL     OW71635   6.611   7.440   3.566  0.2834  0.7620 -0.3841
23341SOL    HW171636   6.697   7.410   3.536 -0.4564 -0.9663 -0.8677
23341SOL    HW271637   6.560   7.361   3.578 -1.3248  1.7570 -0.3107
23342SOL     OW71638   7.279   9.120   0.852 -0.0134 -0.1840  0.3285
23342SOL    HW171639   7.240   9.080   0.929 -0.5199 -0.3988 -0.0338
23342SOL    HW271640   7.356   9.066   0.833 -0.1435 -0.3973  0.4155
23343SOL     OW71641   2.306   7.607   3.312  0.2643 -0.0121 -0.0028
23343SOL    HW171642   2.317   7.584   3.220  0.3373  0.4446 -0.1094
23343SOL    HW271643   2.310   7.523   3.358 -2.1209 -0.5438 -0.6209
23344SOL     OW71644   8.125   5.247   4.230 -0.1882 -0.5781 -0.0822
23344SOL    HW171645   8.162   5.211   4.150 -0.8516 -2.2646  0.3217
23344SOL    HW271646   8.193   5.305   4.264 -0.1232  0.6397 -2.1388
23345SOL     OW71647   7.689   0.891   0.369 -0.4798  0.0933  0.2008
23345SOL    HW171648   7.678   0.811   0.421  1.1206  0.1742  0.7258
23345SOL    HW271649   7.771   0.929   0.401 -1.5158  2.2867  0.3838
23346SOL     OW71650   1.315   5.730   8.060  0.2385  0.7191  0.1714
23346SOL    HW171651   1.238   5.764   8.105  0.3886  1.2602  0.0213
23346SOL    HW271652   1.379   5.714   8.130  0.6568  2.0444  0.1150
23347SOL     OW71653   1.132   7.211   9.191  0.7132 -0.1364  0.2186
23347SOL    HW171654   1.040   7.232   9.208  1.1481  2.8379 -0.6441
23347SOL    HW271655   1.179   7.248   9.266  1.2383 -2.2038  0.9889
23348SOL     OW71656   0.247   8.347   7.499  0.2835 -0.0376 -0.0341
23348SOL    HW171657   0.308   8.280   7.468  0.8511  0.2852  0.3598
23348SOL    HW271658   0.255   8.418   7.435  0.8146  0.2736  0.3684
23349SOL     OW71659   0.568   8.182   9.431 -0.0897 -0.0559 -0.2360
23349SOL    HW171660   0.634   8.198   9.363  0.4698 -0.7276  0.1368
23349SOL    HW271661   0.509   8.118   9.391  0.4700 -0.7631  0.0349
23350SOL     OW71662   6.445   6.721   8.272 -0.1753 -0.5385 -0.4721
23350SOL    HW171663   6.518   6.781   8.290 -1.2938  0.9235 -0.6121
23350SOL    HW271664   6.488   6.639   8.247  1.4189 -0.2791  1.1400
23351SOL     OW71665   4.516   1.761   3.114 -0.2163  0.7226  0.1999
23351SOL    HW171666   4.563   1.733   3.193 -0.8856 -0.4044  0.2183
23351SOL    HW271667   4.431   1.792   3.147 -1.1727 -1.3224 -0.1685
23352SOL     OW71668   4.793   8.476   5.324 -0.3892 -0.1384  0.0151
23352SOL    HW171669   4.863   8.414   5.306  0.3551  0.1890  1.5637
23352SOL    HW271670   4.719   8.445   5.273  0.6420 -0.9735 -1.0175
23353SOL     OW71671   9.317   8.960   0.458 -0.7727  0.3886  0.4985
23353SOL    HW171672   9.351   9.044   0.490 -0.4303  0.3987  0.1080
23353SOL    HW271673   9.222   8.967   0.470 -0.6619  0.3953  1.5095
23354SOL     OW71674   5.084   1.653   1.690  0.2694  0.4970 -0.2648
23354SOL    HW171675   5.160   1.641   1.746 -1.1532  0.3622  1.7381
23354SOL    HW271676   5.109   1.724   1.630  2.2565 -0.1592 -0.2722
23355SOL     OW71677   3.485   6.708   2.392 -0.5725  0.1159 -0.5398
23355SOL    HW171678   3.423   6.777   2.367 -0.5281  0.3956  0.1216
23355SOL    HW271679   3.450   6.672   2.473 -0.2226 -0.1703 -0.5131
23356SOL     OW71680   0.349   2.473   7.298 -0.0167 -0.3307 -0.2263
23356SOL    HW171681   0.403   2.535   7.348 -1.3652 -0.2417  1.1823
23356SOL    HW271682   0.316   2.411   7.363  1.4611 -2.7540 -1.6104
23357SOL     OW71683   6.639   2.638   8.405  0.1079 -0.0032  0.0838
23357SOL    HW171684   6.680   2.719   8.375 -0.0207  0.5234  1.2728
23357SOL    HW271685   6.712   2.579   8.422  0.3047  0.4363  0.8001
23358SOL     OW71686   0.435   0.708   2.963 -0.8070 -0.1454 -0.2241
23358SOL    HW171687   0.473   0.789   2.998  1.2233 -0.9975 -0.3488
23358SOL    HW271688   0.441   0.718   2.868 -0.3691 -0.5131 -0.2379
23359SOL     OW71689   8.366   5.165   3.199 -0.1398 -0.2056  0.2014
23359SOL    HW171690   8.452   5.202   3.220 -0.6388  0.5515  1.0123
23359SOL    HW271691   8.305   5.219   3.249 -1.2303  0.2848 -1.5947
23360SOL     OW71692   6.932   7.972   9.621 -0.1445 -0.1121  0.1380
23360SOL    HW171693   6.859   7.940   9.568  0.5719  0.1311 -1.0310
23360SOL    HW271694   6.932   8.067   9.606 -0.4456  0.0844  1.2591
23361SOL     OW71695   6.859   7.419   8.417  0.1157  0.0549 -0.6681
23361SOL    HW171696   6.882   7.490   8.476  1.1779 -1.8960  1.4536
23361SOL    HW271697   6.774   7.389   8.447  0.4759 -0.6928 -0.3612
23362SOL     OW71698   3.948   8.124   1.826  0.3208 -0.2513  0.0156
23362SOL    HW171699   3.922   8.038   1.793 -0.7483  0.2224 -0.3897
23362SOL    HW271700   3.902   8.133   1.909  1.4166 -0.5854  0.6739
23363SOL     OW71701   2.386   5.298   4.508 -0.8873 -0.3514  0.1670
23363SOL    HW171702   2.373   5.294   4.414  1.3221  0.0091 -0.1980
23363SOL    HW271703   2.362   5.388   4.531 -0.3999 -0.1193 -0.2258
23364SOL     OW71704   8.225   2.295   5.564 -0.5582 -0.3318  0.0128
23364SOL    HW171705   8.210   2.333   5.651 -0.7380  0.7558 -0.4785
23364SOL    HW271706   8.277   2.361   5.518 -0.8234 -0.7187 -0.8448
23365SOL     OW71707   0.415   6.492   9.842 -0.1520 -0.5026  0.2754
23365SOL    HW171708   0.374   6.576   9.862  0.6012  0.0206 -0.3267
23365SOL    HW271709   0.424   6.449   9.927 -0.9934 -0.1968  0.5304
23366SOL     OW71710   6.928   6.881   6.449  0.6540  0.0138 -0.4541
23366SOL    HW171711   6.908   6.803   6.397 -0.3143 -0.3013  0.3475
23366SOL    HW271712   6.926   6.849   6.540 -1.4573  1.2620  0.0217
23367SOL     OW71713   5.145   7.309   0.027 -0.0448 -0.0272  0.1145
23367SOL    HW171714   5.176   7.237  -0.027 -0.0905 -0.5167  0.7216
23367SOL    HW271715   5.049   7.299   0.028 -0.1926  1.0287 -1.1362
23368SOL     OW71716   6.003   7.573   6.401 -0.3134  0.4493  0.2714
23368SOL    HW171717   6.090   7.612   6.411  0.3814 -0.2537 -2.1779
23368SOL    HW271718   5.945   7.630   6.451  1.0746  3.0312 -0.8669
23369SOL     OW71719   6.505   8.534   1.892  0.2321 -0.4903 -0.2542
23369SOL    HW171720   6.430   8.475   1.898  0.4752 -1.2592 -3.1756
23369SOL    HW271721   6.579   8.481   1.920  0.0157 -0.4482  0.4245
23370SOL     OW71722   5.159   2.310   5.962  0.2321 -0.3124 -0.6092
23370SOL    HW171723   5.089   2.249   5.940  0.7001 -1.1825  0.2209
23370SOL    HW271724   5.126   2.395   5.934 -0.3493 -0.9586 -1.9928
23371SOL     OW71725   9.385   0.721   5.182 -0.7366 -0.4923 -0.1178
23371SOL    HW171726   9.437   0.786   5.135  0.1938 -0.9271  0.2794
23371SOL    HW271727   9.326   0.772   5.237  0.1296  0.0375  0.3472
23372SOL     OW71728   2.231   3.721   5.286 -0.1747  0.0938 -0.0803
23372SOL    HW171729   2.193   3.638   5.314  0.5939 -0.3145 -0.2347
23372SOL    HW271730   2.192   3.737   5.200  1.3819 -1.2706 -1.0945
23373SOL     OW71731   0.038   9.734   7.212  0.1111 -0.3162  0.2140
23373SOL    HW171732   0.043   9.708   7.120 -0.8713 -2.2206  0.6559
23373SOL    HW271733  -0.051   9.711   7.238  0.4875 -0.1165  1.7343
23374SOL     OW71734   3.372   9.198   4.323 -0.1353 -0.5047 -0.0742
23374SOL    HW171735   3.340   9.285   4.297 -0.8109 -0.6397  0.2815
23374SOL    HW271736   3.330   9.181   4.407  0.4810 -0.9187  0.1563
23375SOL     OW71737   6.083   5.940   2.929  0.1361  0.0005  0.1508
23375SOL    HW171738   5.991   5.935   2.955  0.5592  0.5949  1.8335
23375SOL    HW271739   6.132   5.922   3.009  1.5025  0.8513 -0.4660
23376SOL     OW71740   3.229   8.376   7.391  0.6009  0.3125  0.4083
23376SOL    HW171741   3.176   8.308   7.433  1.1002 -0.0528  0.4601
23376SOL    HW271742   3.242   8.345   7.302  1.7521 -0.2141  0.7417
23377SOL     OW71743   7.870   5.959   9.556  0.1276  0.1860 -0.0700
23377SOL    HW171744   7.908   6.017   9.489  3.9767 -0.9471  0.8571
23377SOL    HW271745   7.897   5.998   9.639  0.6348 -1.5406  0.6230
23378SOL     OW71746   4.663   2.227   2.432 -0.7287  0.2193  0.0932
23378SOL    HW171747   4.749   2.187   2.446 -1.0124  0.3478  2.5877
23378SOL    HW271748   4.678   2.293   2.364  1.1642  0.2937  0.5202
23379SOL     OW71749   3.376   4.081   5.367 -0.6779  0.3469 -0.2866
23379SOL    HW171750   3.387   3.990   5.394  1.6440  0.4893 -0.5553
23379SOL    HW271751   3.332   4.123   5.441 -1.0877 -0.8065  0.1477
23380SOL     OW71752   9.273   2.358   4.813  0.0764  0.1716 -0.3118
23380SOL    HW171753   9.328   2.304   4.871 -0.6823 -0.4088 -0.1238
23380SOL    HW271754   9.284   2.447   4.847  1.3245  0.1565 -0.6110
23381SOL     OW71755   9.062   7.262   7.299 -0.2104 -0.3209  0.1655
23381SOL    HW171756   9.057   7.357   7.305 -0.5562 -0.3522  0.4127
23381SOL    HW271757   9.108   7.245   7.217 -0.4177  0.0565 -0.0306
23382SOL     OW71758   7.168   2.061   5.384  0.5952  0.3546 -0.0761
23382SOL    HW171759   7.166   1.974   5.343 -0.0675  1.1165 -1.7302
23382SOL    HW271760   7.228   2.050   5.458  0.8327 -1.4127 -0.4655
23383SOL     OW71761   3.066   6.957   5.436  0.3749 -0.1044  0.6219
23383SOL    HW171762   3.107   6.904   5.504 -0.7197 -0.6310  0.8928
23383SOL    HW271763   3.033   6.894   5.373  0.4760  0.3361  0.1181
23384SOL     OW71764   6.124   6.026   7.476 -0.3395  0.6228  0.8585
23384SOL    HW171765   6.098   6.061   7.562  0.6692 -0.5740  1.6798
23384SOL    HW271766   6.116   5.931   7.485 -0.3010  0.4810 -0.4206
23385SOL     OW71767   2.322   3.366   9.614 -0.4074 -0.1375 -0.2944
23385SOL    HW171768   2.322   3.432   9.683 -1.7862 -0.1436 -0.2711
23385SOL    HW271769   2.332   3.283   9.661 -0.6647 -0.0895 -0.1500
23386SOL     OW71770   8.345   3.673   1.458  0.3978  0.2715  0.0932
23386SOL    HW171771   8.329   3.579   1.467  0.4610 -0.1056 -2.8354
23386SOL    HW271772   8.258   3.712   1.458  0.3780  0.2656  1.5038
23387SOL     OW71773   1.396   6.273   2.132  0.6161  0.1072 -0.5279
23387SOL    HW171774   1.431   6.196   2.087 -0.5643 -0.7167 -0.0855
23387SOL    HW271775   1.310   6.246   2.162  1.0216  0.9043  1.5156
23388SOL     OW71776   3.173   8.707   7.671 -0.2502 -0.2110  0.6193
23388SOL    HW171777   3.082   8.738   7.668 -0.6581 -1.3704  0.0103
23388SOL    HW271778   3.176   8.650   7.747 -0.6773 -1.9375 -0.5901
23389SOL     OW71779   2.248   0.790   6.436 -0.4138 -0.5000  0.0225
23389SOL    HW171780   2.280   0.711   6.392 -2.6900 -0.2906 -2.2419
23389SOL    HW271781   2.164   0.763   6.475 -0.6046  0.4742  0.3209
23390SOL     OW71782   9.182   5.138   2.058  0.2596 -0.0984 -0.1536
23390SOL    HW171783   9.238   5.213   2.080 -0.2217  0.1521  0.2339
23390SOL    HW271784   9.187   5.081   2.134  0.0691 -0.1274 -0.1632
23391SOL     OW71785   5.830   4.913   1.018  0.4303  0.8693  0.5567
23391SOL    HW171786   5.790   4.835   1.056  1.4994 -0.0115 -0.0521
23391SOL    HW271787   5.782   4.927   0.936  1.6206 -0.4913 -0.4325
23392SOL     OW71788   3.114   2.904   2.961 -0.4383 -0.4615  0.3118
23392SOL    HW171789   3.087   2.993   2.985  3.4895  0.1591  3.5171
23392SOL    HW271790   3.200   2.915   2.921 -0.4847 -2.7829 -0.5506
23393SOL     OW71791   1.196   0.374   4.510 -0.1848 -0.7450 -0.0817
23393SOL    HW171792   1.226   0.464   4.513 -0.8097 -0.5481  0.6497
23393SOL    HW271793   1.264   0.327   4.461 -0.0004  0.1672 -0.7225
23394SOL     OW71794   2.272   9.768   4.360  0.5263 -0.1588 -0.3922
23394SOL    HW171795   2.187   9.782   4.319  0.3619  0.1022  0.0341
23394SOL    HW271796   2.279   9.836   4.427  1.8067  0.9248 -1.5558
23395SOL     OW71797   6.695   2.687   2.324  0.5358 -0.6654 -0.2188
23395SOL    HW171798   6.612   2.708   2.282 -0.2736 -3.8364 -0.4118
23395SOL    HW271799   6.681   2.709   2.416 -0.4481 -0.9131 -0.2929
23396SOL     OW71800   7.375   8.714   6.925 -0.5010  0.9522 -0.2087
23396SOL    HW171801   7.414   8.716   6.838 -1.0298 -0.4315 -0.4944
23396SOL    HW271802   7.305   8.649   6.919 -0.1546  0.3934  1.4021
23397SOL     OW71803   5.877   5.899   5.409  0.3461 -0.3360  0.1905
23397SOL    HW171804   5.962   5.942   5.400  1.2129 -1.9321  0.2439
23397SOL    HW271805   5.834   5.910   5.325  1.5256 -1.2974 -0.5728
23398SOL     OW71806   7.656   1.690   2.131  0.0586 -0.4773 -0.7828
23398SOL    HW171807   7.597   1.621   2.100 -0.5408 -1.1231  1.6232
23398SOL    HW271808   7.602   1.770   2.128  0.3289 -0.3200 -2.2682
23399SOL     OW71809   5.530   3.295   2.232  0.2595 -0.0798 -0.3369
23399SOL    HW171810   5.550   3.340   2.314 -0.0978 -1.0223  0.2948
23399SOL    HW271811   5.454   3.241   2.253  0.4548 -0.6894 -1.1588
23400SOL     OW71812   3.709   7.089   4.232  0.2463  0.5505  0.1218
23400SOL    HW171813   3.710   7.185   4.232 -1.2669  0.5996 -1.0496
23400SOL    HW271814   3.619   7.066   4.210  0.7017 -1.1523 -0.0818
23401SOL     OW71815   7.695   1.164   8.958  0.1430  0.0741  0.4459
23401SOL    HW171816   7.728   1.120   9.036 -0.5531  0.5607  1.0214
23401SOL    HW271817   7.685   1.094   8.893  1.3454 -0.2319  0.5654
23402SOL     OW71818   2.413   9.511   4.362  0.2512 -0.9162 -0.4526
23402SOL    HW171819   2.389   9.599   4.391 -1.5675 -0.1612 -3.7815
23402SOL    HW271820   2.464   9.525   4.282  3.6402 -2.8803  1.1153
23403SOL     OW71821   2.871   4.044   6.580  0.1757  0.2436 -0.4439
23403SOL    HW171822   2.934   4.028   6.510  0.8495 -1.2699  0.4523
23403SOL    HW271823   2.795   4.083   6.537  1.1727  0.8005 -1.7541
23404SOL     OW71824   8.655   7.692   1.025  0.1716 -0.3552 -0.0847
23404SOL    HW171825   8.704   7.754   0.970 -1.7900 -0.7613 -2.4749
23404SOL    HW271826   8.595   7.747   1.075 -0.8339 -0.1671 -1.4234
23405SOL     OW71827   2.039   5.537   8.828 -0.0172 -0.2082 -0.0107
23405SOL    HW171828   2.085   5.559   8.909 -1.5439  2.3487  0.2771
23405SOL    HW271829   1.967   5.481   8.855 -1.9564  2.5157  0.9291
23406SOL     OW71830   7.624   5.090   4.015 -0.6005 -0.4234 -0.6231
23406SOL    HW171831   7.701   5.104   3.960 -0.1028  2.3928  0.6110
23406SOL    HW271832   7.555   5.142   3.975 -0.6768  0.3691  0.4831
23407SOL     OW71833   2.029   1.955   4.731  0.0856 -0.0421  0.1660
23407SOL    HW171834   2.011   2.039   4.690  2.3397 -0.1868 -1.3176
23407SOL    HW271835   1.971   1.952   4.807 -0.9465  2.2722 -0.4450
23408SOL     OW71836   8.585   3.252   2.195  0.8163 -0.2597  0.2449
23408SOL    HW171837   8.635   3.333   2.200  3.0891 -1.6525  2.2828
23408SOL    HW271838   8.643   3.185   2.230 -1.7713 -2.4135  0.7860
23409SOL     OW71839   5.681   5.130   1.803 -0.4425 -0.1565 -0.3065
23409SOL    HW171840   5.662   5.037   1.790  0.2769 -0.2701 -0.5898
23409SOL    HW271841   5.666   5.145   1.896 -0.8971 -0.4757 -0.3237
23410SOL     OW71842   3.368   4.536   4.478  0.4369 -1.0699 -0.1348
23410SOL    HW171843   3.463   4.535   4.490  0.3988 -2.0748  0.2159
23410SOL    HW271844   3.340   4.619   4.517  1.2178 -0.4955 -0.7470
23411SOL     OW71845   3.974   1.057   1.032  0.9312  0.0982  0.1270
23411SOL    HW171846   3.980   1.120   0.961  1.6592 -0.2132 -0.0961
23411SOL    HW271847   3.881   1.054   1.054  0.7585  0.4988 -0.5351
23412SOL     OW71848   3.177   1.852   5.066  0.0597 -0.6255 -0.7366
23412SOL    HW171849   3.103   1.890   5.018 -0.4536 -1.0727 -0.3090
23412SOL    HW271850   3.187   1.764   5.028  0.0965 -0.7228 -0.5008
23413SOL     OW71851   9.791   4.338   7.725  0.4794  0.4234 -0.0369
23413SOL    HW171852   9.869   4.327   7.780  0.7771 -1.5524 -0.8008
23413SOL    HW271853   9.820   4.395   7.654  0.4336  1.9505  1.1046
23414SOL     OW71854   5.303   5.009   1.563 -0.4115 -0.0074 -0.1121
23414SOL    HW171855   5.249   5.039   1.636  0.4287  0.3401  0.3843
23414SOL    HW271856   5.385   5.056   1.573 -0.7852  1.1735 -2.1602
23415SOL     OW71857   1.497   2.061   0.228 -0.0548 -0.0783  0.3323
23415SOL    HW171858   1.469   2.017   0.308 -0.0283 -3.3908 -1.2959
23415SOL    HW271859   1.419   2.063   0.173  0.5106 -0.3018 -0.5056
23416SOL     OW71860   8.791   5.140   7.614  0.1907 -0.5530  1.2964
23416SOL    HW171861   8.800   5.217   7.558  1.2868 -0.0189  2.1708
23416SOL    HW271862   8.714   5.094   7.579  0.8688 -0.2940 -0.6888
23417SOL     OW71863   7.904   6.697   6.982  0.2086  0.2009 -0.7412
23417SOL    HW171864   7.976   6.758   6.965 -0.2565  0.3361 -2.4380
23417SOL    HW271865   7.947   6.615   7.006  0.8513  0.9841  0.8788
23418SOL     OW71866   0.108   6.132   3.294  0.4576 -0.0743  0.1261
23418SOL    HW171867   0.155   6.158   3.373  0.3235  0.0408  0.1671
23418SOL    HW271868   0.024   6.177   3.300  0.1423 -0.6874  0.2997
23419SOL     OW71869   2.123   9.443   0.555 -0.1627 -0.2887  0.2420
23419SOL    HW171870   2.151   9.371   0.612 -0.0447 -0.0066  0.5392
23419SOL    HW271871   2.155   9.418   0.468 -0.7228 -0.9341  0.2116
23420SOL     OW71872   0.265   5.350   0.241 -0.2693 -0.0455 -0.7092
23420SOL    HW171873   0.274   5.322   0.332 -0.0632  1.1636 -0.3489
23420SOL    HW271874   0.301   5.277   0.190  0.3198 -0.4061  0.2012
23421SOL     OW71875   6.635   0.140   1.072 -0.2892 -0.3298 -0.1967
23421SOL    HW171876   6.615   0.046   1.070  0.7283 -0.5607 -0.0950
23421SOL    HW271877   6.674   0.155   1.158  3.5885 -0.7377 -1.6694
23422SOL     OW71878   4.483   0.427   4.013 -0.5033  0.2786 -0.3058
23422SOL    HW171879   4.459   0.479   3.936  2.7008  0.5833 -1.2796
23422SOL    HW271880   4.458   0.482   4.088 -1.6326  0.9909 -1.1705
23423SOL     OW71881   1.564   0.957   8.619  0.2688 -0.6445 -0.1539
23423SOL    HW171882   1.472   0.941   8.638  0.7992 -1.9547  1.6433
23423SOL    HW271883   1.578   0.922   8.531 -0.8203 -0.9122 -0.2229
23424SOL     OW71884   8.460   0.704   0.019  0.4212  0.3481 -0.6876
23424SOL    HW171885   8.420   0.791   0.020 -1.3019 -0.4163 -0.9246
23424SOL    HW271886   8.399   0.650  -0.031 -0.1129 -1.7235  1.9875
23425SOL     OW71887   8.616   4.942   3.881 -0.0886 -0.7530 -0.5106
23425SOL    HW171888   8.563   4.997   3.939  0.0198 -1.3497  0.1658
23425SOL    HW271889   8.704   4.944   3.919  0.1619 -0.5393 -1.0866
23426SOL     OW71890   0.123   6.999   2.607 -0.3604 -0.2704 -0.1607
23426SOL    HW171891   0.047   7.035   2.654 -0.5229 -0.3320 -0.3742
23426SOL    HW271892   0.147   7.067   2.544 -0.9657 -0.7245 -0.8937
23427SOL     OW71893   0.757   7.021   7.508 -0.2340  0.2360  0.4748
23427SOL    HW171894   0.793   7.083   7.444  0.9148 -3.1424 -2.4776
23427SOL    HW271895   0.684   7.068   7.547  0.3467  3.3360 -1.6944
23428SOL     OW71896   2.980   0.422   4.541 -0.3328 -0.3225 -0.2278
23428SOL    HW171897   3.067   0.443   4.575 -0.4303 -0.9576  0.4398
23428SOL    HW271898   2.923   0.489   4.578  0.0560  0.8651 -1.6917
23429SOL     OW71899   6.895   4.299   1.901 -0.2035 -0.8702 -0.3468
23429SOL    HW171900   6.923   4.391   1.899 -1.3907 -0.4731 -0.1818
23429SOL    HW271901   6.882   4.276   1.810 -1.8307 -0.1962 -0.3391
23430SOL     OW71902   9.022   9.245   8.352 -0.1423  0.1286  0.4344
23430SOL    HW171903   9.008   9.168   8.407 -0.7969  0.0941  0.2195
23430SOL    HW271904   9.086   9.217   8.287 -0.2723 -0.1884  0.4443
23431SOL     OW71905   8.641   7.418   1.672 -0.0371 -0.5974 -0.6786
23431SOL    HW171906   8.685   7.486   1.723  0.7147 -0.4283 -1.5249
23431SOL    HW271907   8.712   7.368   1.631 -0.6127 -0.5462 -1.7860
23432SOL     OW71908   6.835   3.036   5.783 -0.4400 -0.1448  0.2478
23432SOL    HW171909   6.767   3.005   5.842 -1.0546  1.5092  0.4747
23432SOL    HW271910   6.788   3.072   5.708  0.1456  1.1742  0.4834
23433SOL     OW71911   9.641   3.510   8.176 -0.0019  0.5764  0.4670
23433SOL    HW171912   9.546   3.499   8.171 -0.0555  0.3241  1.6678
23433SOL    HW271913   9.665   3.550   8.093 -1.0233 -0.2521 -0.2504
23434SOL     OW71914   4.002   4.033   6.220 -0.1146 -0.2236 -0.3930
23434SOL    HW171915   4.086   4.026   6.175  0.1621 -0.9961  0.2181
23434SOL    HW271916   3.976   4.124   6.208  1.2941  0.3030  0.2614
23435SOL     OW71917   9.692   0.447   8.514  0.0019 -0.3460 -0.2985
23435SOL    HW171918   9.625   0.387   8.482  0.6417 -0.6992 -1.0287
23435SOL    HW271919   9.772   0.394   8.517  0.3317  0.1590  0.2047
23436SOL     OW71920   6.428   6.212   1.574  0.0247  0.5990  0.3172
23436SOL    HW171921   6.511   6.189   1.615 -0.1698  2.0613  1.6147
23436SOL    HW271922   6.364   6.208   1.645 -0.7992  0.7026 -0.3982
23437SOL     OW71923   4.616   5.094   3.640 -0.4102 -0.0533 -0.4943
23437SOL    HW171924   4.556   5.169   3.636  0.1779  0.4514  0.0344
23437SOL    HW271925   4.625   5.067   3.548 -0.0707  0.9714 -0.7754
23438SOL     OW71926   5.336   7.402   8.074 -0.0520 -0.4009  0.4649
23438SOL    HW171927   5.373   7.330   8.023 -1.4424  0.0312 -1.2228
23438SOL    HW271928   5.396   7.475   8.060  0.9545 -0.9531  1.5867
23439SOL     OW71929   2.060   1.764   6.101 -0.1293 -0.3169 -0.2038
23439SOL    HW171930   2.029   1.849   6.067 -1.8908 -0.4828  0.8708
23439SOL    HW271931   2.050   1.771   6.196  3.1234 -0.4726  0.2487
23440SOL     OW71932   1.530   1.577   6.147  0.2786  0.3519  0.3979
23440SOL    HW171933   1.448   1.546   6.185  0.0319  0.5530  0.0398
23440SOL    HW271934   1.568   1.500   6.106 -1.0413  0.7563 -1.7672
23441SOL     OW71935   5.444   8.074   0.959  0.0997 -0.0666  0.2380
23441SOL    HW171936   5.406   8.136   0.896  0.9384  0.8027  0.5560
23441SOL    HW271937   5.444   8.122   1.042  0.4923 -0.6108  0.5580
23442SOL     OW71938   1.182   9.775   1.071  0.0666 -0.7223  0.1870
23442SOL    HW171939   1.216   9.692   1.035  0.2294  0.4961 -2.7954
23442SOL    HW271940   1.254   9.811   1.122  0.1397 -2.1917  1.1725
23443SOL     OW71941   3.218   5.867   9.106  0.2502 -0.6448 -0.2108
23443SOL    HW171942   3.274   5.858   9.183  0.1529  2.4793  0.3632
23443SOL    HW271943   3.132   5.838   9.135  0.6622 -1.4898  0.1876
23444SOL     OW71944   2.225   5.247   6.900  0.4096  0.0540  0.0892
23444SOL    HW171945   2.222   5.191   6.822 -0.1578  1.0426 -0.6152
23444SOL    HW271946   2.285   5.202   6.960  0.3990 -1.0127 -0.6844
23445SOL     OW71947   2.744   9.507   3.690  0.1644  0.3760 -0.0984
23445SOL    HW171948   2.755   9.585   3.746  0.1201  0.8775 -0.7803
23445SOL    HW271949   2.787   9.437   3.739  0.2753  0.8444  0.4929
23446SOL     OW71950   8.525   6.659   3.503 -0.6751  0.1575 -0.5275
23446SOL    HW171951   8.473   6.736   3.530  2.0592  1.3589  1.8692
23446SOL    HW271952   8.543   6.613   3.585  1.7583 -0.3654 -1.2927
23447SOL     OW71953   2.229   6.665   0.635 -0.0259  0.4023 -0.0963
23447SOL    HW171954   2.163   6.704   0.692 -1.9949 -0.3238 -1.7703
23447SOL    HW271955   2.206   6.573   0.629  1.2488  0.0817 -0.5923
23448SOL     OW71956   3.018   1.449   9.567 -0.2268 -0.4306  0.1218
23448SOL    HW171957   2.954   1.379   9.579 -0.8367  0.1837  0.4593
23448SOL    HW271958   3.100   1.402   9.549 -0.6043 -1.2368  0.4332
23449SOL     OW71959   9.703   7.835   4.208  0.2498 -0.4264  0.0037
23449SOL    HW171960   9.677   7.757   4.257 -3.1724 -0.3225 -1.3832
23449SOL    HW271961   9.723   7.802   4.120 -0.9756  0.1864 -0.5197
23450SOL     OW71962   2.231   5.338   0.764  0.3745 -0.0121  0.1245
23450SOL    HW171963   2.280   5.383   0.696 -1.1394 -0.1796 -1.1273
23450SOL    HW271964   2.297   5.286   0.811  1.5013  0.4098 -0.9480
23451SOL     OW71965   2.660   7.938   6.559  0.2542 -0.2163  0.4601
23451SOL    HW171966   2.715   7.985   6.497 -1.2281  1.3296  0.2532
23451SOL    HW271967   2.583   7.913   6.509  0.8776 -2.7080  0.6391
23452SOL     OW71968   0.995   5.043   1.627  0.2878 -0.0919 -0.2618
23452SOL    HW171969   0.940   5.104   1.577 -3.0618 -1.8506  0.9517
23452SOL    HW271970   0.998   5.080   1.715  2.6444  0.8476 -0.6636
23453SOL     OW71971   2.196   7.116   9.312 -0.1132  0.2258  0.1262
23453SOL    HW171972   2.176   7.173   9.387  1.5290 -0.1296  0.8771
23453SOL    HW271973   2.196   7.175   9.237 -1.2775  0.6846  0.4642
23454SOL     OW71974   4.212   3.184   2.672  0.1884  0.5289  0.1851
23454SOL    HW171975   4.149   3.169   2.743 -0.1950  1.5518  0.0853
23454SOL    HW271976   4.297   3.160   2.710 -0.2287 -0.7884  0.3467
23455SOL     OW71977   7.594   3.646   3.398  0.0668 -0.5173  0.4473
23455SOL    HW171978   7.592   3.662   3.304 -0.7267  0.7613  0.6559
23455SOL    HW271979   7.662   3.705   3.431 -0.9130  0.4309  0.8708
23456SOL     OW71980   2.353   9.302   8.463 -0.8072  0.3502 -0.0806
23456SOL    HW171981   2.310   9.228   8.421 -0.1982 -0.1767  0.2100
23456SOL    HW271982   2.421   9.329   8.401 -0.3950  0.0438  0.2329
23457SOL     OW71983   0.425   0.154   8.488 -0.6164 -0.1504 -0.0419
23457SOL    HW171984   0.495   0.206   8.529 -1.8840 -0.2022  2.3305
23457SOL    HW271985   0.389   0.212   8.421  0.3080  0.6692  0.1408
23458SOL     OW71986   6.441   5.471   7.482  0.3422 -0.0745  0.4490
23458SOL    HW171987   6.367   5.432   7.436  0.8318  1.0046 -1.3818
23458SOL    HW271988   6.403   5.511   7.560 -0.7913 -0.6154  0.1915
23459SOL     OW71989   6.669   9.170   6.184 -0.1515  0.5278 -0.1011
23459SOL    HW171990   6.680   9.229   6.109 -0.7361 -0.5660 -1.0763
23459SOL    HW271991   6.758   9.159   6.218  0.3439 -0.0714 -1.5142
23460SOL     OW71992   6.431   6.677   1.480  0.4294 -0.3709 -0.4121
23460SOL    HW171993   6.371   6.603   1.473 -0.4150  0.1536  0.8902
23460SOL    HW271994   6.482   6.659   1.559 -0.8339  1.1223  0.8067
23461SOL     OW71995   8.197   7.261   1.619  0.1199  0.1297 -0.0130
23461SOL    HW171996   8.129   7.265   1.552 -0.4620  0.2024  0.5789
23461SOL    HW271997   8.153   7.286   1.700  0.6311 -0.7182  0.5443
23462SOL     OW71998   4.429   9.800   1.954 -0.3183  0.3144  1.1459
23462SOL    HW171999   4.486   9.861   2.000  0.8432  1.9193 -2.1371
23462SOL    HW272000   4.342   9.842   1.957  0.1013  1.2587  0.4449
23463SOL     OW72001   8.508   5.571   4.742  0.0816 -0.5903 -0.6923
23463SOL    HW172002   8.429   5.621   4.720  0.1552 -0.3580 -0.4389
23463SOL    HW272003   8.532   5.602   4.829 -0.6649 -2.0590  0.0773
23464SOL     OW72004   5.711   2.182   1.600  0.1887 -0.2216  0.1918
23464SOL    HW172005   5.745   2.226   1.678 -1.0727  0.1878  0.5453
23464SOL    HW272006   5.775   2.114   1.580  0.5204 -0.3543  1.6084
23465SOL     OW72007   6.261   9.338   0.494 -0.2822  0.8261  0.3978
23465SOL    HW172008   6.348   9.305   0.515 -1.1909 -0.6376  2.1763
23465SOL    HW272009   6.276   9.405   0.427  2.1450  0.3520  0.3781
23466SOL     OW72010   7.472   2.694   6.928  0.6354 -0.3636 -0.3281
23466SOL    HW172011   7.395   2.637   6.935  1.2004 -0.9989  1.2929
23466SOL    HW272012   7.476   2.738   7.013 -0.0994  2.5956 -1.6862
23467SOL     OW72013   5.635   0.672   8.254 -0.9658  0.2153  0.7400
23467SOL    HW172014   5.727   0.673   8.227 -0.9143 -0.6352  0.8573
23467SOL    HW272015   5.604   0.760   8.236 -0.1798  0.4534  0.5050
23468SOL     OW72016   1.915   6.702   9.658  0.2529  0.3008 -0.2784
23468SOL    HW172017   1.934   6.794   9.680  1.8700  0.1049 -0.6878
23468SOL    HW272018   1.847   6.676   9.720  0.6546  1.4109  0.6738
23469SOL     OW72019   4.344   1.918   6.128 -0.0267 -0.0782 -0.4843
23469SOL    HW172020   4.372   1.835   6.089 -0.9088 -0.7851  0.3634
23469SOL    HW272021   4.423   1.952   6.170 -0.0319 -1.2908  0.5467
23470SOL     OW72022   0.286   5.473   7.767  0.2159 -0.1762  0.0449
23470SOL    HW172023   0.343   5.399   7.790  0.3209 -0.2532 -0.4564
23470SOL    HW272024   0.343   5.534   7.720 -0.0923 -0.2135 -0.3814
23471SOL     OW72025   1.155   5.977   4.944 -0.3403  0.3075 -0.0471
23471SOL    HW172026   1.243   6.012   4.959  0.1030 -0.6775 -0.2617
23471SOL    HW272027   1.159   5.887   4.976 -0.8000 -0.2650 -1.4873
23472SOL     OW72028   7.057   0.135   0.265  0.0712 -0.5067 -0.4052
23472SOL    HW172029   7.140   0.178   0.243  0.5544 -1.5482 -0.6723
23472SOL    HW272030   7.070   0.044   0.238 -1.0795 -0.7290 -0.2262
23473SOL     OW72031   3.112   1.016   8.663  0.7916  0.2015 -0.0514
23473SOL    HW172032   3.183   0.999   8.726 -0.6212 -1.8156  1.1013
23473SOL    HW272033   3.092   0.930   8.626 -2.1755  0.3539  0.9412
23474SOL     OW72034   1.660   8.481   1.164 -0.2176 -0.4113  0.2979
23474SOL    HW172035   1.621   8.568   1.158 -1.0040 -0.6305  1.7289
23474SOL    HW272036   1.690   8.475   1.255 -1.5904 -2.1888  0.6798
23475SOL     OW72037   6.986   2.526   5.343  0.1067 -0.0494 -0.0016
23475SOL    HW172038   7.058   2.475   5.306  1.3583  0.7306  1.2639
23475SOL    HW272039   6.985   2.502   5.436 -3.1429 -2.2102 -0.4102
23476SOL     OW72040   9.634   4.876   4.768 -0.2230 -0.6257 -0.0600
23476SOL    HW172041   9.669   4.814   4.831 -0.5413 -0.8763 -0.1272
23476SOL    HW272042   9.709   4.931   4.743 -0.1190 -0.4591  0.6079
23477SOL     OW72043   9.486   8.803   7.301 -0.0813 -0.2406 -0.0652
23477SOL    HW172044   9.544   8.735   7.268 -0.6467 -0.3679 -0.8206
23477SOL    HW272045   9.540   8.853   7.363 -0.3090 -2.8150  2.3971
23478SOL     OW72046   1.377   1.440   6.982 -0.1732  0.1360 -0.4035
23478SOL    HW172047   1.335   1.477   6.905 -0.2954 -0.1412 -0.4732
23478SOL    HW272048   1.466   1.419   6.954  0.6146  2.3325  0.2154
23479SOL     OW72049   5.401   0.648   4.201 -0.3658  0.2762  0.0757
23479SOL    HW172050   5.482   0.655   4.251 -1.0152  0.2396  1.1728
23479SOL    HW272051   5.334   0.634   4.267 -1.2611  0.2353 -0.8210
23480SOL     OW72052   8.476   0.521   7.913 -0.3490 -0.4787 -0.0930
23480SOL    HW172053   8.513   0.483   7.993  0.4563  2.0521  0.8244
23480SOL    HW272054   8.385   0.538   7.934 -0.5464 -1.2484 -0.2886
23481SOL     OW72055   0.495   0.274   9.839  1.0612  0.7454  0.2970
23481SOL    HW172056   0.440   0.307   9.768 -0.4437  0.5702  1.3531
23481SOL    HW272057   0.520   0.353   9.887 -0.1727  0.6409  1.1443
23482SOL     OW72058   7.386   7.790   3.874  0.7030  0.3478 -0.1856
23482SOL    HW172059   7.371   7.749   3.789  0.5749 -0.9064  0.4243
23482SOL    HW272060   7.468   7.753   3.905 -0.0074 -0.3664  0.9024
23483SOL     OW72061   8.568   7.294   5.143 -0.3118  0.0085 -0.2288
23483SOL    HW172062   8.651   7.251   5.125  0.2387  0.3359  1.3526
23483SOL    HW272063   8.521   7.233   5.199 -0.2684  0.6761  0.5596
23484SOL     OW72064   7.495   3.640   1.783  0.6348  0.2909 -0.3754
23484SOL    HW172065   7.401   3.642   1.802  1.2191  0.0423  3.4614
23484SOL    HW272066   7.518   3.547   1.789  1.0267  0.2263 -2.3425
23485SOL     OW72067   8.744   0.576   1.589  0.3824  0.3240 -0.3669
23485SOL    HW172068   8.670   0.553   1.532 -0.0624  0.5571  0.1146
23485SOL    HW272069   8.781   0.655   1.549 -0.5577  1.0844  0.2304
23486SOL     OW72070   0.747   3.123   2.622  0.2323 -0.3216 -0.1269
23486SOL    HW172071   0.737   3.071   2.543 -0.0304  0.0193 -0.3186
23486SOL    HW272072   0.833   3.163   2.614 -0.0556  0.2178 -0.5404
23487SOL     OW72073   5.323   2.618   9.115 -0.1817 -0.1097  0.2700
23487SOL    HW172074   5.266   2.643   9.042  0.5780  0.1863 -0.2293
23487SOL    HW272075   5.329   2.698   9.169 -0.8161 -0.3539  0.7212
23488SOL     OW72076   4.315   9.770   6.139 -0.1144  0.3257 -0.3668
23488SOL    HW172077   4.236   9.824   6.150  0.6927  1.2270  1.3430
23488SOL    HW272078   4.371   9.822   6.081 -0.6643 -0.2275 -1.4252
23489SOL     OW72079   3.309   4.489   5.361  0.0255 -0.5506 -0.0490
23489SOL    HW172080   3.223   4.450   5.343 -0.0610  0.2733 -1.5552
23489SOL    HW272081   3.371   4.426   5.324 -0.0918  0.3391 -1.8977
23490SOL     OW72082   4.608   1.476   3.920  0.1539 -0.9665  0.1759
23490SOL    HW172083   4.573   1.429   3.995 -0.2174 -0.2859  0.4388
23490SOL    HW272084   4.696   1.440   3.907  1.0296  0.2993  2.1946
23491SOL     OW72085   7.664   3.920   5.738  0.2271 -0.9092 -0.3079
23491SOL    HW172086   7.600   3.924   5.809  1.4944 -0.1572  0.8309
23491SOL    HW272087   7.669   3.827   5.715 -1.0984 -1.0061 -0.2839
23492SOL     OW72088   9.665   7.573   8.683  0.2360  0.2313  0.3899
23492SOL    HW172089   9.647   7.495   8.736  0.4931  0.9280  1.5406
23492SOL    HW272090   9.751   7.602   8.713 -1.0137  2.5491  2.0494
23493SOL     OW72091   4.788   7.850   7.153 -0.4170 -0.3463  0.0710
23493SOL    HW172092   4.764   7.938   7.184  0.8512  0.5514 -1.3491
23493SOL    HW272093   4.860   7.865   7.092 -0.1571 -2.4003 -0.1928
23494SOL     OW72094   9.737   5.832   0.381 -0.3677 -0.0800 -0.3654
23494SOL    HW172095   9.818   5.860   0.339 -0.9725 -0.3967 -1.8035
23494SOL    HW272096   9.757   5.832   0.475  1.4121 -0.5556 -0.7130
23495SOL     OW72097   6.497   9.668   1.258  0.5127 -0.7291  0.0555
23495SOL    HW172098   6.482   9.716   1.176 -0.8619  0.4655  0.9503
23495SOL    HW272099   6.501   9.576   1.232 -0.8647 -0.4565 -1.2523
23496SOL     OW72100   7.104   5.736   2.228  0.3000  0.0880  0.1986
23496SOL    HW172101   7.020   5.695   2.209  1.4484 -1.4944 -1.9132
23496SOL    HW272102   7.100   5.821   2.185  0.4148 -0.7708 -1.6101
23497SOL     OW72103   8.615   9.317   8.701  0.5707 -0.2669 -0.2683
23497SOL    HW172104   8.676   9.382   8.666  0.6066 -0.5605 -0.7637
23497SOL    HW272105   8.538   9.323   8.643 -0.2377  0.7065  0.8604
23498SOL     OW72106   0.379   5.862   2.986  0.0294 -0.6955  0.2387
23498SOL    HW172107   0.363   5.795   2.919 -0.0373 -1.2783  0.8229
23498SOL    HW272108   0.296   5.908   2.995  0.4148  0.2859 -1.0356
23499SOL     OW72109   4.577   5.970   5.884 -0.3142  0.2564 -0.0086
23499SOL    HW172110   4.648   5.921   5.926 -0.7462 -1.0089 -0.7239
23499SOL    HW272111   4.548   6.031   5.951  1.7073  1.1054  0.1856
23500SOL     OW72112   9.318   2.333   9.777  0.2446 -0.0900  0.1011
23500SOL    HW172113   9.389   2.338   9.840  2.2144 -0.4876 -1.9501
23500SOL    HW272114   9.337   2.403   9.714  0.6492 -2.1514 -2.2081
23501SOL     OW72115   1.680   2.668   6.948 -0.0988 -0.3709 -0.3241
23501SOL    HW172116   1.725   2.590   6.913 -0.7810 -1.2482  0.7004
23501SOL    HW272117   1.587   2.651   6.932 -0.3252 -0.2153  0.7354
23502SOL     OW72118   9.225   7.530   3.279 -0.3056  0.2759  0.1252
23502SOL    HW172119   9.255   7.573   3.359 -0.6917 -0.8595  0.9026
23502SOL    HW272120   9.295   7.546   3.216  1.6964 -1.6787  1.6832
23503SOL     OW72121   3.395   7.099   7.461  0.0434 -0.0720  0.7907
23503SOL    HW172122   3.338   7.121   7.387  0.0293 -0.6735  0.6200
23503SOL    HW272123   3.367   7.158   7.531 -0.6125 -0.1828  0.6244
23504SOL     OW72124   4.603   9.811   8.639  0.5825  0.5811  0.7062
23504SOL    HW172125   4.637   9.735   8.592  1.2869  0.4628  1.3804
23504SOL    HW272126   4.598   9.782   8.730 -0.1176  1.0231  0.8107
23505SOL     OW72127   3.736   6.830   8.177 -0.3576  0.3304 -0.3871
23505SOL    HW172128   3.695   6.744   8.189 -0.5221  0.5539  0.7412
23505SOL    HW272129   3.822   6.810   8.138 -0.6603 -0.2868 -0.7562
23506SOL     OW72130   7.503   2.062   0.918  0.6716 -0.4244 -0.5718
23506SOL    HW172131   7.563   1.992   0.891  1.2859  0.3765 -1.3318
23506SOL    HW272132   7.450   2.079   0.840  0.5048 -0.0462 -0.3784
23507SOL     OW72133   3.851   1.758   9.191  0.2484  0.0764  0.2292
23507SOL    HW172134   3.776   1.739   9.248  1.6217 -0.1789  2.0294
23507SOL    HW272135   3.870   1.850   9.208 -0.4365  0.5278 -1.2449
23508SOL     OW72136   0.230   2.339   4.688  0.2603  0.1387  0.3655
23508SOL    HW172137   0.255   2.404   4.754  0.0409 -0.5858  1.1810
23508SOL    HW272138   0.198   2.265   4.738  0.9780 -0.8129 -0.5296
23509SOL     OW72139   4.370   1.810   9.004  0.4512 -0.5186  0.6819
23509SOL    HW172140   4.384   1.732   8.950 -0.2450 -1.3162  1.6217
23509SOL    HW272141   4.394   1.782   9.092  1.3356  0.7002  0.8479
23510SOL     OW72142   5.728   7.286   4.557  1.1156 -0.3963  0.0500
23510SOL    HW172143   5.803   7.298   4.615  1.4070 -1.7831 -0.0062
23510SOL    HW272144   5.716   7.191   4.553 -0.6217 -0.2071  0.0178
23511SOL     OW72145   6.152   7.932   5.967 -0.2486 -0.6699 -0.3902
23511SOL    HW172146   6.243   7.951   5.993 -0.3430  0.8873 -1.0911
23511SOL    HW272147   6.135   7.846   6.005  1.0458 -0.3811  1.0007
23512SOL     OW72148   7.038   5.258   4.387 -0.3905 -0.1143 -0.0557
23512SOL    HW172149   7.097   5.219   4.452  0.2126 -1.6744 -1.4604
23512SOL    HW272150   6.952   5.257   4.429  0.1347 -0.2538  1.0581
23513SOL     OW72151   6.136   6.488   8.321  0.2417  0.1466 -0.6998
23513SOL    HW172152   6.044   6.487   8.349  0.4791  2.5534  0.4208
23513SOL    HW272153   6.185   6.459   8.397  0.5233  0.8658 -0.6017
23514SOL     OW72154   4.030   5.391   8.065  0.4226  0.2217  0.6642
23514SOL    HW172155   3.992   5.303   8.058  0.5894  0.2191 -0.4617
23514SOL    HW272156   4.017   5.429   7.978  1.5417  0.8277  0.7455
23515SOL     OW72157   1.073   2.637   6.445 -0.0787 -0.0306  0.1194
23515SOL    HW172158   1.058   2.565   6.506 -2.0960  0.2842  0.0498
23515SOL    HW272159   1.116   2.595   6.370  1.2497 -0.6411  1.1844
23516SOL     OW72160   0.365   5.569   3.567 -0.5642 -0.0023 -0.0074
23516SOL    HW172161   0.413   5.620   3.502 -0.9341 -0.8756 -0.9861
23516SOL    HW272162   0.432   5.542   3.631  0.2412 -1.0625 -1.2549
23517SOL     OW72163   2.730   5.708   3.997  0.3488 -0.0081 -0.1852
23517SOL    HW172164   2.749   5.776   3.932 -0.7017  0.6658  0.1898
23517SOL    HW272165   2.712   5.756   4.078  1.6094 -0.8404  0.6210
23518SOL     OW72166   4.738   7.033   4.951 -0.0110 -0.7389 -1.0386
23518SOL    HW172167   4.658   6.993   4.917 -0.2719 -0.4853 -0.7235
23518SOL    HW272168   4.711   7.120   4.980  0.1267 -1.0875  0.1824
23519SOL     OW72169   2.628   0.482   4.522 -0.3410  0.4673 -0.0993
23519SOL    HW172170   2.556   0.544   4.510  0.3838  1.3693  0.0537
23519SOL    HW272171   2.687   0.526   4.583 -0.8811 -1.3316  1.8440
23520SOL     OW72172   4.342   0.548   6.483  0.0549  0.4597  0.2200
23520SOL    HW172173   4.368   0.502   6.563 -0.3977 -0.7464 -0.3090
23520SOL    HW272174   4.273   0.608   6.512  0.2489  0.4055  0.8212
23521SOL     OW72175   5.556   8.819   0.898  0.3188 -0.4532  0.3356
23521SOL    HW172176   5.572   8.907   0.932 -0.1804  0.0286 -0.6261
23521SOL    HW272177   5.576   8.826   0.805 -2.0805 -0.6938 -0.2586
23522SOL     OW72178   1.308   5.032   0.329  0.2880  0.7738 -0.5335
23522SOL    HW172179   1.331   5.031   0.422 -0.9472  1.4168 -0.1847
23522SOL    HW272180   1.212   5.030   0.329  0.2342  1.9030 -1.7542
23523SOL     OW72181   3.441   3.071   5.422 -0.2567 -0.1231  0.3482
23523SOL    HW172182   3.515   3.027   5.379 -0.2523  0.7106 -0.5277
23523SOL    HW272183   3.473   3.159   5.440 -1.5429  0.7856 -1.5287
23524SOL     OW72184   3.867   3.995   2.486 -0.1880  0.1487  0.3252
23524SOL    HW172185   3.955   3.960   2.498  0.4363  0.7934 -1.9068
23524SOL    HW272186   3.871   4.083   2.524  0.0899  0.1479  0.2992
23525SOL     OW72187   6.377   3.089   3.521  0.0288  0.1950 -0.0029
23525SOL    HW172188   6.432   3.106   3.597 -0.8383  0.1068  0.6536
23525SOL    HW272189   6.404   3.156   3.457  1.3610 -0.2726  0.0346
23526SOL     OW72190   2.597   3.459   3.151  0.1975  0.3483  0.5559
23526SOL    HW172191   2.619   3.538   3.102 -1.3942 -0.1336 -1.0285
23526SOL    HW272192   2.585   3.489   3.241 -0.6230  1.9713 -0.0579
23527SOL     OW72193   2.849   6.042   7.478  0.1720  0.0252 -0.5683
23527SOL    HW172194   2.825   6.085   7.560  2.9759 -0.3094  0.5219
23527SOL    HW272195   2.829   5.950   7.492  0.9623 -0.0842 -0.0943
23528SOL     OW72196   3.038   7.102   9.405 -0.3485 -0.3239  0.1700
23528SOL    HW172197   2.947   7.107   9.375 -0.2186 -0.1198 -0.2100
23528SOL    HW272198   3.054   7.187   9.447 -1.3491 -1.5614  3.3141
23529SOL     OW72199   8.719   6.851   1.482 -0.6049 -0.2893  0.6391
23529SOL    HW172200   8.706   6.774   1.537  1.4318  0.2391  1.9737
23529SOL    HW272201   8.729   6.816   1.394 -2.2532 -1.2924  0.7985
23530SOL     OW72202   4.070   1.438   6.892  0.0572 -0.0275 -0.1421
23530SOL    HW172203   4.057   1.504   6.960 -0.5097  1.3942 -1.5656
23530SOL    HW272204   3.995   1.380   6.900  0.2313 -0.1475  0.7206
23531SOL     OW72205   4.094   5.241   4.693 -0.5145  0.4231  0.0055
23531SOL    HW172206   4.005   5.273   4.704 -1.8719 -2.8588 -0.2249
23531SOL    HW272207   4.112   5.190   4.772 -0.3613 -2.0002 -1.4706
23532SOL     OW72208   5.417   1.638   6.802 -0.2934  0.2124 -0.0154
23532SOL    HW172209   5.402   1.656   6.895  0.2918  0.9202 -0.0426
23532SOL    HW272210   5.376   1.712   6.757 -0.3754 -0.0107 -0.3061
23533SOL     OW72211   1.043   4.720   9.019  0.8457 -0.0249 -0.3068
23533SOL    HW172212   0.963   4.760   9.054  0.9634 -1.0607  1.2178
23533SOL    HW272213   1.061   4.771   8.939 -0.3344  1.3806  0.2597
23534SOL     OW72214   6.015   3.788   9.721 -0.1446 -0.6872 -0.2399
23534SOL    HW172215   6.017   3.693   9.715  0.5850 -0.7489  0.7442
23534SOL    HW272216   5.996   3.806   9.814 -1.6422  0.1321 -0.6640
23535SOL     OW72217   2.148   9.462   7.105  0.0367 -0.3394  0.0788
23535SOL    HW172218   2.156   9.434   7.014 -0.1737 -0.1150 -0.0090
23535SOL    HW272219   2.059   9.438   7.130  0.6008 -1.8878  0.7321
23536SOL     OW72220   3.632   6.221   2.423 -0.3382  0.2008 -0.8343
23536SOL    HW172221   3.550   6.243   2.380 -1.9147 -2.1654  0.6996
23536SOL    HW272222   3.612   6.223   2.517  2.4622  3.3452 -0.0841
23537SOL     OW72223   1.875   8.107   7.651  0.1672  0.1198  0.2771
23537SOL    HW172224   1.786   8.095   7.685 -0.2908 -0.2688 -1.0222
23537SOL    HW272225   1.928   8.042   7.698 -0.3224  0.0096  0.6844
23538SOL     OW72226   7.681   3.772   3.836  0.3022  0.0334  0.4146
23538SOL    HW172227   7.632   3.691   3.852  1.4371 -0.6320  0.6707
23538SOL    HW272228   7.738   3.780   3.912  0.9245  0.5274 -0.0921
23539SOL     OW72229   9.213   3.691   8.542  0.3136  1.1332  0.1393
23539SOL    HW172230   9.250   3.694   8.631  0.0678  1.1504  0.2431
23539SOL    HW272231   9.273   3.635   8.493  0.1577  0.6820  0.4533
23540SOL     OW72232   8.442   7.697   9.454 -0.1437 -0.5842  0.4780
23540SOL    HW172233   8.521   7.695   9.400  0.2872 -1.4374  1.1342
23540SOL    HW272234   8.473   7.711   9.543 -0.6507 -1.9905  0.8935
23541SOL     OW72235   5.804   8.652   7.628  0.2797  0.3813 -0.0304
23541SOL    HW172236   5.810   8.600   7.708 -0.5386 -0.7161 -0.6451
23541SOL    HW272237   5.894   8.678   7.609  0.5774  0.0187  0.8318
23542SOL     OW72238   0.847   4.470   3.602 -0.7114  0.5743  0.0465
23542SOL    HW172239   0.858   4.492   3.694 -2.0946 -0.9348  0.6196
23542SOL    HW272240   0.876   4.379   3.595 -2.5675 -0.0249 -0.5244
23543SOL     OW72241   3.270   9.551   2.448  0.4727  0.1244  0.4767
23543SOL    HW172242   3.304   9.565   2.536 -0.9047 -0.7503  1.1695
23543SOL    HW272243   3.242   9.460   2.446 -0.7871  0.4903 -0.4017
23544SOL     OW72244   8.073   0.321   2.179 -0.8531  0.0389  0.4095
23544SOL    HW172245   8.161   0.358   2.186 -0.5120 -0.4997 -0.7747
23544SOL    HW272246   8.016   0.397   2.166 -0.1744  0.2315 -1.8584
23545SOL     OW72247   9.634   9.394   8.306 -0.0232 -0.4874  0.3731
23545SOL    HW172248   9.729   9.388   8.302  0.0051  0.2910 -0.2143
23545SOL    HW272249   9.611   9.361   8.393  0.9182  1.0792  1.2470
23546SOL     OW72250   7.140   8.993   5.975 -0.1733  0.3084 -0.3325
23546SOL    HW172251   7.047   9.014   5.980  0.0667  1.2843  0.3623
23546SOL    HW272252   7.182   9.057   6.032  1.1371  1.2234 -2.2103
23547SOL     OW72253   5.547   2.609   9.703 -0.1472 -0.0044  0.1997
23547SOL    HW172254   5.511   2.687   9.660  1.1469  0.3052 -0.3930
23547SOL    HW272255   5.637   2.634   9.724 -0.8729  0.0855  3.7420
23548SOL     OW72256   4.253   0.814   9.298 -0.3969 -0.1101  0.5485
23548SOL    HW172257   4.203   0.733   9.290 -0.2883 -0.1833  0.6133
23548SOL    HW272258   4.310   0.800   9.373  0.3995 -0.3928 -0.0894
23549SOL     OW72259   2.846   2.432   2.684 -0.2775  0.1085  0.1536
23549SOL    HW172260   2.758   2.395   2.690  0.4501 -1.4432  2.9263
23549SOL    HW272261   2.860   2.474   2.769  1.5429  0.6085 -0.3577
23550SOL     OW72262   7.915   6.435   8.288  0.3018 -0.1531  0.4295
23550SOL    HW172263   7.880   6.402   8.371 -0.6651  0.0971  0.1322
23550SOL    HW272264   7.928   6.356   8.236 -0.3130 -0.2221  0.3657
23551SOL     OW72265   8.115   6.870   1.516 -0.0456 -0.5017 -0.0109
23551SOL    HW172266   8.094   6.913   1.433  1.0265  1.4656  0.6881
23551SOL    HW272267   8.207   6.890   1.531  0.3284 -2.5070  0.7285
23552SOL     OW72268   3.456   4.783   1.962 -0.6978 -0.2891 -0.1819
23552SOL    HW172269   3.405   4.764   1.883 -0.4014 -0.1429 -0.4154
23552SOL    HW272270   3.457   4.879   1.967 -1.2130 -0.3091  0.3345
23553SOL     OW72271   3.867   5.407   3.122 -0.3345 -0.2902 -0.3738
23553SOL    HW172272   3.913   5.416   3.039 -0.1592  0.4947 -0.2051
23553SOL    HW272273   3.924   5.450   3.186 -0.7942 -0.2587  0.0264
23554SOL     OW72274   1.714   0.640   7.932  0.1044  0.2959  1.1060
23554SOL    HW172275   1.648   0.705   7.908  1.7035  1.6682  0.2090
23554SOL    HW272276   1.719   0.582   7.856  0.9797  1.1073  0.5251
23555SOL     OW72277   4.205   6.812   7.509 -0.0030  0.3228 -0.4286
23555SOL    HW172278   4.221   6.740   7.569 -0.8213  1.3369  1.0895
23555SOL    HW272279   4.208   6.773   7.422 -0.9999 -1.6361  0.3715
23556SOL     OW72280   2.800   0.367   8.772 -0.7060  0.3517  0.0254
23556SOL    HW172281   2.736   0.323   8.716  1.2801 -1.6572 -0.7921
23556SOL    HW272282   2.837   0.297   8.826 -0.6579  1.8099  1.9918
23557SOL     OW72283   3.550   8.944   4.857  0.1737  0.0318 -0.1523
23557SOL    HW172284   3.463   8.960   4.894  0.8746  1.3089  1.0595
23557SOL    HW272285   3.600   9.023   4.879  1.3480 -0.2154 -1.7646
23558SOL     OW72286   4.070   8.090   5.801 -0.2568 -0.5135 -0.0730
23558SOL    HW172287   4.034   8.024   5.742 -0.2470 -0.9038  0.3472
23558SOL    HW272288   4.156   8.111   5.766  1.1776 -3.1610  1.5728
23559SOL     OW72289   1.279   8.630   5.619 -0.0726  0.5485 -0.2973
23559SOL    HW172290   1.330   8.599   5.694  0.1891  1.0363 -0.2720
23559SOL    HW272291   1.294   8.565   5.551 -0.3666  0.0632  0.0929
23560SOL     OW72292   5.281   3.289   9.404 -0.3420  0.3097  0.0388
23560SOL    HW172293   5.227   3.276   9.482  1.2644 -0.9377  1.0000
23560SOL    HW272294   5.229   3.251   9.333 -1.8975  1.5991  0.4164
23561SOL     OW72295   4.632   9.473   3.110 -0.7352 -0.7848 -0.2291
23561SOL    HW172296   4.695   9.509   3.047 -0.4803  0.5401  0.7305
23561SOL    HW272297   4.549   9.512   3.085 -0.9563 -1.5528 -0.7291
23562SOL     OW72298   4.540   7.383   2.721 -0.4253 -0.8116  0.4779
23562SOL    HW172299   4.525   7.316   2.788  1.5170 -0.0088  1.7658
23562SOL    HW272300   4.605   7.343   2.663 -0.5308 -0.6769  0.2673
23563SOL     OW72301   0.114   8.128   5.469  0.2456  0.5050  0.5217
23563SOL    HW172302   0.043   8.112   5.532  0.5260 -0.2090  0.6649
23563SOL    HW272303   0.081   8.091   5.387  0.7143 -0.4466  0.7478
23564SOL     OW72304   5.378   6.586   5.037  0.0606  0.6525  0.1941
23564SOL    HW172305   5.459   6.536   5.030 -1.8141 -3.3012  3.1253
23564SOL    HW272306   5.403   6.665   5.086  2.3458  0.2429 -0.2114
23565SOL     OW72307   4.708   7.451   0.063  1.4366 -0.2715  0.1095
23565SOL    HW172308   4.693   7.536   0.021  1.0516 -0.3620  0.0581
23565SOL    HW272309   4.799   7.429   0.041  1.5907  0.2027  0.2606
23566SOL     OW72310   2.054   6.039   5.688 -0.4863 -0.1304  0.7459
23566SOL    HW172311   2.145   6.059   5.709 -0.0917 -2.2665  1.3284
23566SOL    HW272312   2.017   6.006   5.769 -1.8701  0.8814  0.5664
23567SOL     OW72313   2.907   5.297   7.482 -0.5269 -0.4281 -0.4074
23567SOL    HW172314   2.834   5.235   7.487  1.2036 -2.5157  0.4186
23567SOL    HW272315   2.976   5.249   7.436  1.0847  0.6622  0.7857
23568SOL     OW72316   5.511   2.634   8.145 -0.2436 -0.4598 -0.1671
23568SOL    HW172317   5.476   2.666   8.062  0.4195  0.6834 -0.0262
23568SOL    HW272318   5.570   2.703   8.175  0.4165 -1.3629  0.6939
23569SOL     OW72319   3.010   9.670   0.537  0.2052  0.4812 -0.4204
23569SOL    HW172320   3.092   9.716   0.556 -0.1988  1.4652 -1.0295
23569SOL    HW272321   3.007   9.600   0.603  0.2313  2.0406  1.3304
23570SOL     OW72322   0.188   0.772   8.776  0.4803  0.1478  0.1590
23570SOL    HW172323   0.229   0.729   8.851 -0.8237  0.6854  1.2161
23570SOL    HW272324   0.221   0.724   8.700 -0.9849 -2.8844  1.2650
23571SOL     OW72325   5.962   8.293   7.793 -0.0922 -0.1743  0.5281
23571SOL    HW172326   5.925   8.346   7.722 -0.2348 -1.0515 -0.0687
23571SOL    HW272327   5.973   8.354   7.866  1.1880  1.0299 -0.6332
23572SOL     OW72328   4.456   5.771   9.288 -0.1801 -0.1877  0.4144
23572SOL    HW172329   4.393   5.699   9.277 -0.7122  0.4913 -1.3128
23572SOL    HW272330   4.413   5.830   9.351 -0.5517 -0.5096  0.4672
23573SOL     OW72331   7.528   7.139   6.831 -0.1993  0.3914  0.6548
23573SOL    HW172332   7.433   7.139   6.816 -0.4193  0.6723  1.8714
23573SOL    HW272333   7.538   7.086   6.910  0.8394 -1.0043 -0.3767
23574SOL     OW72334   3.401   0.969   1.535 -0.7176 -0.1287 -0.0923
23574SOL    HW172335   3.460   0.894   1.535 -2.3874 -1.5182  0.3684
23574SOL    HW272336   3.403   1.001   1.625 -0.4871 -0.0239 -0.1346
23575SOL     OW72337   1.300   2.098   5.553 -0.5692 -0.3285  0.0025
23575SOL    HW172338   1.363   2.127   5.487 -0.0698  1.2323  1.1193
23575SOL    HW272339   1.315   2.004   5.561 -0.2413 -0.4547 -1.6702
23576SOL     OW72340   5.669   9.713   2.339  0.1046 -0.6023 -0.2919
23576SOL    HW172341   5.734   9.774   2.303 -0.4267 -0.3395 -0.8177
23576SOL    HW272342   5.716   9.667   2.409  0.3920  0.7366  0.4342
23577SOL     OW72343   6.328   3.671   3.131 -0.3524  0.0046  0.6939
23577SOL    HW172344   6.315   3.637   3.219  0.3409 -3.2326 -0.3203
23577SOL    HW272345   6.241   3.671   3.091 -0.5808  0.9661  1.1481
23578SOL     OW72346   5.180   0.085   6.363 -0.0924  0.7650  0.2793
23578SOL    HW172347   5.174   0.052   6.273 -0.2650 -0.4022  0.7037
23578SOL    HW272348   5.274   0.102   6.376  0.3347 -1.5975  0.7187
23579SOL     OW72349   8.142   2.645   8.451 -0.2103  0.2730  0.0785
23579SOL    HW172350   8.155   2.697   8.371  1.6684 -0.2534 -0.0040
23579SOL    HW272351   8.193   2.566   8.437 -1.2002 -0.5910  1.1510
23580SOL     OW72352   3.960   2.218   7.158  0.2518  0.4392 -0.6324
23580SOL    HW172353   3.895   2.271   7.205 -0.6233 -1.3748  0.3028
23580SOL    HW272354   3.925   2.212   7.069 -0.6047 -0.0813 -0.2760
23581SOL     OW72355   0.408   7.957   3.208 -0.5097  0.0628  0.0344
23581SOL    HW172356   0.487   7.969   3.260  0.3063  0.1272 -1.1794
23581SOL    HW272357   0.363   7.884   3.250 -0.3286  0.6734  1.3404
23582SOL     OW72358   9.613   0.841   9.019 -0.1610  0.0639  0.3331
23582SOL    HW172359   9.663   0.837   8.938 -1.5077 -1.5748 -0.4993
23582SOL    HW272360   9.678   0.827   9.089  0.8506  0.3885 -0.5196
23583SOL     OW72361   8.179   6.034   6.618 -0.2257 -0.0331 -0.0725
23583SOL    HW172362   8.172   6.117   6.572 -2.6923  0.6121  1.2803
23583SOL    HW272363   8.272   6.013   6.616  0.2040  1.7721 -2.1082
23584SOL     OW72364   0.052   1.767   4.249  0.0927  0.0336  0.4995
23584SOL    HW172365   0.138   1.754   4.289  0.0634 -0.5309  0.3847
23584SOL    HW272366   0.027   1.856   4.276  1.3302  0.7708 -0.6263
23585SOL     OW72367   7.677   5.441   5.068 -0.6946 -0.3834  0.0637
23585SOL    HW172368   7.586   5.432   5.040 -0.5107 -0.3400 -0.5500
23585SOL    HW272369   7.724   5.372   5.021 -0.1675  0.4928 -0.7298
23586SOL     OW72370   3.747   6.587   0.048  0.1985  0.2733 -0.1199
23586SOL    HW172371   3.754   6.589  -0.048 -1.4189  0.1189 -0.2703
23586SOL    HW272372   3.758   6.678   0.075  1.3186  0.2319 -0.3722
23587SOL     OW72373   2.696   7.624   8.603  0.2773 -0.3678  0.3476
23587SOL    HW172374   2.602   7.642   8.597  0.0917 -1.5656 -1.1625
23587SOL    HW272375   2.702   7.528   8.599  1.5809 -0.2911  0.0463
23588SOL     OW72376   9.308   2.282   0.788 -0.0697  0.2229 -0.0866
23588SOL    HW172377   9.366   2.253   0.718  1.6184  1.0511  0.9077
23588SOL    HW272378   9.344   2.366   0.815 -0.5635 -0.1578  1.8931
23589SOL     OW72379   8.311   4.278   2.087  0.8868  0.0932 -0.0803
23589SOL    HW172380   8.387   4.335   2.087  0.7399  0.3871  2.1999
23589SOL    HW272381   8.244   4.327   2.040  2.1141 -0.2821 -2.3516
23590SOL     OW72382   8.599   9.099   8.297  0.2209 -0.3924 -0.1455
23590SOL    HW172383   8.667   9.165   8.312 -0.1295 -0.1864  0.5766
23590SOL    HW272384   8.627   9.054   8.217  2.0290 -1.3575  0.9534
23591SOL     OW72385   0.527   6.030   7.229 -0.5871 -0.4502  0.2990
23591SOL    HW172386   0.603   5.985   7.265 -1.8317 -1.7208  1.4443
23591SOL    HW272387   0.515   6.107   7.285 -0.5503 -0.6283  0.5527
23592SOL     OW72388   3.274   8.989   5.794  0.0833  0.1741  0.4264
23592SOL    HW172389   3.215   8.941   5.735  0.5892 -0.2609  0.2678
23592SOL    HW272390   3.362   8.967   5.762  0.3193  1.7548 -0.0841
23593SOL     OW72391   8.740   4.133   8.035  0.3902  0.1064 -0.2134
23593SOL    HW172392   8.799   4.202   8.005  1.4477 -2.0927 -3.7113
23593SOL    HW272393   8.657   4.150   7.990 -0.2993  0.6493  1.1939
23594SOL     OW72394   8.764   4.510   8.856 -0.2474 -0.4149 -0.3589
23594SOL    HW172395   8.768   4.480   8.765 -0.7601  0.5860 -0.7247
23594SOL    HW272396   8.714   4.591   8.853 -0.1671 -0.2980  0.8080
23595SOL     OW72397   8.719   3.058   1.446  0.1086  0.0687  0.0504
23595SOL    HW172398   8.734   2.988   1.383 -0.1662  0.8643 -0.9265
23595SOL    HW272399   8.629   3.087   1.430  0.0321  0.2889  0.8079
23596SOL     OW72400   5.583   0.054   7.280  0.5591  0.7145 -0.0947
23596SOL    HW172401   5.525  -0.018   7.256  0.2574  1.1422 -0.6883
23596SOL    HW272402   5.597   0.043   7.374  0.3306  0.0234 -0.1310
23597SOL     OW72403   5.860   6.790   9.077  0.5995  0.9277 -0.4031
23597SOL    HW172404   5.940   6.743   9.055 -0.2043 -0.2370 -0.9209
23597SOL    HW272405   5.875   6.880   9.046  1.3920  0.5321 -1.1891
23598SOL     OW72406   7.551   6.984   6.357  0.2969  0.5619 -0.3395
23598SOL    HW172407   7.622   6.975   6.293 -1.8868 -0.0175 -2.8956
23598SOL    HW272408   7.568   6.915   6.421  1.3703 -0.4129 -1.6023
23599SOL     OW72409   1.225   4.033   3.001  0.0019  0.4840 -0.5008
23599SOL    HW172410   1.133   4.054   2.989 -0.1212 -0.3306 -1.0843
23599SOL    HW272411   1.225   3.944   3.036  0.5863  0.1506 -1.3108
23600SOL     OW72412   1.324   8.540   2.550 -0.2682  0.3195 -0.0508
23600SOL    HW172413   1.393   8.475   2.566 -0.8525 -0.2436  0.2176
23600SOL    HW272414   1.245   8.500   2.585 -0.4174  1.7338  1.3452
23601SOL     OW72415   0.862   2.086   5.569  0.3510  0.0931 -0.3961
23601SOL    HW172416   0.820   2.077   5.654 -0.5925 -1.2994 -0.9719
23601SOL    HW272417   0.853   2.000   5.528 -0.1389  0.9926 -2.3213
23602SOL     OW72418   7.041   1.334   8.333 -0.0353 -0.4983 -0.1809
23602SOL    HW172419   7.133   1.334   8.309 -0.1924 -0.7870 -0.7976
23602SOL    HW272420   6.996   1.371   8.258 -0.6664 -2.6424 -0.9345
23603SOL     OW72421   9.112   0.545   1.596 -0.3497  0.2326 -0.2053
23603SOL    HW172422   9.066   0.499   1.525  0.5854  0.9765 -1.3304
23603SOL    HW272423   9.101   0.638   1.576  2.3385  0.4666 -1.0535
23604SOL     OW72424   5.386   1.284   3.258 -0.0585 -0.7570  0.1564
23604SOL    HW172425   5.453   1.332   3.307  1.1377 -1.3174 -0.8672
23604SOL    HW272426   5.340   1.232   3.324 -1.0355  1.3393  1.2141
23605SOL     OW72427   4.568   5.189   9.396 -0.2540 -0.2569 -0.3702
23605SOL    HW172428   4.590   5.125   9.463 -1.1568  0.8859  1.0712
23605SOL    HW272429   4.642   5.251   9.396  0.2188 -0.7981 -1.1696
23606SOL     OW72430   6.879   9.097   5.981  0.6299 -0.4447  0.6865
23606SOL    HW172431   6.810   9.035   5.957  1.2016 -1.4106  1.4184
23606SOL    HW272432   6.838   9.183   5.974 -1.0470 -1.0296  2.2675
23607SOL     OW72433   9.003   0.562   8.166 -0.1712 -0.2245 -0.3880
23607SOL    HW172434   9.081   0.521   8.129  1.9007  2.6617  0.4550
23607SOL    HW272435   9.003   0.537   8.258  0.5607  0.7956 -0.0901
23608SOL     OW72436   8.836   4.077   9.343 -0.4910  0.1949 -0.6155
23608SOL    HW172437   8.881   4.089   9.427  1.2571 -2.1895 -1.1021
23608SOL    HW272438   8.775   4.005   9.359 -1.4556  0.9177 -0.9583
23609SOL     OW72439   8.552   2.021   9.468  0.1378  0.4816 -0.2969
23609SOL    HW172440   8.647   2.031   9.470  0.3433 -1.1623 -0.0029
23609SOL    HW272441   8.536   1.936   9.510 -1.5276  1.0780  0.3877
23610SOL     OW72442   4.253   5.247   7.726  0.6965 -0.0584 -0.2297
23610SOL    HW172443   4.335   5.198   7.736  0.3906 -0.6916 -0.7921
23610SOL    HW272444   4.194   5.208   7.790  1.2081  1.2697  1.1253
23611SOL     OW72445   8.866   4.644   5.674 -0.8449 -0.2621 -0.2212
23611SOL    HW172446   8.859   4.611   5.584  0.5928  1.8813 -1.2118
23611SOL    HW272447   8.797   4.710   5.681  0.3508  1.0847 -0.5430
23612SOL     OW72448   0.111   3.437   4.822 -0.0940 -0.9854  0.0327
23612SOL    HW172449   0.051   3.457   4.751  1.2297 -0.6423 -1.0353
23612SOL    HW272450   0.088   3.348   4.848 -0.7259 -1.0422 -0.6844
23613SOL     OW72451   8.497   6.768   1.994 -0.5973 -0.1960 -0.4537
23613SOL    HW172452   8.414   6.761   2.040 -0.4334 -0.4862 -0.1965
23613SOL    HW272453   8.562   6.781   2.063 -0.2855 -1.1732 -0.5491
23614SOL     OW72454   9.385   2.144   7.733 -0.1568 -0.1462 -0.1709
23614SOL    HW172455   9.387   2.162   7.827  1.2263 -1.0923  0.0089
23614SOL    HW272456   9.305   2.187   7.702  0.0974  1.3956  1.1729
23615SOL     OW72457   3.833   3.858   6.104  0.6331  0.0362  0.2930
23615SOL    HW172458   3.817   3.887   6.014  0.6510  1.1397  0.6277
23615SOL    HW272459   3.876   3.932   6.146 -1.7573  0.6366  1.9432
23616SOL     OW72460   5.790   5.044   4.309  0.1235  0.2739  0.0368
23616SOL    HW172461   5.874   5.071   4.271  0.1493  1.5271  0.9255
23616SOL    HW272462   5.725   5.073   4.245  0.2474  1.2264  0.3230
23617SOL     OW72463   7.854   9.708   2.219  0.2893  0.1892 -0.2355
23617SOL    HW172464   7.895   9.779   2.171  0.3937  0.5513  0.3840
23617SOL    HW272465   7.880   9.722   2.310 -0.0334 -0.3974 -0.0492
23618SOL     OW72466   6.114   5.728   4.230  0.4715 -0.1759  0.3821
23618SOL    HW172467   6.166   5.761   4.157 -0.8431  0.2253 -0.4083
23618SOL    HW272468   6.081   5.643   4.199 -0.7454  0.3577  0.1658
23619SOL     OW72469   9.557   6.973   3.543  0.4395  0.0288  0.4529
23619SOL    HW172470   9.547   6.909   3.473  1.6623 -1.3518  1.4656
23619SOL    HW272471   9.498   6.943   3.612  0.3058  0.5583  0.5754
23620SOL     OW72472   4.167   6.718   7.831 -0.3146 -0.0407 -0.1158
23620SOL    HW172473   4.188   6.651   7.896 -0.6027  2.2363  2.5201
23620SOL    HW272474   4.221   6.696   7.755  0.4113 -2.5910  1.0435
23621SOL     OW72475   7.849   4.849   5.205 -0.1410  0.2979 -0.1620
23621SOL    HW172476   7.860   4.763   5.244  0.3517  0.8900  1.0614
23621SOL    HW272477   7.936   4.872   5.171  0.1878  1.0139  1.0756
23622SOL     OW72478   7.667   6.591   4.768 -0.3596 -0.4357 -0.2291
23622SOL    HW172479   7.581   6.624   4.742 -0.0068  1.2992  0.6601
23622SOL    HW272480   7.728   6.635   4.709 -0.0015 -0.9563 -0.2526
23623SOL     OW72481   7.853   6.829   9.513 -0.4703 -0.4381 -0.3241
23623SOL    HW172482   7.758   6.841   9.520 -0.3754 -0.5499  2.1639
23623SOL    HW272483   7.869   6.745   9.556  0.7152 -0.7588 -1.3394
23624SOL     OW72484   6.705   6.353   1.963 -0.0751 -0.2908  0.1428
23624SOL    HW172485   6.684   6.442   1.992 -1.1227 -0.7195  0.7338
23624SOL    HW272486   6.790   6.362   1.919 -0.4020  1.0950 -0.2687
23625SOL     OW72487   0.521   3.300   3.388  0.2994  0.3388 -0.0809
23625SOL    HW172488   0.496   3.293   3.480  0.6488  0.7039  0.0469
23625SOL    HW272489   0.442   3.275   3.339  0.0858  0.2335  0.3170
23626SOL     OW72490   4.429   0.136   3.156  0.1017  0.0020 -0.3803
23626SOL    HW172491   4.509   0.124   3.105 -0.7440  1.9712 -2.3568
23626SOL    HW272492   4.438   0.223   3.195 -1.2240  0.4707 -1.0405
23627SOL     OW72493   5.534   2.900   6.191 -0.1941 -0.9145  0.4243
23627SOL    HW172494   5.582   2.827   6.228 -0.1829 -1.2212 -0.1722
23627SOL    HW272495   5.443   2.884   6.216 -0.5488 -2.3387 -1.4906
23628SOL     OW72496   2.614   5.456   7.953 -0.0028 -0.4021 -0.4605
23628SOL    HW172497   2.537   5.473   7.899 -1.1077  0.0513  1.1729
23628SOL    HW272498   2.687   5.493   7.903 -0.9576 -0.1034 -1.6750
23629SOL     OW72499   0.927   2.048   2.162  0.0911  0.3763  0.6193
23629SOL    HW172500   0.997   2.016   2.105  1.1192  0.4252  1.7886
23629SOL    HW272501   0.874   2.105   2.107 -0.4530 -1.5527 -0.9233
23630SOL     OW72502   5.726   7.705   7.381 -0.4057 -0.2432  0.0185
23630SOL    HW172503   5.746   7.690   7.289 -0.0543 -1.9040  0.3302
23630SOL    HW272504   5.792   7.767   7.411  0.7706 -1.2886 -0.3588
23631SOL     OW72505   7.284   5.838   6.959  0.2651 -0.3028 -0.5353
23631SOL    HW172506   7.351   5.867   6.898  0.4286  1.0563  0.2495
23631SOL    HW272507   7.220   5.792   6.905  1.7364 -1.5040 -1.3066
23632SOL     OW72508   3.331   5.137   3.725 -0.2700  0.0498  0.1733
23632SOL    HW172509   3.267   5.157   3.657  1.7667  1.0728 -1.5619
23632SOL    HW272510   3.324   5.211   3.786  0.8926  1.4686 -1.3324
23633SOL     OW72511   9.143   4.044   7.205 -0.8417  0.0675 -0.7053
23633SOL    HW172512   9.167   4.047   7.112  1.7874  0.8858 -0.0750
23633SOL    HW272513   9.168   3.957   7.234 -1.4815 -0.1209 -0.7112
23634SOL     OW72514   7.334   8.636   4.991  0.1901 -0.1499 -0.5057
23634SOL    HW172515   7.358   8.633   4.898 -1.2035  0.9317 -0.9576
23634SOL    HW272516   7.322   8.545   5.016  0.6512 -0.4604 -1.3750
23635SOL     OW72517   3.475   8.538   4.733  0.0560  0.0584  0.2684
23635SOL    HW172518   3.411   8.584   4.787 -1.3283 -0.0446 -1.2040
23635SOL    HW272519   3.516   8.475   4.792 -2.0130 -0.6442  1.0530
23636SOL     OW72520   5.913   0.443   1.052 -0.2862 -0.0353 -0.4143
23636SOL    HW172521   5.835   0.498   1.059 -0.8194 -0.6402 -1.3982
23636SOL    HW272522   5.886   0.358   1.088  0.7545  0.5085  1.8159
23637SOL     OW72523   3.950   3.634   2.315 -0.7137  0.3141  0.0454
23637SOL    HW172524   3.959   3.539   2.311 -1.1255  0.2211  1.1983
23637SOL    HW272525   3.861   3.649   2.347 -0.0480  1.0309  1.6880
23638SOL     OW72526   2.558   3.659   7.633 -0.1507  0.6401  0.4774
23638SOL    HW172527   2.532   3.697   7.717  0.3463 -0.6576  1.2482
23638SOL    HW272528   2.653   3.657   7.635 -0.1078  1.0769 -0.3591
23639SOL     OW72529   0.530   1.361   3.986 -0.4194  0.1336 -0.2973
23639SOL    HW172530   0.438   1.390   3.990 -0.5316 -0.2206 -0.3416
23639SOL    HW272531   0.539   1.320   3.900 -0.0634  0.6872 -0.5277
23640SOL     OW72532   8.509   2.407   9.679 -0.1327 -0.1385  0.1795
23640SOL    HW172533   8.575   2.350   9.719  0.4029  0.5478  0.2825
23640SOL    HW272534   8.532   2.410   9.587  0.8737  1.2749  0.4545
23641SOL     OW72535   8.716   7.350   4.535 -0.0593  0.2388 -0.1039
23641SOL    HW172536   8.696   7.400   4.614  0.8188 -0.8800  0.8758
23641SOL    HW272537   8.799   7.306   4.555  1.3574  1.5968 -2.4729
23642SOL     OW72538   7.668   6.038   4.996 -0.0240 -0.1159 -0.0998
23642SOL    HW172539   7.607   5.964   4.993  0.3672 -0.4447 -0.0623
23642SOL    HW272540   7.637   6.091   5.070 -0.7220  0.1277 -0.5629
23643SOL     OW72541   0.041   9.026   5.583  0.1564  0.4518 -0.0497
23643SOL    HW172542   0.111   9.021   5.647 -1.2994 -0.5069  1.5576
23643SOL    HW272543  -0.037   9.048   5.634 -0.8394  0.9329 -1.6849
23644SOL     OW72544   3.033   7.579   8.846  0.3359 -0.2909  0.2591
23644SOL    HW172545   3.095   7.622   8.905  0.5113  0.1615 -0.2498
23644SOL    HW272546   2.997   7.650   8.793  0.3717 -0.7271 -0.3531
23645SOL     OW72547   3.996   6.215   6.103  0.1556 -0.1451  0.5430
23645SOL    HW172548   4.019   6.230   6.195 -0.3451 -0.4500  0.7258
23645SOL    HW272549   3.901   6.229   6.100  0.2502  0.4212 -0.0459
23646SOL     OW72550   2.854   4.409   9.739 -0.2453  0.3866 -0.4380
23646SOL    HW172551   2.837   4.459   9.659 -1.2291  0.1036 -0.4262
23646SOL    HW272552   2.767   4.382   9.769  0.0266  1.1411  1.1529
23647SOL     OW72553   9.409   4.525   8.535 -0.4471 -0.0612 -0.6651
23647SOL    HW172554   9.461   4.521   8.615  0.8679  1.5088 -1.3887
23647SOL    HW272555   9.342   4.591   8.552 -0.9117 -0.5773 -0.4641
23648SOL     OW72556   2.348   8.315   2.253  0.4195 -0.5836 -0.0814
23648SOL    HW172557   2.438   8.283   2.265  1.1505  1.8565  1.8721
23648SOL    HW272558   2.359   8.402   2.216 -1.0409  0.3170  1.4795
23649SOL     OW72559   5.437   3.196   9.726 -0.1073 -0.1415 -0.1158
23649SOL    HW172560   5.420   3.173   9.635  1.3645  0.3060 -0.5167
23649SOL    HW272561   5.379   3.271   9.743 -0.5427 -0.3622 -0.5977
23650SOL     OW72562   7.628   2.934   3.870 -0.4298  0.6397  0.1191
23650SOL    HW172563   7.651   2.960   3.781  1.7592  0.5999  0.6112
23650SOL    HW272564   7.551   2.878   3.860 -1.4348  2.2366 -1.5251
23651SOL     OW72565   1.047   8.108   6.577 -0.1590 -0.3053  0.8119
23651SOL    HW172566   0.952   8.101   6.585 -0.2276 -0.8733 -0.3026
23651SOL    HW272567   1.071   8.036   6.520  1.0541 -0.6812  1.7524
23652SOL     OW72568   8.291   0.778   8.205 -0.0660 -0.1822  0.5266
23652SOL    HW172569   8.267   0.777   8.112 -0.4781  0.0877  0.6309
23652SOL    HW272570   8.210   0.762   8.252  0.2344 -0.8343  0.8295
23653SOL     OW72571   7.260   8.664   2.393  0.4042 -0.1469  0.6841
23653SOL    HW172572   7.184   8.607   2.403  0.5891 -0.7132 -0.8491
23653SOL    HW272573   7.229   8.751   2.419 -1.5523  0.1488 -2.1826
23654SOL     OW72574   8.633   2.651   9.572  0.1143 -0.0696  0.1148
23654SOL    HW172575   8.644   2.579   9.510 -0.1261 -0.3533  0.3967
23654SOL    HW272576   8.564   2.705   9.533 -0.2803 -0.4333  0.2962
23655SOL     OW72577   0.999   2.851   1.871 -0.0127  0.5915 -0.1750
23655SOL    HW172578   0.964   2.905   1.941  0.3111 -1.4562  1.6782
23655SOL    HW272579   1.039   2.776   1.916 -1.4588 -1.8042 -2.5685
23656SOL     OW72580   4.205   7.943   9.105  0.0118 -0.4482 -0.6646
23656SOL    HW172581   4.283   7.978   9.147  0.3240  0.0038 -1.6007
23656SOL    HW272582   4.223   7.948   9.011 -1.8690  1.4010 -1.0019
23657SOL     OW72583   0.393   6.537   5.987  0.4535  0.4668  0.1060
23657SOL    HW172584   0.482   6.543   6.022 -0.1131  1.3702  1.4594
23657SOL    HW272585   0.406   6.518   5.894  2.1168  2.9903 -0.2847
23658SOL     OW72586   8.928   4.517   6.026 -0.1440  0.2569  0.0115
23658SOL    HW172587   8.857   4.457   6.001  0.5359 -0.7437  0.3980
23658SOL    HW272588   8.903   4.601   5.988 -1.0453 -0.3094 -0.6959
23659SOL     OW72589   0.477   5.350   6.357  0.1135 -0.1931 -0.2341
23659SOL    HW172590   0.404   5.384   6.304  1.6243  0.9867 -1.6370
23659SOL    HW272591   0.483   5.411   6.430 -0.0514 -0.0665 -0.3229
23660SOL     OW72592   0.139   4.994   1.287  0.0167 -0.6210 -0.0562
23660SOL    HW172593   0.051   5.019   1.314  0.1729  1.6481 -1.3719
23660SOL    HW272594   0.194   5.067   1.314  1.1627 -1.0991 -1.0044
23661SOL     OW72595   2.512   3.194   2.794  0.0368  0.0440 -0.3618
23661SOL    HW172596   2.568   3.215   2.868 -0.7056 -2.5308  1.0497
23661SOL    HW272597   2.424   3.221   2.822  0.2532  2.9428 -2.0784
23662SOL     OW72598   3.428   8.195   6.736 -0.4680 -0.4100  0.4302
23662SOL    HW172599   3.467   8.252   6.802  0.9699 -1.6007  0.6552
23662SOL    HW272600   3.462   8.108   6.755 -0.8975 -0.9842 -1.2182
23663SOL     OW72601   6.104   7.701   6.974 -0.3182 -0.7613 -0.0455
23663SOL    HW172602   6.116   7.619   7.021 -1.6905  0.2267  2.1949
23663SOL    HW272603   6.122   7.769   7.040 -0.2798  0.7401 -1.5342
23664SOL     OW72604   7.120   2.891   9.017  0.1245 -0.3955  0.3741
23664SOL    HW172605   7.112   2.963   8.954 -0.3643  0.2074  1.1136
23664SOL    HW272606   7.161   2.820   8.967  2.5411  1.0627  0.1632
23665SOL     OW72607   4.003   1.711   3.125  0.9555 -0.1433  0.5734
23665SOL    HW172608   4.092   1.728   3.157  0.4782  0.4947  1.5877
23665SOL    HW272609   3.952   1.695   3.204  0.2426 -0.9392 -0.0319
23666SOL     OW72610   4.063   6.052   6.733 -0.8577 -0.4641 -0.5173
23666SOL    HW172611   4.075   5.957   6.745  1.1402 -0.1799  0.0726
23666SOL    HW272612   4.068   6.065   6.639 -1.1486 -0.9491 -0.6017
23667SOL     OW72613   1.987   1.669   4.612 -0.4939 -0.0964 -0.0658
23667SOL    HW172614   2.015   1.753   4.647 -0.0333 -0.7084  1.1083
23667SOL    HW272615   1.901   1.686   4.574 -0.0405  1.0721 -0.6247
23668SOL     OW72616   2.124   1.293   4.524  0.1608  0.3493  0.1020
23668SOL    HW172617   2.033   1.322   4.528 -0.2530 -1.0736  1.9067
23668SOL    HW272618   2.121   1.211   4.474  0.5568  0.5899 -0.3303
23669SOL     OW72619   6.987   2.165   2.744 -0.1830 -0.4742  0.5893
23669SOL    HW172620   6.933   2.236   2.780  2.2083  1.7370  0.1042
23669SOL    HW272621   6.964   2.162   2.651 -1.7693 -1.8254  0.9845
23670SOL     OW72622   4.634   6.700   2.578  0.4186 -0.0333  0.3679
23670SOL    HW172623   4.626   6.655   2.662  0.1407  0.3485  0.5453
23670SOL    HW272624   4.557   6.672   2.529 -1.5073  2.7003  1.6355
23671SOL     OW72625   1.092   1.794   5.857 -0.3661 -0.1790 -0.5937
23671SOL    HW172626   1.036   1.808   5.933 -0.3316  2.0761 -0.9324
23671SOL    HW272627   1.175   1.765   5.894 -1.0013 -1.2534  0.0531
23672SOL     OW72628   0.487   9.808   1.899 -0.7677  1.3338  0.3079
23672SOL    HW172629   0.521   9.852   1.977  0.9121 -1.7887  1.5207
23672SOL    HW272630   0.394   9.832   1.896 -0.8166  1.8046  3.1015
23673SOL     OW72631   9.228   7.429   5.611 -0.3155 -0.9475 -0.7099
23673SOL    HW172632   9.256   7.347   5.652 -0.9511 -0.9751 -0.3138
23673SOL    HW272633   9.256   7.497   5.672  0.8370 -0.8010 -1.3710
23674SOL     OW72634   3.069   6.398   3.113 -0.3451  0.2732  0.0625
23674SOL    HW172635   3.112   6.473   3.155 -1.2837  0.2034  1.2019
23674SOL    HW272636   2.977   6.423   3.108 -0.3671 -0.0217 -1.3654
23675SOL     OW72637   9.309   2.341   6.380 -0.0440 -0.1793 -0.1205
23675SOL    HW172638   9.359   2.355   6.461  1.0472 -0.4697 -0.7237
23675SOL    HW272639   9.233   2.290   6.407 -0.8837  1.5892  1.0847
23676SOL     OW72640   1.203   0.510   6.148  0.1890  0.0040  0.5714
23676SOL    HW172641   1.250   0.430   6.124  1.2729  0.5541  0.8024
23676SOL    HW272642   1.209   0.565   6.070 -0.5107 -0.1137  0.4295
23677SOL     OW72643   5.739   2.655   7.886  0.4358  0.5782  0.1180
23677SOL    HW172644   5.817   2.652   7.941  1.0548  1.1114 -0.6926
23677SOL    HW272645   5.738   2.570   7.841  1.4213  1.0964 -0.9753
23678SOL     OW72646   4.978   0.798   6.156  0.0935 -0.2080 -0.0375
23678SOL    HW172647   4.937   0.843   6.230  0.3656 -1.6088  1.0087
23678SOL    HW272648   4.934   0.833   6.079  0.9931  2.5907  0.6146
23679SOL     OW72649   4.390   1.023   7.728  0.1146 -0.1107  0.1308
23679SOL    HW172650   4.308   1.029   7.680 -0.1178 -0.8441  0.4123
23679SOL    HW272651   4.457   1.015   7.661 -0.2282 -1.3576 -0.0950
23680SOL     OW72652   6.116   4.305   6.470 -0.4369  0.1104 -1.0254
23680SOL    HW172653   6.035   4.322   6.518 -0.6127 -1.1738 -0.8296
23680SOL    HW272654   6.160   4.390   6.465 -0.3947  0.2875  1.4545
23681SOL     OW72655   8.834   0.133   0.463  0.3118 -0.1894  0.3931
23681SOL    HW172656   8.911   0.090   0.502  0.8574 -0.8269 -1.3016
23681SOL    HW272657   8.868   0.217   0.431  0.0895 -0.0921  0.4136
23682SOL     OW72658   7.454   5.960   6.776  0.0259  0.4867 -0.3049
23682SOL    HW172659   7.450   5.922   6.688  0.2481 -2.9154  1.0133
23682SOL    HW272660   7.547   5.978   6.791 -0.0129  1.0716 -0.7455
23683SOL     OW72661   6.319   2.184   4.270  0.4084 -0.0894 -0.3984
23683SOL    HW172662   6.265   2.262   4.283  1.1143  0.2242  0.8788
23683SOL    HW272663   6.404   2.218   4.244  0.7097 -0.4315  0.1306
23684SOL     OW72664   6.202   8.340   2.521  0.6232  0.3205 -0.3570
23684SOL    HW172665   6.240   8.427   2.510 -0.7638  1.1823  1.0865
23684SOL    HW272666   6.111   8.351   2.492 -0.9496  0.7144  3.8418
23685SOL     OW72667   5.562   8.615   7.262 -0.1805 -0.0921  0.3788
23685SOL    HW172668   5.552   8.584   7.352  0.1557  2.2493  1.2899
23685SOL    HW272669   5.472   8.631   7.233 -0.2378  0.1281  0.6694
23686SOL     OW72670   3.064   6.443   8.911  0.0647 -0.0144 -0.4043
23686SOL    HW172671   3.032   6.440   9.001  1.9925  0.3103  0.3285
23686SOL    HW272672   2.991   6.478   8.860 -0.7481  0.6372  1.1687
23687SOL     OW72673   1.693   3.574   7.447 -0.3244  0.0921  0.8404
23687SOL    HW172674   1.605   3.601   7.419  0.4906  2.4489  0.3883
23687SOL    HW272675   1.695   3.595   7.540 -1.2650 -3.0032  1.6942
23688SOL     OW72676   8.342   2.377   6.175 -0.2256  0.1696  0.1945
23688SOL    HW172677   8.378   2.425   6.100 -0.1687 -0.3605 -0.1201
23688SOL    HW272678   8.366   2.286   6.159 -2.5167 -0.3604 -0.4958
23689SOL     OW72679   3.664   5.726   1.978 -0.0736  0.3148 -0.2153
23689SOL    HW172680   3.606   5.752   1.907  0.6057 -0.8103 -1.2304
23689SOL    HW272681   3.622   5.758   2.058 -2.3799 -0.9540 -0.8527
23690SOL     OW72682   7.276   2.715   1.545 -0.1914  0.2388 -0.5365
23690SOL    HW172683   7.342   2.732   1.612 -0.5875  0.0012 -0.0770
23690SOL    HW272684   7.312   2.644   1.493  0.3038  0.7036 -0.8390
23691SOL     OW72685   8.800   2.851   9.691  0.0164  0.1204  0.0314
23691SOL    HW172686   8.727   2.913   9.693 -0.0120  0.1956 -1.7941
23691SOL    HW272687   8.764   2.772   9.650  0.6643 -0.2355  0.1373
23692SOL     OW72688   8.122   6.298   6.585  0.4522 -0.0823 -0.7067
23692SOL    HW172689   8.148   6.376   6.535 -0.1731 -0.3673 -1.4956
23692SOL    HW272690   8.043   6.325   6.632  1.3848  0.3820  0.6705
23693SOL     OW72691   7.087   3.679   1.240  0.1541  0.0029  0.6478
23693SOL    HW172692   6.996   3.708   1.228 -0.2739 -0.6464  2.1634
23693SOL    HW272693   7.139   3.758   1.223 -0.7114  0.5323  0.3510
23694SOL     OW72694   6.852   3.007   4.728  0.6427  0.2801 -0.2591
23694SOL    HW172695   6.846   3.101   4.712  1.3273  0.5332  0.8541
23694SOL    HW272696   6.899   2.973   4.652  0.0272  0.7629 -0.8705
23695SOL     OW72697   1.146   1.565   4.855  0.2332  0.1394  0.2821
23695SOL    HW172698   1.187   1.484   4.825 -0.7363 -1.3825  2.7256
23695SOL    HW272699   1.104   1.601   4.777  0.1486 -2.0810 -0.7767
23696SOL     OW72700   6.639   3.147   4.029  0.3022 -0.2978 -0.0339
23696SOL    HW172701   6.551   3.144   4.066  0.9709 -0.9631  1.6390
23696SOL    HW272702   6.663   3.240   4.033 -0.0076 -0.2296  0.3061
23697SOL     OW72703   4.984   4.362   5.744 -0.0678 -0.4814  0.3334
23697SOL    HW172704   5.048   4.366   5.673 -1.5930 -2.0793 -1.2261
23697SOL    HW272705   4.900   4.349   5.700 -1.3887  0.6531  2.3480
23698SOL     OW72706   6.834   3.040   0.356 -0.0879 -0.3839 -0.3416
23698SOL    HW172707   6.929   3.034   0.353 -0.0994 -3.0301  0.9400
23698SOL    HW272708   6.815   3.086   0.438  0.1228 -1.2106  0.1859
23699SOL     OW72709   8.734   2.902   0.128  0.0368 -0.6471 -0.2966
23699SOL    HW172710   8.812   2.951   0.155 -0.2124 -0.4594  0.0687
23699SOL    HW272711   8.762   2.858   0.047  0.5283 -0.5909 -0.1628
23700SOL     OW72712   5.489   0.895   3.734  0.0714  0.7541  0.0737
23700SOL    HW172713   5.512   0.875   3.643 -0.6563 -2.1809  0.4351
23700SOL    HW272714   5.569   0.878   3.784  0.3512  1.9716  0.0916
23701SOL     OW72715   2.673   6.013   9.140  0.3559  0.2440  0.2866
23701SOL    HW172716   2.665   6.096   9.094  1.0909  1.0865  1.6117
23701SOL    HW272717   2.655   5.947   9.073 -0.2434  1.4538 -0.7953
23702SOL     OW72718   1.444   8.475   5.165 -0.8481  0.3495  0.8048
23702SOL    HW172719   1.464   8.512   5.079  1.1072 -0.5826  0.8069
23702SOL    HW272720   1.398   8.393   5.146  0.5908 -0.4290  0.5807
23703SOL     OW72721   3.226   0.284   3.463 -1.0609 -0.0528 -0.6276
23703SOL    HW172722   3.286   0.335   3.408 -2.0579  0.1994 -1.5292
23703SOL    HW272723   3.150   0.342   3.475  0.2789  1.1408  3.5917
23704SOL     OW72724   3.272   7.580   9.562 -0.3266  0.0677 -0.2090
23704SOL    HW172725   3.308   7.496   9.532  0.1219  0.0537  0.3584
23704SOL    HW272726   3.340   7.617   9.618 -1.8895 -0.7690  2.3854
23705SOL     OW72727   1.947   4.610   2.210  0.2426 -0.4239  0.6704
23705SOL    HW172728   1.984   4.605   2.122 -2.5530 -1.3473 -0.5689
23705SOL    HW272729   1.960   4.523   2.247 -0.4788 -0.6867  0.3153
23706SOL     OW72730   3.048   8.908   6.257  0.4506  0.1920 -0.5944
23706SOL    HW172731   3.090   8.903   6.171 -1.6376 -4.4195 -1.6093
23706SOL    HW272732   3.105   8.857   6.315  0.7387  1.5071  0.3419
23707SOL     OW72733   9.432   2.087   4.538  0.0248  0.0881 -0.2242
23707SOL    HW172734   9.387   2.163   4.502 -0.0138  0.9835  1.6211
23707SOL    HW272735   9.507   2.123   4.585  0.1633 -1.0222  0.4482
23708SOL     OW72736   2.567   8.263   7.299 -0.0682  0.2526 -0.0410
23708SOL    HW172737   2.482   8.293   7.331 -0.0501 -0.3496  0.5817
23708SOL    HW272738   2.554   8.171   7.277 -0.3615  0.8640 -2.8117
23709SOL     OW72739   9.250   2.095   0.332 -0.0898  0.0611  0.0874
23709SOL    HW172740   9.169   2.093   0.280  0.5130 -0.7238 -0.8360
23709SOL    HW272741   9.319   2.113   0.269  0.4563  0.9053  0.9000
23710SOL     OW72742   2.516   0.704   4.280  0.7339  0.0267  0.1760
23710SOL    HW172743   2.550   0.776   4.227  1.7911 -0.8500 -0.3731
23710SOL    HW272744   2.553   0.626   4.241 -0.1061 -0.8061  0.9858
23711SOL     OW72745   8.222   2.800   6.944 -0.6049 -0.6951  0.1808
23711SOL    HW172746   8.142   2.771   6.988 -0.7078  2.3549  2.3517
23711SOL    HW272747   8.191   2.855   6.872 -0.5775  1.0588  1.4429
23712SOL     OW72748   5.315   3.447   4.829 -0.0758  0.0052 -0.1382
23712SOL    HW172749   5.234   3.481   4.792 -0.0949  0.9451  0.7069
23712SOL    HW272750   5.300   3.445   4.924  0.3563 -1.2750 -0.0826
23713SOL     OW72751   2.416   1.244   7.934 -0.0937 -0.7276 -0.2662
23713SOL    HW172752   2.393   1.161   7.976 -0.4659  0.2342  1.5229
23713SOL    HW272753   2.503   1.265   7.968 -1.3639  1.2524  2.0781
23714SOL     OW72754   1.014   6.246   0.362 -0.2153  0.1735 -0.4309
23714SOL    HW172755   1.049   6.265   0.449  0.0422 -0.7393 -0.3271
23714SOL    HW272756   0.931   6.293   0.359 -0.3899 -0.0710  0.4330
23715SOL     OW72757   9.120   5.789   2.278  0.0514  0.6629  0.5332
23715SOL    HW172758   9.059   5.743   2.220 -0.3940  1.7740  0.1065
23715SOL    HW272759   9.092   5.765   2.366  1.1299 -1.5591  0.3439
23716SOL     OW72760   4.919   4.389   2.411 -0.0290 -0.1754 -0.1329
23716SOL    HW172761   4.941   4.327   2.480 -0.2701 -0.0914  0.0194
23716SOL    HW272762   4.864   4.339   2.350 -1.9160  0.4034  1.0004
23717SOL     OW72763   4.185   0.759   6.588  0.1846  0.1536 -0.1876
23717SOL    HW172764   4.232   0.839   6.562  1.9158 -0.3714  1.1551
23717SOL    HW272765   4.105   0.760   6.535  0.9915  1.8760 -1.4724
23718SOL     OW72766   4.484   7.233   2.267  0.2366 -0.0152 -0.2540
23718SOL    HW172767   4.438   7.178   2.204  0.3464  0.6256 -0.9043
23718SOL    HW272768   4.453   7.322   2.249  0.8248  0.2674  0.1031
23719SOL     OW72769   3.551   1.256   8.716  0.1328  0.0298  0.1921
23719SOL    HW172770   3.520   1.340   8.681  0.1500  0.2532  0.6975
23719SOL    HW272771   3.589   1.279   8.801 -1.8659 -0.7723  1.3694
23720SOL     OW72772   5.720   8.062   5.287  0.3599  0.6843 -0.1042
23720SOL    HW172773   5.632   8.042   5.319  0.9916 -0.8330  0.8398
23720SOL    HW272774   5.773   7.988   5.317  1.6533  0.7606 -2.0340
23721SOL     OW72775   8.587   9.425   5.057 -0.1471 -0.2997  0.3553
23721SOL    HW172776   8.668   9.476   5.045 -0.2396 -0.4020 -0.8915
23721SOL    HW272777   8.617   9.334   5.056 -0.4102 -0.4358 -2.0095
23722SOL     OW72778   2.230   5.945   0.806 -0.1698  0.2710 -0.2604
23722SOL    HW172779   2.308   5.944   0.863  1.0680 -0.3195 -1.8969
23722SOL    HW272780   2.259   5.903   0.725 -1.7903  1.3735 -1.4697
23723SOL     OW72781   6.631   3.194   3.055 -0.7020 -0.4749 -0.5556
23723SOL    HW172782   6.577   3.197   2.976  0.5637 -0.2958 -1.4317
23723SOL    HW272783   6.721   3.205   3.024 -0.3034  1.4352  1.0653
23724SOL     OW72784   9.003   0.936   3.171 -0.1459  0.4353  0.4156
23724SOL    HW172785   9.026   0.938   3.078 -2.0363 -1.5895 -0.1749
23724SOL    HW272786   8.935   1.003   3.180 -1.4314 -0.7676 -0.1423
23725SOL     OW72787   8.772   2.959   3.767 -0.1645 -0.5204  0.3499
23725SOL    HW172788   8.703   3.012   3.808 -0.2084  0.0938 -0.4971
23725SOL    HW272789   8.842   2.958   3.832  0.2519  1.4684 -0.0000
23726SOL     OW72790   6.069   5.531   6.185 -0.2998  0.7741  0.7470
23726SOL    HW172791   6.113   5.507   6.266 -0.6842 -0.8359  0.5256
23726SOL    HW272792   5.980   5.555   6.211 -0.5695 -0.2052  0.7891
23727SOL     OW72793   3.179   4.650   3.583 -0.5890  0.1638  0.2536
23727SOL    HW172794   3.229   4.668   3.663  0.1426  2.9309 -0.6997
23727SOL    HW272795   3.218   4.570   3.548 -0.3841 -0.6469  2.2055
23728SOL     OW72796   1.202   0.429   0.425  0.1763  0.0935 -0.8059
23728SOL    HW172797   1.121   0.380   0.407  0.3325  0.0136 -1.3188
23728SOL    HW272798   1.272   0.370   0.396  0.4123  0.2279 -0.5125
23729SOL     OW72799   4.235   8.185   1.413  0.0096 -0.2007 -0.2951
23729SOL    HW172800   4.179   8.230   1.476  1.4172  0.2200  0.6930
23729SOL    HW272801   4.307   8.245   1.397  1.1694 -1.4773 -0.0878
23730SOL     OW72802   4.317   3.155   0.537  0.2068 -0.5060  0.6682
23730SOL    HW172803   4.323   3.119   0.625  0.5280 -1.0367  0.4416
23730SOL    HW272804   4.286   3.081   0.484  2.3557 -0.9609 -0.0848
23731SOL     OW72805   8.816   2.150   1.752 -0.8887 -0.0375  0.0801
23731SOL    HW172806   8.824   2.162   1.658 -1.1624  1.7174  0.2468
23731SOL    HW272807   8.788   2.059   1.762  0.5922 -0.7185 -1.4257
23732SOL     OW72808   8.180   3.762   1.796 -0.0257 -0.2095 -0.4534
23732SOL    HW172809   8.166   3.825   1.725  0.8743 -0.3427 -0.7535
23732SOL    HW272810   8.123   3.793   1.866  1.7663  2.0859  0.1235
23733SOL     OW72811   8.624   2.435   5.671 -0.1861  0.1705 -0.3165
23733SOL    HW172812   8.715   2.461   5.661  0.0579 -0.1581  0.9562
23733SOL    HW272813   8.627   2.351   5.716 -1.1375  0.4938  0.3918
23734SOL     OW72814   1.418   2.624   6.932 -0.0627  0.0264  0.5945
23734SOL    HW172815   1.349   2.654   6.873 -1.0904  1.0218  2.2326
23734SOL    HW272816   1.402   2.531   6.944 -0.9263  0.1769  0.6729
23735SOL     OW72817   0.861   0.082   4.507 -0.2134 -0.9025 -0.3175
23735SOL    HW172818   0.934   0.120   4.555 -0.5011 -0.7944  0.0360
23735SOL    HW272819   0.823   0.156   4.459 -0.3501 -0.8800 -0.1726
23736SOL     OW72820   6.403   7.593   8.065 -0.2277 -0.2672 -0.1359
23736SOL    HW172821   6.427   7.539   8.140  0.0713 -0.2013 -0.1815
23736SOL    HW272822   6.442   7.678   8.084  1.6175 -0.7910 -1.3081
23737SOL     OW72823   7.246   4.148   2.201  0.2237 -0.4946 -0.1697
23737SOL    HW172824   7.251   4.243   2.193  0.3291 -0.4686  0.1774
23737SOL    HW272825   7.226   4.133   2.294  0.5265 -0.8183 -0.1546
23738SOL     OW72826   9.161   2.266   9.492 -0.1650 -0.3361 -0.1823
23738SOL    HW172827   9.213   2.189   9.517  5.2979  2.3373 -1.7495
23738SOL    HW272828   9.182   2.332   9.558 -0.2782  1.3906 -1.7806
23739SOL     OW72829   0.004   4.350   8.654  0.2885 -0.2517  0.8146
23739SOL    HW172830   0.068   4.410   8.617  1.7068 -1.2261  1.5691
23739SOL    HW272831  -0.068   4.348   8.591  0.7625  1.2707  0.1941
23740SOL     OW72832   2.951   5.921   9.251 -0.4586 -0.2360  0.4935
23740SOL    HW172833   2.860   5.949   9.238 -0.4546 -0.3150  0.2896
23740SOL    HW272834   2.982   5.974   9.324 -0.6581 -0.1816  0.5387
23741SOL     OW72835   3.127   5.477   0.666  0.8247  0.3642 -0.0237
23741SOL    HW172836   3.108   5.551   0.609  0.2137 -0.0601 -0.3854
23741SOL    HW272837   3.142   5.516   0.752  2.5350  1.0832 -0.6087
23742SOL     OW72838   2.127   8.062   8.253 -0.3246 -0.0398  0.0071
23742SOL    HW172839   2.044   8.028   8.219 -1.3082 -0.3125  2.5060
23742SOL    HW272840   2.192   8.000   8.221 -1.3873 -1.1705 -0.0688
23743SOL     OW72841   9.305   1.026   0.653  0.2588 -0.6955  0.3045
23743SOL    HW172842   9.274   0.963   0.588 -2.5519  0.4644  0.3713
23743SOL    HW272843   9.251   1.104   0.637  0.3975  0.0782  3.1673
23744SOL     OW72844   3.032   4.476   8.846  0.0394  0.4089  0.4040
23744SOL    HW172845   3.089   4.452   8.773 -1.9573  0.5393 -1.2682
23744SOL    HW272846   3.079   4.547   8.890  1.1422  0.5641 -0.9484
23745SOL     OW72847   3.828   8.660   3.821 -0.1641  0.1510  0.4101
23745SOL    HW172848   3.856   8.751   3.830 -1.7421  0.7608 -0.4540
23745SOL    HW272849   3.875   8.613   3.890  0.0634  1.7677  1.4047
23746SOL     OW72850   3.276   6.913   2.386 -0.2184  0.6148  0.1779
23746SOL    HW172851   3.257   6.949   2.472 -1.6940 -1.6029  0.8740
23746SOL    HW272852   3.274   6.989   2.327  0.5096  2.1284  2.0070
23747SOL     OW72853   5.119   9.367   4.384  0.4336 -0.5575 -0.1107
23747SOL    HW172854   5.090   9.401   4.299 -0.7595  1.2874  0.9502
23747SOL    HW272855   5.132   9.445   4.438  2.2917 -1.6252  1.0937
23748SOL     OW72856   2.362   8.104   6.526  0.1394 -0.7936  0.2052
23748SOL    HW172857   2.323   8.076   6.444 -2.5125  0.0769  1.0627
23748SOL    HW272858   2.418   8.178   6.502 -1.8338  0.4827 -0.6833
23749SOL     OW72859   4.462   9.570   4.398  1.1259  0.4284 -0.2575
23749SOL    HW172860   4.537   9.623   4.373  1.6460 -1.4578 -3.1552
23749SOL    HW272861   4.388   9.610   4.353  1.1975 -0.1993 -0.9530
23750SOL     OW72862   4.341   8.507   2.456  0.3222 -0.1010 -0.1277
23750SOL    HW172863   4.312   8.438   2.515  2.0850 -1.4587 -0.7485
23750SOL    HW272864   4.307   8.482   2.371  0.9308 -0.1961 -0.3493
23751SOL     OW72865   5.460   7.656   8.625 -0.5824  0.0539 -0.6812
23751SOL    HW172866   5.526   7.631   8.689 -1.0538  1.0450  0.2092
23751SOL    HW272867   5.383   7.604   8.649 -0.3495 -0.6052 -1.3120
23752SOL     OW72868   1.323   5.753   0.430  0.4710  0.7857 -0.6616
23752SOL    HW172869   1.415   5.730   0.417  0.5461  0.5126  0.2419
23752SOL    HW272870   1.274   5.680   0.393  0.6563  0.3033  0.0224
23753SOL     OW72871   7.310   5.621   7.514 -0.2567 -0.1755 -0.3290
23753SOL    HW172872   7.328   5.709   7.546 -0.3765  0.0163 -0.7797
23753SOL    HW272873   7.233   5.593   7.563  0.5499 -0.5450  0.7594
23754SOL     OW72874   9.809   6.398   8.383  0.6663  0.0421 -0.2154
23754SOL    HW172875   9.863   6.469   8.350 -0.7748  2.0300  1.4345
23754SOL    HW272876   9.847   6.376   8.468 -1.0419  1.5749  1.0426
23755SOL     OW72877   1.185   2.815   8.124 -0.5305  0.0773 -0.3651
23755SOL    HW172878   1.167   2.825   8.030  1.3333 -2.4903 -1.1225
23755SOL    HW272879   1.116   2.757   8.155 -0.8328  0.4901 -0.2552
23756SOL     OW72880   3.418   7.823   7.643  0.3343  0.5428 -0.2537
23756SOL    HW172881   3.323   7.821   7.649  0.1045 -1.3267 -2.8301
23756SOL    HW272882   3.447   7.746   7.692  0.6313  1.4976  1.1313
23757SOL     OW72883   2.778   7.572   7.609 -0.8069  0.0074 -0.1169
23757SOL    HW172884   2.715   7.608   7.546 -1.5405 -2.6703 -1.0363
23757SOL    HW272885   2.725   7.552   7.686 -0.4682  0.5433  0.2627
23758SOL     OW72886   3.872   4.274   6.137  0.0058 -0.6822  0.1841
23758SOL    HW172887   3.783   4.295   6.165 -0.6110  0.9293 -2.6188
23758SOL    HW272888   3.926   4.343   6.175  0.1570 -1.7743  2.0551
23759SOL     OW72889   7.171   6.190   7.422 -0.3005 -0.2253 -0.5056
23759SOL    HW172890   7.255   6.211   7.463 -0.8328 -1.8866  1.6641
23759SOL    HW272891   7.106   6.232   7.478 -1.0375 -2.0237  0.0573
23760SOL     OW72892   3.383   8.506   0.851  0.3586 -0.3290  0.1334
23760SOL    HW172893   3.383   8.535   0.942  1.1066  1.1670 -0.3060
23760SOL    HW272894   3.303   8.454   0.842 -0.1461  0.1831  1.4363
23761SOL     OW72895   5.420   9.420   8.256 -0.1396 -0.0986 -0.1987
23761SOL    HW172896   5.408   9.369   8.336 -1.8324 -0.9670 -0.9587
23761SOL    HW272897   5.340   9.472   8.248  1.2739  2.2693  0.2154
23762SOL     OW72898   8.876   5.272   9.171  0.0221 -0.3300  0.3665
23762SOL    HW172899   8.880   5.359   9.132 -0.4023 -1.8980 -3.6489
23762SOL    HW272900   8.968   5.246   9.181  0.1380 -0.2188 -0.3997
23763SOL     OW72901   3.368   1.339   7.904 -0.0050  0.1982 -0.3327
23763SOL    HW172902   3.332   1.394   7.835  3.9507 -1.1112 -3.9342
23763SOL    HW272903   3.421   1.399   7.957  0.0899  0.6873 -0.9642
23764SOL     OW72904   1.470   9.562   2.823 -0.3455 -0.1252  0.4736
23764SOL    HW172905   1.473   9.492   2.889 -1.1854 -0.8322 -0.2156
23764SOL    HW272906   1.388   9.607   2.838 -0.3897 -0.0823  0.1262
23765SOL     OW72907   3.306   6.701   1.705  0.7166 -0.2448 -0.6539
23765SOL    HW172908   3.325   6.692   1.798 -0.8618  1.9868 -0.0298
23765SOL    HW272909   3.265   6.618   1.680  2.6465 -1.5027  0.1706
23766SOL     OW72910   8.216   0.531   9.830  0.3139 -0.2919  0.6072
23766SOL    HW172911   8.130   0.493   9.816 -0.3301  1.3209 -0.0302
23766SOL    HW272912   8.216   0.559   9.921  0.6606 -1.4099  0.9751
23767SOL     OW72913   5.997   3.530   2.727 -0.1370 -0.6504  0.9980
23767SOL    HW172914   5.928   3.595   2.743  0.2724 -0.7529  3.6518
23767SOL    HW272915   6.078   3.580   2.732  0.0767 -0.9382  0.4020
23768SOL     OW72916   3.329   5.135   8.959  0.8304  0.3030  0.2978
23768SOL    HW172917   3.419   5.138   8.990  1.0451 -2.3292  0.0979
23768SOL    HW272918   3.278   5.111   9.036  0.7283 -1.2596 -0.2302
23769SOL     OW72919   5.161   4.756   4.297  0.0934 -0.0231 -0.0980
23769SOL    HW172920   5.121   4.670   4.281 -0.0864 -0.2198  1.3082
23769SOL    HW272921   5.151   4.803   4.214 -0.7872 -0.9755 -0.5497
23770SOL     OW72922   2.673   6.043   6.384 -0.1111  0.5873 -0.0157
23770SOL    HW172923   2.691   5.949   6.383 -2.2846  0.1124  0.7836
23770SOL    HW272924   2.723   6.077   6.458  0.6387  0.0847 -0.2742
23771SOL     OW72925   8.157   1.582   3.250 -0.1813 -0.1710 -0.2935
23771SOL    HW172926   8.244   1.546   3.266  0.2876  0.5850 -1.0425
23771SOL    HW272927   8.122   1.527   3.180 -0.2922 -0.4456 -0.0252
23772SOL     OW72928   3.694   7.491   1.390 -0.2703  0.4436 -0.3798
23772SOL    HW172929   3.658   7.560   1.445  0.9009  1.1381 -0.4682
23772SOL    HW272930   3.655   7.411   1.424 -1.0753  1.0642  0.1959
23773SOL     OW72931   6.633   7.591   7.265 -0.1879  0.2883 -0.0850
23773SOL    HW172932   6.665   7.544   7.188  0.3903 -1.3479  1.0760
23773SOL    HW272933   6.539   7.600   7.250 -0.6956 -2.9164  0.3641
23774SOL     OW72934   4.608   3.683   9.712 -0.1837 -0.0529 -0.0754
23774SOL    HW172935   4.578   3.633   9.636  1.8286  0.0091 -0.9624
23774SOL    HW272936   4.629   3.617   9.777  2.2457 -0.4541 -1.1634
23775SOL     OW72937   8.755   0.594   3.145 -0.8094 -0.2641  0.6642
23775SOL    HW172938   8.700   0.657   3.099  0.5608  0.7724  0.3994
23775SOL    HW272939   8.709   0.578   3.228 -1.6012  0.4189  0.3653
23776SOL     OW72940   4.481   6.260   8.436 -0.9735 -0.9450  0.5429
23776SOL    HW172941   4.532   6.315   8.495 -0.3356 -0.1918 -0.6558
23776SOL    HW272942   4.547   6.215   8.383 -1.5122 -2.1442  0.8544
23777SOL     OW72943   3.524   5.322   5.435 -0.5291 -0.5619 -0.2759
23777SOL    HW172944   3.430   5.339   5.429 -0.5173 -0.2580  0.2846
23777SOL    HW272945   3.541   5.257   5.367 -1.3955 -1.6581  0.5172
23778SOL     OW72946   9.203   4.043   2.104  0.1655  0.4479 -0.6536
23778SOL    HW172947   9.297   4.056   2.091  0.8622 -1.6299  1.4627
23778SOL    HW272948   9.180   4.103   2.175  0.1855  0.1571 -0.3953
23779SOL     OW72949   5.748   0.673   1.626  0.2600 -0.2089 -0.2498
23779SOL    HW172950   5.770   0.682   1.718  0.7909 -0.4622 -0.3449
23779SOL    HW272951   5.737   0.579   1.612 -0.0264 -0.1553 -0.4009
23780SOL     OW72952   4.035   4.086   5.319 -0.4463 -0.3070 -0.0833
23780SOL    HW172953   4.113   4.137   5.294 -0.7418 -0.9088 -2.5434
23780SOL    HW272954   4.021   4.027   5.245 -3.1187 -0.3718  0.3780
23781SOL     OW72955   4.340   1.904   1.785  0.2156 -0.0214 -0.0634
23781SOL    HW172956   4.248   1.876   1.787  0.7239 -1.9011 -0.7131
23781SOL    HW272957   4.364   1.913   1.877 -0.0021 -1.8505  0.2137
23782SOL     OW72958   3.205   7.055   0.879 -0.1902 -0.1793  0.0573
23782SOL    HW172959   3.171   7.031   0.793 -0.3424 -3.1085  0.8303
23782SOL    HW272960   3.222   7.149   0.873 -0.9376 -0.1433 -2.8900
23783SOL     OW72961   5.230   9.535   5.024  0.6153 -0.1351  0.2867
23783SOL    HW172962   5.273   9.474   5.085  1.3455 -1.1501 -1.1954
23783SOL    HW272963   5.188   9.478   4.960  2.6103  0.8685 -2.0455
23784SOL     OW72964   4.489   0.169   8.904 -0.0764 -0.0562 -0.0614
23784SOL    HW172965   4.515   0.077   8.907 -0.5104 -0.1609  1.6155
23784SOL    HW272966   4.550   0.209   8.842  0.2541 -1.4240 -0.6595
23785SOL     OW72967   4.744   5.166   3.157  0.5604 -0.3157  0.5488
23785SOL    HW172968   4.786   5.249   3.134  0.8170 -0.9488 -1.4567
23785SOL    HW272969   4.769   5.106   3.087 -0.4529 -1.8258  1.4155
23786SOL     OW72970   3.182   2.031   4.190  1.0916 -0.1252 -0.3532
23786SOL    HW172971   3.257   1.971   4.190  0.6927 -0.6641  1.4653
23786SOL    HW272972   3.112   1.981   4.149  0.3450 -1.5516  2.4188
23787SOL     OW72973   9.231   3.205   6.925 -0.2027  0.3989  0.1363
23787SOL    HW172974   9.168   3.273   6.900 -0.6375  0.1313  0.4929
23787SOL    HW272975   9.246   3.220   7.019 -0.7389 -0.3382  0.3543
23788SOL     OW72976   6.883   0.308   5.423 -0.1398 -0.2922 -0.0612
23788SOL    HW172977   6.860   0.342   5.509  1.3121 -1.0104  0.6524
23788SOL    HW272978   6.812   0.336   5.366 -1.7121 -0.7707  1.5824
23789SOL     OW72979   8.685   1.587   7.112 -0.3468  0.1058  0.6748
23789SOL    HW172980   8.661   1.677   7.088 -0.2411  0.1281  0.6529
23789SOL    HW272981   8.610   1.535   7.084  0.2715 -0.0310 -0.8439
23790SOL     OW72982   4.728   4.216   7.625 -0.2287  0.1080 -0.0329
23790SOL    HW172983   4.637   4.243   7.612 -0.0891  1.2956  1.1564
23790SOL    HW272984   4.774   4.297   7.647  1.6239 -0.0511 -2.8179
23791SOL     OW72985   5.692   0.698   7.859 -0.0776  0.4983 -0.2485
23791SOL    HW172986   5.701   0.760   7.932  0.0639 -1.6215  1.6443
23791SOL    HW272987   5.601   0.710   7.830 -0.1783  1.3147  0.3514
23792SOL     OW72988   9.011   8.962   8.048 -0.0552 -0.4181  0.2727
23792SOL    HW172989   8.977   9.048   8.073 -0.1159 -0.4516  0.3062
23792SOL    HW272990   9.105   8.974   8.037 -0.1057 -0.2752 -0.0245
23793SOL     OW72991   5.445   1.376   5.444  0.0356  0.2349  0.2306
23793SOL    HW172992   5.388   1.417   5.379 -0.0197  0.0915  0.1886
23793SOL    HW272993   5.411   1.287   5.454  0.3798  0.0799  0.0487
23794SOL     OW72994   7.721   3.397   1.170 -0.3560  0.5129 -0.0367
23794SOL    HW172995   7.640   3.352   1.195  0.7313 -1.7110 -0.1837
23794SOL    HW272996   7.738   3.458   1.242 -1.0402 -0.5687  1.0990
23795SOL     OW72997   4.364   0.710   5.321  0.6735 -0.4520 -0.8304
23795SOL    HW172998   4.372   0.804   5.339 -0.5828 -0.5585  0.4194
23795SOL    HW272999   4.272   0.697   5.300  1.0258 -1.2728 -1.9979
23796SOL     OW73000   7.605   3.214   3.889 -0.2561 -0.1360 -0.2318
23796SOL    HW173001   7.588   3.126   3.856  0.8573 -0.8724  1.0472
23796SOL    HW273002   7.556   3.219   3.971 -0.6785  0.6198 -0.5192
23797SOL     OW73003   6.192   9.793   1.334 -0.0308 -0.0662  0.2540
23797SOL    HW173004   6.252   9.867   1.323  1.6596 -1.5628 -1.1021
23797SOL    HW273005   6.247   9.723   1.369 -1.0720 -1.3743 -0.6640
23798SOL     OW73006   3.153   8.730   3.757 -0.4664  0.5665  0.2618
23798SOL    HW173007   3.097   8.793   3.711  0.9826  2.1839  0.5808
23798SOL    HW273008   3.232   8.780   3.777  0.0442 -0.8948  2.0980
23799SOL     OW73009   3.878   4.000   3.427 -0.1933  0.1686 -0.0016
23799SOL    HW173010   3.935   3.934   3.388 -1.3229 -0.7037 -0.2293
23799SOL    HW273011   3.803   4.004   3.368 -0.5309  1.0421  0.4756
23800SOL     OW73012   4.989   0.007   5.742  0.2912 -0.4614 -0.1005
23800SOL    HW173013   5.030  -0.069   5.783  0.3028 -0.3488  0.1041
23800SOL    HW273014   5.063   0.060   5.712  0.2642 -1.1642 -1.4395
23801SOL     OW73015   5.105   7.870   7.689  0.3137 -0.2970  0.1108
23801SOL    HW173016   5.116   7.809   7.616  1.2352  0.3244 -0.2915
23801SOL    HW273017   5.033   7.834   7.740 -0.2417 -0.8349 -1.0210
23802SOL     OW73018   4.996   5.970   8.479 -0.1017 -0.1441  0.4470
23802SOL    HW173019   5.076   5.935   8.440 -0.5055  1.0888 -1.7024
23802SOL    HW273020   4.933   5.898   8.473  0.0215 -0.1867 -0.7436
23803SOL     OW73021   1.125   9.472   4.050  0.1728  0.3888 -0.1846
23803SOL    HW173022   1.119   9.554   4.002 -0.1417  1.1490  1.1128
23803SOL    HW273023   1.034   9.444   4.063  0.2469  0.2847  0.1274
23804SOL     OW73024   7.633   3.409   5.714  0.5451 -0.1847 -0.3171
23804SOL    HW173025   7.626   3.318   5.688 -0.2989 -0.4867  0.8777
23804SOL    HW273026   7.607   3.459   5.637  0.5666 -0.9611 -0.8265
23805SOL     OW73027   4.452   8.981   0.952  0.2175 -0.6776  0.1928
23805SOL    HW173028   4.415   8.918   0.891  2.3036 -0.8713 -0.9196
23805SOL    HW273029   4.496   8.928   1.018 -1.9558 -0.4711  1.9614
23806SOL     OW73030   9.202   3.000   7.446 -0.0448  0.5910  0.4556
23806SOL    HW173031   9.253   3.045   7.513  0.3124  0.1544  0.4809
23806SOL    HW273032   9.111   3.026   7.462 -0.1565 -0.6506  2.0308
23807SOL     OW73033   5.165   4.742   6.397  0.2531  0.5625  0.9596
23807SOL    HW173034   5.097   4.754   6.463 -2.2019 -0.2922 -1.2270
23807SOL    HW273035   5.143   4.659   6.355  2.0611  0.7804 -0.5295
23808SOL     OW73036   0.202   5.557   0.082 -0.2994 -0.0817 -0.2035
23808SOL    HW173037   0.266   5.568   0.012  1.1066  1.2126  1.2177
23808SOL    HW273038   0.238   5.487   0.137 -0.8846 -0.3820 -0.1875
23809SOL     OW73039   9.069   1.143   7.765 -0.2883  0.4612 -0.2537
23809SOL    HW173040   9.016   1.114   7.839  1.8498  2.2634  2.1563
23809SOL    HW273041   9.058   1.238   7.763  2.4760  0.8639  0.1413
23810SOL     OW73042   8.585   6.269   1.928 -0.4402 -0.2800 -0.8905
23810SOL    HW173043   8.515   6.244   1.989  1.6509 -0.2808  1.6807
23810SOL    HW273044   8.624   6.347   1.967  1.2536 -0.5090 -2.0059
23811SOL     OW73045   2.571   0.830   1.552  0.3827  0.1912 -0.1750
23811SOL    HW173046   2.657   0.828   1.509  0.3944  1.5836 -0.2376
23811SOL    HW273047   2.591   0.821   1.645  0.5241 -0.2778 -0.2437
23812SOL     OW73048   7.768   0.183   4.886  0.1051 -0.2334 -0.2621
23812SOL    HW173049   7.786   0.185   4.980 -0.7005 -1.9640 -0.0391
23812SOL    HW273050   7.676   0.208   4.879  0.3973  0.7869 -0.6985
23813SOL     OW73051   4.834   2.027   0.842 -0.0381  0.0086 -0.5561
23813SOL    HW173052   4.808   2.003   0.753  1.3106 -1.7259 -0.5369
23813SOL    HW273053   4.856   2.119   0.837  0.4972 -0.1840 -2.1500
23814SOL     OW73054   1.263   0.714   7.307 -0.1803 -0.1846 -0.1393
23814SOL    HW173055   1.245   0.620   7.315 -0.7800 -0.1133 -0.5422
23814SOL    HW273056   1.218   0.740   7.226 -0.0696  0.4627 -0.0006
23815SOL     OW73057   3.702   9.724   4.153 -0.0948 -0.3879 -0.0102
23815SOL    HW173058   3.715   9.811   4.189  0.5509  0.2258 -1.6502
23815SOL    HW273059   3.609   9.707   4.165  0.0674 -0.1949  1.8178
23816SOL     OW73060   3.090   4.477   8.558  0.0902  0.1400 -0.5855
23816SOL    HW173061   3.155   4.435   8.501  0.4744  2.0714 -1.6458
23816SOL    HW273062   3.126   4.563   8.576 -0.8725  0.2075  1.1768
23817SOL     OW73063   8.364   0.484   6.618 -0.2712 -0.5529  0.1904
23817SOL    HW173064   8.375   0.575   6.592 -0.2192 -0.2038  1.3956
23817SOL    HW273065   8.271   0.475   6.638 -0.4056 -0.9514 -0.5526
23818SOL     OW73066   6.906   4.724   7.997  0.0826 -0.2093  0.5007
23818SOL    HW173067   6.871   4.768   8.075 -0.1857  0.2325  0.1347
23818SOL    HW273068   6.834   4.669   7.966  0.0842 -0.1467  0.3853
23819SOL     OW73069   0.641   8.080   3.736 -0.3454  0.1057 -0.3563
23819SOL    HW173070   0.675   8.111   3.652 -1.8241 -1.4104 -1.5914
23819SOL    HW273071   0.552   8.113   3.740 -0.1072  0.6606  0.9274
23820SOL     OW73072   4.468   7.961   0.491 -0.2946 -0.0056 -0.4581
23820SOL    HW173073   4.478   7.901   0.565 -0.8702 -0.1798 -0.5207
23820SOL    HW273074   4.526   7.926   0.423  0.5442  0.3731  0.0370
23821SOL     OW73075   6.970   1.648   7.044 -0.4072 -0.2108  0.0624
23821SOL    HW173076   7.038   1.595   7.002  0.8948  1.6265 -0.2464
23821SOL    HW273077   6.931   1.590   7.109  2.1321 -1.0459  0.9521
23822SOL     OW73078   3.926   8.631   6.254 -0.3314  0.4328  1.0006
23822SOL    HW173079   3.916   8.567   6.184 -3.4143  0.0106  1.6480
23822SOL    HW273080   3.961   8.581   6.328 -1.6333 -0.2997  1.1524
23823SOL     OW73081   9.492   5.099   1.796  0.4570 -0.1558  0.0274
23823SOL    HW173082   9.525   5.174   1.747  0.7906 -0.8361 -0.8319
23823SOL    HW273083   9.492   5.127   1.887 -1.4540  1.6104 -0.4657
23824SOL     OW73084   1.930   8.760   6.335  0.3795 -0.0140 -0.2311
23824SOL    HW173085   1.892   8.697   6.397 -0.5804 -0.7642 -1.5211
23824SOL    HW273086   1.942   8.710   6.255  0.4070  1.2431 -1.0409
23825SOL     OW73087   7.391   0.889   3.291 -0.4201  0.2116 -0.4718
23825SOL    HW173088   7.484   0.906   3.305 -0.3033 -0.6909 -0.1189
23825SOL    HW273089   7.362   0.844   3.370 -1.2772  0.9307 -0.3643
23826SOL     OW73090   2.708   0.089   3.513 -0.1176 -0.2742  0.5576
23826SOL    HW173091   2.640   0.145   3.551 -1.5422  0.0250 -2.1592
23826SOL    HW273092   2.659   0.014   3.477  1.3143 -1.3254  0.7239
23827SOL     OW73093   5.357   0.946   7.644  0.4829  0.0074  0.0528
23827SOL    HW173094   5.286   0.999   7.607 -0.8500 -0.6278  1.5914
23827SOL    HW273095   5.368   0.874   7.581  0.3706  0.5634 -0.6188
23828SOL     OW73096   7.807   2.055   6.157 -0.1495  0.6165  0.4133
23828SOL    HW173097   7.889   2.102   6.141 -0.0386  0.5951  0.8978
23828SOL    HW273098   7.805   1.986   6.090  0.2901  0.5411  0.4748
23829SOL     OW73099   6.739   4.999   7.594 -0.2537  0.3229 -0.0197
23829SOL    HW173100   6.709   4.979   7.682  0.1246  2.6978  0.7144
23829SOL    HW273101   6.677   4.955   7.536 -1.1731 -0.3214  1.4211
23830SOL     OW73102   5.825   5.751   2.926  0.0124 -0.2582 -0.1510
23830SOL    HW173103   5.788   5.836   2.901  0.7639 -0.2279 -1.2412
23830SOL    HW273104   5.800   5.739   3.017 -0.2228  1.0733 -0.0286
23831SOL     OW73105   3.702   1.857   3.493 -0.7585 -0.4191 -0.2919
23831SOL    HW173106   3.627   1.900   3.533 -0.5281 -0.4965  0.2262
23831SOL    HW273107   3.756   1.928   3.461 -1.3776 -0.3744 -1.2818
23832SOL     OW73108   6.815   0.289   8.565  0.1448 -0.0000  0.1878
23832SOL    HW173109   6.796   0.198   8.586 -0.9403  0.2531  0.3820
23832SOL    HW273110   6.728   0.330   8.556  0.4780  1.7842  3.5332
23833SOL     OW73111   2.631   9.325   4.446 -0.1974  0.3532  0.3932
23833SOL    HW173112   2.600   9.235   4.444  1.4843 -0.2671 -2.1347
23833SOL    HW273113   2.562   9.376   4.402  0.8139 -0.5308 -2.4319
23834SOL     OW73114   4.798   9.218   5.048  0.0925  0.8693 -0.2193
23834SOL    HW173115   4.811   9.250   4.958  0.7092  1.0942 -0.0562
23834SOL    HW273116   4.728   9.154   5.041  0.2659  0.7470 -0.8971
23835SOL     OW73117   8.961   7.730   8.079 -0.9971  0.0684 -0.1669
23835SOL    HW173118   8.909   7.810   8.072  0.7961  1.2250 -1.0341
23835SOL    HW273119   8.954   7.689   7.992 -1.3128 -0.3294  0.0444
23836SOL     OW73120   2.656   2.824   5.127 -0.1581 -0.3342  0.1984
23836SOL    HW173121   2.723   2.840   5.194  0.6718  1.3892 -0.9601
23836SOL    HW273122   2.691   2.753   5.074  1.9217  1.9071 -1.6884
23837SOL     OW73123   7.854   4.719   4.544  0.1802  0.0018  0.1144
23837SOL    HW173124   7.870   4.795   4.487  0.5228  1.0998  1.5974
23837SOL    HW273125   7.788   4.750   4.606  1.0555 -0.5674  1.3619
23838SOL     OW73126   2.832   1.044   6.929 -0.1055 -0.5911 -0.0846
23838SOL    HW173127   2.799   1.082   6.848  2.3132  0.7764 -0.5418
23838SOL    HW273128   2.903   1.103   6.956  1.0676 -2.5722  1.4768
23839SOL     OW73129   4.053   8.221   5.516  0.2111  0.1579  0.1202
23839SOL    HW173130   4.005   8.287   5.566 -0.9812 -0.9145  0.4441
23839SOL    HW273131   4.145   8.248   5.522 -0.1761  1.3985  0.8048
23840SOL     OW73132   9.193   3.847   0.696 -0.5798  0.0952  0.0206
23840SOL    HW173133   9.225   3.862   0.607 -0.9363 -2.3231 -0.5851
23840SOL    HW273134   9.257   3.891   0.752  0.6456  0.1505 -1.3608
23841SOL     OW73135   0.913   4.671   9.508  0.4486  0.4864  0.5012
23841SOL    HW173136   0.980   4.653   9.443  2.6463  2.4601  2.0528
23841SOL    HW273137   0.908   4.766   9.513 -0.9736  0.3934  1.9318
23842SOL     OW73138   2.075   8.545   9.596  0.1581  0.1062 -0.1149
23842SOL    HW173139   2.115   8.479   9.652 -1.0807  0.7994  1.6683
23842SOL    HW273140   1.999   8.501   9.558 -2.1606  1.0413  3.0195
23843SOL     OW73141   2.428   2.521   3.710 -0.2867 -0.2891  0.1731
23843SOL    HW173142   2.384   2.571   3.779 -2.2350 -1.6615  0.0085
23843SOL    HW273143   2.434   2.432   3.746  0.6874 -0.5484 -0.5839
23844SOL     OW73144   6.083   7.423   7.405 -0.2591  0.1788  0.1228
23844SOL    HW173145   6.059   7.331   7.405 -1.9602  0.5212 -2.3327
23844SOL    HW273146   6.071   7.451   7.495 -0.6640 -1.7546  0.7121
23845SOL     OW73147   1.172   0.843   6.056 -0.1184  0.0156 -0.9486
23845SOL    HW173148   1.093   0.790   6.047 -1.1623  1.3530 -0.0757
23845SOL    HW273149   1.142   0.933   6.046  1.0288  0.6493  0.7996
23846SOL     OW73150   5.841   4.697   8.049  0.0899 -0.3443 -0.6958
23846SOL    HW173151   5.910   4.755   8.080 -0.2872  0.4007 -1.2249
23846SOL    HW273152   5.887   4.616   8.024  0.4767 -0.7450  1.1566
23847SOL     OW73153   1.242   3.727   2.716 -0.3808 -0.0988  0.1015
23847SOL    HW173154   1.302   3.800   2.697 -1.4703  0.6039 -0.7712
23847SOL    HW273155   1.293   3.668   2.771  0.6623  1.1402  0.5113
23848SOL     OW73156   9.256   4.058   3.857  0.6165  0.8273 -0.1914
23848SOL    HW173157   9.288   4.019   3.776  1.1871  2.1587 -0.6288
23848SOL    HW273158   9.184   4.115   3.830  0.0533  0.4150  0.3891
23849SOL     OW73159   1.300   6.468   5.019  0.7012 -0.2541 -1.0160
23849SOL    HW173160   1.328   6.518   4.942  0.3992 -1.1747 -1.7438
23849SOL    HW273161   1.222   6.421   4.989  1.4668 -1.8305 -0.6383
23850SOL     OW73162   0.644   3.000   7.495  0.1053 -0.6977 -0.2723
23850SOL    HW173163   0.583   2.986   7.423 -0.4247  0.3994 -0.0625
23850SOL    HW273164   0.731   2.996   7.455 -0.0715 -2.2373 -0.5816
23851SOL     OW73165   3.489   2.378   3.832  0.7702 -0.3174 -0.0313
23851SOL    HW173166   3.491   2.399   3.926  2.0945 -2.2385  0.4315
23851SOL    HW273167   3.424   2.308   3.825  1.7811 -1.2471 -0.2794
23852SOL     OW73168   0.397   4.192   3.803  0.7056 -0.4618  0.3589
23852SOL    HW173169   0.389   4.118   3.743 -0.1224 -1.4825  1.6599
23852SOL    HW273170   0.311   4.235   3.800  1.4748  1.0884 -1.1215
23853SOL     OW73171   4.163   6.454   2.258 -0.8918 -0.0535  0.1872
23853SOL    HW173172   4.153   6.497   2.173 -0.3589  0.1379  0.2229
23853SOL    HW273173   4.166   6.360   2.237  0.5708  0.0422 -0.1433
23854SOL     OW73174   2.550   6.109   0.219 -0.3717  0.1469  0.1624
23854SOL    HW173175   2.568   6.071   0.133 -0.7736 -1.4778  0.7528
23854SOL    HW273176   2.523   6.199   0.201 -3.6985 -1.0563 -1.7619
23855SOL     OW73177   0.186   6.120   0.750  0.5653  0.5052 -0.1599
23855SOL    HW173178   0.120   6.099   0.816  0.5355  0.0032 -0.3469
23855SOL    HW273179   0.188   6.043   0.692  0.8189  0.8064 -0.5563
23856SOL     OW73180   2.487   4.532   4.138 -0.2755 -0.4487 -0.0589
23856SOL    HW173181   2.509   4.454   4.190  0.3777 -1.4746 -1.7816
23856SOL    HW273182   2.498   4.605   4.199  0.4421 -1.5914  1.2429
23857SOL     OW73183   0.336   2.995   8.379 -0.0901 -0.0924  0.4444
23857SOL    HW173184   0.245   2.972   8.396  0.4362 -2.7822 -0.0222
23857SOL    HW273185   0.386   2.918   8.404  2.0714  1.2535  0.5163
23858SOL     OW73186   1.730   8.630   9.131 -0.5311  0.0758 -0.5932
23858SOL    HW173187   1.788   8.594   9.064 -0.3574  0.3502 -0.5918
23858SOL    HW273188   1.691   8.553   9.173 -0.8522 -0.0890 -1.1966
23859SOL     OW73189   1.522   6.159   9.837 -0.3858 -0.0909 -0.3702
23859SOL    HW173190   1.453   6.222   9.816 -1.1064 -0.7493 -0.0459
23859SOL    HW273191   1.481   6.073   9.821  0.6429 -0.4784 -1.0232
23860SOL     OW73192   5.114   6.099   4.204  0.8461  1.0194  0.6863
23860SOL    HW173193   5.053   6.106   4.278 -0.6922  0.6106 -0.4798
23860SOL    HW273194   5.169   6.023   4.226  0.0418  0.5516  1.1745
23861SOL     OW73195   1.029   5.919   2.854  0.0920 -0.6728  0.3795
23861SOL    HW173196   1.007   5.915   2.761 -3.0166 -1.9282  1.0481
23861SOL    HW273197   0.965   5.979   2.891  0.2061 -1.4655  1.9378
23862SOL     OW73198   3.092   7.542   0.765 -0.0261  0.5052 -0.3720
23862SOL    HW173199   3.082   7.616   0.824 -0.3372 -0.5676  0.9628
23862SOL    HW273200   3.067   7.465   0.817  0.8918 -0.6210 -1.5021
23863SOL     OW73201   3.256   8.352   1.188 -0.5105 -0.0816 -0.3810
23863SOL    HW173202   3.319   8.305   1.134 -0.2348  0.5504 -0.6199
23863SOL    HW273203   3.171   8.333   1.148 -0.8195 -2.9724  1.3826
23864SOL     OW73204   6.608   5.049   6.369 -0.0546 -0.6653  0.0777
23864SOL    HW173205   6.644   5.063   6.281 -0.0646 -1.8889 -0.1412
23864SOL    HW273206   6.575   4.959   6.367 -2.3280  0.0976  0.5437
23865SOL     OW73207   3.279   2.263   3.225 -0.0321 -0.4636  0.3547
23865SOL    HW173208   3.281   2.283   3.131 -2.3680  1.6369  0.6448
23865SOL    HW273209   3.187   2.270   3.249  0.4203 -1.6016  2.7111
23866SOL     OW73210   7.107   3.363   4.436  0.2477 -0.0833 -0.4393
23866SOL    HW173211   7.039   3.428   4.453  0.1128 -0.1829 -0.6031
23866SOL    HW273212   7.121   3.320   4.521 -1.3585 -1.4903 -0.8253
23867SOL     OW73213   0.433   4.778   5.348 -0.8696  0.2553  0.4728
23867SOL    HW173214   0.507   4.746   5.400 -0.3205 -0.5291 -0.7329
23867SOL    HW273215   0.358   4.728   5.380 -0.3928 -0.7939  0.0062
23868SOL     OW73216   2.854   1.858   1.840 -0.3417  0.2311 -0.1436
23868SOL    HW173217   2.873   1.791   1.774 -0.5223 -0.5241  0.5431
23868SOL    HW273218   2.936   1.906   1.850 -0.3134  0.3579 -0.9084
23869SOL     OW73219   2.172   4.883   7.100 -0.4209 -0.1047  0.2419
23869SOL    HW173220   2.180   4.920   7.188  0.8056 -0.8789  0.4956
23869SOL    HW273221   2.243   4.924   7.051  1.2333 -2.2791  0.6396
23870SOL     OW73222   5.358   7.403   3.288 -0.2479  0.6273 -0.5149
23870SOL    HW173223   5.338   7.353   3.209 -0.0209 -0.9000  0.3623
23870SOL    HW273224   5.374   7.492   3.257 -0.1203  0.0457 -2.1853
23871SOL     OW73225   5.491   1.972   3.499 -0.3232  0.4673 -0.4762
23871SOL    HW173226   5.562   1.970   3.562  1.3504  1.4163 -2.2246
23871SOL    HW273227   5.441   2.051   3.520 -0.7370 -0.0665  0.5957
23872SOL     OW73228   3.720   1.213   6.049  0.6753  0.4096  0.2189
23872SOL    HW173229   3.684   1.197   6.136  1.4109 -0.6749  0.3455
23872SOL    HW273230   3.660   1.275   6.009 -0.4636 -0.1646  0.9827
23873SOL     OW73231   8.812   7.957   2.158 -0.0612 -0.1839 -0.2554
23873SOL    HW173232   8.770   7.887   2.207  0.9901 -0.1269  0.7601
23873SOL    HW273233   8.876   7.995   2.218  0.7301  0.4009 -1.4116
23874SOL     OW73234   7.548   6.638   9.078  0.4976  0.3011 -0.5819
23874SOL    HW173235   7.607   6.564   9.062 -0.1779 -0.3635 -0.0701
23874SOL    HW273236   7.461   6.599   9.083  0.1954  1.0505  0.2917
23875SOL     OW73237   3.385   1.361   3.919  0.1914 -0.1553 -0.0494
23875SOL    HW173238   3.430   1.292   3.968  0.1256 -0.1240  0.0541
23875SOL    HW273239   3.349   1.418   3.986  0.8689  0.3897 -0.1357
23876SOL     OW73240   6.132   3.477   3.884 -0.5964  0.4301  0.4948
23876SOL    HW173241   6.139   3.554   3.940  1.2801 -0.3748  1.4754
23876SOL    HW273242   6.204   3.486   3.822 -0.5908 -0.3241  0.3823
23877SOL     OW73243   1.363   9.182   8.631 -0.3632  0.5924 -0.5757
23877SOL    HW173244   1.415   9.224   8.562 -1.4762  2.6131 -0.2836
23877SOL    HW273245   1.298   9.131   8.583  0.1193  0.3408 -0.9793
23878SOL     OW73246   4.922   9.841   3.726 -0.1517  0.6160  0.1784
23878SOL    HW173247   4.861   9.771   3.750 -2.2252  2.6058  1.1517
23878SOL    HW273248   4.998   9.827   3.782 -0.7413 -0.5746  0.7073
23879SOL     OW73249   9.213   4.645   2.861  0.2297 -0.2606 -0.3782
23879SOL    HW173250   9.238   4.679   2.775  0.7589 -2.6752 -1.2440
23879SOL    HW273251   9.147   4.706   2.892 -0.0426  0.6268 -2.5358
23880SOL     OW73252   2.347   8.579   7.585 -0.1296 -0.2699  0.4386
23880SOL    HW173253   2.282   8.548   7.522 -0.1679  0.0949  0.2944
23880SOL    HW273254   2.411   8.627   7.532 -0.5201  0.6229  0.7452
23881SOL     OW73255   5.363   4.728   2.873  0.0900 -0.2252 -0.4265
23881SOL    HW173256   5.337   4.765   2.789  1.9691  0.7561 -0.6253
23881SOL    HW273257   5.457   4.744   2.879 -0.0364  0.1157  2.0391
23882SOL     OW73258   5.170   7.578   6.093 -0.1725 -0.3958 -0.1320
23882SOL    HW173259   5.136   7.504   6.144 -0.2693 -0.6224 -0.5223
23882SOL    HW273260   5.099   7.602   6.034  0.2813 -0.7621 -0.8396
23883SOL     OW73261   7.204   7.920   5.893 -0.5110 -0.6336 -0.4726
23883SOL    HW173262   7.263   7.989   5.925 -0.4214 -1.0391  0.2602
23883SOL    HW273263   7.158   7.960   5.819 -0.0046  0.0032 -0.4521
23884SOL     OW73264   6.339   4.412   2.328  0.0805  0.0804  0.6436
23884SOL    HW173265   6.254   4.391   2.289  0.0343 -0.0244  0.7980
23884SOL    HW273266   6.339   4.507   2.336 -0.7156 -0.0281  2.2066
23885SOL     OW73267   5.879   5.658   2.094 -0.3167 -0.4126 -0.0551
23885SOL    HW173268   5.898   5.565   2.084  1.3270 -0.2174  0.9077
23885SOL    HW273269   5.947   5.690   2.153 -1.1906  1.2899  0.0801
23886SOL     OW73270   0.687   9.274   8.618 -0.2493 -0.1475 -0.7206
23886SOL    HW173271   0.701   9.179   8.608 -2.0963 -0.4775 -0.6415
23886SOL    HW273272   0.662   9.284   8.709 -0.5914  0.3379 -0.8670
23887SOL     OW73273   1.635   8.048   8.603  0.0697 -0.2955 -0.2481
23887SOL    HW173274   1.565   8.109   8.626  0.3772  1.1493 -2.7619
23887SOL    HW273275   1.704   8.103   8.568  1.3153 -1.9314 -0.5001
23888SOL     OW73276   8.683   1.637   2.496  0.4156  0.2742  0.1511
23888SOL    HW173277   8.621   1.593   2.438 -0.1158 -0.2465  1.0849
23888SOL    HW273278   8.664   1.601   2.583  1.7746  0.3913  0.5164
23889SOL     OW73279   5.315   1.542   2.497 -0.2914  0.3018 -0.3081
23889SOL    HW173280   5.258   1.475   2.459 -1.9347  1.2842  0.3116
23889SOL    HW273281   5.348   1.503   2.577 -2.2590  0.6352  0.7145
23890SOL     OW73282   1.345   6.110   8.639 -0.2467 -0.0112 -0.1397
23890SOL    HW173283   1.348   6.092   8.545 -0.3277  0.9011 -0.3285
23890SOL    HW273284   1.315   6.201   8.645  0.6246  0.2365  0.7360
23891SOL     OW73285   2.827   1.023   3.036  0.0718  0.1848 -0.2361
23891SOL    HW173286   2.753   1.076   3.063  1.2585  1.1660  1.2955
23891SOL    HW273287   2.886   1.085   2.991 -0.5878 -0.8528 -2.6921
23892SOL     OW73288   7.461   2.827   7.163 -0.6828 -0.5514 -0.7135
23892SOL    HW173289   7.538   2.833   7.219 -0.4093 -0.3437 -1.1038
23892SOL    HW273290   7.422   2.914   7.167 -0.5787 -0.4927 -0.9620
23893SOL     OW73291   0.931   1.861   4.786  0.4848 -0.0888 -0.2634
23893SOL    HW173292   0.849   1.899   4.755 -0.0378 -1.3789 -0.5127
23893SOL    HW273293   0.997   1.893   4.723  0.3599  1.6510  0.4286
23894SOL     OW73294   9.583   1.102   4.691  0.0029  0.0242  0.2011
23894SOL    HW173295   9.540   1.037   4.637  0.3298  0.1752 -0.2502
23894SOL    HW273296   9.519   1.173   4.700 -0.2303 -0.2131  0.4196
23895SOL     OW73297   0.329   8.546   4.700 -0.2429  0.1354 -0.5264
23895SOL    HW173298   0.421   8.519   4.696 -0.1410  0.2348  0.6519
23895SOL    HW273299   0.308   8.544   4.793 -1.1537  1.0905 -0.6949
23896SOL     OW73300   3.419   9.699   4.852 -0.4534 -0.3978 -0.3002
23896SOL    HW173301   3.439   9.675   4.762 -1.5912 -0.4039 -0.5650
23896SOL    HW273302   3.444   9.622   4.903 -1.8469 -1.2833 -0.8799
23897SOL     OW73303   2.384   3.010   3.579  0.2408 -0.9079 -0.0851
23897SOL    HW173304   2.418   3.010   3.490 -1.3770 -2.6585 -0.7667
23897SOL    HW273305   2.463   3.016   3.634  1.5134 -2.4267 -1.6101
23898SOL     OW73306   4.327   6.887   9.683  0.2417 -0.0896  0.7235
23898SOL    HW173307   4.325   6.894   9.587 -0.5939 -1.5092  0.6064
23898SOL    HW273308   4.290   6.800   9.701 -0.7268  0.6283  2.3861
23899SOL     OW73309   7.655   3.783   2.348 -0.0258  0.2414 -0.3137
23899SOL    HW173310   7.570   3.817   2.318 -0.7224 -1.3705 -0.2918
23899SOL    HW273311   7.710   3.783   2.270 -1.0374 -1.5508 -1.0929
23900SOL     OW73312   9.082   2.201   2.142  0.0357  0.3884 -0.3627
23900SOL    HW173313   9.051   2.271   2.085 -0.0548  0.8733  0.2681
23900SOL    HW273314   9.143   2.244   2.201  0.3196 -0.1567 -0.2495
23901SOL     OW73315   3.494   2.920   4.036 -0.7495 -0.0912 -0.1358
23901SOL    HW173316   3.564   2.977   4.003 -0.9570 -0.1039 -0.6007
23901SOL    HW273317   3.541   2.847   4.077 -0.4754 -0.3455 -0.8689
23902SOL     OW73318   7.681   1.909   3.765 -0.0949 -0.3075  0.1039
23902SOL    HW173319   7.695   1.907   3.670  0.1931  0.7619  0.1037
23902SOL    HW273320   7.769   1.897   3.802 -0.1210 -0.1551  0.2191
23903SOL     OW73321   2.729   1.862   3.739 -0.3360 -0.0347  0.5919
23903SOL    HW173322   2.689   1.942   3.774  1.1493  0.7074  0.7011
23903SOL    HW273323   2.705   1.794   3.802 -0.7494  0.5419  1.0757
23904SOL     OW73324   8.464   1.435   5.482  0.0752  0.1129  0.7963
23904SOL    HW173325   8.539   1.395   5.436 -1.5224 -1.0773 -0.9516
23904SOL    HW273326   8.463   1.525   5.451 -1.1205 -0.7282 -1.9203
23905SOL     OW73327   9.737   1.771   9.496 -0.0673 -0.3961 -0.0016
23905SOL    HW173328   9.723   1.800   9.586 -0.0940  0.8804 -0.3987
23905SOL    HW273329   9.832   1.763   9.487  0.0803  1.3305 -0.3803
23906SOL     OW73330   2.361   5.025   6.984  0.1156 -1.0282  0.3570
23906SOL    HW173331   2.434   5.034   7.045  0.5461  0.0421 -0.2843
23906SOL    HW273332   2.401   4.990   6.904 -0.2031 -1.1298  0.2410
23907SOL     OW73333   0.102   2.906   5.299  0.1724  0.2354 -0.2114
23907SOL    HW173334   0.179   2.866   5.339  0.4183  1.1155  0.2063
23907SOL    HW273335   0.031   2.845   5.319  0.5156  0.0681  0.5377
23908SOL     OW73336   9.487   9.825   2.688 -0.2980 -0.4409 -0.3046
23908SOL    HW173337   9.543   9.790   2.619 -2.0002 -1.6562 -1.1455
23908SOL    HW273338   9.422   9.877   2.641  0.0735  0.9200  0.6452
23909SOL     OW73339   8.398   0.693   3.355  0.0973 -0.1662  0.5230
23909SOL    HW173340   8.347   0.613   3.371  0.5465 -0.9464 -1.5948
23909SOL    HW273341   8.352   0.736   3.284 -0.0639  1.4633  1.5654
23910SOL     OW73342   1.211   2.919   7.192 -0.0240 -0.1316 -0.3281
23910SOL    HW173343   1.221   3.002   7.146  1.2019  0.6230  1.1925
23910SOL    HW273344   1.300   2.887   7.204 -0.3760 -0.8813  0.4501
23911SOL     OW73345   0.641   4.351   1.909 -0.2970  0.0801 -0.4574
23911SOL    HW173346   0.690   4.274   1.939  0.5699 -0.0846 -2.2255
23911SOL    HW273347   0.579   4.368   1.980  2.2389  0.2826  1.9001
23912SOL     OW73348   2.395   4.931   1.092 -0.6209  0.8471  0.2349
23912SOL    HW173349   2.355   4.879   1.162 -0.2274 -0.6664 -0.6363
23912SOL    HW273350   2.327   4.937   1.025  0.0697 -0.4602 -0.6125
23913SOL     OW73351   7.057   5.590   0.829  0.0294  0.3381  0.4158
23913SOL    HW173352   6.963   5.582   0.809 -0.1548 -0.1056  1.3756
23913SOL    HW273353   7.097   5.512   0.792 -0.0893  0.2033  0.5685
23914SOL     OW73354   7.749   1.735   8.713 -0.2398  0.2975  0.4755
23914SOL    HW173355   7.663   1.744   8.753 -1.0898 -0.9383 -0.9591
23914SOL    HW273356   7.786   1.657   8.754 -0.0190  0.5466  0.7447
23915SOL     OW73357   4.210   4.593   1.548  0.1789 -0.2819  0.3436
23915SOL    HW173358   4.239   4.505   1.572  0.8942 -0.5755 -1.4247
23915SOL    HW273359   4.285   4.649   1.568  0.2472 -0.2960  0.1217
23916SOL     OW73360   0.883   6.907   8.764 -0.2342 -0.0720 -0.1130
23916SOL    HW173361   0.816   6.851   8.804 -0.5905  0.5880  0.2187
23916SOL    HW273362   0.866   6.994   8.799  0.1584  0.3023 -0.8224
23917SOL     OW73363   0.871   6.335   1.295  0.0890  0.1958  0.0379
23917SOL    HW173364   0.783   6.333   1.331 -0.6376  1.1652 -1.6246
23917SOL    HW273365   0.900   6.426   1.306  0.7090  0.0004  0.1102
23918SOL     OW73366   3.743   0.774   5.197  0.4077  0.1419 -0.7400
23918SOL    HW173367   3.784   0.697   5.158  0.5470 -1.1705  1.7925
23918SOL    HW273368   3.675   0.739   5.254 -0.6374  2.0118 -0.7545
23919SOL     OW73369   7.716   1.929   4.381  0.2153  0.2423  0.5117
23919SOL    HW173370   7.667   1.947   4.301 -0.5642 -0.4513  0.8249
23919SOL    HW273371   7.678   1.988   4.446 -0.9023 -0.9854  1.0051
23920SOL     OW73372   7.566   0.903   2.654 -0.3640 -0.3261  0.7700
23920SOL    HW173373   7.546   0.989   2.689 -0.5134 -0.4178  0.9102
23920SOL    HW273374   7.655   0.912   2.618 -1.5574  0.8180 -2.2139
23921SOL     OW73375   5.468   5.126   5.620  0.1548 -0.0555 -0.2218
23921SOL    HW173376   5.443   5.203   5.671 -1.1008  0.1388 -1.0691
23921SOL    HW273377   5.543   5.090   5.666 -1.6528 -0.6493  2.5040
23922SOL     OW73378   4.532   1.384   2.809  0.0734 -0.0190 -0.2965
23922SOL    HW173379   4.609   1.363   2.756  0.3890  1.1022 -0.3133
23922SOL    HW273380   4.568   1.421   2.890 -0.3899 -1.9261  0.8588
23923SOL     OW73381   4.555   9.716   0.601  0.6408 -0.0942  0.3302
23923SOL    HW173382   4.522   9.628   0.618  0.9710 -0.3794 -0.4786
23923SOL    HW273383   4.648   9.704   0.582  0.4317  0.2744 -1.0235
23924SOL     OW73384   5.155   3.823   5.181  0.0345  0.4138  0.5024
23924SOL    HW173385   5.249   3.804   5.191  0.3145  0.8339 -1.0508
23924SOL    HW273386   5.136   3.886   5.251  0.8861  0.2200  0.9205
23925SOL     OW73387   5.878   5.795   7.741  0.0752  0.5293 -0.3465
23925SOL    HW173388   5.803   5.745   7.773  0.3354  0.4944  0.2225
23925SOL    HW273389   5.953   5.738   7.759  0.4314  1.3261  0.7695
23926SOL     OW73390   1.247   7.806   3.868 -0.3387 -0.0851  0.4495
23926SOL    HW173391   1.186   7.732   3.866 -0.3886 -0.0544  0.7836
23926SOL    HW273392   1.295   7.794   3.950 -0.1693  0.1100  0.3765
23927SOL     OW73393   1.700   8.629   0.655  0.2272  0.6554 -0.0913
23927SOL    HW173394   1.621   8.673   0.686  0.2136 -0.4971  1.6992
23927SOL    HW273395   1.744   8.601   0.735  0.8375 -1.4966 -1.1179
23928SOL     OW73396   3.695   2.467   2.620 -0.5615  0.5673 -0.3344
23928SOL    HW173397   3.639   2.435   2.691  0.8311  0.7981  0.9167
23928SOL    HW273398   3.749   2.391   2.597 -0.9594  0.5130 -1.1218
23929SOL     OW73399   7.989   7.564   8.222 -0.3570  0.1469  0.3192
23929SOL    HW173400   8.050   7.494   8.199  1.1607  1.5449 -0.1310
23929SOL    HW273401   8.033   7.612   8.293 -0.9270  1.1731  0.0022
23930SOL     OW73402   3.121   2.440   7.372 -0.3595  0.3533 -0.3237
23930SOL    HW173403   3.042   2.462   7.421 -0.4271  1.3959 -0.8739
23930SOL    HW273404   3.159   2.366   7.420 -0.4710  1.2670  1.2406
23931SOL     OW73405   8.345   0.275   9.398  0.0037 -0.3279  0.1919
23931SOL    HW173406   8.299   0.231   9.469 -2.1080  0.8720 -0.3742
23931SOL    HW273407   8.409   0.331   9.442  0.3527 -1.3383  1.0249
23932SOL     OW73408   8.151   4.881   6.348  0.3789 -0.7301  0.4350
23932SOL    HW173409   8.211   4.847   6.414  0.8708  0.1537  0.4593
23932SOL    HW273410   8.149   4.813   6.280  0.5744 -1.2377  0.9348
23933SOL     OW73411   9.070   0.026   8.391 -0.4836  0.0075 -0.1828
23933SOL    HW173412   9.098  -0.009   8.476  0.0783 -1.3870 -0.9080
23933SOL    HW273413   9.140   0.000   8.330 -2.1246 -1.4209 -1.5824
23934SOL     OW73414   5.434   1.711   3.586 -0.2235  0.2550 -0.2559
23934SOL    HW173415   5.512   1.658   3.605 -0.9488 -0.6807  0.1970
23934SOL    HW273416   5.469   1.793   3.553  0.9882  0.1765  0.7397
23935SOL     OW73417   8.958   7.017   5.577 -0.9860 -0.1940 -0.8835
23935SOL    HW173418   8.961   7.076   5.652 -0.3294  0.1721 -1.1824
23935SOL    HW273419   8.923   6.935   5.612 -0.7525 -0.0070 -0.1932
23936SOL     OW73420   0.867   7.330   6.490 -0.1133 -0.2260  0.5624
23936SOL    HW173421   0.817   7.389   6.434 -0.3726 -1.0918 -0.1468
23936SOL    HW273422   0.801   7.282   6.539  0.0343 -0.9017  0.1125
23937SOL     OW73423   7.074   4.931   9.670 -0.2279 -0.1864 -0.5403
23937SOL    HW173424   7.073   4.976   9.586  1.0017 -0.6383 -0.8326
23937SOL    HW273425   7.133   4.856   9.655  0.9680  0.3940  1.0413
23938SOL     OW73426   7.691   9.524   1.445  0.4342  0.2342  0.0823
23938SOL    HW173427   7.735   9.480   1.518  0.2707 -0.0689 -0.0021
23938SOL    HW273428   7.637   9.456   1.405 -0.6830  0.7707  0.6310
23939SOL     OW73429   6.729   6.305   4.333  0.4239  0.0785 -0.1022
23939SOL    HW173430   6.814   6.342   4.358  0.4232 -0.9275  1.5261
23939SOL    HW273431   6.692   6.273   4.415 -0.5091 -1.5821 -1.1276
23940SOL     OW73432   5.938   1.121   6.997 -0.6085  1.0963 -0.3577
23940SOL    HW173433   5.970   1.036   7.027 -0.6129  1.3409  0.3564
23940SOL    HW273434   5.953   1.179   7.071 -2.1850  1.3480 -0.2018
23941SOL     OW73435   6.615   2.064   4.055 -0.0021  0.3092  0.2032
23941SOL    HW173436   6.688   2.118   4.024  1.2576  0.5342  3.2333
23941SOL    HW273437   6.565   2.123   4.113  0.9769 -1.4343  3.0014
23942SOL     OW73438   3.427   2.781   5.245 -0.1664 -0.7472 -0.3463
23942SOL    HW173439   3.415   2.793   5.339 -0.1045  0.7690 -0.4952
23942SOL    HW273440   3.480   2.856   5.219  0.2461 -1.4233 -1.5134
23943SOL     OW73441   5.744   7.035   1.175  0.2662  0.3430  0.9462
23943SOL    HW173442   5.720   7.065   1.262 -2.0226  1.2032  0.1140
23943SOL    HW273443   5.674   6.974   1.151  0.8546  0.1207 -0.2876
23944SOL     OW73444   3.329   1.021   0.579 -0.5664  0.4065 -0.1321
23944SOL    HW173445   3.326   1.067   0.662 -1.6291 -0.2404  0.2165
23944SOL    HW273446   3.250   1.049   0.532 -0.3016  0.2964 -0.6594
23945SOL     OW73447   0.480   1.117   7.261 -0.1553  0.1763  0.1518
23945SOL    HW173448   0.572   1.100   7.239 -0.1035  0.3612  0.2224
23945SOL    HW273449   0.436   1.033   7.246  0.3642 -0.4726  1.9502
23946SOL     OW73450   6.008   1.834   4.427  0.5256  0.6077 -0.7897
23946SOL    HW173451   5.996   1.848   4.521 -0.5207  1.9314 -1.0936
23946SOL    HW273452   6.085   1.777   4.421  1.1861  1.2663  0.8325
23947SOL     OW73453   4.882   8.936   7.172  0.2170  0.2649 -0.1330
23947SOL    HW173454   4.839   8.967   7.252 -1.6566 -1.1738 -0.5285
23947SOL    HW273455   4.957   8.995   7.162 -1.2609  2.4904  0.9584
23948SOL     OW73456   2.398   4.445   7.165 -0.4765 -0.7400 -0.4440
23948SOL    HW173457   2.306   4.472   7.161 -0.0659  0.7975 -0.0295
23948SOL    HW273458   2.447   4.526   7.153  0.8720 -1.7804 -2.4833
23949SOL     OW73459   1.536   0.615   7.028 -0.5404  0.4769  0.0571
23949SOL    HW173460   1.497   0.671   6.960 -1.6500 -0.4614 -0.1039
23949SOL    HW273461   1.555   0.533   6.983  1.4803  0.8180  0.1895
23950SOL     OW73462   4.931   1.117   3.505  0.2506  0.1266  0.3643
23950SOL    HW173463   5.021   1.089   3.489  0.5035  0.7320  0.6815
23950SOL    HW273464   4.930   1.210   3.483 -0.1638  0.2455  0.8555
23951SOL     OW73465   2.938   8.755   5.948  0.2239 -0.4549 -0.3925
23951SOL    HW173466   2.935   8.718   5.860  1.0467  0.9540 -1.0393
23951SOL    HW273467   3.017   8.719   5.987  0.3026 -0.4395 -0.5366
23952SOL     OW73468   6.840   4.125   5.450  0.0247  0.4026  0.2949
23952SOL    HW173469   6.799   4.211   5.444  2.7749  1.7892 -0.3050
23952SOL    HW273470   6.865   4.117   5.542 -2.8993 -1.2028  1.0610
23953SOL     OW73471   8.924   3.472   7.227  0.4016  0.3578 -0.0009
23953SOL    HW173472   8.942   3.564   7.211 -1.5841  0.5789 -1.1942
23953SOL    HW273473   8.932   3.462   7.322  0.2175  1.8498  0.1880
23954SOL     OW73474   7.782   8.930   0.105 -0.3867 -0.0223 -0.0904
23954SOL    HW173475   7.716   8.970   0.049 -1.6484 -2.1590 -0.2405
23954SOL    HW273476   7.769   8.836   0.094  0.5958 -0.5188  2.3199
23955SOL     OW73477   0.725   8.710   9.018  0.2988  0.0897 -0.0049
23955SOL    HW173478   0.658   8.776   9.036  0.5678 -0.3034  3.0596
23955SOL    HW273479   0.802   8.741   9.065  1.2478 -1.0882 -0.7431
23956SOL     OW73480   3.144   2.387   7.694 -0.1409  0.1503 -0.1141
23956SOL    HW173481   3.238   2.376   7.703 -0.0266  2.2720  1.8765
23956SOL    HW273482   3.110   2.297   7.696  1.8443 -0.7943 -2.4220
23957SOL     OW73483   8.309   6.520   3.048  0.8900  0.0314  0.2043
23957SOL    HW173484   8.379   6.488   2.991 -0.3832 -0.9117 -0.9329
23957SOL    HW273485   8.283   6.604   3.010  0.0135 -0.6168 -0.6861
23958SOL     OW73486   8.551   5.782   7.472  0.0896  0.1969  0.1185
23958SOL    HW173487   8.533   5.876   7.473  2.1734  0.6563  0.6399
23958SOL    HW273488   8.637   5.775   7.431 -0.8885 -1.7157 -1.7847
23959SOL     OW73489   7.425   0.340   8.696 -0.0362 -0.2386  0.7874
23959SOL    HW173490   7.410   0.400   8.623  0.1038 -0.4078  0.6210
23959SOL    HW273491   7.341   0.297   8.709 -0.5702  1.0558  1.8678
23960SOL     OW73492   4.527   5.480   1.424  0.3737  0.6610  0.1834
23960SOL    HW173493   4.565   5.398   1.392 -2.7965 -0.3537 -1.3988
23960SOL    HW273494   4.597   5.520   1.475  3.7524 -0.6641 -2.9250
23961SOL     OW73495   6.518   1.794   5.642  0.4318 -0.2830  0.3609
23961SOL    HW173496   6.475   1.840   5.570  0.6026  0.4630  0.7276
23961SOL    HW273497   6.568   1.724   5.599  1.5368  0.9135 -0.3957
23962SOL     OW73498   0.516   8.871   1.171  0.0586  0.1943  0.2488
23962SOL    HW173499   0.518   8.822   1.254 -0.1717 -0.4822 -0.1340
23962SOL    HW273500   0.602   8.856   1.132 -0.4198 -0.9525 -0.4405
23963SOL     OW73501   5.041   3.413   2.346  0.0475 -0.1825 -0.0167
23963SOL    HW173502   5.091   3.334   2.325  0.3531  0.0062 -0.0002
23963SOL    HW273503   5.105   3.484   2.342 -0.2857  0.1083 -0.3337
23964SOL     OW73504   8.646   3.169   9.762 -0.5706  0.6999  0.1602
23964SOL    HW173505   8.639   3.207   9.849 -0.0775  0.9125  0.1074
23964SOL    HW273506   8.608   3.235   9.704 -1.0052  0.5092  0.2239
23965SOL     OW73507   5.787   1.752   9.426 -0.0978 -0.0156 -0.0296
23965SOL    HW173508   5.809   1.685   9.491 -0.1277  0.4392  0.4634
23965SOL    HW273509   5.801   1.835   9.473  0.7951  0.3441 -0.8946
23966SOL     OW73510   5.835   0.202   7.194  0.2871 -0.0964  0.2246
23966SOL    HW173511   5.922   0.232   7.166 -0.1971  0.2616 -0.9290
23966SOL    HW273512   5.842   0.106   7.191  0.7462 -0.0781  0.4992
23967SOL     OW73513   6.652   8.179   9.145  0.1715 -0.0305  0.2640
23967SOL    HW173514   6.563   8.213   9.156 -1.1680 -3.7064  2.4381
23967SOL    HW273515   6.703   8.223   9.212 -0.5566  0.5164  0.4780
23968SOL     OW73516   8.992   1.003   2.482  0.1215 -0.0458  0.4924
23968SOL    HW173517   8.982   0.984   2.388  0.5281 -0.6268  0.5570
23968SOL    HW273518   9.006   1.097   2.486 -3.2363  0.5665  0.2630
23969SOL     OW73519   8.213   6.278   2.905 -0.4403 -0.4061 -0.1515
23969SOL    HW173520   8.120   6.299   2.910  0.0203  1.6389  1.4363
23969SOL    HW273521   8.256   6.349   2.953  1.9606 -1.2075 -0.9572
23970SOL     OW73522   3.432   1.950   5.905  0.6777  0.0811 -0.2671
23970SOL    HW173523   3.396   1.868   5.938 -2.3655  1.7277  0.8904
23970SOL    HW273524   3.403   1.954   5.814  0.5373  0.0263 -0.2243
23971SOL     OW73525   8.511   0.639   7.329 -0.8238 -0.2060  0.2139
23971SOL    HW173526   8.503   0.666   7.238  1.3708 -0.6503 -0.1752
23971SOL    HW273527   8.539   0.548   7.325  1.5280  0.3998  1.2072
23972SOL     OW73528   8.147   5.278   2.997  0.5515  0.3040  0.3895
23972SOL    HW173529   8.235   5.302   2.969  0.3735  0.4315 -0.0654
23972SOL    HW273530   8.091   5.345   2.959  0.3443  0.6962  1.3651
23973SOL     OW73531   2.574   5.722   5.234 -0.8387 -0.9160 -0.6406
23973SOL    HW173532   2.514   5.743   5.306 -0.5886  2.0196 -1.1847
23973SOL    HW273533   2.524   5.661   5.179 -2.9259  0.4983 -0.4563
23974SOL     OW73534   9.235   7.527   6.276 -0.3558  0.4848  0.5157
23974SOL    HW173535   9.166   7.519   6.210  0.6147 -0.1428 -0.4601
23974SOL    HW273536   9.193   7.571   6.350 -2.1836 -1.1523  0.5271
23975SOL     OW73537   3.669   1.978   7.287  0.1938  0.0211 -0.2152
23975SOL    HW173538   3.700   1.913   7.350  1.6711  1.6122  0.7805
23975SOL    HW273539   3.709   1.952   7.204  0.5173 -0.5163  0.1021
23976SOL     OW73540   6.003   6.049   2.100 -0.2707  0.3809  0.7499
23976SOL    HW173541   6.067   6.090   2.158  0.5180  2.2076 -1.2795
23976SOL    HW273542   5.918   6.074   2.137  0.1825  0.5396  1.7247
23977SOL     OW73543   3.580   0.994   1.807 -0.0570 -0.6653 -0.1298
23977SOL    HW173544   3.653   1.005   1.868  0.0615 -2.6254  0.1680
23977SOL    HW273545   3.518   0.938   1.854 -2.6364  2.3139  0.2775
23978SOL     OW73546   9.334   5.548   4.085 -0.1437 -0.1396 -0.0594
23978SOL    HW173547   9.316   5.629   4.038 -2.1033  0.3893  1.4776
23978SOL    HW273548   9.366   5.577   4.171  1.4695 -1.0553 -0.3135
23979SOL     OW73549   9.149   6.432   6.356 -0.6068 -0.2739  0.3691
23979SOL    HW173550   9.239   6.402   6.354 -0.8858 -1.0962 -0.8960
23979SOL    HW273551   9.097   6.354   6.337 -1.6614 -0.0432  2.0978
23980SOL     OW73552   9.116   0.169   7.305 -0.4310 -0.2062 -0.6339
23980SOL    HW173553   9.194   0.117   7.323  0.5992  1.3772 -0.2966
23980SOL    HW273554   9.059   0.153   7.381  0.7338  0.6840  0.4751
23981SOL     OW73555   0.028   3.014   2.858 -0.0170  0.3067 -0.1415
23981SOL    HW173556   0.091   3.084   2.876  1.4399 -0.5043 -1.7611
23981SOL    HW273557   0.017   2.969   2.941  1.2838  0.6894  0.2551
23982SOL     OW73558   9.117   7.187   9.699  0.2953 -0.6015  0.5010
23982SOL    HW173559   9.039   7.241   9.693  0.8413  0.1346 -0.1153
23982SOL    HW273560   9.132   7.178   9.793  1.5387  2.3766  0.7197
23983SOL     OW73561   9.154   9.021   7.624 -0.3362 -0.1910 -0.2342
23983SOL    HW173562   9.065   9.052   7.612 -0.6563 -1.5316 -1.5742
23983SOL    HW273563   9.181   8.991   7.538  0.8416 -1.2753  0.4737
23984SOL     OW73564   5.983   6.279   0.428 -0.6334 -0.0999 -0.1020
23984SOL    HW173565   5.994   6.371   0.405 -0.9681  0.5737  2.1604
23984SOL    HW273566   6.065   6.238   0.403 -0.6292  0.6990 -1.5134
23985SOL     OW73567   7.349   2.338   0.653  0.4198 -0.3196  0.2608
23985SOL    HW173568   7.347   2.261   0.710  3.5567 -1.3167 -0.7256
23985SOL    HW273569   7.324   2.304   0.567 -0.3708  0.3018  0.2328
23986SOL     OW73570   8.484   4.761   3.684  0.1043 -0.1595  0.1872
23986SOL    HW173571   8.503   4.799   3.769  1.3432 -1.1933  0.4164
23986SOL    HW273572   8.480   4.835   3.624 -1.1916  0.6157  1.1885
23987SOL     OW73573   8.873   4.992   5.245  0.6018  0.3768  0.2918
23987SOL    HW173574   8.854   4.908   5.286 -0.9956 -0.0383 -1.1816
23987SOL    HW273575   8.946   4.974   5.186 -0.5105 -0.3123 -0.9236
23988SOL     OW73576   1.681   7.117   7.277 -0.2394 -0.5520  0.1050
23988SOL    HW173577   1.640   7.041   7.236 -0.8320 -0.3201  0.2569
23988SOL    HW273578   1.679   7.185   7.210  1.4815 -1.0278 -0.4963
23989SOL     OW73579   2.881   3.816   3.240  0.5699 -0.4150  0.0189
23989SOL    HW173580   2.957   3.783   3.193  0.4245  1.7007 -1.8656
23989SOL    HW273581   2.898   3.910   3.249 -1.5703  0.0102  0.0239
23990SOL     OW73582   4.888   6.253   7.829 -0.2401 -0.2712 -0.2009
23990SOL    HW173583   4.823   6.321   7.810 -0.2235 -0.1382  0.1957
23990SOL    HW273584   4.953   6.297   7.884  0.2187 -0.3891 -0.6462
23991SOL     OW73585   7.417   8.582   7.143  0.6375  0.5395  0.0421
23991SOL    HW173586   7.446   8.498   7.107 -0.9445  0.2886 -0.7172
23991SOL    HW273587   7.414   8.640   7.067 -2.0012  0.2156 -0.1992
23992SOL     OW73588   7.397   4.905   6.770  0.3079 -0.1770 -0.8430
23992SOL    HW173589   7.451   4.983   6.785 -0.2446 -0.3275  2.5859
23992SOL    HW273590   7.317   4.939   6.730 -0.2192  1.1994  1.2204
23993SOL     OW73591   3.973   7.816   2.904 -0.0984  0.1798  0.1449
23993SOL    HW173592   4.067   7.815   2.887  0.0695 -0.0759  1.0144
23993SOL    HW273593   3.933   7.811   2.818  0.6962 -1.1913 -0.1816
23994SOL     OW73594   0.313   3.981   4.126  0.0105 -0.4404  0.7077
23994SOL    HW173595   0.310   3.917   4.197  1.7256 -1.9926 -0.4855
23994SOL    HW273596   0.350   3.932   4.052  3.9398  2.4846  0.4011
23995SOL     OW73597   0.104   1.702   0.088  0.1055 -0.1858  0.5235
23995SOL    HW173598   0.175   1.713   0.025 -0.8094  0.6840 -0.3687
23995SOL    HW273599   0.082   1.609   0.083  0.8876 -0.3815  0.5070
23996SOL     OW73600   2.914   6.278   0.909  0.4020  0.3627 -0.0991
23996SOL    HW173601   2.997   6.247   0.871  0.0115 -2.1089  0.8391
23996SOL    HW273602   2.941   6.343   0.974  1.5139  0.4991 -0.6701
23997SOL     OW73603   4.688   6.105   0.316  0.2630  0.1713  0.1868
23997SOL    HW173604   4.624   6.127   0.384  1.1421  1.0892  0.7463
23997SOL    HW273605   4.672   6.012   0.297  1.0914 -0.6092  2.8773
23998SOL     OW73606   7.364   6.745   9.509 -0.7409 -0.2743  0.0053
23998SOL    HW173607   7.335   6.829   9.474  0.9353 -0.2410 -1.4730
23998SOL    HW273608   7.367   6.687   9.433  0.8233 -0.8644  0.4686
23999SOL     OW73609   6.710   7.051   3.195 -0.0731 -0.1758 -0.7505
23999SOL    HW173610   6.789   7.045   3.141  0.6371 -0.4811  0.2919
23999SOL    HW273611   6.645   7.093   3.139  0.8605  0.1632 -1.5912
24000SOL     OW73612   0.950   5.429   1.896 -0.6974  0.5507 -0.3049
24000SOL    HW173613   0.903   5.450   1.815 -1.7379 -0.3962  0.0397
24000SOL    HW273614   0.988   5.343   1.879 -2.6912 -0.6436  0.9280
24001SOL     OW73615   1.076   0.556   1.336  0.9240  0.0898  0.0219
24001SOL    HW173616   0.982   0.566   1.353  0.9973  1.3946 -0.2408
24001SOL    HW273617   1.089   0.462   1.330 -0.4208 -0.1079 -0.1853
24002SOL     OW73618   6.580   0.157   2.454  0.0497 -0.0262  0.0540
24002SOL    HW173619   6.605   0.250   2.459  1.0081 -0.2907  0.3643
24002SOL    HW273620   6.627   0.116   2.526 -1.9407 -0.4329  1.1892
24003SOL     OW73621   5.060   9.217   9.270 -0.0276 -0.2215 -0.3385
24003SOL    HW173622   4.997   9.231   9.341 -0.2111 -0.3492 -0.4777
24003SOL    HW273623   5.006   9.198   9.193  0.1983 -1.1607 -0.2778
24004SOL     OW73624   3.226   3.021   8.899  0.2909 -0.0864 -0.3503
24004SOL    HW173625   3.202   3.084   8.966 -1.2670  0.2300 -1.1371
24004SOL    HW273626   3.212   3.067   8.816  1.0594 -0.8278 -0.9177
24005SOL     OW73627   1.842   7.282   4.873 -0.1657 -0.7530  0.0535
24005SOL    HW173628   1.856   7.283   4.778  1.5871  1.5454  0.2802
24005SOL    HW273629   1.751   7.310   4.884  0.1857  0.8495 -0.9012
24006SOL     OW73630   6.584   1.438   5.373  0.4048 -0.3978  0.7070
24006SOL    HW173631   6.620   1.508   5.427 -0.0356  0.1540  0.2988
24006SOL    HW273632   6.624   1.358   5.407  0.4447 -0.0143  1.5714
24007SOL     OW73633   7.287   4.217   4.588  0.1299  0.2121 -0.7642
24007SOL    HW173634   7.265   4.198   4.497  0.6471 -1.9411 -0.4819
24007SOL    HW273635   7.368   4.269   4.583 -0.4867  1.1233 -1.5405
24008SOL     OW73636   6.411   2.831   9.799  0.3808 -0.2864 -0.1596
24008SOL    HW173637   6.495   2.784   9.802  0.4506 -0.1071  1.2567
24008SOL    HW273638   6.416   2.894   9.870 -0.1299  1.2190 -1.3972
24009SOL     OW73639   8.244   0.465   6.261 -0.6781 -0.6651  0.2331
24009SOL    HW173640   8.249   0.402   6.333 -0.5621  1.6417  2.3510
24009SOL    HW273641   8.310   0.531   6.281 -1.1971  0.4851 -1.5725
24010SOL     OW73642   1.281   5.944   0.630  0.1146 -0.1265  0.5083
24010SOL    HW173643   1.260   5.890   0.706 -1.1118 -1.1849 -0.5286
24010SOL    HW273644   1.286   5.881   0.557  0.6029  0.9376 -0.4026
24011SOL     OW73645   7.052   6.516   6.964 -0.4593 -0.1194  0.2645
24011SOL    HW173646   7.127   6.471   7.002 -0.3672  2.5944  3.8036
24011SOL    HW273647   7.090   6.570   6.895  0.4650 -0.5731  0.3927
24012SOL     OW73648   5.524   1.658   2.337 -0.4095  0.6035 -0.1664
24012SOL    HW173649   5.606   1.625   2.374 -0.2967  2.3499  1.2961
24012SOL    HW273650   5.456   1.623   2.395 -0.5153  0.7089 -0.2272
24013SOL     OW73651   8.725   1.304   9.605 -0.3134 -0.3180 -0.4010
24013SOL    HW173652   8.638   1.331   9.576 -0.4582  1.9039  1.7437
24013SOL    HW273653   8.710   1.258   9.687  0.5165  0.5285  0.2592
24014SOL     OW73654   4.913   0.191   4.736 -0.5694  0.7695  0.4002
24014SOL    HW173655   4.835   0.137   4.747 -2.0966  2.4799 -1.2224
24014SOL    HW273656   4.907   0.257   4.805 -0.1943  0.5353  0.6624
24015SOL     OW73657   5.906   1.923   5.792 -0.2086 -0.0163  0.0022
24015SOL    HW173658   5.895   2.018   5.795  0.2098  0.0685 -0.9064
24015SOL    HW273659   5.992   1.910   5.752  0.0533 -0.7712  0.7911
24016SOL     OW73660   3.921   6.477   7.817 -0.0627 -0.2809  0.0480
24016SOL    HW173661   3.921   6.546   7.883 -2.3028 -0.2226  0.0700
24016SOL    HW273662   3.847   6.421   7.841 -1.8765  0.5237 -3.1232
24017SOL     OW73663   7.315   4.105   3.463 -0.2904  0.2496 -0.0153
24017SOL    HW173664   7.341   4.101   3.555  0.3228 -2.8056 -0.2091
24017SOL    HW273665   7.384   4.059   3.417 -1.7193 -0.3159 -1.7058
24018SOL     OW73666   3.065   7.715   8.380 -0.0864 -0.3789  0.0276
24018SOL    HW173667   3.108   7.708   8.465 -2.4259 -0.4702  1.2874
24018SOL    HW273668   2.977   7.679   8.394 -0.3325 -1.0484 -2.6226
24019SOL     OW73669   6.223   9.424   6.435  0.1319  0.8251 -0.3237
24019SOL    HW173670   6.268   9.482   6.496  0.8482  0.5273 -0.5571
24019SOL    HW273671   6.292   9.390   6.378 -0.2607 -0.2249 -0.2131
24020SOL     OW73672   5.846   3.836   9.488 -0.1235  0.1643  0.1015
24020SOL    HW173673   5.778   3.896   9.519 -1.1696 -0.6991 -0.4511
24020SOL    HW273674   5.904   3.824   9.563 -2.7461 -2.1222  1.9924
24021SOL     OW73675   4.207   4.615   3.258  0.0551 -0.4168  0.1483
24021SOL    HW173676   4.149   4.549   3.295 -0.6524 -0.3582 -0.8102
24021SOL    HW273677   4.284   4.566   3.229  0.1248 -0.6192  0.6750
24022SOL     OW73678   9.643   1.775   3.538  0.1683  0.1629  0.6845
24022SOL    HW173679   9.648   1.681   3.555  1.2190  0.0733 -0.0636
24022SOL    HW273680   9.701   1.815   3.603 -0.7882  0.3811  1.4449
24023SOL     OW73681   4.759   2.922   2.252  0.4105 -0.0661 -0.1365
24023SOL    HW173682   4.700   2.992   2.225  0.3115 -0.0339  0.1644
24023SOL    HW273683   4.822   2.915   2.181  1.2539  1.2664  0.4479
24024SOL     OW73684   7.099   4.388   8.591 -0.1622  0.4142 -0.2307
24024SOL    HW173685   7.015   4.412   8.553 -0.2757 -0.7014 -0.7355
24024SOL    HW273686   7.113   4.452   8.661  0.1120  2.6305 -2.1710
24025SOL     OW73687   8.230   7.476   9.237 -0.5358  0.0412 -0.3382
24025SOL    HW173688   8.205   7.564   9.210  0.8375  0.8067  0.7794
24025SOL    HW273689   8.222   7.423   9.157 -0.6840  1.3123 -1.1912
24026SOL     OW73690   5.848   0.785   6.653 -0.3619  0.0187  0.0986
24026SOL    HW173691   5.785   0.814   6.719 -0.9129 -1.1869  0.1317
24026SOL    HW273692   5.904   0.861   6.639 -0.7652  0.5732  1.3179
24027SOL     OW73693   3.561   4.930   8.471  0.5448 -0.3553 -0.3560
24027SOL    HW173694   3.499   4.954   8.541  0.8466 -0.7347  0.0464
24027SOL    HW273695   3.519   4.856   8.427  0.4246 -0.2126 -0.4828
24028SOL     OW73696   6.702   8.676   0.689 -0.3574 -0.0361  0.4005
24028SOL    HW173697   6.656   8.598   0.721 -0.0843 -0.6570 -0.6689
24028SOL    HW273698   6.649   8.706   0.615 -0.2487  0.5807  0.5663
24029SOL     OW73699   3.384   6.451   8.617  0.2582  0.1403  0.3224
24029SOL    HW173700   3.332   6.506   8.676 -0.2972  1.6244 -1.4565
24029SOL    HW273701   3.451   6.510   8.582  0.7037 -0.7473 -0.3692
24030SOL     OW73702   9.014   0.651   0.749  0.5335 -0.0535 -0.2747
24030SOL    HW173703   9.025   0.736   0.791 -0.3433 -0.1512  0.1691
24030SOL    HW273704   9.101   0.631   0.712  0.5815  1.3221 -0.9685
24031SOL     OW73705   5.382   6.373   8.764 -0.0963 -0.1552 -0.2700
24031SOL    HW173706   5.472   6.341   8.762 -0.9532 -3.0371  1.1080
24031SOL    HW273707   5.358   6.384   8.671  1.0607 -1.3398 -0.7385
24032SOL     OW73708   7.282   1.943   3.186 -0.0131  0.4251 -0.2325
24032SOL    HW173709   7.245   2.010   3.128  0.8950  1.8017  0.7165
24032SOL    HW273710   7.286   1.864   3.132 -3.0070  0.5295 -0.7917
24033SOL     OW73711   5.549   8.050   5.003 -0.2507 -0.3840 -0.0531
24033SOL    HW173712   5.538   8.137   5.041 -2.1032  0.1034 -1.5635
24033SOL    HW273713   5.625   8.014   5.048 -0.3302  1.4265  1.6670
24034SOL     OW73714   3.163   5.618   2.759 -0.2521  0.0361 -0.1321
24034SOL    HW173715   3.074   5.652   2.745  0.5341  1.8147 -1.0684
24034SOL    HW273716   3.206   5.686   2.811  0.9484 -0.1674 -0.8350
24035SOL     OW73717   4.814   6.668   0.151 -0.2293 -0.3428  0.3489
24035SOL    HW173718   4.731   6.623   0.135 -0.8218  1.2775 -1.5750
24035SOL    HW273719   4.797   6.722   0.229 -0.8713 -0.2947  0.1826
24036SOL     OW73720   8.599   9.150   5.622 -0.2463  0.4725 -0.3938
24036SOL    HW173721   8.569   9.070   5.578  0.4356  0.6720 -1.2599
24036SOL    HW273722   8.600   9.216   5.552 -1.9015  1.5551  0.5336
24037SOL     OW73723   2.050   4.040   6.074  0.5496  0.0468  0.0278
24037SOL    HW173724   1.970   4.083   6.043  0.2163  0.0311  0.8525
24037SOL    HW273725   2.036   3.947   6.056  0.4909  0.0737 -0.0643
24038SOL     OW73726   6.825   8.242   6.476  0.0460  0.3129 -0.1459
24038SOL    HW173727   6.753   8.181   6.487  0.9862 -0.6369  1.0203
24038SOL    HW273728   6.783   8.328   6.467 -1.2219  0.0186  2.1149
24039SOL     OW73729   8.005   0.034   6.552  0.4266  0.2037 -0.4136
24039SOL    HW173730   8.066   0.069   6.488 -0.2286 -2.2660 -2.5744
24039SOL    HW273731   7.936  -0.006   6.499 -2.3005  1.5198  1.9123
24040SOL     OW73732   3.323   1.299   1.173  0.1697 -0.2033  0.6815
24040SOL    HW173733   3.343   1.286   1.266  0.8041  3.1663  1.1397
24040SOL    HW273734   3.408   1.319   1.133 -0.1253 -1.4243 -0.6443
24041SOL     OW73735   6.255   3.380   0.149  0.0661 -0.2438 -0.4586
24041SOL    HW173736   6.199   3.456   0.131 -1.2571 -1.2437 -0.7401
24041SOL    HW273737   6.275   3.387   0.242  0.2581  0.6436 -0.5587
24042SOL     OW73738   4.175   6.084   0.474  0.4515 -0.2563 -0.0039
24042SOL    HW173739   4.080   6.087   0.478  0.4450 -0.0877 -0.2235
24042SOL    HW273740   4.195   6.082   0.380  0.7686  4.4324 -0.2978
24043SOL     OW73741   7.454   6.500   1.156 -0.0528 -0.3168 -0.4701
24043SOL    HW173742   7.498   6.550   1.087  1.1329 -0.6250  0.0306
24043SOL    HW273743   7.415   6.566   1.212 -1.3969 -0.0744 -1.6470
24044SOL     OW73744   4.068   5.778   4.376 -0.0378 -0.4331  0.1678
24044SOL    HW173745   4.014   5.789   4.298  0.4737  0.9781 -0.0018
24044SOL    HW273746   4.026   5.834   4.442  0.9850  0.3570  0.1546
24045SOL     OW73747   6.591   0.749   3.120 -0.0335 -0.3847  0.1491
24045SOL    HW173748   6.554   0.747   3.208 -0.1531 -1.5026  0.0832
24045SOL    HW273749   6.622   0.660   3.104  0.3967 -0.0891 -0.7709
24046SOL     OW73750   9.107   2.544   9.584  0.3036  0.6653  0.3187
24046SOL    HW173751   9.167   2.612   9.552 -1.4229  2.8040  1.3764
24046SOL    HW273752   9.029   2.552   9.529 -0.0648 -0.2777  0.6736
24047SOL     OW73753   1.395   7.866   1.759 -0.6648 -0.4609 -0.7208
24047SOL    HW173754   1.333   7.885   1.688 -1.3155 -1.9307 -0.5775
24047SOL    HW273755   1.373   7.930   1.827 -2.4154 -1.2559 -0.4675
24048SOL     OW73756   3.157   8.618   8.256  0.1336  0.1040 -0.0616
24048SOL    HW173757   3.101   8.543   8.238  0.5712 -0.3408  0.3914
24048SOL    HW273758   3.099   8.683   8.296 -0.4990  0.4750 -1.5121
24049SOL     OW73759   9.489   0.955   6.149 -0.1031  0.2248 -0.4774
24049SOL    HW173760   9.483   0.881   6.088  1.6351 -1.0814  0.8163
24049SOL    HW273761   9.583   0.970   6.158 -0.3488  0.8202  1.3526
24050SOL     OW73762   3.209   9.596   4.082  0.2395 -0.4488  0.5162
24050SOL    HW173763   3.132   9.651   4.068 -0.3716 -1.1973  0.8103
24050SOL    HW273764   3.282   9.657   4.084 -0.4381  0.3808  1.0980
24051SOL     OW73765   4.288   7.506   5.284  0.2164  0.2799 -0.1986
24051SOL    HW173766   4.298   7.550   5.200  1.6162  0.6644  0.1478
24051SOL    HW273767   4.277   7.414   5.261  2.6241  0.0725 -0.7871
24052SOL     OW73768   5.936   0.341   4.581  0.0308 -0.0673  0.4349
24052SOL    HW173769   5.850   0.374   4.552 -0.7565 -1.1965  1.3736
24052SOL    HW273770   5.958   0.273   4.518 -0.3344 -0.5774  0.8474
24053SOL     OW73771   8.716   7.194   9.228 -0.4126 -0.1018 -0.1371
24053SOL    HW173772   8.759   7.255   9.168 -0.8635  0.5535  0.1983
24053SOL    HW273773   8.774   7.118   9.230 -0.4823 -0.2334 -1.5607
24054SOL     OW73774   7.261   6.107   7.076  0.2205 -0.1884 -0.6442
24054SOL    HW173775   7.271   6.015   7.052  1.1918  0.0743 -1.3014
24054SOL    HW273776   7.349   6.136   7.100 -0.2355  0.3315  0.4450
24055SOL     OW73777   0.296   6.214   4.515 -0.4391  0.0579 -0.0091
24055SOL    HW173778   0.351   6.138   4.532 -0.5422  0.2919  1.4495
24055SOL    HW273779   0.214   6.178   4.482 -0.8748 -0.5501  1.6622
24056SOL     OW73780   0.028   9.590   3.976  0.1179  0.3411 -0.6283
24056SOL    HW173781  -0.016   9.621   3.897  0.2011  1.3971 -0.2714
24056SOL    HW273782  -0.020   9.511   4.001 -0.7581  0.7527 -0.9708
24057SOL     OW73783   7.088   0.359   2.683  0.2947 -0.2110  0.0760
24057SOL    HW173784   7.021   0.316   2.736  0.6866 -0.9069  0.0194
24057SOL    HW273785   7.076   0.452   2.701 -2.0551 -0.1132 -1.5293
24058SOL     OW73786   3.291   3.204   6.183  0.4152  0.0331 -0.4599
24058SOL    HW173787   3.301   3.256   6.103 -0.6474 -0.1487 -0.7315
24058SOL    HW273788   3.380   3.194   6.217  1.0828 -0.9458 -2.3068
24059SOL     OW73789   4.225   1.489   5.129 -0.7489 -0.0879 -0.1115
24059SOL    HW173790   4.234   1.558   5.194  0.8467  0.3879 -0.8019
24059SOL    HW273791   4.159   1.429   5.166 -0.2526  0.4359  1.6815
24060SOL     OW73792   0.257   5.659   6.818 -0.0703  0.5081 -0.2386
24060SOL    HW173793   0.275   5.570   6.786  0.7657  0.5469  0.0782
24060SOL    HW273794   0.162   5.662   6.828 -0.3809  0.4447 -2.5177
24061SOL     OW73795   2.878   0.645   6.693 -0.1610  0.0934 -0.7169
24061SOL    HW173796   2.857   0.601   6.611 -0.9240  1.2498 -1.1612
24061SOL    HW273797   2.814   0.613   6.756 -0.8562  0.7148 -1.0967
24062SOL     OW73798   3.552   8.978   0.131 -0.1862  0.5945  0.1243
24062SOL    HW173799   3.585   8.997   0.218  0.8160  0.8160 -0.2902
24062SOL    HW273800   3.593   9.043   0.074  0.1850 -0.3297 -0.7085
24063SOL     OW73801   5.817   6.782   8.335 -0.1284 -0.4164  0.3993
24063SOL    HW173802   5.797   6.830   8.255  1.4467  0.3244  0.4143
24063SOL    HW273803   5.756   6.816   8.400 -2.2594 -1.8817 -0.7226
24064SOL     OW73804   6.399   1.081   9.230  0.3331  0.3370  0.1155
24064SOL    HW173805   6.362   1.085   9.142 -0.2926 -0.8529  0.3068
24064SOL    HW273806   6.459   1.156   9.234  1.3473 -0.3040 -1.7633
24065SOL     OW73807   7.467   4.467   7.762 -0.3862 -0.0651 -0.0352
24065SOL    HW173808   7.454   4.550   7.809 -1.9469 -0.8839  1.0837
24065SOL    HW273809   7.483   4.493   7.672 -2.2954  1.4271  0.0025
24066SOL     OW73810   5.382   7.697   5.961 -0.6413 -0.1259  0.4463
24066SOL    HW173811   5.453   7.699   6.026  0.2141 -0.6210 -0.4382
24066SOL    HW273812   5.304   7.672   6.011 -0.1774  0.3301  1.4276
24067SOL     OW73813   2.774   0.053   6.250 -0.3362  0.3391 -0.5188
24067SOL    HW173814   2.802  -0.038   6.263  0.9912  0.8149  0.2006
24067SOL    HW273815   2.706   0.048   6.183 -1.3240 -1.3318  0.5398
24068SOL     OW73816   8.912   4.469   7.101 -0.4367  0.4217  0.0383
24068SOL    HW173817   8.825   4.502   7.077 -0.7032  0.3832  0.9402
24068SOL    HW273818   8.966   4.489   7.024 -0.7652  2.2880  0.2363
24069SOL     OW73819   1.481   3.173   3.279  0.3547 -0.2205  0.0537
24069SOL    HW173820   1.463   3.090   3.235 -0.4717 -0.9049  1.5879
24069SOL    HW273821   1.455   3.158   3.370  1.0161  1.4541  0.5617
24070SOL     OW73822   7.445   4.035   9.427  0.4507  0.3316 -0.4795
24070SOL    HW173823   7.418   3.976   9.498  0.7678 -0.4362 -0.9849
24070SOL    HW273824   7.503   3.981   9.372  2.0876  1.5748 -0.0598
24071SOL     OW73825   0.405   2.998   2.714  0.7290  0.5850  0.2045
24071SOL    HW173826   0.469   3.059   2.750  0.9867  0.7501 -0.5138
24071SOL    HW273827   0.331   3.052   2.688  0.4885  0.4500  0.5918
24072SOL     OW73828   1.414   5.384   5.717 -0.0556  0.2869  0.6787
24072SOL    HW173829   1.486   5.445   5.702 -0.0318 -0.1201 -1.0598
24072SOL    HW273830   1.417   5.367   5.811  0.1153  2.7199  1.1936
24073SOL     OW73831   7.475   7.547   8.046  0.4582  0.1937  0.2628
24073SOL    HW173832   7.476   7.601   8.125  0.6024 -0.6628  0.8616
24073SOL    HW273833   7.552   7.491   8.054  0.3947 -0.0066 -0.4157
24074SOL     OW73834   2.365   1.291   4.649  0.8481 -0.0867 -0.1223
24074SOL    HW173835   2.291   1.303   4.591  0.5113  1.1280  0.5330
24074SOL    HW273836   2.430   1.355   4.620  0.6389  0.6032  0.8583
24075SOL     OW73837   6.208   2.696   1.548 -0.3065  0.0048  0.1678
24075SOL    HW173838   6.303   2.693   1.554 -0.2598  0.5241 -0.2199
24075SOL    HW273839   6.178   2.617   1.594  0.2286  0.7367  1.8439
24076SOL     OW73840   7.732   0.915   4.520  0.0649 -0.0718 -0.2443
24076SOL    HW173841   7.651   0.928   4.470  0.5229 -0.1136 -1.0030
24076SOL    HW273842   7.706   0.932   4.611 -1.0730 -1.2407 -0.3183
24077SOL     OW73843   3.347   2.906   8.471  0.2230  0.0168 -0.0525
24077SOL    HW173844   3.332   2.819   8.507  2.0166 -0.4222 -0.2815
24077SOL    HW273845   3.260   2.936   8.444 -0.5823 -1.2376  1.0195
24078SOL     OW73846   5.051   3.594   0.696  0.3826 -0.0481 -0.1547
24078SOL    HW173847   5.001   3.629   0.623 -1.8522 -2.4096  0.1312
24078SOL    HW273848   5.085   3.510   0.665  3.1759  0.8430  0.1367
24079SOL     OW73849   3.128   0.211   4.929  0.2001  0.1122 -0.1692
24079SOL    HW173850   3.162   0.123   4.943  0.2535 -0.0843 -1.4293
24079SOL    HW273851   3.202   0.269   4.947  0.5143 -0.1745 -0.5383
24080SOL     OW73852   2.095   2.935   7.369  0.1212  0.0956  0.1125
24080SOL    HW173853   2.149   2.874   7.318  1.8665  1.5310  0.1788
24080SOL    HW273854   2.140   3.019   7.363 -2.3417  1.5144 -0.1938
24081SOL     OW73855   5.221   5.366   9.531  0.0461  0.2600  0.9297
24081SOL    HW173856   5.145   5.318   9.497 -0.0199 -1.0912  2.7962
24081SOL    HW273857   5.296   5.311   9.508  0.3741  1.0974 -0.0502
24082SOL     OW73858   5.012   1.020   1.612  0.1654  0.0943  0.5678
24082SOL    HW173859   5.030   1.114   1.604 -0.1038  0.0547 -0.8679
24082SOL    HW273860   4.928   1.009   1.566  0.4654 -0.9277  0.2571
24083SOL     OW73861   8.594   5.935   9.325 -0.0462  0.2127  0.2499
24083SOL    HW173862   8.546   5.912   9.406 -1.0156  1.1618 -0.0300
24083SOL    HW273863   8.583   5.858   9.269 -2.4334  0.8886 -0.3165
24084SOL     OW73864   6.054   8.691   6.071 -0.0628  0.1979  0.1379
24084SOL    HW173865   6.117   8.744   6.120 -0.9051  0.5334  0.8670
24084SOL    HW273866   6.109   8.637   6.013  1.0138 -0.6272  1.8450
24085SOL     OW73867   3.855   2.738   3.179  0.4202 -0.4601 -0.5387
24085SOL    HW173868   3.793   2.693   3.122  0.0356  0.4410 -0.8624
24085SOL    HW273869   3.818   2.826   3.190  1.2832 -0.1238 -0.1698
24086SOL     OW73870   9.233   4.391   0.069  0.0161 -0.3437 -0.3486
24086SOL    HW173871   9.322   4.362   0.050 -0.5233 -1.4782 -1.2877
24086SOL    HW273872   9.185   4.311   0.091 -0.4070  0.4388  1.8390
24087SOL     OW73873   8.335   1.936   3.655  0.3633  0.3084  0.3497
24087SOL    HW173874   8.242   1.952   3.643  0.2431  0.3949  1.2843
24087SOL    HW273875   8.339   1.866   3.721  0.9566  0.0659  0.0667
24088SOL     OW73876   3.639   3.377   8.791 -0.2526  0.1354  0.0024
24088SOL    HW173877   3.634   3.286   8.761  1.8317 -0.2085  0.5686
24088SOL    HW273878   3.646   3.371   8.886 -1.5821  0.9947  0.1889
24089SOL     OW73879   1.211   7.295   0.672  0.1732 -0.1478  0.6262
24089SOL    HW173880   1.243   7.205   0.658  1.3001  0.4725 -1.0915
24089SOL    HW273881   1.116   7.285   0.676  0.3317 -1.5824  1.9820
24090SOL     OW73882   6.738   3.505   1.071 -0.0794  0.1976 -0.1151
24090SOL    HW173883   6.688   3.527   0.992  2.0688  1.7321 -1.1752
24090SOL    HW273884   6.722   3.412   1.084 -1.2769  0.1093 -1.7854
24091SOL     OW73885   6.763   6.871   1.915 -0.6751  0.3659  0.3314
24091SOL    HW173886   6.855   6.844   1.925 -0.9175 -0.4019  0.5545
24091SOL    HW273887   6.765   6.966   1.929  0.0590  0.3360  0.5148
24092SOL     OW73888   9.019   8.077   7.924  0.5754 -0.3023  0.5092
24092SOL    HW173889   8.940   8.042   7.966  0.1183 -0.2483 -0.2753
24092SOL    HW273890   8.986   8.130   7.851  1.3329 -0.2384  0.1966
24093SOL     OW73891   8.455   1.485   8.920 -0.1630 -0.4802 -0.0135
24093SOL    HW173892   8.494   1.565   8.885 -0.0389 -0.1009  0.9705
24093SOL    HW273893   8.499   1.415   8.872 -0.2541  0.0244 -0.8686
24094SOL     OW73894   7.484   5.936   0.593 -0.1953  0.4679  0.0942
24094SOL    HW173895   7.562   5.992   0.588 -0.8931  1.4324 -0.2668
24094SOL    HW273896   7.411   5.997   0.605 -0.8825 -0.4367  0.6574
24095SOL     OW73897   8.820   6.071   9.323  0.3620 -0.5203 -0.1291
24095SOL    HW173898   8.906   6.031   9.333 -0.2724 -1.8909  0.0906
24095SOL    HW273899   8.761   5.998   9.307 -0.5167  0.5373 -2.0943
24096SOL     OW73900   8.245   7.765   1.963  0.2128  0.0184  0.1379
24096SOL    HW173901   8.240   7.696   1.898 -1.4535 -0.0192  0.2738
24096SOL    HW273902   8.338   7.788   1.966  0.3423 -0.0062 -2.1872
24097SOL     OW73903   5.283   1.509   3.897  0.5941 -0.6188 -0.1807
24097SOL    HW173904   5.238   1.457   3.964  1.9024 -0.3583  0.9347
24097SOL    HW273905   5.375   1.509   3.924  0.7465  1.6808 -0.5440
24098SOL     OW73906   9.324   9.265   4.164 -0.4284 -0.2387 -0.1896
24098SOL    HW173907   9.247   9.222   4.200 -0.7728  1.3187  1.0674
24098SOL    HW273908   9.321   9.354   4.201  1.4091  0.1737 -0.9235
24099SOL     OW73909   0.243   9.652   1.309 -0.0252 -0.0582 -0.7207
24099SOL    HW173910   0.225   9.569   1.265 -2.7136  0.5388 -0.9531
24099SOL    HW273911   0.306   9.630   1.378 -0.2981 -2.1766 -1.0828
24100SOL     OW73912   0.193   5.202   8.883  0.0587 -0.0144  0.7518
24100SOL    HW173913   0.128   5.192   8.953  0.2661  1.1156  1.1247
24100SOL    HW273914   0.172   5.285   8.842  0.3059 -0.3954 -0.1625
24101SOL     OW73915   3.468   8.444   5.031 -0.2240 -0.6652  0.1334
24101SOL    HW173916   3.507   8.428   5.117 -1.8637  0.9171  1.2507
24101SOL    HW273917   3.536   8.417   4.969  1.2171 -1.3729  1.8954
24102SOL     OW73918   2.422   8.962   0.842  0.6777  0.1276 -0.7679
24102SOL    HW173919   2.367   8.887   0.819 -2.7011  2.2920 -0.3693
24102SOL    HW273920   2.417   8.967   0.937 -0.3248  1.6148 -0.8701
24103SOL     OW73921   3.471   0.388   8.564 -0.2487 -0.2972 -0.7372
24103SOL    HW173922   3.563   0.374   8.584 -0.1507 -1.7975 -2.0132
24103SOL    HW273923   3.442   0.455   8.626  1.8611  0.7165 -0.8010
24104SOL     OW73924   4.678   0.187   0.830  0.1787  0.1456 -0.3333
24104SOL    HW173925   4.737   0.112   0.828  1.5922  1.2212 -0.8729
24104SOL    HW273926   4.713   0.247   0.765 -0.5952  1.5057  0.4444
24105SOL     OW73927   8.748   2.762   3.597  0.0740  0.3135  0.0546
24105SOL    HW173928   8.775   2.815   3.523 -0.5001  2.3282  1.2116
24105SOL    HW273929   8.737   2.824   3.669  0.4253 -1.5300  1.8039
24106SOL     OW73930   8.010   3.722   2.400  0.4377 -0.2254 -0.5106
24106SOL    HW173931   8.090   3.697   2.445  0.6151 -0.4668 -0.9613
24106SOL    HW273932   8.038   3.750   2.313  0.3372  2.0801  0.1127
24107SOL     OW73933   7.607   8.469   6.655  0.3466  0.2173 -0.4031
24107SOL    HW173934   7.649   8.538   6.604  0.5360  0.6538  0.3332
24107SOL    HW273935   7.678   8.430   6.706  0.4318 -1.2004 -1.5343
24108SOL     OW73936   4.566   7.154   7.544 -0.3169 -0.0873 -0.3617
24108SOL    HW173937   4.551   7.155   7.638 -0.7225  2.5788 -0.3836
24108SOL    HW273938   4.660   7.171   7.535 -0.2624 -0.4254 -0.4452
24109SOL     OW73939   2.114   2.378   0.171 -0.2232  0.2511 -0.0481
24109SOL    HW173940   2.164   2.299   0.153 -0.7828  0.3310 -2.3378
24109SOL    HW273941   2.027   2.346   0.198 -0.5959  0.0325 -1.4238
24110SOL     OW73942   8.553   5.961   1.470  0.2413  0.3208 -0.4531
24110SOL    HW173943   8.563   6.048   1.507  0.9469  1.0517 -2.2372
24110SOL    HW273944   8.600   5.903   1.530  1.8441  1.5174 -0.4879
24111SOL     OW73945   6.805   6.581   0.493 -0.3459  0.0147  0.8519
24111SOL    HW173946   6.876   6.611   0.550 -0.2466 -0.0372  0.7540
24111SOL    HW273947   6.808   6.486   0.499 -0.1157 -0.0012  0.4866
24112SOL     OW73948   6.133   3.858   7.502 -0.0136 -0.0487 -0.2552
24112SOL    HW173949   6.069   3.824   7.564  0.3948  0.7367  0.6312
24112SOL    HW273950   6.086   3.866   7.419 -1.3814  1.4956  0.6152
24113SOL     OW73951   4.151   9.164   5.207 -0.2113 -0.2958  0.2575
24113SOL    HW173952   4.116   9.191   5.292  0.6507 -2.6786  1.4776
24113SOL    HW273953   4.223   9.225   5.190 -0.9993  0.8065  0.7455
24114SOL     OW73954   6.849   5.169   4.175 -0.1284 -0.0481  0.7058
24114SOL    HW173955   6.777   5.228   4.153  0.9834  0.5490 -1.7506
24114SOL    HW273956   6.906   5.221   4.233 -0.8050  0.0831  1.2608
24115SOL     OW73957   8.032   2.409   9.126  0.1039 -0.3727  0.2017
24115SOL    HW173958   8.081   2.462   9.063 -0.5027 -0.8172 -0.6807
24115SOL    HW273959   8.098   2.359   9.173  0.7033  1.2772  1.1838
24116SOL     OW73960   8.246   8.768   3.557  0.4974 -0.2602  0.6190
24116SOL    HW173961   8.194   8.794   3.633  1.0413 -0.6161  1.1254
24116SOL    HW273962   8.328   8.736   3.595 -0.0086 -2.4251  0.0291
24117SOL     OW73963   6.091   7.470   7.090 -0.3631 -0.2562 -0.4164
24117SOL    HW173964   6.153   7.412   7.048  1.0809  0.7190  0.3035
24117SOL    HW273965   6.081   7.435   7.178  1.2941  1.1109  0.3515
24118SOL     OW73966   4.366   3.165   5.752  0.7127  0.0179  0.7828
24118SOL    HW173967   4.406   3.087   5.791 -0.2179 -0.3656  0.9940
24118SOL    HW273968   4.403   3.169   5.664  0.6235 -0.7904  0.6982
24119SOL     OW73969   6.924   0.262   7.955 -0.0508 -0.0717  0.1247
24119SOL    HW173970   6.994   0.322   7.980  0.5480 -0.5696 -0.3441
24119SOL    HW273971   6.956   0.219   7.876 -1.3619  0.5148 -0.7628
24120SOL     OW73972   9.594   1.095   2.158 -0.0933 -0.2076  0.1994
24120SOL    HW173973   9.540   1.028   2.116 -3.4021  1.4919  1.3633
24120SOL    HW273974   9.605   1.064   2.248 -1.9665  0.8267  0.8539
24121SOL     OW73975   9.239   8.758   9.145  0.4727  0.1279  0.4437
24121SOL    HW173976   9.313   8.763   9.206  2.7031 -0.1133 -2.0685
24121SOL    HW273977   9.218   8.665   9.140  0.7408  0.0716  0.3491
24122SOL     OW73978   4.965   5.053   8.046  0.0517  1.0569  0.2778
24122SOL    HW173979   4.984   4.969   8.088 -0.7887  1.6876  2.0365
24122SOL    HW273980   4.960   5.033   7.953  0.4507 -0.7257  0.5990
24123SOL     OW73981   7.085   0.474   3.322 -0.1864 -0.3538 -0.2858
24123SOL    HW173982   7.078   0.429   3.238 -0.8450  1.5026 -1.2790
24123SOL    HW273983   7.177   0.463   3.347 -0.3854 -2.4664 -0.3033
24124SOL     OW73984   1.853   9.124   0.377  0.0813 -0.1297 -0.0489
24124SOL    HW173985   1.876   9.207   0.420  1.8012  0.7313 -2.4395
24124SOL    HW273986   1.869   9.057   0.444  1.3000  1.2304  1.0883
24125SOL     OW73987   2.565   9.148   6.919 -0.3189 -0.1837  0.0917
24125SOL    HW173988   2.631   9.179   6.981  0.7326 -0.9123 -0.6053
24125SOL    HW273989   2.483   9.186   6.948  0.5984  1.6821  0.3443
24126SOL     OW73990   1.278   5.765   3.637 -0.2015  0.1275 -0.1994
24126SOL    HW173991   1.369   5.758   3.607 -0.2835  0.5722 -0.5724
24126SOL    HW273992   1.238   5.826   3.575 -0.7845 -0.1573 -0.1000
24127SOL     OW73993   5.696   0.863   4.804  0.4099 -0.4912  0.1340
24127SOL    HW173994   5.635   0.810   4.753  0.3853 -0.9768  0.6623
24127SOL    HW273995   5.782   0.826   4.783  0.8754  1.8769 -2.7161
24128SOL     OW73996   5.821   3.239   7.341  0.0176  0.0790 -0.2172
24128SOL    HW173997   5.751   3.175   7.355 -0.3331  0.3957 -0.4961
24128SOL    HW273998   5.787   3.296   7.272  0.3767  0.4928 -0.0534
24129SOL     OW73999   7.262   3.636   8.978  0.1588  0.0731  0.0721
24129SOL    HW174000   7.236   3.545   8.989 -0.2014  0.2769  1.0240
24129SOL    HW274001   7.352   3.632   8.947  0.1800 -0.5995  0.2050
24130SOL     OW74002   5.218   3.334   0.195 -0.0733  0.2972  1.1469
24130SOL    HW174003   5.288   3.396   0.218  0.0229  0.0207  1.6119
24130SOL    HW274004   5.262   3.249   0.193 -0.5560  0.0009  2.2733
24131SOL     OW74005   1.247   6.821   8.284  0.6107  0.1482 -0.4777
24131SOL    HW174006   1.185   6.749   8.272 -1.9671  2.0092  0.9183
24131SOL    HW274007   1.261   6.856   8.196 -0.8405  0.0796 -0.7491
24132SOL     OW74008   4.095   9.703   5.484 -0.2189 -0.2794 -0.4290
24132SOL    HW174009   4.102   9.610   5.463 -0.2893 -0.4555  0.2980
24132SOL    HW274010   4.050   9.741   5.408  0.1944 -0.7568 -0.9246
24133SOL     OW74011   7.967   3.519   2.891  0.1713 -0.2449 -0.2201
24133SOL    HW174012   7.952   3.543   2.800 -1.6966  0.8831  0.3235
24133SOL    HW274013   7.998   3.428   2.887  3.8999  0.9230 -2.1226
24134SOL     OW74014   4.007   4.719   1.420 -0.3790  0.6321  0.0003
24134SOL    HW174015   4.037   4.810   1.409  1.1139  0.4469  1.9483
24134SOL    HW274016   4.066   4.683   1.486 -1.8954 -1.3253  0.3523
24135SOL     OW74017   9.415   0.904   2.083 -0.3791  0.6827  0.0257
24135SOL    HW174018   9.403   0.841   2.154  0.9723  0.1495 -0.1922
24135SOL    HW274019   9.466   0.857   2.018 -0.5839  1.5528 -0.7798
24136SOL     OW74020   1.605   0.120   2.350 -0.2045 -0.0908  0.1088
24136SOL    HW174021   1.569   0.042   2.307 -0.0483 -0.2256  0.2225
24136SOL    HW274022   1.562   0.194   2.305 -0.2942 -0.2385 -0.0506
24137SOL     OW74023   5.616   0.340   3.234  0.0137 -0.3101  0.3248
24137SOL    HW174024   5.634   0.333   3.328 -0.5017 -0.1953  0.4338
24137SOL    HW274025   5.528   0.304   3.223  0.1690 -0.5513 -0.1502
24138SOL     OW74026   3.678   5.552   6.995 -0.1400  0.0893  0.7654
24138SOL    HW174027   3.771   5.536   6.982 -0.2751 -0.6053  0.6407
24138SOL    HW274028   3.641   5.554   6.907 -0.2886  0.0784  0.8270
24139SOL     OW74029   8.345   8.155   6.005  0.4890 -0.1736 -0.0134
24139SOL    HW174030   8.296   8.107   5.939  0.6582 -2.1343  1.1990
24139SOL    HW274031   8.284   8.221   6.037  0.2477  0.4786 -1.7285
24140SOL     OW74032   5.402   8.405   9.606 -0.1069 -0.8063 -0.2627
24140SOL    HW174033   5.437   8.353   9.678 -0.6123  0.6338  1.0755
24140SOL    HW274034   5.446   8.371   9.528  2.4917 -0.6635  1.0457
24141SOL     OW74035   7.955   5.649   8.502 -0.1628  0.3252  0.1936
24141SOL    HW174036   8.008   5.589   8.449  1.0870  1.1472  0.4493
24141SOL    HW274037   8.011   5.726   8.514 -0.9886  0.7722  1.4574
24142SOL     OW74038   6.964   0.113   1.292  0.1840 -0.1971 -0.6801
24142SOL    HW174039   6.945   0.205   1.313 -0.3568 -0.4731  0.0953
24142SOL    HW274040   7.044   0.094   1.340 -1.1872 -0.9007  1.4926
24143SOL     OW74041   4.588   7.920   6.096 -0.4336  0.4777  0.2949
24143SOL    HW174042   4.670   7.907   6.049 -0.1309  1.2429  0.5924
24143SOL    HW274043   4.534   7.845   6.072  0.6612 -0.4881  0.7736
24144SOL     OW74044   1.517   8.714   1.179  0.0679  0.6741 -0.4160
24144SOL    HW174045   1.436   8.741   1.223  0.8199  0.7124  0.9898
24144SOL    HW274046   1.586   8.731   1.243  1.0227 -0.7897 -1.0208
24145SOL     OW74047   4.278   0.701   2.201  0.5855  0.6088  0.2627
24145SOL    HW174048   4.194   0.666   2.231 -0.3884  2.7069  0.1501
24145SOL    HW274049   4.339   0.679   2.272  0.1156 -1.4082  0.1090
24146SOL     OW74050   7.704   0.939   3.546 -0.2865 -0.3562 -0.0442
24146SOL    HW174051   7.694   0.876   3.475  1.3039 -1.0729  0.3127
24146SOL    HW274052   7.773   0.998   3.515  1.0989 -1.2285  1.2168
24147SOL     OW74053   4.286   7.959   7.427 -0.1051 -0.0281 -0.2800
24147SOL    HW174054   4.212   8.020   7.426 -1.0822 -1.1382  0.5195
24147SOL    HW274055   4.355   8.004   7.378 -1.3744  0.9464 -1.2608
24148SOL     OW74056   8.505   0.583   5.594  0.0986  0.0023 -0.2578
24148SOL    HW174057   8.576   0.640   5.564  0.3178 -0.3389 -0.3868
24148SOL    HW274058   8.455   0.638   5.655  1.9623 -0.5210  1.9041
24149SOL     OW74059   4.894   3.640   1.378  0.7269 -0.1777  0.2881
24149SOL    HW174060   4.859   3.651   1.290 -0.8270 -0.5911  0.8194
24149SOL    HW274061   4.989   3.649   1.368  0.7778 -2.1512 -1.7310
24150SOL     OW74062   8.148   8.118   2.996  0.2457  0.1300  0.1990
24150SOL    HW174063   8.105   8.164   3.069 -1.3228 -0.5716 -0.2263
24150SOL    HW274064   8.208   8.057   3.039 -0.3779 -0.0107  0.8974
24151SOL     OW74065   8.821   0.351   7.691  0.2485  0.4118  0.3715
24151SOL    HW174066   8.867   0.423   7.646 -0.5467  0.2852 -0.6808
24151SOL    HW274067   8.841   0.365   7.783 -0.1959  2.2187  0.2371
24152SOL     OW74068   6.668   0.383   0.414  0.3081  0.2253 -0.4697
24152SOL    HW174069   6.625   0.455   0.368  0.4104  0.7171  0.1905
24152SOL    HW274070   6.749   0.368   0.364  0.9337  1.4500  0.1166
24153SOL     OW74071   6.010   9.771   6.553 -0.3274 -0.0877  0.1544
24153SOL    HW174072   6.057   9.769   6.636 -1.0581  0.4788  0.5937
24153SOL    HW274073   5.937   9.712   6.565 -0.3982 -0.0571 -0.1114
24154SOL     OW74074   9.051   7.796   9.449 -0.6068 -0.1253  0.3910
24154SOL    HW174075   9.134   7.751   9.429  0.8323  1.3566  2.5579
24154SOL    HW274076   8.984   7.742   9.407  1.4634 -1.1550 -1.8377
24155SOL     OW74077   6.135   9.673   0.896 -0.4401 -0.2161  0.3399
24155SOL    HW174078   6.163   9.588   0.863  1.9982  0.2341  1.0599
24155SOL    HW274079   6.110   9.657   0.987  0.3539 -0.1134  0.5794
24156SOL     OW74080   1.090   8.299   3.347  0.0729  0.0221 -0.3048
24156SOL    HW174081   1.106   8.209   3.319 -1.6367 -0.5605  0.4787
24156SOL    HW274082   0.999   8.316   3.325 -0.1003  0.9956  1.0416
24157SOL     OW74083   3.801   9.050   6.742 -0.7258  0.1140  0.2184
24157SOL    HW174084   3.818   8.980   6.805 -0.4508  1.7262  2.0277
24157SOL    HW274085   3.769   9.123   6.795 -1.2430  1.2911 -1.6274
24158SOL     OW74086   6.588   6.020   1.218 -0.1640  0.3165  0.3988
24158SOL    HW174087   6.588   5.982   1.306 -0.6138 -0.1015  0.2206
24158SOL    HW274088   6.549   5.953   1.162  2.5651 -0.5489 -0.6294
24159SOL     OW74089   7.642   4.716   9.368  0.0812  0.0401 -0.6231
24159SOL    HW174090   7.669   4.769   9.293  1.0671 -0.5702 -0.7076
24159SOL    HW274091   7.716   4.720   9.428 -0.3045 -0.3002 -0.1229
24160SOL     OW74092   3.436   8.288   8.849 -0.0134  0.2836 -0.2438
24160SOL    HW174093   3.490   8.231   8.903 -0.0296  0.3466 -0.1618
24160SOL    HW274094   3.429   8.242   8.765 -0.9003 -0.3521  0.1609
24161SOL     OW74095   2.697   4.320   2.330 -0.5958 -0.2643 -0.0070
24161SOL    HW174096   2.730   4.245   2.379 -0.1990  1.2362  2.1776
24161SOL    HW274097   2.768   4.343   2.271 -0.5252 -1.2864 -0.3338
24162SOL     OW74098   9.722   9.349   3.425 -0.4836  0.3234  0.0085
24162SOL    HW174099   9.761   9.275   3.378 -0.5648  0.1421  0.2252
24162SOL    HW274100   9.669   9.308   3.494 -0.8241  0.5773 -0.1042
24163SOL     OW74101   2.470   4.182   2.192 -0.3446  0.6977  0.5363
24163SOL    HW174102   2.556   4.218   2.214  0.4193 -1.2810  1.0049
24163SOL    HW274103   2.479   4.088   2.205 -2.2073  0.2868 -0.7355
24164SOL     OW74104   2.260   9.684   5.186  0.5083 -0.4956  0.5084
24164SOL    HW174105   2.341   9.733   5.199  0.3933 -0.3532  0.6886
24164SOL    HW274106   2.265   9.613   5.249  1.3060 -1.5259 -0.6736
24165SOL     OW74107   3.785   5.341   0.525 -0.3792  0.8963  0.3917
24165SOL    HW174108   3.804   5.434   0.522 -0.1936  0.8375 -1.3800
24165SOL    HW274109   3.690   5.335   0.530 -0.3792  1.1814  0.7028
24166SOL     OW74110   6.890   7.382   6.687  0.1914 -0.1475  0.7879
24166SOL    HW174111   6.914   7.337   6.606 -0.7727  0.3617  0.1992
24166SOL    HW274112   6.970   7.381   6.739  0.3355 -2.0898  0.5980
24167SOL     OW74113   8.803   8.158   3.106 -0.7367 -0.0995 -0.2417
24167SOL    HW174114   8.752   8.225   3.150 -1.0625 -0.3440 -0.2483
24167SOL    HW274115   8.880   8.205   3.072 -0.8472  0.2232 -0.0491
24168SOL     OW74116   1.290   1.528   3.358  0.0592  0.4302  0.1968
24168SOL    HW174117   1.299   1.556   3.267 -1.6547  1.3733  0.2656
24168SOL    HW274118   1.196   1.512   3.369  0.3875 -0.8869  1.4781
24169SOL     OW74119   8.546   5.139   9.550 -0.2082  0.4416  0.4683
24169SOL    HW174120   8.607   5.157   9.621 -1.1428  0.6230  1.2518
24169SOL    HW274121   8.589   5.173   9.472  0.2769  1.4289  1.1411
24170SOL     OW74122   0.453   2.736   7.356  0.3712 -0.0059  0.2159
24170SOL    HW174123   0.371   2.774   7.386  0.4229  0.0820  0.2465
24170SOL    HW274124   0.477   2.789   7.280  0.5668  0.1786  0.4023
24171SOL     OW74125   2.978   5.198   4.513  0.0973 -0.1959 -0.0747
24171SOL    HW174126   3.030   5.249   4.575  0.6693 -0.0175 -0.6783
24171SOL    HW274127   2.941   5.127   4.565 -1.0582  1.0426  0.8789
24172SOL     OW74128   4.532   9.799   7.947 -0.0956 -0.1957  0.8062
24172SOL    HW174129   4.579   9.769   7.869  3.5498  0.1929  2.6252
24172SOL    HW274130   4.440   9.784   7.927  0.7975 -2.1208 -2.6828
24173SOL     OW74131   1.843   3.278   6.441 -0.1078 -0.2079  0.6595
24173SOL    HW174132   1.873   3.305   6.528  0.8910  0.5275  0.1156
24173SOL    HW274133   1.812   3.188   6.452 -0.0574 -0.0920  1.7839
24174SOL     OW74134   1.962   7.971   5.213  0.2117 -0.2971 -0.2747
24174SOL    HW174135   1.961   8.053   5.163  0.7981 -0.4149 -0.4916
24174SOL    HW274136   1.876   7.967   5.254  0.0706  0.2845 -0.4972
24175SOL     OW74137   5.943   1.100   7.285  0.3549  0.2242  0.2325
24175SOL    HW174138   5.922   1.165   7.352  0.2523 -1.0105  1.4311
24175SOL    HW274139   5.950   1.017   7.332  1.5850 -0.4776 -1.0828
24176SOL     OW74140   2.793   9.762   9.650 -0.0729 -0.2723  0.0546
24176SOL    HW174141   2.808   9.735   9.559  0.7083 -0.0032  0.0971
24176SOL    HW274142   2.783   9.680   9.698  0.1827 -0.4338 -0.1670
24177SOL     OW74143   7.130   3.047   4.383  0.0686  0.1871 -0.0601
24177SOL    HW174144   7.176   3.085   4.458  0.2547  0.9227 -0.5381
24177SOL    HW274145   7.197   2.996   4.338 -0.2074 -0.8275  0.6420
24178SOL     OW74146   5.730   2.804   1.126  0.0032 -0.2524 -0.4399
24178SOL    HW174147   5.755   2.874   1.065  1.1125 -0.7421 -0.5595
24178SOL    HW274148   5.703   2.850   1.205  3.0734  0.3035  0.3893
24179SOL     OW74149   4.140   4.828   3.108 -0.2264 -1.0930 -0.0274
24179SOL    HW174150   4.211   4.885   3.138 -0.2496 -0.3784 -1.2922
24179SOL    HW274151   4.157   4.744   3.151  0.2008 -0.3566  1.3095
24180SOL     OW74152   8.711   6.362   7.554 -0.1659  0.2340 -0.1572
24180SOL    HW174153   8.764   6.288   7.524 -1.0132 -0.0315 -1.0160
24180SOL    HW274154   8.709   6.352   7.649  0.5346 -0.2871 -0.1857
24181SOL     OW74155   1.750   8.397   7.913 -0.2679 -0.1223 -0.5155
24181SOL    HW174156   1.668   8.390   7.863  0.4493 -1.1910 -1.5948
24181SOL    HW274157   1.752   8.489   7.941 -1.8894 -0.1071 -0.3472
24182SOL     OW74158   7.486   7.077   9.377 -0.2417  0.0026  0.3343
24182SOL    HW174159   7.541   7.019   9.323 -1.2621 -2.0709  1.3977
24182SOL    HW274160   7.435   7.128   9.313  2.3303  1.4966 -0.6678
24183SOL     OW74161   2.776   6.477   8.310 -0.5152  1.0695  0.0707
24183SOL    HW174162   2.856   6.514   8.348  0.3418 -0.4767 -0.1597
24183SOL    HW274163   2.758   6.400   8.364  0.0943 -0.5381 -1.9364
24184SOL     OW74164   3.126   8.453   6.383  0.4263 -0.2697 -0.0221
24184SOL    HW174165   3.155   8.543   6.366  1.8174 -0.5761  0.5503
24184SOL    HW274166   3.190   8.419   6.446  0.0919 -1.7579 -0.4451
24185SOL     OW74167   4.122   8.546   1.662  0.0155 -0.0341  0.6478
24185SOL    HW174168   4.077   8.627   1.683 -0.3472  0.1414 -0.6871
24185SOL    HW274169   4.175   8.526   1.740 -1.4069  0.4042  1.7646
24186SOL     OW74170   5.743   0.205   5.685 -0.2671  0.0375 -0.2509
24186SOL    HW174171   5.671   0.248   5.731 -1.5854 -2.1713 -0.1146
24186SOL    HW274172   5.796   0.166   5.754  0.3848  0.6187 -0.4131
24187SOL     OW74173   3.627   6.545   8.486  0.3556 -0.1048  0.6651
24187SOL    HW174174   3.661   6.554   8.397  1.3956 -1.8899  0.8309
24187SOL    HW274175   3.668   6.616   8.535 -1.3863  1.8373 -0.5339
24188SOL     OW74176   4.490   1.359   7.017  0.7682  0.3464 -0.3913
24188SOL    HW174177   4.434   1.417   7.068  1.9976  1.1394  0.0977
24188SOL    HW274178   4.490   1.277   7.066 -1.8009 -0.5201 -1.6134
24189SOL     OW74179   9.299   8.768   4.580  0.3519 -0.6994 -0.1035
24189SOL    HW174180   9.386   8.788   4.616 -0.4289  2.5675  0.2884
24189SOL    HW274181   9.244   8.754   4.657 -0.3102  1.5489 -0.1062
24190SOL     OW74182   4.490   0.386   1.840  0.1625 -0.6719  0.1279
24190SOL    HW174183   4.569   0.360   1.889  0.0183 -0.6582  0.3679
24190SOL    HW274184   4.421   0.329   1.873 -0.2261  0.2145  0.8872
24191SOL     OW74185   2.618   4.043   9.287  0.3447 -0.0482  0.7055
24191SOL    HW174186   2.539   4.066   9.336  0.3014  1.6827 -0.1100
24191SOL    HW274187   2.610   3.949   9.271 -1.0317 -0.0970  1.5299
24192SOL     OW74188   9.829   8.087   5.197  0.3614 -0.0281  0.0890
24192SOL    HW174189   9.808   8.015   5.137  0.0057  0.4406 -0.3584
24192SOL    HW274190   9.758   8.149   5.186  0.3800  0.1432  0.8866
24193SOL     OW74191   4.059   9.032   4.311  0.8327 -0.1041 -0.4035
24193SOL    HW174192   4.019   9.109   4.352 -2.1516 -1.9761  0.5194
24193SOL    HW274193   4.030   9.036   4.219  0.3900 -0.2677 -0.2750
24194SOL     OW74194   6.022   4.053   2.228  0.2672 -0.5836 -0.2967
24194SOL    HW174195   6.068   4.092   2.302 -1.7621 -1.2061  1.4082
24194SOL    HW274196   5.984   3.972   2.263 -3.3438  0.6059 -1.0677
24195SOL     OW74197   3.462   9.751   5.819  0.6770  0.5990  0.3276
24195SOL    HW174198   3.403   9.694   5.769  0.9787  0.3062  0.3072
24195SOL    HW274199   3.526   9.691   5.858  1.2375  0.9634 -0.0216
24196SOL     OW74200   4.501   2.830   3.223 -0.3242 -0.3416  0.4399
24196SOL    HW174201   4.546   2.764   3.275 -2.7091 -0.9829  1.9058
24196SOL    HW274202   4.453   2.882   3.288 -2.8560 -0.6861 -1.0123
24197SOL     OW74203   5.972   9.236   0.964 -0.2769  0.0947  0.5038
24197SOL    HW174204   6.027   9.169   1.006  0.9258  0.5353 -0.3370
24197SOL    HW274205   6.028   9.274   0.897 -1.9086 -0.0435 -0.9834
24198SOL     OW74206   2.518   5.922   3.129  0.3884 -0.5524  0.2150
24198SOL    HW174207   2.553   5.834   3.115  1.7081 -0.2210  1.2851
24198SOL    HW274208   2.592   5.973   3.162 -0.5568  0.7555  0.4038
24199SOL     OW74209   3.568   1.121   0.271 -0.1379 -0.1845 -0.5585
24199SOL    HW174210   3.541   1.205   0.234 -1.6250  0.5612  1.9339
24199SOL    HW274211   3.663   1.122   0.265 -0.1227  1.6522 -0.6784
24200SOL     OW74212   3.584   7.070   6.652  0.1305  0.2179  0.3577
24200SOL    HW174213   3.666   7.070   6.701  0.2926 -1.6109  0.1586
24200SOL    HW274214   3.609   7.043   6.563 -0.6506 -0.2946  0.2791
24201SOL     OW74215   0.266   8.256   3.033 -0.3507 -0.1729 -0.5414
24201SOL    HW174216   0.267   8.328   3.096  2.4740 -0.6291  0.0690
24201SOL    HW274217   0.193   8.201   3.061 -2.6407  2.3931 -1.0846
24202SOL     OW74218   2.433   5.423   6.860  0.1841  0.6100  0.4020
24202SOL    HW174219   2.372   5.350   6.872 -0.9413  1.3843 -0.3792
24202SOL    HW274220   2.378   5.501   6.865  1.2781  1.3822  0.6373
24203SOL     OW74221   1.990   8.105   2.897  0.0790 -0.8047  0.2151
24203SOL    HW174222   1.968   8.085   2.806  1.3745 -0.7651 -0.1213
24203SOL    HW274223   1.905   8.121   2.939 -0.5583 -1.1420 -0.8990
24204SOL     OW74224   1.957   0.868   7.727  0.2283  0.1551  0.1843
24204SOL    HW174225   1.894   0.934   7.699 -0.0821 -0.1365  0.1859
24204SOL    HW274226   2.031   0.878   7.668 -0.2288 -0.1521 -0.4593
24205SOL     OW74227   9.056   9.454   8.055  0.6762  0.4042  0.0458
24205SOL    HW174228   9.127   9.496   8.005 -0.6794 -0.4297 -2.7989
24205SOL    HW274229   8.985   9.517   8.052  0.1512 -0.1926 -0.2226
24206SOL     OW74230   7.170   3.293   1.574 -0.1868  0.1882 -0.9773
24206SOL    HW174231   7.101   3.356   1.595 -1.2202 -1.6232  1.5582
24206SOL    HW274232   7.191   3.311   1.482 -2.7943  1.9632 -1.3602
24207SOL     OW74233   0.134   7.657   9.511 -0.1053  0.2479  0.2280
24207SOL    HW174234   0.188   7.605   9.570  0.3310  0.6694  0.2040
24207SOL    HW274235   0.186   7.735   9.493 -2.3072  2.7897  3.5722
24208SOL     OW74236   2.810   6.047   2.095  0.5062 -0.6418  0.3822
24208SOL    HW174237   2.792   6.132   2.133 -0.8242 -1.0167  0.6620
24208SOL    HW274238   2.734   6.029   2.040 -0.6452 -2.8374  2.5074
24209SOL     OW74239   9.027   1.412   6.024 -0.2547 -0.3192 -0.4258
24209SOL    HW174240   9.057   1.503   6.012 -0.6113 -0.2968 -1.1716
24209SOL    HW274241   9.030   1.374   5.937 -1.3263 -0.6567 -0.3231
24210SOL     OW74242   2.086   8.952   5.390 -0.3683 -0.8895  0.0730
24210SOL    HW174243   2.149   8.883   5.409 -0.2955 -0.7875  0.2045
24210SOL    HW274244   2.050   8.976   5.475 -0.4651 -0.8336  0.0164
24211SOL     OW74245   2.325   8.226   9.299 -0.0864 -0.0557  0.0535
24211SOL    HW174246   2.357   8.259   9.383 -1.1903 -0.9086  0.8479
24211SOL    HW274247   2.231   8.243   9.301 -0.4184 -1.6751 -0.2269
24212SOL     OW74248   3.067   0.364   7.554 -0.2653  0.3861 -0.0259
24212SOL    HW174249   2.990   0.343   7.503 -1.6597  0.6509  1.8524
24212SOL    HW274250   3.034   0.380   7.642  2.1268 -1.3568  1.3344
24213SOL     OW74251   4.774   7.605   3.561 -0.0875  0.2232  0.1510
24213SOL    HW174252   4.719   7.663   3.612 -2.1180  0.5699 -2.2084
24213SOL    HW274253   4.724   7.523   3.555  0.4925 -0.1002 -0.5069
24214SOL     OW74254   7.161   0.463   7.276 -0.3216  0.2416 -0.3224
24214SOL    HW174255   7.169   0.544   7.226 -0.4212 -0.1420 -0.9660
24214SOL    HW274256   7.088   0.417   7.236  0.4936 -0.7137 -0.7401
24215SOL     OW74257   1.060   3.760   2.937 -0.1630 -0.6343  1.1132
24215SOL    HW174258   1.135   3.758   2.878  0.1059 -2.1806  1.4611
24215SOL    HW274259   1.097   3.784   3.022  0.0652 -1.9967  1.4178
24216SOL     OW74260   3.642   7.809   0.509  0.1969 -0.3197  0.0057
24216SOL    HW174261   3.629   7.751   0.434 -1.9631  0.2797 -0.1678
24216SOL    HW274262   3.571   7.873   0.501  1.4649  1.3020  1.1460
24217SOL     OW74263   0.413   6.215   6.395 -0.5318 -0.3585  0.6629
24217SOL    HW174264   0.478   6.228   6.325  0.4820 -1.1167  1.4284
24217SOL    HW274265   0.357   6.292   6.390 -1.7035 -1.2479 -2.2404
24218SOL     OW74266   9.225   2.334   3.086 -0.1043 -0.0161  0.1363
24218SOL    HW174267   9.271   2.299   3.162  0.0622  0.7353  0.3895
24218SOL    HW274268   9.214   2.427   3.105 -0.1884  0.1525 -0.6916
24219SOL     OW74269   0.394   8.771   0.370 -0.1823 -0.1013  0.0749
24219SOL    HW174270   0.404   8.765   0.275  0.7041  0.6892  0.0928
24219SOL    HW274271   0.379   8.681   0.399 -2.6350 -0.1119 -1.0013
24220SOL     OW74272   5.490   3.194   5.765  0.3792  0.3188 -0.4861
24220SOL    HW174273   5.460   3.132   5.832 -0.3589 -0.3345 -1.3847
24220SOL    HW274274   5.409   3.223   5.722  0.9603 -1.4824 -2.9859
24221SOL     OW74275   2.135   5.811   2.021 -0.4395  0.1156  0.3635
24221SOL    HW174276   2.090   5.755   2.084  0.6064 -1.6972 -0.4219
24221SOL    HW274277   2.207   5.850   2.070 -0.0780 -0.6939  0.4887
24222SOL     OW74278   4.513   5.591   8.401  0.1398 -0.2260  0.0090
24222SOL    HW174279   4.580   5.632   8.347  0.3710  0.3341  0.6975
24222SOL    HW274280   4.545   5.502   8.415  0.3894 -0.1789 -0.2493
24223SOL     OW74281   5.144   8.612   1.626 -0.2755  0.3538 -0.1998
24223SOL    HW174282   5.228   8.634   1.667 -0.8400 -0.8732  1.7369
24223SOL    HW274283   5.136   8.517   1.637 -1.6375  0.3657 -0.9269
24224SOL     OW74284   0.518   4.766   2.568  0.2812 -0.0376 -0.3868
24224SOL    HW174285   0.596   4.790   2.518 -1.1454  2.1038 -1.7934
24224SOL    HW274286   0.447   4.812   2.523 -1.4787 -0.1008  2.1629
24225SOL     OW74287   7.937   0.554   2.165  0.1695 -0.2338  0.7071
24225SOL    HW174288   7.996   0.627   2.181 -0.3586  0.5215 -0.6666
24225SOL    HW274289   7.851   0.585   2.193 -0.3554  0.2997 -1.3492
24226SOL     OW74290   4.440   8.178   7.038 -0.1737  0.4625  0.1057
24226SOL    HW174291   4.416   8.096   6.994 -1.0980  0.9165 -0.2729
24226SOL    HW274292   4.500   8.221   6.977 -0.2412  0.3814 -0.0174
24227SOL     OW74293   7.497   2.521   5.345 -0.0940  0.7730  0.0929
24227SOL    HW174294   7.541   2.460   5.403 -1.3297 -0.4473 -0.1922
24227SOL    HW274295   7.557   2.596   5.337  2.2172 -1.0674 -0.8133
24228SOL     OW74296   9.496   5.319   7.369  0.1890 -0.6328 -0.3426
24228SOL    HW174297   9.440   5.298   7.294  0.8664 -0.6736 -0.8474
24228SOL    HW274298   9.522   5.410   7.354  0.7353 -0.7999 -0.4322
24229SOL     OW74299   6.274   9.161   3.394  0.0561  0.4840 -0.3809
24229SOL    HW174300   6.319   9.110   3.462 -1.8558 -0.7574  0.0396
24229SOL    HW274301   6.298   9.252   3.412 -0.6561  0.2416  2.2128
24230SOL     OW74302   6.456   3.044   4.350  0.0561  0.0377 -0.1762
24230SOL    HW174303   6.504   3.119   4.387 -0.1272 -0.0117  0.1696
24230SOL    HW274304   6.501   2.967   4.385  0.9824 -0.0362 -1.4765
24231SOL     OW74305   4.611   2.906   1.156  0.0718 -0.1880 -0.5114
24231SOL    HW174306   4.672   2.898   1.230 -1.9909  1.9316  1.5885
24231SOL    HW274307   4.616   2.998   1.131 -2.4930  0.1996  0.0737
24232SOL     OW74308   9.105   0.911   6.276 -0.5266 -0.0447 -0.0464
24232SOL    HW174309   9.083   0.981   6.338 -2.6178 -0.8480  0.2027
24232SOL    HW274310   9.116   0.956   6.192  2.4633  1.0806  0.7919
24233SOL     OW74311   1.668   7.680   9.549  0.0469  0.3583  0.4707
24233SOL    HW174312   1.633   7.621   9.482 -0.4764 -0.2254  1.2409
24233SOL    HW274313   1.702   7.755   9.500  1.0141 -0.7101 -0.5622
24234SOL     OW74314   7.102   4.290   7.257  0.3943  0.2836  0.3322
24234SOL    HW174315   7.092   4.309   7.164 -0.3505 -2.0843 -0.1359
24234SOL    HW274316   7.114   4.376   7.298 -0.0308  1.4464 -1.8348
24235SOL     OW74317   4.103   3.278   1.320  0.2936 -0.0119 -0.1242
24235SOL    HW174318   4.137   3.188   1.315  0.6549  0.1263 -0.2217
24235SOL    HW274319   4.181   3.332   1.332  0.0725  0.2860 -0.0277
24236SOL     OW74320   2.848   9.759   5.509 -0.3030  0.4692  0.2671
24236SOL    HW174321   2.815   9.725   5.426 -1.7428  1.8787  0.2207
24236SOL    HW274322   2.770   9.791   5.555  0.3976 -0.5573  2.3261
24237SOL     OW74323   6.154   7.866   5.232  0.6190 -0.0174 -0.1330
24237SOL    HW174324   6.233   7.818   5.257  0.7470  0.4358  0.3319
24237SOL    HW274325   6.082   7.808   5.258  0.7888 -1.1342 -1.9534
24238SOL     OW74326   6.710   9.071   5.124  0.2139  0.8779  0.3587
24238SOL    HW174327   6.719   9.082   5.029 -0.0205  0.6707  0.3110
24238SOL    HW274328   6.626   9.112   5.145  0.3321  1.0488  0.4978
24239SOL     OW74329   2.213   3.043   7.053  0.4666  0.2812  0.1449
24239SOL    HW174330   2.206   3.136   7.073  0.2160  0.1551  0.6640
24239SOL    HW274331   2.249   3.040   6.964 -0.5972  0.8857 -0.3249
24240SOL     OW74332   7.143   5.831   4.988  0.1324 -0.2252 -0.2338
24240SOL    HW174333   7.101   5.865   5.067 -0.1830 -1.2757  0.0690
24240SOL    HW274334   7.097   5.749   4.970  2.6560 -1.9990  0.7104
24241SOL     OW74335   0.376   1.300   7.801 -0.7634  0.1567 -0.6758
24241SOL    HW174336   0.414   1.222   7.760 -1.9482 -0.6517 -0.3081
24241SOL    HW274337   0.288   1.272   7.827 -1.1141  1.5523 -0.2956
24242SOL     OW74338   6.814   4.263   9.694  0.1220 -0.4943 -0.2864
24242SOL    HW174339   6.891   4.292   9.744 -0.1580 -1.5449  0.8016
24242SOL    HW274340   6.759   4.219   9.759 -1.6438  0.6405 -0.9440
24243SOL     OW74341   9.547   1.312   6.700 -0.8447  0.1066  0.1953
24243SOL    HW174342   9.468   1.333   6.751 -0.7301  1.3546 -0.1028
24243SOL    HW274343   9.535   1.359   6.617  0.6735  1.1795  0.5445
24244SOL     OW74344   3.477   4.604   7.929  0.5011 -0.7441 -0.2224
24244SOL    HW174345   3.431   4.626   8.010  1.0391  2.1361 -0.6021
24244SOL    HW274346   3.447   4.516   7.908  0.7455 -1.8221  3.3346
24245SOL     OW74347   4.911   4.239   9.640 -0.0896 -0.4077 -1.0766
24245SOL    HW174348   4.820   4.210   9.631 -0.8841  1.9273 -1.0982
24245SOL    HW274349   4.917   4.317   9.585  1.4422  0.4795  0.2623
24246SOL     OW74350   1.764   4.742   3.257 -0.3130 -0.0653 -0.1150
24246SOL    HW174351   1.708   4.801   3.207 -1.4057 -0.0886  1.0341
24246SOL    HW274352   1.704   4.688   3.308  0.7037 -1.3365 -0.2021
24247SOL     OW74353   7.160   5.260   1.806  0.2480 -0.1776  0.3795
24247SOL    HW174354   7.203   5.232   1.726  0.7706 -1.4538  1.0790
24247SOL    HW274355   7.169   5.356   1.806  0.3685 -0.1701 -0.9817
24248SOL     OW74356   8.737   8.235   9.541 -0.1094 -0.7546 -0.4843
24248SOL    HW174357   8.782   8.158   9.507  1.4105  0.3754 -1.1250
24248SOL    HW274358   8.732   8.219   9.635  1.7467 -0.8925 -0.3657
24249SOL     OW74359   3.181   5.635   0.296 -0.0574 -0.1867 -0.1189
24249SOL    HW174360   3.128   5.624   0.376 -0.1916 -2.1482 -0.4102
24249SOL    HW274361   3.259   5.583   0.313 -0.5575 -1.5226 -1.6298
24250SOL     OW74362   6.556   1.223   3.425 -0.4801 -0.1728 -0.4747
24250SOL    HW174363   6.466   1.239   3.397 -1.7802 -0.6553  2.9470
24250SOL    HW274364   6.582   1.303   3.470  0.9662  0.0531 -1.6286
24251SOL     OW74365   8.794   2.280   8.252 -0.1608 -0.1739 -0.2554
24251SOL    HW174366   8.753   2.295   8.337  0.4985  0.5557 -0.0589
24251SOL    HW274367   8.882   2.249   8.273  0.0535  0.1406 -0.6675
24252SOL     OW74368   3.686   8.393   1.720  0.2111 -0.3162  0.3959
24252SOL    HW174369   3.616   8.331   1.738  0.3341 -0.6162 -0.1431
24252SOL    HW274370   3.693   8.395   1.625 -0.7127  1.5368  0.3119
24253SOL     OW74371   5.016   9.788   6.535  0.1296 -0.0933 -0.1312
24253SOL    HW174372   5.060   9.809   6.617 -0.1911  0.6204 -0.1350
24253SOL    HW274373   5.076   9.818   6.467  0.5304 -0.9563 -0.1729
24254SOL     OW74374   2.278   7.838   2.340 -0.1721  0.1593  0.6200
24254SOL    HW174375   2.256   7.842   2.433 -0.5045  1.2639  0.5103
24254SOL    HW274376   2.225   7.767   2.305  0.1643 -0.4459  1.3217
24255SOL     OW74377   7.779   8.883   6.928 -0.0628 -0.7192  0.3469
24255SOL    HW174378   7.841   8.813   6.910 -0.0623 -1.2629  2.2809
24255SOL    HW274379   7.730   8.893   6.846  1.1238 -1.7364 -0.5235
24256SOL     OW74380   5.535   7.635   7.988 -0.1484 -0.1695  0.2294
24256SOL    HW174381   5.553   7.632   7.894  2.5401  0.9255  0.6224
24256SOL    HW274382   5.511   7.726   8.006  3.4352  0.7390  1.1240
24257SOL     OW74383   1.977   9.773   7.176  0.3288  0.1945  0.0480
24257SOL    HW174384   2.007   9.859   7.205  0.9311 -0.2108  0.6483
24257SOL    HW274385   1.912   9.746   7.240 -0.1482  0.3711 -0.3590
24258SOL     OW74386   1.851   5.531   2.912  0.1603  0.2399 -0.0357
24258SOL    HW174387   1.771   5.584   2.918  0.6211  0.8934  0.6503
24258SOL    HW274388   1.851   5.497   2.823 -0.1730  1.3843 -0.4928
24259SOL     OW74389   0.106   8.979   4.125 -0.5157 -0.4732 -0.3202
24259SOL    HW174390   0.171   9.007   4.190 -1.3404 -0.0775  0.3480
24259SOL    HW274391   0.157   8.964   4.046  0.3635  0.0495  0.1279
24260SOL     OW74392   9.383   7.077   4.268 -0.3841 -0.0526 -0.5020
24260SOL    HW174393   9.467   7.032   4.260 -0.0803 -0.1321  2.1114
24260SOL    HW274394   9.321   7.007   4.289 -0.4231  0.3429  0.8407
24261SOL     OW74395   7.637   8.502   1.639  0.5367 -0.2841 -0.1449
24261SOL    HW174396   7.647   8.415   1.677  1.5577 -0.0437  0.1726
24261SOL    HW274397   7.692   8.558   1.693 -0.1112  0.5722 -0.3402
24262SOL     OW74398   6.227   2.119   1.352  0.3971  0.2163  0.0257
24262SOL    HW174399   6.133   2.109   1.368  0.7930 -0.8256  2.0716
24262SOL    HW274400   6.233   2.192   1.291 -1.7766 -0.2272 -0.8064
24263SOL     OW74401   3.652   8.538   7.902 -0.0810  0.1022 -0.0953
24263SOL    HW174402   3.641   8.621   7.856  3.3509  0.6340 -0.1801
24263SOL    HW274403   3.708   8.485   7.844  0.8995 -0.8078  1.6144
24264SOL     OW74404   5.281   8.699   7.530 -0.8707 -0.1840  0.2790
24264SOL    HW174405   5.370   8.711   7.564 -1.5671  1.8454  1.5774
24264SOL    HW274406   5.282   8.612   7.489  1.1379 -1.0544  2.0064
24265SOL     OW74407   3.166   5.301   5.677  0.2532  0.0632 -0.4851
24265SOL    HW174408   3.193   5.340   5.594 -0.0241  2.9775  0.6832
24265SOL    HW274409   3.087   5.251   5.655 -0.5056  1.7437 -1.8185
24266SOL     OW74410   3.604   0.459   3.478  0.5644  0.2010  0.0827
24266SOL    HW174411   3.683   0.513   3.479  1.7214 -1.3933  1.2065
24266SOL    HW274412   3.578   0.453   3.570 -0.4780  0.1442 -0.2050
24267SOL     OW74413   8.185   0.310   8.350 -0.1785  0.0587  0.1737
24267SOL    HW174414   8.132   0.345   8.279 -0.1643 -0.7454 -0.2497
24267SOL    HW274415   8.178   0.374   8.420  0.0613  1.0303 -0.6666
24268SOL     OW74416   6.161   2.001   4.157 -0.6870 -0.0613  0.2113
24268SOL    HW174417   6.154   2.040   4.070  0.3220 -1.0224 -0.3291
24268SOL    HW274418   6.213   2.064   4.207  1.2154 -0.7675 -0.7485
24269SOL     OW74419   4.536   5.899   1.569  0.0497 -0.0729  0.3238
24269SOL    HW174420   4.492   5.872   1.649  0.6168  0.2909  0.7683
24269SOL    HW274421   4.466   5.907   1.504 -0.6747  1.4443  1.2517
24270SOL     OW74422   2.286   6.486   4.508  0.2228 -0.7633 -0.2690
24270SOL    HW174423   2.293   6.561   4.567  0.7275  0.6422 -2.0083
24270SOL    HW274424   2.374   6.475   4.472 -0.2822 -0.9119 -1.5028
24271SOL     OW74425   3.473   6.841   2.748  0.4028 -0.1592  0.2920
24271SOL    HW174426   3.529   6.781   2.797  1.5695  0.7983  0.1853
24271SOL    HW274427   3.534   6.904   2.710 -0.5409 -0.3637 -1.6876
24272SOL     OW74428   8.876   8.872   6.176  0.1454  0.0746  0.6711
24272SOL    HW174429   8.899   8.797   6.232 -0.0309 -1.2577 -0.9501
24272SOL    HW274430   8.807   8.838   6.119 -0.7219  1.8401  0.6194
24273SOL     OW74431   0.151   9.681   5.848  0.1610 -0.5615 -0.4080
24273SOL    HW174432   0.081   9.662   5.786 -1.7034  2.0120  0.7416
24273SOL    HW274433   0.165   9.598   5.894 -1.3798 -1.4225 -1.3962
24274SOL     OW74434   6.301   5.516   5.041 -0.2847 -0.2426 -0.0830
24274SOL    HW174435   6.215   5.521   4.999 -0.0596  1.2529 -0.4196
24274SOL    HW274436   6.298   5.435   5.091 -1.5458 -0.7006 -0.8393
24275SOL     OW74437   6.891   4.401   2.541 -0.4004  0.4824  0.4077
24275SOL    HW174438   6.804   4.439   2.544 -0.9189 -0.7065  1.2283
24275SOL    HW274439   6.887   4.326   2.601  1.2101  0.4706  0.5530
24276SOL     OW74440   5.710   5.914   9.515 -0.1255 -0.9856 -0.0913
24276SOL    HW174441   5.782   5.930   9.453 -0.2616 -3.0403 -0.8333
24276SOL    HW274442   5.684   6.002   9.543  3.9656 -0.1070  1.7707
24277SOL     OW74443   3.335   7.403   3.766  0.1150  0.2105  0.4084
24277SOL    HW174444   3.317   7.496   3.752  2.0232  0.4941 -0.3665
24277SOL    HW274445   3.427   7.399   3.789 -0.2695 -1.3840  1.8718
24278SOL     OW74446   6.644   4.208   1.005  0.9691 -0.0236 -0.2403
24278SOL    HW174447   6.707   4.178   1.070  0.1242 -0.2178  0.5102
24278SOL    HW274448   6.638   4.136   0.942 -1.5038 -1.8232  1.8715
24279SOL     OW74449   5.105   2.206   5.377  0.3149  0.4783  0.0652
24279SOL    HW174450   5.062   2.251   5.305  0.6870  0.9481  0.1353
24279SOL    HW274451   5.153   2.275   5.424 -0.4115  0.3018  1.1218
24280SOL     OW74452   2.841   6.568   4.879  0.1276 -0.0698 -0.7070
24280SOL    HW174453   2.765   6.512   4.864  1.6880 -2.1292 -1.6038
24280SOL    HW274454   2.847   6.577   4.974 -1.3581  0.3488 -0.6382
24281SOL     OW74455   0.778   9.104   9.689  0.0315  0.0727 -0.1412
24281SOL    HW174456   0.695   9.144   9.715  0.4555  0.7153  0.2518
24281SOL    HW274457   0.802   9.148   9.608  0.1729  0.1479 -0.0587
24282SOL     OW74458   4.965   4.476   8.704 -0.1128 -0.6048  0.0099
24282SOL    HW174459   4.894   4.525   8.663  1.4797  0.8294 -1.1518
24282SOL    HW274460   5.016   4.541   8.751  1.2752 -1.3534 -0.4072
24283SOL     OW74461   1.723   1.167   3.512  0.3498  0.0958  0.2335
24283SOL    HW174462   1.792   1.233   3.515  0.1054  0.3370  1.0586
24283SOL    HW274463   1.648   1.209   3.554 -0.6398  0.2015 -1.5406
24284SOL     OW74464   9.673   0.075   2.899 -0.0420  0.4428  0.7129
24284SOL    HW174465   9.611   0.115   2.959 -0.6749  1.8965 -0.8317
24284SOL    HW274466   9.627   0.072   2.815  1.5410  0.4544 -0.2027
24285SOL     OW74467   8.995   8.699   8.017  0.2096 -0.2807 -0.1541
24285SOL    HW174468   9.040   8.673   7.937 -0.2641  2.0660 -1.2914
24285SOL    HW274469   9.011   8.793   8.024  0.7863 -0.4942  2.9175
24286SOL     OW74470   2.304   4.842   1.651  0.4017 -0.3042 -0.2289
24286SOL    HW174471   2.256   4.885   1.580  0.8573  1.5714  0.5530
24286SOL    HW274472   2.394   4.874   1.643  0.6906 -0.8522  0.6071
24287SOL     OW74473   2.001   9.563   1.636 -0.2450  0.0230  1.0620
24287SOL    HW174474   1.944   9.495   1.672 -0.1280 -1.5912 -1.5212
24287SOL    HW274475   1.962   9.584   1.551  1.6756  0.5868  0.2668
24288SOL     OW74476   6.107   4.037   1.403 -0.0191  0.2448 -0.7221
24288SOL    HW174477   6.052   3.982   1.458 -1.9496  2.2498 -0.5033
24288SOL    HW274478   6.183   4.056   1.458 -0.2016 -0.6843 -0.1251
24289SOL     OW74479   6.554   2.579   2.886 -0.5057  0.4808 -0.0242
24289SOL    HW174480   6.634   2.629   2.898 -1.0868  1.0769  1.5718
24289SOL    HW274481   6.514   2.617   2.808  0.1244  1.0371 -0.0847
24290SOL     OW74482   3.874   2.240   4.905 -0.5701  0.0711  0.2517
24290SOL    HW174483   3.780   2.227   4.892 -0.5078  1.6097 -2.4549
24290SOL    HW274484   3.894   2.322   4.859  1.9209  0.3864  1.7171
24291SOL     OW74485   0.775   1.317   8.875  0.2892 -0.6898 -0.3639
24291SOL    HW174486   0.850   1.259   8.857 -0.0354 -0.6021 -2.1909
24291SOL    HW274487   0.814   1.402   8.893  0.6775 -0.9393 -0.0104
24292SOL     OW74488   0.989   0.662   9.816  0.1904 -0.6836  0.3789
24292SOL    HW174489   0.937   0.609   9.876  0.5926 -3.6371 -1.6621
24292SOL    HW274490   1.077   0.626   9.823  0.5724 -0.0286 -0.8164
24293SOL     OW74491   9.111   2.540   1.076  0.2733 -0.1988 -0.2274
24293SOL    HW174492   9.036   2.555   1.018  1.0829 -0.6196 -1.4204
24293SOL    HW274493   9.092   2.593   1.153 -0.8298  0.3945 -0.8722
24294SOL     OW74494   1.556   1.108   5.239 -0.0474 -0.0503 -0.5243
24294SOL    HW174495   1.622   1.092   5.307  0.6134  1.6747 -0.7083
24294SOL    HW274496   1.473   1.088   5.282  0.5055 -1.1132  0.0921
24295SOL     OW74497   2.449   2.422   5.147  0.1093 -0.0996  0.4811
24295SOL    HW174498   2.499   2.404   5.227  2.6149 -0.2442 -1.0133
24295SOL    HW274499   2.357   2.415   5.174  0.8566 -1.9478  2.9274
24296SOL     OW74500   8.526   9.614   4.156 -0.1376  0.5507  0.2936
24296SOL    HW174501   8.447   9.565   4.180 -0.4731  1.0915  0.3063
24296SOL    HW274502   8.505   9.705   4.177  0.6519  0.6466  0.7231
24297SOL     OW74503   8.025   7.394   5.444 -0.3757 -0.1639  0.3982
24297SOL    HW174504   7.933   7.366   5.439 -0.7465  0.9808  0.5892
24297SOL    HW274505   8.075   7.316   5.420 -1.4383 -0.3778 -1.3120
24298SOL     OW74506   3.665   8.351   6.005 -0.1670  0.6813  0.2783
24298SOL    HW174507   3.600   8.306   6.060  0.0365 -0.0403 -0.0595
24298SOL    HW274508   3.679   8.292   5.931  1.8830  0.1525  1.0146
24299SOL     OW74509   0.268   3.667   2.570  0.1215  0.3617  0.3287
24299SOL    HW174510   0.255   3.715   2.489  0.1757 -0.7736 -0.3742
24299SOL    HW274511   0.363   3.656   2.576  0.1182  0.4556  0.5464
24300SOL     OW74512   1.047   4.613   5.096 -0.1440  0.0999  0.0199
24300SOL    HW174513   1.029   4.623   5.189 -0.3236 -0.6108  0.0688
24300SOL    HW274514   1.133   4.652   5.084 -0.5385  1.0915  0.2923
24301SOL     OW74515   9.668   9.791   6.241  0.3578  0.4476 -0.1063
24301SOL    HW174516   9.688   9.806   6.149  1.1443  0.7813  0.1099
24301SOL    HW274517   9.702   9.703   6.259 -1.2818 -0.3161 -0.5356
24302SOL     OW74518   7.772   0.829   3.784 -0.0414 -0.6389 -0.6358
24302SOL    HW174519   7.767   0.865   3.696  1.0355 -1.3097 -0.9948
24302SOL    HW274520   7.860   0.793   3.790 -0.3789 -1.3403  0.4265
24303SOL     OW74521   1.525   7.531   7.191  0.0773 -0.3457 -0.0422
24303SOL    HW174522   1.590   7.543   7.122 -0.5491  0.1112 -0.5644
24303SOL    HW274523   1.487   7.445   7.173 -1.6614  0.6785 -1.6592
24304SOL     OW74524   1.533   7.896   4.281  0.0854 -0.4533 -0.4941
24304SOL    HW174525   1.592   7.923   4.211 -0.6241 -0.0542 -0.9472
24304SOL    HW274526   1.566   7.810   4.309  0.9466 -0.1749 -0.6485
24305SOL     OW74527   7.337   2.228   7.096 -0.3029 -0.6199  0.0062
24305SOL    HW174528   7.358   2.186   7.180  0.7848  0.7494  0.4496
24305SOL    HW274529   7.275   2.297   7.118  0.3086  0.0202 -0.2332
24306SOL     OW74530   8.160   4.640   9.452 -0.2334  0.0842  0.0511
24306SOL    HW174531   8.252   4.613   9.448 -0.5522 -1.0774 -4.2181
24306SOL    HW274532   8.113   4.560   9.477 -0.1937  0.8452  2.9524
24307SOL     OW74533   5.887   7.818   5.417 -0.9043  0.4518  0.0916
24307SOL    HW174534   5.911   7.845   5.505 -2.5679  0.3746  0.6119
24307SOL    HW274535   5.797   7.786   5.425 -0.1675 -2.2383 -1.0887
24308SOL     OW74536   4.692   7.503   1.722 -0.4082  0.1907 -0.2511
24308SOL    HW174537   4.620   7.558   1.691 -1.0934 -1.2804 -1.3992
24308SOL    HW274538   4.721   7.455   1.644 -0.4363 -1.6996  0.8397
24309SOL     OW74539   8.403   0.860   4.134 -0.0246 -0.6725 -0.0551
24309SOL    HW174540   8.368   0.800   4.200  1.6024  1.1563  2.6736
24309SOL    HW274541   8.420   0.805   4.058 -3.8782 -2.5571  0.2116
24310SOL     OW74542   9.718   2.495   1.264  0.1767 -0.6050  0.6158
24310SOL    HW174543   9.698   2.405   1.290  1.1078 -1.0920 -0.3172
24310SOL    HW274544   9.717   2.544   1.346  1.6037 -1.8345  1.4162
24311SOL     OW74545   9.566   7.206   5.806  0.3558 -0.2373  0.1487
24311SOL    HW174546   9.615   7.220   5.887  0.5228  0.7918 -0.1140
24311SOL    HW274547   9.622   7.242   5.738 -0.3585  0.1133 -0.2665
24312SOL     OW74548   6.439   3.566   0.550 -0.0812  0.3078  0.5228
24312SOL    HW174549   6.531   3.582   0.569 -0.5175  1.8666  1.4366
24312SOL    HW274550   6.401   3.653   0.540 -1.9801 -0.1734  2.7531
24313SOL     OW74551   7.385   4.252   7.487 -0.0705 -0.0035  0.2782
24313SOL    HW174552   7.322   4.298   7.543 -1.4875 -0.6989 -0.6926
24313SOL    HW274553   7.348   4.258   7.399 -0.4647 -3.1137  0.1110
24314SOL     OW74554   4.046   4.374   3.290 -0.4383 -0.5471 -0.0974
24314SOL    HW174555   4.035   4.316   3.365 -1.7442 -0.7732 -0.4291
24314SOL    HW274556   3.966   4.361   3.238 -1.2991  2.2986  0.3347
24315SOL     OW74557   6.461   8.701   3.946 -0.1184  0.0317 -0.0726
24315SOL    HW174558   6.381   8.650   3.961  0.3926 -0.8904 -0.4102
24315SOL    HW274559   6.484   8.683   3.855  0.9280 -0.3776  0.2578
24316SOL     OW74560   3.419   5.854   1.374 -0.3091  0.0603  0.3107
24316SOL    HW174561   3.331   5.862   1.339  0.3763  0.1312 -1.5352
24316SOL    HW274562   3.445   5.943   1.397 -0.0913  0.3019 -0.8320
24317SOL     OW74563   1.719   6.599   1.362  0.0230  0.2382  0.1273
24317SOL    HW174564   1.649   6.664   1.356  0.1228  0.2411 -1.4525
24317SOL    HW274565   1.686   6.533   1.423 -2.0811 -0.5822 -1.7730
24318SOL     OW74566   4.042   9.670   8.214 -0.3058  0.0162 -0.1018
24318SOL    HW174567   3.949   9.690   8.205 -0.0119  2.2541  0.9266
24318SOL    HW274568   4.052   9.646   8.306  0.2423  0.6803  0.0220
24319SOL     OW74569   3.462   2.329   9.180  0.6076 -0.1627 -0.2414
24319SOL    HW174570   3.503   2.381   9.248  1.2477  2.0487 -2.1941
24319SOL    HW274571   3.525   2.259   9.161  2.5376  1.8106 -1.5588
24320SOL     OW74572   1.297   7.895   4.168  0.8366 -0.0081 -0.1139
24320SOL    HW174573   1.231   7.964   4.169  2.1425  1.3640 -1.7897
24320SOL    HW274574   1.377   7.938   4.197  1.6309 -0.8503 -0.9773
24321SOL     OW74575   5.221   7.764   9.205  0.0065 -0.3658 -0.2947
24321SOL    HW174576   5.258   7.708   9.137  2.4795  0.9692 -0.1605
24321SOL    HW274577   5.205   7.847   9.162 -1.4218 -0.4287  0.0598
24322SOL     OW74578   1.975   7.071   7.750  0.6350 -0.1757 -0.5403
24322SOL    HW174579   2.045   7.075   7.685 -0.9994  2.0838 -2.3543
24322SOL    HW274580   1.894   7.067   7.699 -0.7501  1.7354  1.2896
24323SOL     OW74581   0.240   6.635   3.418  0.5365  0.4252 -0.0332
24323SOL    HW174582   0.278   6.694   3.353 -2.8083  1.2398 -1.4862
24323SOL    HW274583   0.190   6.572   3.366  1.6349 -1.9631  1.6346
24324SOL     OW74584   2.657   9.506   3.112  0.0758 -0.1993  0.3037
24324SOL    HW174585   2.638   9.477   3.201 -2.7217 -0.2116 -0.2158
24324SOL    HW274586   2.687   9.427   3.067 -2.1797 -1.1181  0.3063
24325SOL     OW74587   6.442   0.865   3.764 -0.1512  0.5123 -0.1288
24325SOL    HW174588   6.521   0.912   3.738  0.2980 -1.0320 -1.7383
24325SOL    HW274589   6.466   0.822   3.846  0.1542  1.2453  0.1791
24326SOL     OW74590   3.121   1.831   8.085 -0.5727  0.0751  0.0471
24326SOL    HW174591   3.034   1.836   8.126 -2.2837 -3.1673 -2.7198
24326SOL    HW274592   3.151   1.742   8.104  1.7806  0.8030  0.0633
24327SOL     OW74593   5.700   9.407   5.386  0.2755  0.1250 -0.0632
24327SOL    HW174594   5.788   9.432   5.412 -0.1537  1.1516  0.4670
24327SOL    HW274595   5.643   9.473   5.426 -0.8684 -1.3744  0.9454
24328SOL     OW74596   0.929   7.981   4.704  0.1220 -0.5011 -0.4033
24328SOL    HW174597   0.889   8.047   4.760 -0.4712 -1.2739  0.1055
24328SOL    HW274598   0.867   7.908   4.704  1.6557 -1.9174  0.7551
24329SOL     OW74599   1.956   4.752   6.733  0.1157  0.2633  0.4809
24329SOL    HW174600   1.895   4.825   6.741  1.7888  1.6607  1.0038
24329SOL    HW274601   1.990   4.739   6.821  1.8495  0.6808 -0.0998
24330SOL     OW74602   7.905   2.533   2.037  0.1034 -0.0408  0.0624
24330SOL    HW174603   7.900   2.515   2.131  1.0377  0.3321  0.1889
24330SOL    HW274604   7.874   2.623   2.028  0.8458  0.2317  0.1332
24331SOL     OW74605   4.297   7.056   5.984 -0.4710 -0.1673  0.1402
24331SOL    HW174606   4.348   7.026   5.909  0.4671  0.7713  0.3767
24331SOL    HW274607   4.296   6.981   6.044 -1.3166 -0.9639 -0.8146
24332SOL     OW74608   4.670   5.832   4.329  0.3664 -0.4717 -0.6246
24332SOL    HW174609   4.654   5.862   4.418  2.0454 -3.0421  0.6690
24332SOL    HW274610   4.681   5.913   4.278 -1.1696  1.0700  1.3231
24333SOL     OW74611   2.969   6.683   3.876 -0.2791  0.0221 -0.2638
24333SOL    HW174612   2.902   6.660   3.940 -0.8203  1.0717 -0.4142
24333SOL    HW274613   2.923   6.682   3.792  0.7714 -2.8536 -0.9095
24334SOL     OW74614   8.135   7.991   7.959  0.0504 -0.0221  0.0074
24334SOL    HW174615   8.201   7.970   8.026  0.3209 -1.1336 -0.5867
24334SOL    HW274616   8.108   7.906   7.924 -2.0704  0.3550  0.5665
24335SOL     OW74617   3.647   9.490   5.421  0.0680 -0.3959 -0.0409
24335SOL    HW174618   3.603   9.460   5.501  1.6587  2.0987  1.9212
24335SOL    HW274619   3.714   9.423   5.404 -0.0722 -0.8016  0.9161
24336SOL     OW74620   4.148   8.211   9.822 -0.3723 -0.0170  0.0387
24336SOL    HW174621   4.147   8.298   9.862  1.1586  0.4602 -0.8833
24336SOL    HW274622   4.071   8.209   9.766 -1.0398  0.3079  0.9239
24337SOL     OW74623   2.809   4.296   5.691  0.2749  0.2517  0.5915
24337SOL    HW174624   2.733   4.287   5.749  1.2703 -1.6630  1.6801
24337SOL    HW274625   2.823   4.209   5.654  1.0559  0.9156 -0.7838
24338SOL     OW74626   3.828   6.031   8.491  0.0565 -0.0184  0.2826
24338SOL    HW174627   3.917   6.049   8.460  0.5520 -1.7977  0.5544
24338SOL    HW274628   3.840   5.979   8.571 -1.1626 -2.0928 -0.7694
24339SOL     OW74629   5.457   9.052   6.941  0.2149  0.2646 -0.0518
24339SOL    HW174630   5.413   9.104   7.009 -0.6700  0.1974 -0.5485
24339SOL    HW274631   5.387   9.034   6.877  0.8335 -0.3921 -0.5481
24340SOL     OW74632   2.086   2.039   7.344 -0.0119 -0.2672  0.0528
24340SOL    HW174633   2.115   1.990   7.421  2.1590 -2.4757 -2.0204
24340SOL    HW274634   1.996   2.009   7.329  0.2576 -1.3751  0.5580
24341SOL     OW74635   8.131   2.753   4.993 -0.2962  0.1118 -0.2321
24341SOL    HW174636   8.099   2.719   4.909 -1.3645 -2.2429  1.0344
24341SOL    HW274637   8.200   2.692   5.019 -1.3032 -0.3396  1.4880
24342SOL     OW74638   2.327   4.006   7.219 -1.0215  0.1551 -0.3865
24342SOL    HW174639   2.258   3.969   7.273 -2.3263 -0.2503 -2.2398
24342SOL    HW274640   2.284   4.028   7.137  0.6840  1.6250 -0.9440
24343SOL     OW74641   9.785   4.870   1.078  0.3956  0.2146 -0.3002
24343SOL    HW174642   9.698   4.904   1.101  1.1585  0.6599  2.3179
24343SOL    HW274643   9.838   4.949   1.063  0.3713 -0.0551 -1.8931
24344SOL     OW74644   9.049   3.707   0.867 -0.5323 -0.0673  0.6187
24344SOL    HW174645   9.070   3.731   0.957 -1.1559 -1.7052  1.2307
24344SOL    HW274646   9.123   3.741   0.816 -0.8110  2.0785  1.5219
24345SOL     OW74647   6.503   7.800   5.178 -0.4200 -0.1245  0.0894
24345SOL    HW174648   6.587   7.821   5.137 -1.1498 -0.3495 -1.6052
24345SOL    HW274649   6.443   7.789   5.105 -2.1096  0.7289  1.2730
24346SOL     OW74650   9.657   9.483   9.390  0.0617  0.3002  0.2837
24346SOL    HW174651   9.578   9.435   9.367  1.0403 -1.1429 -0.2327
24346SOL    HW274652   9.652   9.495   9.485 -0.5332 -0.2241  0.3212
24347SOL     OW74653   8.509   4.867   1.503  0.3648  0.1169 -0.0190
24347SOL    HW174654   8.472   4.903   1.584  1.8733  0.1039  0.7193
24347SOL    HW274655   8.434   4.854   1.446 -0.5494  1.8642  0.6950
24348SOL     OW74656   4.767   6.524   0.638  0.2038  0.2411  0.4262
24348SOL    HW174657   4.839   6.582   0.663  1.3936 -1.0316  0.0665
24348SOL    HW274658   4.723   6.572   0.567 -0.1516  1.6289  1.5366
24349SOL     OW74659   3.446   1.561   3.588  0.0398 -0.5970 -0.4883
24349SOL    HW174660   3.402   1.502   3.527 -0.2104  0.2760 -1.1790
24349SOL    HW274661   3.377   1.586   3.650 -0.5891  1.0506 -1.7794
24350SOL     OW74662   2.358   3.750   9.034 -0.0332  0.1579  0.6450
24350SOL    HW174663   2.294   3.776   9.100 -0.6525 -1.9270  0.9533
24350SOL    HW274664   2.324   3.786   8.952 -0.0036  1.5754  1.2358
24351SOL     OW74665   2.837   8.097   1.471 -0.6050  0.7299  0.3719
24351SOL    HW174666   2.826   8.068   1.381 -0.3018  0.1055  0.5332
24351SOL    HW274667   2.774   8.046   1.521 -1.3157  1.6171  0.4198
24352SOL     OW74668   1.801   8.921   4.082  0.7051 -0.5328 -0.4324
24352SOL    HW174669   1.819   8.859   4.012  1.7073  1.2667 -1.8434
24352SOL    HW274670   1.879   8.975   4.087 -0.2628  0.8461  0.5050
24353SOL     OW74671   4.601   6.548   3.974 -0.5620  0.5365 -0.6126
24353SOL    HW174672   4.691   6.578   3.978 -0.6082  0.5326  0.6622
24353SOL    HW274673   4.573   6.541   4.065 -1.5130 -0.4862 -0.9573
24354SOL     OW74674   6.364   6.332   6.910  0.2253  0.0697  0.0222
24354SOL    HW174675   6.294   6.267   6.901 -1.8647  2.0057  1.3369
24354SOL    HW274676   6.331   6.410   6.868  1.4047  1.1974  1.0857
24355SOL     OW74677   4.334   2.259   8.407 -0.7182  0.6784  0.1087
24355SOL    HW174678   4.266   2.226   8.465 -0.2166 -1.7629 -0.5814
24355SOL    HW274679   4.295   2.336   8.365 -3.5533 -1.3053 -1.1599
24356SOL     OW74680   8.029   2.846   3.832  0.0233  0.1493 -0.3308
24356SOL    HW174681   8.032   2.859   3.927 -0.2570  0.8319 -0.4102
24356SOL    HW274682   7.936   2.847   3.811  0.1216  2.2701 -0.8978
24357SOL     OW74683   5.273   1.988   8.237  0.0586  0.3630  0.5932
24357SOL    HW174684   5.184   1.968   8.208 -0.0380  1.0163  0.4202
24357SOL    HW274685   5.320   1.905   8.229  0.1131  0.5409 -1.6970
24358SOL     OW74686   0.379   1.510   7.636 -0.0362  0.2731  0.0466
24358SOL    HW174687   0.382   1.440   7.702 -0.3257  0.1260 -0.0929
24358SOL    HW274688   0.317   1.477   7.570  1.9702 -0.6349 -1.4971
24359SOL     OW74689   0.900   3.769   3.450  0.7611 -0.4610 -0.3618
24359SOL    HW174690   0.878   3.736   3.363 -0.8335 -0.2225 -0.0752
24359SOL    HW274691   0.816   3.777   3.495  1.6703 -2.7317  2.0168
24360SOL     OW74692   0.148   1.132   2.391  0.7005  0.9983 -0.6962
24360SOL    HW174693   0.209   1.115   2.462 -1.3594 -0.8969  0.7831
24360SOL    HW274694   0.091   1.202   2.423 -0.7612 -0.4248 -0.0057
24361SOL     OW74695   8.208   9.464   0.608 -0.2812  0.3922  0.3449
24361SOL    HW174696   8.197   9.370   0.593 -0.2834  0.4854 -0.2646
24361SOL    HW274697   8.224   9.472   0.702 -1.4959 -0.1046  0.6112
24362SOL     OW74698   3.293   6.468   0.669 -0.3305 -0.5396 -0.1873
24362SOL    HW174699   3.255   6.383   0.690 -1.3438 -0.4895 -1.6627
24362SOL    HW274700   3.353   6.486   0.742 -0.3467 -2.3422  0.3277
24363SOL     OW74701   6.089   8.759   2.645  0.2286 -0.6556  0.0883
24363SOL    HW174702   6.049   8.751   2.558 -2.5413 -1.4173  1.3079
24363SOL    HW274703   6.100   8.668   2.675 -1.2021 -0.4283  1.4544
24364SOL     OW74704   5.182   9.731   9.768 -0.0938  0.1088 -0.0813
24364SOL    HW174705   5.217   9.700   9.852 -0.3857  1.0169  0.3863
24364SOL    HW274706   5.259   9.747   9.714  0.1475  0.6891  0.4353
24365SOL     OW74707   7.729   4.805   7.813  0.0196  0.2836 -0.3926
24365SOL    HW174708   7.794   4.736   7.830 -0.8558 -0.6284 -0.6420
24365SOL    HW274709   7.732   4.818   7.719  2.5366  3.0043 -0.0668
24366SOL     OW74710   2.726   5.236   6.972 -0.6462 -0.4266  0.2224
24366SOL    HW174711   2.634   5.258   6.955 -0.0210  0.4160 -2.6020
24366SOL    HW274712   2.760   5.208   6.887  2.2759  1.4543  0.6418
24367SOL     OW74713   3.420   5.789   6.501 -0.0855 -0.0939 -0.5220
24367SOL    HW174714   3.356   5.720   6.519 -0.7172  1.0907  2.4284
24367SOL    HW274715   3.428   5.790   6.406 -0.8906 -3.4065 -0.7577
24368SOL     OW74716   1.729   1.006   0.498 -0.0745  0.4125 -0.3986
24368SOL    HW174717   1.653   0.947   0.494  0.6287 -0.5152 -0.3310
24368SOL    HW274718   1.747   1.016   0.592  1.2918 -1.2374 -0.4528
24369SOL     OW74719   5.499   9.474   7.026  0.3060  0.4519  0.3566
24369SOL    HW174720   5.470   9.462   7.116 -1.8055  0.0797 -0.3245
24369SOL    HW274721   5.428   9.440   6.972  2.7927 -2.4377 -1.5072
24370SOL     OW74722   6.526   3.667   7.886 -0.3636  0.3726  0.0693
24370SOL    HW174723   6.452   3.684   7.827 -0.9795 -1.0854  0.3803
24370SOL    HW274724   6.601   3.657   7.827 -0.8358 -0.3381 -0.4313
24371SOL     OW74725   2.979   5.323   2.090  0.1969 -0.2938  0.3331
24371SOL    HW174726   3.043   5.318   2.161  0.3253  2.1276  0.4758
24371SOL    HW274727   2.916   5.389   2.119  0.6789  1.3530 -2.0654
24372SOL     OW74728   4.338   5.698   5.198 -0.2987 -0.0744 -0.2138
24372SOL    HW174729   4.426   5.682   5.165  0.7405  0.1117  2.2700
24372SOL    HW274730   4.316   5.786   5.166  0.5560  0.0195 -0.5734
24373SOL     OW74731   2.326   9.100   4.358  0.0696  0.2155 -0.2540
24373SOL    HW174732   2.382   9.136   4.290  1.7877 -0.0083  0.9684
24373SOL    HW274733   2.327   9.005   4.343  1.2591  0.0660  0.6116
24374SOL     OW74734   0.605   4.237   2.516 -0.2316  0.6805 -0.4961
24374SOL    HW174735   0.521   4.271   2.546  0.3512  1.5589  0.1958
24374SOL    HW274736   0.665   4.312   2.523  0.7500 -0.0947 -0.3995
24375SOL     OW74737   8.727   3.109   2.530 -0.1426 -0.1004  0.1238
24375SOL    HW174738   8.685   3.044   2.474  0.5980 -0.1095 -0.4404
24375SOL    HW274739   8.672   3.112   2.609 -0.9128 -0.4529 -0.3887
24376SOL     OW74740   6.955   7.393   6.186 -1.0337 -0.1827  0.5335
24376SOL    HW174741   7.019   7.349   6.129 -0.9751 -2.1894  2.0233
24376SOL    HW274742   6.872   7.387   6.138 -0.5261  0.5382 -0.4730
24377SOL     OW74743   4.951   7.946   4.898  0.3715  0.2710 -0.2459
24377SOL    HW174744   4.917   8.036   4.899  1.3835  0.6612 -0.2993
24377SOL    HW274745   4.889   7.897   4.952 -1.3940  0.5374 -1.9104
24378SOL     OW74746   5.546   0.770   1.488 -0.0555 -0.5868 -0.0730
24378SOL    HW174747   5.572   0.855   1.453  1.0302 -1.3519 -1.2173
24378SOL    HW274748   5.623   0.738   1.534  0.5151 -2.0840 -1.9368
24379SOL     OW74749   3.119   6.563   1.527 -0.7792  0.4746  0.0962
24379SOL    HW174750   3.029   6.579   1.556 -1.2174 -1.9769  0.3027
24379SOL    HW274751   3.113   6.484   1.474  0.9407  1.5742 -1.8576
24380SOL     OW74752   7.500   8.300   3.494  0.9689  0.1094 -0.0129
24380SOL    HW174753   7.544   8.305   3.409  2.8693 -3.5154  0.5675
24380SOL    HW274754   7.409   8.281   3.473  1.3759 -0.5470 -1.2458
24381SOL     OW74755   7.513   9.122   4.860 -0.5945 -1.0143  0.0520
24381SOL    HW174756   7.550   9.209   4.874 -2.2455 -0.1485 -0.6409
24381SOL    HW274757   7.517   9.110   4.765 -1.9436 -0.9366 -0.0292
24382SOL     OW74758   4.910   2.719   6.321 -0.3034 -0.2563  0.0300
24382SOL    HW174759   4.839   2.674   6.274 -0.4910 -1.1575  1.1410
24382SOL    HW274760   4.887   2.710   6.414  1.0540 -0.1850  0.3883
24383SOL     OW74761   2.940   9.649   6.912  0.2747  0.0652 -0.3504
24383SOL    HW174762   2.967   9.575   6.858  2.7786 -0.0346  0.9136
24383SOL    HW274763   2.988   9.639   6.994 -1.5193  1.5598  0.9926
24384SOL     OW74764   9.327   6.847   7.414 -0.5387 -0.4595  0.0273
24384SOL    HW174765   9.234   6.848   7.440 -0.5423 -0.2185  0.0038
24384SOL    HW274766   9.326   6.869   7.321 -0.3759  0.7371  0.2903
24385SOL     OW74767   9.408   4.217   0.476 -0.3528 -0.6307 -0.3638
24385SOL    HW174768   9.375   4.307   0.480 -0.0333 -0.4666 -1.2788
24385SOL    HW274769   9.329   4.163   0.465 -0.6522 -0.5785  1.2432
24386SOL     OW74770   9.226   5.896   2.621  0.1473  0.3314 -0.4924
24386SOL    HW174771   9.258   5.931   2.537  0.6990 -1.6904 -1.1723
24386SOL    HW274772   9.176   5.818   2.597  2.1711 -1.5836  1.1655
24387SOL     OW74773   5.081   7.378   6.698 -0.1151  0.0790 -0.2928
24387SOL    HW174774   5.038   7.449   6.745  0.1580  0.0366  0.0257
24387SOL    HW274775   5.156   7.420   6.656 -1.1859  0.4313 -1.9576
24388SOL     OW74776   4.139   5.123   3.899  0.1203  0.0631  0.1511
24388SOL    HW174777   4.205   5.087   3.840  1.3120  0.9368  0.8920
24388SOL    HW274778   4.188   5.183   3.956 -0.9797 -0.6959  1.9816
24389SOL     OW74779   4.179   7.487   7.943  0.3206  0.4155 -0.0898
24389SOL    HW174780   4.224   7.562   7.905  0.1167 -0.6843 -2.6997
24389SOL    HW274781   4.232   7.411   7.917 -1.5893 -0.6743 -1.0216
24390SOL     OW74782   8.034   8.517   6.676 -0.1192 -0.7301  0.5917
24390SOL    HW174783   8.120   8.487   6.703  1.0905  1.4909 -0.4754
24390SOL    HW274784   8.025   8.488   6.585  0.2505  0.3765  0.1750
24391SOL     OW74785   9.404   3.301   7.986  0.6441  0.0388  0.0894
24391SOL    HW174786   9.447   3.351   7.916  1.1061  0.0819  0.3984
24391SOL    HW274787   9.350   3.365   8.031  0.6281  0.0891  0.0003
24392SOL     OW74788   5.341   6.718   7.927  0.3555  0.4647  0.0725
24392SOL    HW174789   5.434   6.734   7.944  0.1725  1.4238  0.2094
24392SOL    HW274790   5.304   6.804   7.909 -0.4031  0.0259 -0.5549
24393SOL     OW74791   7.706   6.864   3.629 -0.2784  0.3345  0.2046
24393SOL    HW174792   7.634   6.916   3.593  0.2622  1.3292  0.5251
24393SOL    HW274793   7.746   6.823   3.552 -0.0182  1.3007 -0.1902
24394SOL     OW74794   8.116   3.023   0.684  0.3798 -0.3137  0.3769
24394SOL    HW174795   8.155   3.049   0.767  2.3406 -1.6777 -0.0542
24394SOL    HW274796   8.051   3.091   0.665  2.5667  2.1414  1.1176
24395SOL     OW74797   4.470   8.707   2.564  0.7286 -0.4882  0.2393
24395SOL    HW174798   4.415   8.642   2.520 -2.9315  1.6624  1.1622
24395SOL    HW274799   4.435   8.712   2.653  3.8618 -0.3436  1.5870
24396SOL     OW74800   0.899   3.930   7.516 -0.2654  0.2635  0.1939
24396SOL    HW174801   0.835   3.870   7.478  0.2909  0.3464 -0.9132
24396SOL    HW274802   0.898   4.006   7.458  1.5608 -0.1630 -0.4531
24397SOL     OW74803   3.699   5.342   3.744  0.0359 -0.4855  0.3638
24397SOL    HW174804   3.757   5.292   3.801 -3.5794 -2.6398  2.5746
24397SOL    HW274805   3.654   5.403   3.803 -0.7605  0.3383 -1.0313
24398SOL     OW74806   3.179   3.782   1.597  0.1927  0.0395 -0.2419
24398SOL    HW174807   3.153   3.699   1.559 -0.6016  0.3951 -0.5055
24398SOL    HW274808   3.239   3.759   1.668 -1.4343 -0.8929  0.9037
24399SOL     OW74809   4.212   7.058   8.314 -0.2583  0.3214 -0.2470
24399SOL    HW174810   4.146   7.126   8.299 -0.0695  0.6195  0.2527
24399SOL    HW274811   4.162   6.978   8.327 -0.5349  0.5954  0.4075
24400SOL     OW74812   0.066   3.570   1.688  0.0165 -0.1366 -0.3356
24400SOL    HW174813   0.069   3.550   1.782 -1.7825  2.1996  0.3158
24400SOL    HW274814   0.011   3.501   1.651 -1.5560  0.3945  0.8656
24401SOL     OW74815   7.485   7.821   9.281  0.4021 -0.5423 -0.3492
24401SOL    HW174816   7.554   7.872   9.323  0.2689  1.8960 -2.7392
24401SOL    HW274817   7.506   7.730   9.301  1.9354  0.3099  2.3645
24402SOL     OW74818   2.600   3.537   5.702  0.6071  0.3256  0.1679
24402SOL    HW174819   2.658   3.525   5.627  0.7355  2.3857 -0.1261
24402SOL    HW274820   2.539   3.463   5.698  1.5424 -0.4064 -1.0832
24403SOL     OW74821   6.619   2.477   0.050  0.2282  0.4715  0.3889
24403SOL    HW174822   6.577   2.445  -0.030 -1.6202  0.0225  1.4869
24403SOL    HW274823   6.547   2.495   0.110  1.5524  0.9283  1.9307
24404SOL     OW74824   9.312   3.577   3.424 -0.1312  0.5023 -0.2336
24404SOL    HW174825   9.365   3.656   3.421  1.2619 -0.4160 -1.0391
24404SOL    HW274826   9.222   3.608   3.437  0.2349  2.2560 -1.5357
24405SOL     OW74827   6.178   7.312   0.677  0.1854  0.0371 -0.1319
24405SOL    HW174828   6.106   7.359   0.720  0.7266  1.0198 -0.2944
24405SOL    HW274829   6.139   7.278   0.596 -0.0728  0.6437 -0.2660
24406SOL     OW74830   6.037   4.703   2.170  0.0945 -0.2782  0.2149
24406SOL    HW174831   6.052   4.609   2.155 -0.8364 -0.2703 -0.9165
24406SOL    HW274832   6.122   4.743   2.154  0.4716 -0.9100  0.5771
24407SOL     OW74833   1.051   4.056   4.332  0.1414  0.0947  0.1361
24407SOL    HW174834   0.984   4.023   4.393 -0.8842 -0.4403 -1.2110
24407SOL    HW274835   1.009   4.131   4.290  0.0391 -0.7187 -1.2882
24408SOL     OW74836   3.374   4.491   9.759 -0.2207  0.6672 -0.2174
24408SOL    HW174837   3.299   4.527   9.806 -1.2694  0.3803 -1.5897
24408SOL    HW274838   3.335   4.431   9.695  1.0785  1.4924 -1.8498
24409SOL     OW74839   0.978   7.356   3.115  0.1086  0.1227 -0.4515
24409SOL    HW174840   1.023   7.440   3.119  0.7229 -0.2141 -0.1341
24409SOL    HW274841   1.012   7.307   3.190 -1.6593  0.2869  0.5138
24410SOL     OW74842   4.731   8.517   9.378  0.0303 -0.0082 -0.4399
24410SOL    HW174843   4.802   8.577   9.357 -0.4130  0.8590  0.4303
24410SOL    HW274844   4.772   8.431   9.383  0.6491  0.1844 -1.8741
24411SOL     OW74845   6.842   3.136   8.578  0.1646 -0.5256  0.5063
24411SOL    HW174846   6.912   3.118   8.515  0.8154 -0.7026  1.2651
24411SOL    HW274847   6.776   3.184   8.527  0.1278 -1.6931 -0.5930
24412SOL     OW74848   8.032   7.910   7.369  0.4000  0.0030 -0.1009
24412SOL    HW174849   8.053   7.817   7.368  0.8369  0.0977  0.0328
24412SOL    HW274850   8.045   7.936   7.460 -0.6986 -0.0174  0.0813
24413SOL     OW74851   7.211   4.384   0.791 -0.2812 -0.0844  0.3499
24413SOL    HW174852   7.196   4.441   0.716  1.0465  0.8433  0.7559
24413SOL    HW274853   7.275   4.320   0.760 -1.3659 -1.0493  0.0574
24414SOL     OW74854   2.820   1.688   9.311  0.5167 -0.2896  0.4679
24414SOL    HW174855   2.807   1.594   9.309  2.0306 -0.5316 -1.0376
24414SOL    HW274856   2.760   1.722   9.245  2.1813 -0.6172 -1.3193
24415SOL     OW74857   8.772   4.222   9.759  0.0735 -0.4312 -0.3240
24415SOL    HW174858   8.715   4.155   9.720  1.1110 -0.8772 -1.1376
24415SOL    HW274859   8.859   4.184   9.755  0.2983 -0.2937  2.0770
24416SOL     OW74860   0.572   8.352   2.534 -0.3033  0.6734  0.3994
24416SOL    HW174861   0.593   8.445   2.528 -0.5575  0.8508  1.9424
24416SOL    HW274862   0.643   8.314   2.585 -2.5732  0.9496  4.0809
24417SOL     OW74863   2.705   1.013   8.599 -0.2048 -0.1658 -0.1845
24417SOL    HW174864   2.684   0.920   8.595 -1.1186  0.0449 -0.5894
24417SOL    HW274865   2.772   1.025   8.532  0.8462 -0.7453  0.7225
24418SOL     OW74866   6.038   3.915   8.475 -0.2432 -0.1277  0.2333
24418SOL    HW174867   6.039   3.993   8.529 -0.1666  1.4297 -1.8943
24418SOL    HW274868   6.081   3.848   8.528  1.0057  1.6579  1.5787
24419SOL     OW74869   2.427   8.865   5.317  0.1045  0.2357  0.2062
24419SOL    HW174870   2.514   8.832   5.342 -0.3474 -0.9123  0.3276
24419SOL    HW274871   2.366   8.807   5.362 -0.7431  1.5849  0.8378
24420SOL     OW74872   1.531   3.545   2.990 -0.0795 -0.2501  0.4419
24420SOL    HW174873   1.586   3.486   3.042 -0.5312  0.2235  1.4940
24420SOL    HW274874   1.593   3.604   2.947  0.3617 -1.3243 -0.4385
24421SOL     OW74875   4.971   6.523   9.032 -0.3211  1.0847  0.2998
24421SOL    HW174876   5.032   6.571   8.976  0.1415  1.2729  0.9500
24421SOL    HW274877   5.026   6.460   9.078 -0.6270  1.2052  0.8374
24422SOL     OW74878   7.126   3.345   4.835 -0.2417 -0.1634 -0.4864
24422SOL    HW174879   7.057   3.408   4.817 -0.8124 -0.5040  0.5029
24422SOL    HW274880   7.111   3.316   4.925  0.4107 -1.2047 -0.6908
24423SOL     OW74881   7.649   7.822   3.093  0.2228  0.4471 -0.5407
24423SOL    HW174882   7.572   7.772   3.121 -0.0282  0.9537 -0.3171
24423SOL    HW274883   7.618   7.876   3.020  0.6372 -0.1469 -1.1760
24424SOL     OW74884   7.929   0.327   0.375 -0.1667  0.3106  0.1089
24424SOL    HW174885   7.849   0.280   0.397  0.8739 -1.2311  0.7395
24424SOL    HW274886   7.936   0.319   0.280 -0.7602  0.4964  0.0433
24425SOL     OW74887   7.237   1.990   1.930  0.2425  0.3594 -0.1922
24425SOL    HW174888   7.215   2.075   1.967  0.6812  0.4001 -0.0191
24425SOL    HW274889   7.166   1.972   1.868  1.1699  1.7792 -1.7600
24426SOL     OW74890   4.935   8.606   1.121  0.4797  0.5582  0.0909
24426SOL    HW174891   4.915   8.545   1.050  1.0121  0.1936  0.2542
24426SOL    HW274892   4.875   8.581   1.191  1.9544 -1.0308  0.8595
24427SOL     OW74893   5.704   7.641   3.672  0.5045 -0.0848 -0.2890
24427SOL    HW174894   5.664   7.722   3.703  1.9818  0.0571  1.3980
24427SOL    HW274895   5.640   7.605   3.610 -1.1144  1.3154  0.4780
24428SOL     OW74896   4.456   7.011   5.756  0.0343 -0.1835  0.2539
24428SOL    HW174897   4.466   6.916   5.744  0.3799 -0.2586  1.0210
24428SOL    HW274898   4.546   7.043   5.764 -0.1113  0.0876  0.8409
24429SOL     OW74899   6.249   4.670   1.975 -0.5148  0.1106 -0.6206
24429SOL    HW174900   6.316   4.632   1.917 -0.7616 -2.3033  0.5455
24429SOL    HW274901   6.286   4.660   2.063 -2.1810 -0.8886  0.0112
24430SOL     OW74902   9.145   2.209   0.111  0.5368  0.0997 -0.7205
24430SOL    HW174903   9.119   2.288   0.158  0.4251 -0.8663  0.8951
24430SOL    HW274904   9.208   2.240   0.045  0.1315  1.5841 -0.4439
24431SOL     OW74905   0.820   3.054   7.292  0.2205  0.2152 -0.6335
24431SOL    HW174906   0.915   3.050   7.288  0.4520  0.2065  2.2239
24431SOL    HW274907   0.798   3.145   7.271  1.0956  0.7610  0.6577
24432SOL     OW74908   2.219   4.105   6.299 -0.7272  0.2870  0.1595
24432SOL    HW174909   2.230   4.025   6.350  1.3896  0.1360 -0.4472
24432SOL    HW274910   2.175   4.077   6.219 -0.5568 -0.1746  0.2271
24433SOL     OW74911   6.813   0.099   5.934 -0.4920 -0.3421  0.2271
24433SOL    HW174912   6.852   0.186   5.927 -1.0632 -0.1151 -0.1793
24433SOL    HW274913   6.732   0.113   5.983 -0.7935 -0.5775 -0.2032
24434SOL     OW74914   4.033   4.938   9.791  0.0494  0.0332  0.1626
24434SOL    HW174915   4.121   4.951   9.827 -0.6637 -0.6380  2.3189
24434SOL    HW274916   3.979   4.916   9.867 -1.9651  0.2559 -1.1270
24435SOL     OW74917   7.535   7.567   7.673  0.4149 -0.1780  0.0729
24435SOL    HW174918   7.594   7.492   7.664 -1.0432 -1.2952 -0.3902
24435SOL    HW274919   7.449   7.529   7.689 -0.2111  1.4307  0.7222
24436SOL     OW74920   0.682   9.180   4.449  0.2856  0.4348  0.2246
24436SOL    HW174921   0.773   9.173   4.478  0.8634 -2.0062 -1.8184
24436SOL    HW274922   0.638   9.104   4.486 -0.2267  0.1188 -0.9614
24437SOL     OW74923   3.617   6.046   4.077 -0.3538  0.6042 -0.9215
24437SOL    HW174924   3.657   6.131   4.093 -1.3426  1.0739 -0.9129
24437SOL    HW274925   3.574   6.055   3.992  0.0674 -0.0931 -1.2201
24438SOL     OW74926   0.724   9.784   1.739 -0.2543 -0.8507 -0.0450
24438SOL    HW174927   0.649   9.772   1.797 -1.0361 -0.4859 -0.9579
24438SOL    HW274928   0.715   9.717   1.672  0.8034 -1.4570  0.3951
24439SOL     OW74929   5.254   3.806   6.489  0.2841  0.0377  0.0828
24439SOL    HW174930   5.277   3.751   6.415  0.3314  1.0174 -0.6481
24439SOL    HW274931   5.159   3.814   6.484  0.4271  1.4375 -0.8657
24440SOL     OW74932   2.559   8.145   4.369  0.1976  0.1269 -0.7395
24440SOL    HW174933   2.562   8.103   4.283 -0.0722 -1.3831 -0.0377
24440SOL    HW274934   2.469   8.133   4.399  0.2168  0.8801 -0.3554
24441SOL     OW74935   0.735   2.504   6.130  0.4414  0.2149 -0.0994
24441SOL    HW174936   0.787   2.525   6.208  0.0136  0.2313  0.1816
24441SOL    HW274937   0.800   2.487   6.062  0.8558 -1.1307  0.5896
24442SOL     OW74938   9.434   0.900   9.674  0.3507 -0.1191 -0.1500
24442SOL    HW174939   9.517   0.895   9.627  0.6762 -0.5357  0.4428
24442SOL    HW274940   9.400   0.987   9.654  0.2893 -0.4261 -1.4478
24443SOL     OW74941   2.002   6.705   4.055  0.0850  0.2654  0.5743
24443SOL    HW174942   2.053   6.695   3.974 -0.5435  0.7188  0.1097
24443SOL    HW274943   1.919   6.741   4.026 -0.3609 -0.0961  1.3666
24444SOL     OW74944   2.527   4.954   7.178 -0.3229 -0.1487 -0.1111
24444SOL    HW174945   2.609   4.961   7.227 -1.0377  1.5441  0.9353
24444SOL    HW274946   2.460   4.942   7.245 -1.2000  1.0794 -0.7215
24445SOL     OW74947   0.473   2.846   8.825 -0.7095 -0.0551  0.0828
24445SOL    HW174948   0.377   2.854   8.817 -0.6163 -0.0358 -1.5075
24445SOL    HW274949   0.496   2.900   8.900 -1.6970  2.2125 -1.1285
24446SOL     OW74950   6.813   6.807   5.671 -0.1702 -0.2761  0.1051
24446SOL    HW174951   6.903   6.833   5.692  0.8939 -2.8087 -0.9748
24446SOL    HW274952   6.811   6.803   5.575 -1.0843 -1.3103  0.1473
24447SOL     OW74953   0.929   8.840   1.436 -0.2194  0.2448 -0.7647
24447SOL    HW174954   0.972   8.880   1.360  2.1719  1.3267  1.0036
24447SOL    HW274955   0.938   8.746   1.422  0.2913  0.4279 -1.7626
24448SOL     OW74956   3.333   6.421   3.633  0.1300 -0.2658  0.5346
24448SOL    HW174957   3.259   6.472   3.665 -2.1291 -3.1331  0.2423
24448SOL    HW274958   3.390   6.410   3.709  0.2081  1.7551  0.8289
24449SOL     OW74959   5.529   4.674   8.838 -0.4859 -0.2903  0.2793
24449SOL    HW174960   5.506   4.650   8.748 -2.8978  1.0244  0.4408
24449SOL    HW274961   5.486   4.608   8.892  1.8084 -1.6850  0.5295
24450SOL     OW74962   1.956   2.294   6.090  0.7692  0.2368 -0.3673
24450SOL    HW174963   2.004   2.215   6.115 -0.3170 -0.5014 -0.5320
24450SOL    HW274964   1.959   2.295   5.994  0.9371  0.4944 -0.3594
24451SOL     OW74965   1.609   4.817   0.576  0.2076  0.0158 -0.4381
24451SOL    HW174966   1.632   4.736   0.621 -0.1562  0.1116 -0.0696
24451SOL    HW274967   1.517   4.831   0.599 -0.0178  0.0014 -1.3103
24452SOL     OW74968   9.582   5.383   4.627  0.1083 -0.1975 -0.6181
24452SOL    HW174969   9.674   5.408   4.620  0.3064  0.0601  2.0805
24452SOL    HW274970   9.552   5.422   4.709 -2.1870 -1.0171 -0.9918
24453SOL     OW74971   6.784   5.228   5.574 -0.5239  0.9970 -0.5442
24453SOL    HW174972   6.726   5.288   5.526 -1.9640  0.4594  0.4543
24453SOL    HW274973   6.852   5.285   5.610 -1.7459  2.0423  0.2238
24454SOL     OW74974   1.128   6.754   2.445  0.2379  0.7597 -0.2094
24454SOL    HW174975   1.185   6.680   2.467 -0.9972  0.4283  2.1253
24454SOL    HW274976   1.062   6.716   2.386  0.5069  0.3854 -0.2735
24455SOL     OW74977   8.008   7.801   2.070 -0.2977 -0.3220  0.6291
24455SOL    HW174978   8.013   7.790   2.165  0.3141  2.3812  0.9919
24455SOL    HW274979   8.098   7.794   2.040 -0.1243  1.4521  0.6510
24456SOL     OW74980   2.392   6.568   6.166  0.4435 -0.1394  0.6431
24456SOL    HW174981   2.380   6.518   6.247  1.1645  0.3365  1.0558
24456SOL    HW274982   2.397   6.659   6.195 -0.9562  0.1996 -0.1064
24457SOL     OW74983   8.303   7.609   9.795 -0.2414  0.4075  0.3827
24457SOL    HW174984   8.234   7.565   9.745  0.3594 -0.8729  0.6308
24457SOL    HW274985   8.256   7.664   9.857 -1.0460 -0.3594  0.4764
24458SOL     OW74986   8.254   5.230   4.568 -0.1705  0.2781 -0.2405
24458SOL    HW174987   8.266   5.306   4.511  1.3103 -0.3218 -0.7724
24458SOL    HW274988   8.294   5.255   4.651 -0.3657  0.3638 -0.1735
24459SOL     OW74989   1.203   8.480   7.402 -0.3975 -0.0470  0.7938
24459SOL    HW174990   1.210   8.571   7.374  1.6582  0.0428  1.3975
24459SOL    HW274991   1.129   8.479   7.463 -0.1616  1.3223  1.1356
24460SOL     OW74992   0.375   3.455   3.689 -0.3885 -0.0175  0.0496
24460SOL    HW174993   0.330   3.450   3.773 -1.1035  2.4988 -0.0884
24460SOL    HW274994   0.467   3.445   3.710 -0.5081  1.0753  1.2451
24461SOL     OW74995   9.317   8.639   8.357  0.0168 -0.2809  0.1878
24461SOL    HW174996   9.290   8.604   8.271 -0.0794  0.1353  0.0482
24461SOL    HW274997   9.262   8.593   8.420  0.0631 -0.5638  0.0240
24462SOL     OW74998   1.642   6.173   0.261 -0.2534 -0.0834 -0.0815
24462SOL    HW174999   1.580   6.105   0.284 -1.1049  1.0345  1.0921
24462SOL    HW275000   1.633   6.183   0.166  0.7239 -2.3309 -0.4760
24463SOL     OW75001   5.656   9.824   0.059 -0.0160  0.3118  0.4470
24463SOL    HW175002   5.652   9.919   0.067 -0.6171  0.4556 -1.0976
24463SOL    HW275003   5.700   9.809  -0.025 -3.4898 -0.6085 -1.4203
24464SOL     OW75004   1.091   8.637   0.374 -0.4867 -0.4676  0.3794
24464SOL    HW175005   1.162   8.688   0.334  1.2865 -0.9950  2.6272
24464SOL    HW275006   1.013   8.689   0.357  1.0760  2.6054  1.6601
24465SOL     OW75007   5.193   7.255   7.056 -0.0124  0.3889 -0.1157
24465SOL    HW175008   5.266   7.312   7.082  1.0778 -0.8607 -0.3068
24465SOL    HW275009   5.133   7.257   7.130  0.6817  0.7100  0.4505
24466SOL     OW75010   6.823   2.932   2.070 -0.1688 -0.2901  0.2214
24466SOL    HW175011   6.742   2.908   2.114  1.0358 -0.4487  2.4831
24466SOL    HW275012   6.839   3.023   2.097 -1.0779  0.8373 -2.6439
24467SOL     OW75013   8.898   1.037   0.255  0.2767  0.5942 -0.0273
24467SOL    HW175014   8.832   1.086   0.304  0.2108  1.0460 -0.5587
24467SOL    HW275015   8.959   1.103   0.223  1.0612  0.1667  0.5485
24468SOL     OW75016   5.308   7.996   0.562 -0.1174 -0.1059 -0.4465
24468SOL    HW175017   5.388   8.022   0.608 -0.6747  0.4480  0.2244
24468SOL    HW275018   5.324   8.019   0.471 -0.0234  1.2666 -0.1009
24469SOL     OW75019   1.937   8.024   4.087 -0.0821  0.0305 -0.2583
24469SOL    HW175020   1.902   8.021   4.177 -1.6259 -1.7017 -0.8543
24469SOL    HW275021   1.937   7.933   4.058 -1.6241  0.7126 -2.7338
24470SOL     OW75022   8.016   5.944   7.487 -1.1296  0.0079 -0.3959
24470SOL    HW175023   8.103   5.904   7.493 -2.0701 -1.9703  0.7192
24470SOL    HW275024   7.972   5.919   7.568 -1.6894  3.7200  0.6318
24471SOL     OW75025   6.280   6.568   8.989  0.2559  0.6258  0.3567
24471SOL    HW175026   6.307   6.522   9.069 -0.0234 -1.3431 -0.6435
24471SOL    HW275027   6.346   6.546   8.924 -1.3618 -0.7505 -0.9224
24472SOL     OW75028   1.405   1.623   8.288  0.0043 -0.0732  0.3543
24472SOL    HW175029   1.423   1.623   8.194  0.9931  0.3364  0.5390
24472SOL    HW275030   1.339   1.554   8.299  1.1395 -1.3178 -0.3959
24473SOL     OW75031   9.599   4.356   5.049 -0.3290  0.8787  0.0114
24473SOL    HW175032   9.506   4.363   5.027 -0.2150  0.1229 -0.7924
24473SOL    HW275033   9.617   4.432   5.105 -1.6769  0.4556  1.0762
24474SOL     OW75034   5.398   6.067   7.262  0.8304  0.0511 -0.6563
24474SOL    HW175035   5.329   6.134   7.259  0.0166 -0.7765 -1.1152
24474SOL    HW275036   5.474   6.112   7.300  0.3061  1.2250 -0.9469
24475SOL     OW75037   3.404   7.691   8.036  0.7454 -0.0216 -0.0566
24475SOL    HW175038   3.432   7.778   8.010 -1.2809  0.2988 -1.3484
24475SOL    HW275039   3.448   7.675   8.120 -0.6178  3.1671  1.3922
24476SOL     OW75040   6.028   0.300   7.897 -0.0621 -0.0808 -0.8244
24476SOL    HW175041   5.996   0.220   7.856 -0.4286  0.1936 -1.0811
24476SOL    HW275042   6.091   0.336   7.834 -0.8434  0.4948 -1.2925
24477SOL     OW75043   4.514   1.148   6.481 -0.2802  0.1436 -0.1736
24477SOL    HW175044   4.587   1.169   6.539  0.9694 -0.2034 -1.5799
24477SOL    HW275045   4.475   1.233   6.460 -0.1993  0.3426  0.4545
24478SOL     OW75046   9.614   4.935   6.568 -0.4261  0.4432 -0.1306
24478SOL    HW175047   9.686   4.938   6.630 -0.4451  0.6681 -0.1173
24478SOL    HW275048   9.539   4.906   6.620 -0.1780 -0.5515 -0.3120
24479SOL     OW75049   2.064   6.573   7.202  0.2424 -0.1162 -0.1910
24479SOL    HW175050   1.972   6.574   7.175  1.1308 -1.8689 -3.8680
24479SOL    HW275051   2.083   6.480   7.218  1.6924  0.0158 -0.9652
24480SOL     OW75052   1.791   5.994   2.720 -0.2877 -0.1768  0.2498
24480SOL    HW175053   1.738   6.015   2.643 -0.9083 -2.6513 -0.0791
24480SOL    HW275054   1.728   5.994   2.793  0.5309  3.6771  1.2043
24481SOL     OW75055   7.992   4.530   1.521  0.7797  0.0248 -0.5892
24481SOL    HW175056   7.943   4.457   1.557  0.7074  0.7519  0.8522
24481SOL    HW275057   7.929   4.578   1.468 -0.0146  0.7400  0.9421
24482SOL     OW75058   2.363   1.646   5.977  0.2353  0.7658 -0.4557
24482SOL    HW175059   2.321   1.712   5.921  0.5614  1.1660 -0.2341
24482SOL    HW275060   2.453   1.677   5.987  1.2654 -1.1652 -2.7104
24483SOL     OW75061   5.154   4.663   2.326 -0.0443 -0.2266  0.0046
24483SOL    HW175062   5.158   4.757   2.309 -1.2921  0.1316  1.4281
24483SOL    HW275063   5.174   4.655   2.420  1.4092 -1.5331 -0.3909
24484SOL     OW75064   4.587   0.272   3.428  0.2332  0.0199 -0.1103
24484SOL    HW175065   4.648   0.318   3.371 -0.1695  0.2218 -0.3767
24484SOL    HW275066   4.617   0.181   3.426  0.7124  0.1692  0.0073
24485SOL     OW75067   2.077   7.262   6.623 -0.2860 -0.4659  0.0166
24485SOL    HW175068   2.106   7.354   6.622  0.0388 -0.5306  1.2889
24485SOL    HW275069   2.157   7.211   6.617 -0.4169 -0.6659 -0.0522
24486SOL     OW75070   0.521   0.861   8.456  0.2362 -0.1568  0.0702
24486SOL    HW175071   0.443   0.828   8.411 -0.8300  0.9588  0.9822
24486SOL    HW275072   0.547   0.790   8.515 -0.3990 -0.3653  0.1065
24487SOL     OW75073   0.712   2.805   7.183 -0.0505  0.1144 -0.7767
24487SOL    HW175074   0.629   2.845   7.154 -0.6394  0.7352  1.5173
24487SOL    HW275075   0.770   2.880   7.197  0.2392 -0.1576 -0.5196
24488SOL     OW75076   1.386   7.327   6.142 -0.0999 -0.0264 -0.2157
24488SOL    HW175077   1.338   7.406   6.121  0.6860  0.2530 -1.0287
24488SOL    HW275078   1.324   7.255   6.127 -0.6638  0.3948  0.0662
24489SOL     OW75079   0.395   7.585   3.143  0.1591 -0.0864  0.1071
24489SOL    HW175080   0.366   7.633   3.220 -1.5705  0.1689 -0.6646
24489SOL    HW275081   0.393   7.649   3.072  1.2110 -0.4517 -0.2703
24490SOL     OW75082   5.176   5.218   8.608  0.2401 -0.5098  0.2112
24490SOL    HW175083   5.132   5.211   8.693  0.2604 -1.8144  0.1332
24490SOL    HW275084   5.237   5.145   8.607 -0.5790 -1.2257 -1.3858
24491SOL     OW75085   8.065   1.929   4.944  0.1766  0.2710  0.0818
24491SOL    HW175086   8.086   1.907   4.854 -0.6455 -1.3574  0.2365
24491SOL    HW275087   7.984   1.880   4.962 -0.5523  1.7950  1.2233
24492SOL     OW75088   6.402   6.495   7.910  0.2681 -0.5016  0.1833
24492SOL    HW175089   6.351   6.550   7.969 -1.0822 -2.6560  1.1413
24492SOL    HW275090   6.455   6.557   7.859  0.0054  1.5506  2.2389
24493SOL     OW75091   3.415   9.595   0.445  0.2962 -0.0074 -0.3069
24493SOL    HW175092   3.432   9.573   0.353 -0.0952  0.0979 -0.4051
24493SOL    HW275093   3.499   9.628   0.477  1.2497 -2.7249  0.1918
24494SOL     OW75094   0.441   1.308   3.021  0.7255  0.6847 -0.5790
24494SOL    HW175095   0.406   1.247   3.086  1.9408  0.6097  0.0197
24494SOL    HW275096   0.381   1.383   3.025  0.0642  0.1572 -0.2881
24495SOL     OW75097   6.615   6.236   3.629 -0.1960  0.0142  0.4549
24495SOL    HW175098   6.687   6.174   3.630 -0.3731 -0.2319 -0.7424
24495SOL    HW275099   6.624   6.282   3.545 -1.1614  0.2966  0.4970
24496SOL     OW75100   5.719   2.480   7.473  0.8358 -0.2442  0.6864
24496SOL    HW175101   5.801   2.471   7.426  1.3548  0.5614  1.4036
24496SOL    HW275102   5.667   2.539   7.419  1.1145  0.0367  0.7229
24497SOL     OW75103   6.502   1.484   8.781 -0.2280 -0.2863  0.1635
24497SOL    HW175104   6.499   1.414   8.716  3.1556  0.2942 -0.7854
24497SOL    HW275105   6.493   1.564   8.730 -1.6391  0.1013  0.9655
24498SOL     OW75106   3.286   9.082   0.208  1.1724  0.4671 -0.5027
24498SOL    HW175107   3.361   9.030   0.180  0.3623 -0.6889 -0.5720
24498SOL    HW275108   3.252   9.120   0.127  1.4978  0.7508 -0.5086
24499SOL     OW75109   9.655   6.916   0.513  0.4973 -0.0811 -0.4715
24499SOL    HW175110   9.672   6.965   0.433  0.2890  0.3656 -0.2489
24499SOL    HW275111   9.631   6.984   0.577 -2.7529 -0.6793 -0.9031
24500SOL     OW75112   8.133   3.222   7.908 -0.5428 -0.0206  0.8212
24500SOL    HW175113   8.222   3.192   7.888  0.0337  2.1128 -0.1400
24500SOL    HW275114   8.146   3.299   7.963 -1.6538  1.5458 -0.9825
24501SOL     OW75115   7.640   4.035   1.041 -0.2502 -0.6903  0.3704
24501SOL    HW175116   7.682   3.985   1.111  0.5173 -0.9391 -0.2589
24501SOL    HW275117   7.709   4.091   1.005  0.0760 -2.3496 -1.8312
24502SOL     OW75118   1.712   5.547   2.327  0.1555  0.0069  0.4172
24502SOL    HW175119   1.691   5.455   2.344  1.6165 -1.1147 -2.9439
24502SOL    HW275120   1.627   5.589   2.318 -0.6448 -1.7855 -1.1974
24503SOL     OW75121   5.082   8.348   7.905  0.2366  0.5743  0.3601
24503SOL    HW175122   5.044   8.267   7.870 -0.8055  0.6625  1.2315
24503SOL    HW275123   5.099   8.402   7.828  0.9910 -0.4750 -0.2418
24504SOL     OW75124   5.769   0.337   9.746 -0.5159 -0.1860  0.5856
24504SOL    HW175125   5.803   0.420   9.778 -0.0964  0.1522 -0.6977
24504SOL    HW275126   5.760   0.349   9.651 -2.1138 -1.0159  0.5947
24505SOL     OW75127   3.272   1.436   4.194 -0.0759  0.0719  0.1863
24505SOL    HW175128   3.308   1.429   4.283  1.7208  0.8194 -0.4464
24505SOL    HW275129   3.177   1.427   4.206  0.0951  0.5474  2.2178
24506SOL     OW75130   8.710   6.972   2.633  0.1500  0.4377 -0.1230
24506SOL    HW175131   8.667   6.930   2.559  0.7750  0.1819 -0.3504
24506SOL    HW275132   8.745   6.900   2.686  2.4481  0.6156 -1.2484
24507SOL     OW75133   5.886   1.365   7.806  0.0644 -0.4742 -0.2930
24507SOL    HW175134   5.944   1.441   7.807  0.6799 -0.9303  1.0318
24507SOL    HW275135   5.900   1.322   7.891 -0.0725 -2.2067 -1.0920
24508SOL     OW75136   1.139   4.646   4.535 -0.2022 -0.1391  0.0005
24508SOL    HW175137   1.234   4.639   4.544  0.1851  2.7073 -1.0458
24508SOL    HW275138   1.104   4.588   4.603  2.3009  0.5975  2.0379
24509SOL     OW75139   1.565   8.513   0.904 -0.5829 -0.2009  0.4957
24509SOL    HW175140   1.535   8.484   0.817 -0.5012 -2.1709  1.0663
24509SOL    HW275141   1.516   8.593   0.921 -1.5599 -0.4749 -0.8320
24510SOL     OW75142   2.365   8.568   5.645  0.1482  0.3762  0.1976
24510SOL    HW175143   2.400   8.531   5.564 -1.5755 -0.2294 -0.3236
24510SOL    HW275144   2.423   8.534   5.714 -1.7390 -4.2809 -0.0956
24511SOL     OW75145   9.174   3.372   1.194  0.1769 -0.3329 -0.4669
24511SOL    HW175146   9.214   3.344   1.277  1.8015  1.0220 -0.7346
24511SOL    HW275147   9.246   3.369   1.131 -0.7960 -0.3637 -1.6074
24512SOL     OW75148   6.018   7.674   3.926 -0.1351  0.7072 -0.1660
24512SOL    HW175149   6.017   7.613   4.000  1.8155  0.7208 -0.0759
24512SOL    HW275150   5.990   7.622   3.851 -1.1712  0.4404  0.3935
24513SOL     OW75151   6.958   2.829   0.593  0.0898  0.3380 -0.2199
24513SOL    HW175152   6.878   2.872   0.563 -0.9037 -0.8364  0.6184
24513SOL    HW275153   6.976   2.764   0.526 -1.8886 -1.9934  1.3190
24514SOL     OW75154   7.756   0.421   2.402 -0.1481  0.0323 -0.5627
24514SOL    HW175155   7.840   0.431   2.447 -0.7720  0.0764  0.6394
24514SOL    HW275156   7.695   0.471   2.456 -0.7052  1.2023 -2.2029
24515SOL     OW75157   7.253   6.696   4.557 -0.1220 -0.1552  0.3267
24515SOL    HW175158   7.328   6.670   4.610  1.5510  0.2818 -1.7050
24515SOL    HW275159   7.246   6.629   4.489 -1.5318 -0.1248  0.4023
24516SOL     OW75160   5.975   3.775   3.215 -0.2871  0.0102 -0.1485
24516SOL    HW175161   5.998   3.730   3.133 -1.1949  0.9029 -0.9178
24516SOL    HW275162   5.918   3.713   3.261  1.0053 -0.8997  0.2919
24517SOL     OW75163   6.415   3.385   6.983  0.0791  0.4075 -0.4221
24517SOL    HW175164   6.397   3.479   6.978  1.8198  0.7307 -1.7293
24517SOL    HW275165   6.510   3.379   6.993  0.1424 -1.1986 -1.5300
24518SOL     OW75166   2.310   5.510   9.464  0.2100 -0.3382  0.3151
24518SOL    HW175167   2.229   5.465   9.487  0.8063 -1.1138  0.9351
24518SOL    HW275168   2.304   5.595   9.508  0.5808 -1.1497  2.0033
24519SOL     OW75169   2.717   0.607   5.960  0.0533  0.1542  0.3112
24519SOL    HW175170   2.639   0.630   6.009 -1.0525  0.1754 -1.3571
24519SOL    HW275171   2.684   0.561   5.883  1.8054 -1.4629  0.4413
24520SOL     OW75172   1.201   8.332   0.307  0.1633  0.0073 -0.1671
24520SOL    HW175173   1.232   8.421   0.326  1.3022 -0.4348  0.1456
24520SOL    HW275174   1.136   8.314   0.375 -0.4471  0.7810 -0.5330
24521SOL     OW75175   9.811   6.152   6.995  0.2777  0.1425  0.2277
24521SOL    HW175176   9.844   6.172   7.083  0.9154  0.2188 -0.0284
24521SOL    HW275177   9.877   6.095   6.957 -0.3401 -0.4655  0.0459
24522SOL     OW75178   6.054   3.171   4.217 -0.8663  0.0418 -0.5560
24522SOL    HW175179   6.014   3.199   4.135  1.4176  0.6511 -1.5384
24522SOL    HW275180   6.147   3.162   4.196 -0.5875 -2.3589  1.3132
24523SOL     OW75181   7.325   4.547   8.059 -0.4049  0.3682  0.0497
24523SOL    HW175182   7.359   4.474   8.110  0.2175 -0.3811 -1.3930
24523SOL    HW275183   7.354   4.625   8.107 -1.6145 -0.2728  1.9555
24524SOL     OW75184   2.415   9.013   8.670  0.3490  0.5238 -0.2680
24524SOL    HW175185   2.406   9.029   8.576  0.3889 -4.2301 -1.3478
24524SOL    HW275186   2.326   9.001   8.702  0.4429 -0.7760 -0.4371
24525SOL     OW75187   1.099   2.890   7.879  0.0934  0.0043  0.0130
24525SOL    HW175188   1.077   2.815   7.823  0.6613 -0.1060 -0.0676
24525SOL    HW275189   1.126   2.958   7.817 -0.7792  0.4069  0.0606
24526SOL     OW75190   4.326   5.651   8.604  0.0624 -0.2632 -0.1623
24526SOL    HW175191   4.399   5.627   8.548 -0.3861  1.0390 -1.3598
24526SOL    HW275192   4.257   5.679   8.544 -0.1089  2.1522  1.0370
24527SOL     OW75193   4.807   3.597   4.111 -0.2902 -0.2878 -0.2948
24527SOL    HW175194   4.769   3.681   4.086 -0.0280 -0.0453  0.1097
24527SOL    HW275195   4.742   3.556   4.168  0.1148  0.1976  0.5286
24528SOL     OW75196   1.401   5.336   9.542 -0.4889 -0.1285 -0.1595
24528SOL    HW175197   1.321   5.290   9.520 -0.0471 -0.7303 -0.5304
24528SOL    HW275198   1.424   5.305   9.629 -0.9563  0.4665  0.1803
24529SOL     OW75199   8.006   3.897   5.248  0.3258  0.4055  0.2527
24529SOL    HW175200   8.064   3.822   5.242  1.3406  1.1537  0.4279
24529SOL    HW275201   7.926   3.870   5.202  1.9052  0.3806 -2.7322
24530SOL     OW75202   0.472   1.974   9.179 -0.1136  0.1346  0.4896
24530SOL    HW175203   0.377   1.983   9.171 -0.3819 -2.0035  0.6463
24530SOL    HW275204   0.505   2.002   9.094 -0.8933  0.7427  0.3702
24531SOL     OW75205   5.530   0.280   5.373 -0.1610 -0.2556  0.3305
24531SOL    HW175206   5.526   0.192   5.336  0.9286 -0.3306  0.3784
24531SOL    HW275207   5.576   0.332   5.307 -2.7788  0.8669 -0.7730
24532SOL     OW75208   3.943   1.797   0.421  0.4503 -0.6723  0.2447
24532SOL    HW175209   4.026   1.785   0.375  0.5540  0.6434  0.0486
24532SOL    HW275210   3.967   1.843   0.502 -0.2893  2.0121 -0.9336
24533SOL     OW75211   1.264   7.545   2.903 -0.3435 -0.2346  1.0473
24533SOL    HW175212   1.229   7.631   2.881  1.2646  0.4870  1.1366
24533SOL    HW275213   1.355   7.562   2.927  0.1422 -2.0152  0.6322
24534SOL     OW75214   3.883   5.037   4.892  0.0813  0.2743  0.1838
24534SOL    HW175215   3.971   5.017   4.924  0.4941  2.0980  0.3023
24534SOL    HW275216   3.880   5.133   4.888 -0.9655  0.2132 -2.4516
24535SOL     OW75217   7.770   1.577   3.339 -0.1126  0.2724  0.6225
24535SOL    HW175218   7.745   1.590   3.248  0.5963 -2.6660 -0.0954
24535SOL    HW275219   7.689   1.592   3.388 -1.8510 -2.6283 -1.0334
24536SOL     OW75220   9.000   0.145   7.994 -0.2735  0.7433  0.6349
24536SOL    HW175221   8.915   0.189   8.004 -1.0692 -0.4345 -0.6005
24536SOL    HW275222   9.029   0.168   7.905  0.0104 -0.0122  0.5262
24537SOL     OW75223   3.032   3.501   0.092 -0.3212 -0.4476  0.0545
24537SOL    HW175224   3.069   3.487   0.005 -2.3937 -0.6076 -0.8635
24537SOL    HW275225   3.058   3.423   0.141  0.0453 -0.8366 -0.7265
24538SOL     OW75226   1.989   2.778   5.215  0.1739  0.2766 -0.9012
24538SOL    HW175227   1.975   2.705   5.155  0.2510 -0.3196 -0.2152
24538SOL    HW275228   2.061   2.827   5.177  0.7061 -0.5035 -0.9395
24539SOL     OW75229   9.333   7.133   3.325 -0.3016  0.0239  0.0813
24539SOL    HW175230   9.343   7.039   3.342  0.3459  0.3409  1.6753
24539SOL    HW275231   9.317   7.139   3.231 -0.6463 -1.7003 -0.0028
24540SOL     OW75232   9.607   5.868   0.038  0.3350 -1.0717 -0.4274
24540SOL    HW175233   9.606   5.962   0.021  0.3391 -0.7181  1.3036
24540SOL    HW275234   9.699   5.847   0.053  0.2949 -1.2900 -0.4834
24541SOL     OW75235   5.018   3.885   4.230  0.0571 -1.2157  0.2025
24541SOL    HW175236   5.095   3.828   4.224  0.5368 -0.5863  0.1778
24541SOL    HW275237   4.994   3.902   4.139 -0.6277 -2.0771  0.2140
24542SOL     OW75238   9.742   8.758   4.469 -0.0512  0.0329  0.1535
24542SOL    HW175239   9.672   8.783   4.529 -2.3602 -2.7607 -1.1301
24542SOL    HW275240   9.734   8.819   4.396 -1.3854 -0.4249 -0.1055
24543SOL     OW75241   6.164   0.356   2.461 -0.0468  0.4760  0.1367
24543SOL    HW175242   6.161   0.382   2.370  0.7212 -0.8352 -0.2933
24543SOL    HW275243   6.116   0.273   2.464  1.2947 -0.3143  0.5936
24544SOL     OW75244   4.762   9.624   3.841 -0.0504 -0.0321 -0.0916
24544SOL    HW175245   4.727   9.542   3.877  0.0165  0.7347  1.8313
24544SOL    HW275246   4.844   9.597   3.798 -0.9517 -1.2259 -1.1524
24545SOL     OW75247   1.168   0.184   9.194 -0.5338  0.2880  0.2718
24545SOL    HW175248   1.241   0.245   9.203 -0.3913  0.2569 -0.5519
24545SOL    HW275249   1.090   0.237   9.210 -0.3138  0.0943  2.2219
24546SOL     OW75250   2.358   6.759   7.848  0.2421 -0.0314  0.0853
24546SOL    HW175251   2.420   6.775   7.919  0.1259  2.3608 -0.2750
24546SOL    HW275252   2.283   6.717   7.891  0.4479  0.7517  1.2519
24547SOL     OW75253   1.289   5.573   6.836  0.1601 -0.1052  0.3298
24547SOL    HW175254   1.290   5.634   6.910  1.3651 -0.1362  0.3489
24547SOL    HW275255   1.282   5.630   6.759  1.6840  0.0998  0.3239
24548SOL     OW75256   8.876   5.487   6.987 -0.3344 -0.4469 -0.5345
24548SOL    HW175257   8.876   5.425   6.914  0.0672 -0.6027 -0.4054
24548SOL    HW275258   8.804   5.547   6.968 -0.7453 -0.9760 -0.6376
24549SOL     OW75259   7.883   6.037   4.760  0.3655  0.3744 -0.3926
24549SOL    HW175260   7.871   6.123   4.720 -1.8728 -0.6970 -2.2975
24549SOL    HW275261   7.828   6.039   4.838  0.6462  0.7875 -0.1996
24550SOL     OW75262   9.656   1.541   2.946  0.0680  0.6759 -0.3024
24550SOL    HW175263   9.563   1.563   2.953 -0.0828 -0.3363  1.8433
24550SOL    HW275264   9.701   1.609   2.997  0.4726  0.9610 -1.0303
24551SOL     OW75265   1.837   7.429   5.523 -0.4116  0.5020 -0.3441
24551SOL    HW175266   1.771   7.483   5.567  1.2011  0.1026  2.8070
24551SOL    HW275267   1.876   7.488   5.458  0.7196  3.0349  2.3888
24552SOL     OW75268   8.042   3.836   3.584 -0.1344 -0.2726  0.4316
24552SOL    HW175269   7.969   3.787   3.620 -0.2689 -0.2000  0.2602
24552SOL    HW275270   8.103   3.769   3.552  0.2072 -0.3472  1.2168
24553SOL     OW75271   6.792   7.393   8.155  0.0447  0.5945 -0.3989
24553SOL    HW175272   6.790   7.435   8.241 -2.0285 -0.0733 -0.0631
24553SOL    HW275273   6.884   7.391   8.131  0.7350  0.3752  2.0316
24554SOL     OW75274   5.543   2.457   5.633  0.1478 -0.3535 -1.1173
24554SOL    HW175275   5.565   2.455   5.726 -1.5565  1.4409 -0.6161
24554SOL    HW275276   5.621   2.493   5.591  0.0770  1.1343 -0.0541
24555SOL     OW75277   1.210   2.880   9.151 -0.0103 -0.3726 -0.0334
24555SOL    HW175278   1.226   2.840   9.066 -3.9266 -0.0741 -1.0960
24555SOL    HW275279   1.238   2.971   9.140  0.5868 -0.6121 -0.5607
24556SOL     OW75280   4.606   2.406   1.562  1.0478 -0.1565  0.1014
24556SOL    HW175281   4.575   2.439   1.646 -0.5665 -1.2660 -0.0035
24556SOL    HW275282   4.604   2.481   1.503 -1.4334 -0.1006  0.1520
24557SOL     OW75283   5.083   5.925   7.417 -0.2652  0.0544  0.5939
24557SOL    HW175284   4.994   5.933   7.450  0.1610  0.9668  1.5542
24557SOL    HW275285   5.112   5.839   7.446 -0.4208  0.2389  1.2977
24558SOL     OW75286   2.721   2.122   7.316  0.1152  0.1949  0.4684
24558SOL    HW175287   2.647   2.072   7.282 -0.1367  0.4471  0.6378
24558SOL    HW275288   2.717   2.109   7.411 -0.2709  0.9518  0.5675
24559SOL     OW75289   4.903   1.689   4.918  0.4745 -0.4957  0.0186
24559SOL    HW175290   4.934   1.684   4.827 -1.0899 -0.4184 -0.5698
24559SOL    HW275291   4.878   1.598   4.939 -4.7317  0.1250 -1.8517
24560SOL     OW75292   7.757   0.349   9.143  0.1726 -0.7368  0.3938
24560SOL    HW175293   7.668   0.320   9.125 -0.0116 -0.2649  0.5341
24560SOL    HW275294   7.772   0.326   9.235 -0.9123  1.8896  1.3336
24561SOL     OW75295   6.655   0.447   2.459 -0.2400 -0.3230 -0.2223
24561SOL    HW175296   6.579   0.495   2.426 -0.3082 -1.1181 -1.2776
24561SOL    HW275297   6.665   0.477   2.550 -0.5865  1.2726 -0.6860
24562SOL     OW75298   6.921   7.664   8.540  0.0181  0.2730  0.2980
24562SOL    HW175299   7.015   7.677   8.538  0.1885 -0.6364 -2.9641
24562SOL    HW275300   6.886   7.728   8.478 -1.5248  0.5098  1.3425
24563SOL     OW75301   8.461   2.212   0.147  0.8004  0.4077  0.3270
24563SOL    HW175302   8.524   2.275   0.113 -0.0778 -0.0609 -2.3836
24563SOL    HW275303   8.443   2.154   0.073  0.8567 -2.5001  2.4227
24564SOL     OW75304   6.347   9.581   2.033 -0.5454 -0.2844 -0.6109
24564SOL    HW175305   6.353   9.501   2.085 -1.4615 -0.1970 -0.3517
24564SOL    HW275306   6.414   9.571   1.965  4.1731  1.6033  3.1525
24565SOL     OW75307   8.041   2.365   8.200 -0.3909 -0.0218 -0.1440
24565SOL    HW175308   7.985   2.296   8.236 -0.8756  0.2814 -0.3032
24565SOL    HW275309   8.088   2.323   8.128 -1.4418  0.0523 -0.9099
24566SOL     OW75310   1.962   1.554   7.149  0.6373  0.0734 -0.1988
24566SOL    HW175311   2.027   1.501   7.195 -0.2526 -1.8430 -1.0166
24566SOL    HW275312   1.981   1.538   7.056 -1.4884 -1.2776 -0.4663
24567SOL     OW75313   0.450   5.620   7.622  0.1651 -0.1481 -0.0422
24567SOL    HW175314   0.453   5.716   7.620 -0.9849 -0.0184  1.7960
24567SOL    HW275315   0.494   5.593   7.542 -0.5355  1.9372 -1.2091
24568SOL     OW75316   3.050   9.816   7.552 -0.0053 -0.0306  0.2260
24568SOL    HW175317   3.094   9.851   7.475  1.2807 -0.7262  0.6110
24568SOL    HW275318   3.092   9.860   7.626  1.9489 -2.5598  0.7449
24569SOL     OW75319   3.800   4.854   2.350  0.5500 -0.3744  0.0040
24569SOL    HW175320   3.757   4.825   2.269 -0.8723 -0.8890  0.8877
24569SOL    HW275321   3.769   4.944   2.362  1.3576 -0.0347 -0.3944
24570SOL     OW75322   6.463   0.139   1.743 -0.4697 -0.0960  0.0845
24570SOL    HW175323   6.443   0.118   1.652  1.8574  1.2267 -0.8245
24570SOL    HW275324   6.559   0.145   1.746 -0.5734  1.9812  2.1076
24571SOL     OW75325   1.898   3.027   4.062  0.7569 -0.9391  0.1057
24571SOL    HW175326   1.937   3.068   4.139 -0.0878  0.0570  0.0206
24571SOL    HW275327   1.821   3.081   4.042 -0.1832 -2.3556 -0.2369
24572SOL     OW75328   9.620   8.375   2.285 -0.0468 -0.0745  0.1420
24572SOL    HW175329   9.538   8.346   2.245 -0.3097 -1.3391  1.5266
24572SOL    HW275330   9.687   8.316   2.250  0.2123  0.6555 -0.6240
24573SOL     OW75331   3.877   4.512   3.053  0.3281 -0.2753 -0.1369
24573SOL    HW175332   3.880   4.463   2.971  0.6480 -2.1644  0.9525
24573SOL    HW275333   3.816   4.463   3.109  0.7140  0.5268  1.0338
24574SOL     OW75334   0.603   5.845   1.898 -0.0834 -0.5964 -0.3283
24574SOL    HW175335   0.670   5.875   1.836  0.7577 -0.6643  0.5252
24574SOL    HW275336   0.599   5.750   1.884 -0.1325 -0.5690 -0.5049
24575SOL     OW75337   7.195   0.424   0.950 -0.0801  0.2263  0.6536
24575SOL    HW175338   7.193   0.459   0.861 -0.4000  0.1037  0.6139
24575SOL    HW275339   7.277   0.374   0.954 -0.5003 -0.5277  0.1368
24576SOL     OW75340   2.093   7.056   4.230  0.0298  0.4526 -0.0539
24576SOL    HW175341   2.162   7.119   4.252 -1.2360  1.1359  2.3503
24576SOL    HW275342   2.135   6.971   4.241  1.6573  0.7388 -2.9801
24577SOL     OW75343   0.426   5.564   8.121  0.5586 -0.1303 -0.0738
24577SOL    HW175344   0.425   5.482   8.171 -2.6527 -1.0598 -1.3625
24577SOL    HW275345   0.486   5.548   8.049  0.3568 -1.2081 -0.0262
24578SOL     OW75346   3.262   4.435   0.905  0.3203  0.0487 -0.1201
24578SOL    HW175347   3.169   4.455   0.918  0.4587  0.3827  0.3997
24578SOL    HW275348   3.276   4.450   0.811  0.1043  1.1287  0.0025
24579SOL     OW75349   8.571   8.999   1.256  0.0903  0.2343 -0.6343
24579SOL    HW175350   8.623   8.925   1.287  0.0117  0.0583 -0.9161
24579SOL    HW275351   8.597   9.072   1.312  2.6813  0.8758 -2.5050
24580SOL     OW75352   7.594   9.270   5.596 -0.2924 -0.2369 -0.5260
24580SOL    HW175353   7.641   9.221   5.663 -1.5665 -0.9759 -0.1292
24580SOL    HW275354   7.655   9.276   5.523  0.6743 -0.4975  0.2486
24581SOL     OW75355   5.906   0.036   5.884  0.4706  0.1080 -0.2233
24581SOL    HW175356   5.991   0.046   5.840  0.3795 -0.3836 -0.5158
24581SOL    HW275357   5.890  -0.058   5.885 -0.0362  0.1914 -0.0954
24582SOL     OW75358   1.519   9.080   5.212 -0.3831 -0.4263 -0.1578
24582SOL    HW175359   1.508   9.174   5.198  0.3196 -0.4796 -1.1618
24582SOL    HW275360   1.499   9.067   5.305 -0.0130  0.7831  0.1096
24583SOL     OW75361   0.211   1.910   1.536 -0.0191 -0.1702  0.0351
24583SOL    HW175362   0.187   1.880   1.448 -1.2879 -0.4035  0.4513
24583SOL    HW275363   0.297   1.870   1.552  0.3026  0.0044 -1.1523
24584SOL     OW75364   4.211   1.708   7.265  0.2142  0.3676  0.0083
24584SOL    HW175365   4.147   1.778   7.258 -0.5667 -0.4136 -0.9527
24584SOL    HW275366   4.279   1.743   7.322 -0.9341  1.3147  0.8501
24585SOL     OW75367   5.895   2.775   5.920  0.4718 -0.0299  0.7115
24585SOL    HW175368   5.805   2.788   5.892  0.9062  2.4640  0.2676
24585SOL    HW275369   5.902   2.819   6.004  1.2301 -0.3898  0.8540
24586SOL     OW75370   9.257   5.337   6.219 -0.4995  0.1539  0.7172
24586SOL    HW175371   9.253   5.380   6.133  1.7079  0.5865  0.7787
24586SOL    HW275372   9.252   5.408   6.282 -1.8633 -0.1484  0.9941
24587SOL     OW75373   4.023   4.280   4.759 -0.1733 -0.7470  0.1003
24587SOL    HW175374   3.967   4.355   4.781  1.6324  0.1426  2.0208
24587SOL    HW275375   4.075   4.310   4.684  0.6124  0.0290  0.9220
24588SOL     OW75376   4.654   7.785   8.964 -0.5128  0.4919  0.1062
24588SOL    HW175377   4.693   7.858   9.013 -3.8500  1.0490  2.2914
24588SOL    HW275378   4.640   7.820   8.876  2.0664  0.8252 -0.2506
24589SOL     OW75379   5.047   1.867   9.471  0.3212  0.3864  0.0163
24589SOL    HW175380   5.047   1.934   9.540  0.3697  0.4298 -0.0262
24589SOL    HW275381   5.076   1.787   9.515 -1.3943 -0.0321  0.4871
24590SOL     OW75382   7.006   9.217   9.045 -0.2468  0.0559 -0.2146
24590SOL    HW175383   7.071   9.256   9.104  0.2285 -0.7334 -0.1976
24590SOL    HW275384   6.922   9.238   9.086  0.0105  0.7771 -0.0399
24591SOL     OW75385   7.380   3.344   1.913 -0.0236  0.4624 -0.0649
24591SOL    HW175386   7.307   3.397   1.883 -0.0453  0.5610  0.1569
24591SOL    HW275387   7.384   3.271   1.852  0.8039  1.3748 -1.1443
24592SOL     OW75388   6.751   9.206   7.431  0.2247 -0.1800  0.0434
24592SOL    HW175389   6.660   9.237   7.430 -0.0555 -0.9799 -0.3560
24592SOL    HW275390   6.792   9.249   7.356  0.2321  0.3401  0.3434
24593SOL     OW75391   8.115   0.230   0.664 -0.6296  0.1016  0.1794
24593SOL    HW175392   8.093   0.140   0.684 -1.8701  0.3974  0.2345
24593SOL    HW275393   8.198   0.246   0.710  0.4517 -1.4548 -1.1213
24594SOL     OW75394   6.441   4.690   4.686  0.1238 -0.2147 -0.5398
24594SOL    HW175395   6.445   4.781   4.715 -1.2993  0.0698 -1.1505
24594SOL    HW275396   6.484   4.690   4.600 -1.1953  0.1970 -1.2174
24595SOL     OW75397   1.984   7.084   9.048 -0.1813  0.0459 -0.0614
24595SOL    HW175398   2.052   7.025   9.080 -0.7755 -0.2300  0.7318
24595SOL    HW275399   1.973   7.059   8.956  0.5004 -0.1791 -0.0899
24596SOL     OW75400   6.881   7.597   1.563 -0.1816 -0.2583 -0.4450
24596SOL    HW175401   6.876   7.524   1.502  0.5389  0.3492 -1.2586
24596SOL    HW275402   6.810   7.656   1.535 -1.2514 -0.9721  0.6815
24597SOL     OW75403   3.911   9.073   7.992 -0.0632 -0.3722  0.4694
24597SOL    HW175404   3.845   9.031   7.937  0.2761 -0.7699  0.3653
24597SOL    HW275405   3.866   9.089   8.075 -0.3845 -0.3503  0.2919
24598SOL     OW75406   3.311   8.622   0.276 -0.2005  0.0109  0.0494
24598SOL    HW175407   3.330   8.551   0.214 -1.3530 -0.0764 -0.2381
24598SOL    HW275408   3.325   8.702   0.225 -0.9496 -0.0583 -0.2799
24599SOL     OW75409   4.864   0.789   1.467 -0.2090  0.0289  0.2123
24599SOL    HW175410   4.801   0.737   1.416  0.4177 -0.4669 -0.0766
24599SOL    HW275411   4.946   0.782   1.418 -0.2837  1.9770 -0.2809
24600SOL     OW75412   5.363   9.323   5.156  0.6720  0.1680 -0.0127
24600SOL    HW175413   5.372   9.258   5.087  0.3922  0.0214  0.0852
24600SOL    HW275414   5.303   9.283   5.219  1.8014 -0.1624  0.8749
24601SOL     OW75415   9.341   2.891   8.962 -0.2110  0.7295  0.5015
24601SOL    HW175416   9.252   2.870   8.933  0.1672 -0.8092  0.4009
24601SOL    HW275417   9.347   2.986   8.950 -1.1304  0.6005 -1.5086
24602SOL     OW75418   2.046   3.192   5.149  0.1246  0.3742  0.1081
24602SOL    HW175419   2.124   3.225   5.193  0.6396  1.5468 -1.5929
24602SOL    HW275420   2.078   3.149   5.070 -0.9652  2.5833 -1.6597
24603SOL     OW75421   2.501   6.870   3.359  0.0335 -0.1154 -0.2084
24603SOL    HW175422   2.472   6.951   3.317  0.9035  0.6190  0.5379
24603SOL    HW275423   2.455   6.869   3.443  0.5266 -0.0421  0.0675
24604SOL     OW75424   5.755   2.356   6.950  0.3517 -0.2104 -0.1419
24604SOL    HW175425   5.839   2.400   6.940  0.3205 -0.2152 -0.4398
24604SOL    HW275426   5.703   2.386   6.875  0.5054 -1.1478 -0.6459
24605SOL     OW75427   5.146   8.748   3.548 -0.0255 -0.2567 -0.3595
24605SOL    HW175428   5.124   8.655   3.550 -0.8152 -0.0707  0.2411
24605SOL    HW275429   5.062   8.792   3.547  0.3375  0.4591  0.0801
24606SOL     OW75430   0.356   1.244   4.762  0.1490  0.0514  0.3762
24606SOL    HW175431   0.400   1.176   4.814 -0.7676  0.5678  1.9133
24606SOL    HW275432   0.421   1.315   4.756  0.2572 -0.0002  0.8664
24607SOL     OW75433   6.580   3.123   3.696 -0.4033  0.3764 -0.2658
24607SOL    HW175434   6.578   3.212   3.732 -2.6062 -0.4225  1.8201
24607SOL    HW275435   6.663   3.087   3.728 -0.3218  1.1053  0.3944
24608SOL     OW75436   9.253   3.031   8.244  0.5572  0.0358 -0.5879
24608SOL    HW175437   9.247   2.945   8.284 -0.6369  0.3412 -0.0520
24608SOL    HW275438   9.305   3.018   8.165  0.8829 -1.0526 -0.2069
24609SOL     OW75439   9.587   4.612   1.094 -0.0501 -0.2085 -0.4984
24609SOL    HW175440   9.577   4.706   1.110  1.3589  0.0752 -1.1230
24609SOL    HW275441   9.667   4.588   1.141 -1.4001 -1.5401  1.2523
24610SOL     OW75442   3.857   0.042   4.907  0.2069 -0.2358 -0.1159
24610SOL    HW175443   3.840  -0.046   4.941  1.0382  0.3055  1.8017
24610SOL    HW275444   3.836   0.100   4.980  0.5996  1.0986 -1.0355
24611SOL     OW75445   5.473   6.297   9.440  0.1277 -0.1500 -0.2258
24611SOL    HW175446   5.428   6.226   9.394 -0.1991  0.5460 -1.0085
24611SOL    HW275447   5.405   6.336   9.495  0.6296 -1.2854  1.2695
24612SOL     OW75448   8.631   0.076   2.811  0.1073 -0.0870 -0.4648
24612SOL    HW175449   8.657   0.060   2.901 -1.6916  0.4995  0.2050
24612SOL    HW275450   8.560   0.015   2.794 -0.0989  0.3445 -1.2317
24613SOL     OW75451   5.980   7.202   9.791 -0.3179 -0.1621  0.2549
24613SOL    HW175452   6.068   7.234   9.772 -0.6739  0.1861 -0.8641
24613SOL    HW275453   5.991   7.108   9.801  0.5793  0.1345  2.6325
24614SOL     OW75454   1.173   1.764   4.367 -0.0225  0.6699  0.1666
24614SOL    HW175455   1.154   1.781   4.274 -0.7655 -0.4702  0.0872
24614SOL    HW275456   1.267   1.781   4.375  0.7893 -2.2671 -1.5660
24615SOL     OW75457   0.282   6.924   9.158 -0.5405  0.1109  0.1254
24615SOL    HW175458   0.359   6.974   9.133 -1.6740  1.4154 -0.8470
24615SOL    HW275459   0.211   6.988   9.162 -1.3742 -0.8346  2.2166
24616SOL     OW75460   2.137   0.978   8.139  0.1738 -0.5643 -0.1650
24616SOL    HW175461   2.160   1.002   8.050  0.8628  0.6916  0.3281
24616SOL    HW275462   2.150   0.884   8.143  2.0098 -0.3639 -0.8546
24617SOL     OW75463   6.790   0.251   1.602 -0.2564 -0.2761  0.2914
24617SOL    HW175464   6.824   0.165   1.576 -1.5634 -0.8814  0.4587
24617SOL    HW275465   6.737   0.279   1.527 -0.3310  0.0996  0.4822
24618SOL     OW75466   6.265   0.396   4.883  0.1126  0.0666  0.9842
24618SOL    HW175467   6.172   0.386   4.864  0.3274  0.1895 -0.2109
24618SOL    HW275468   6.290   0.313   4.925 -0.2162 -0.5680 -0.0509
24619SOL     OW75469   1.260   2.725   4.678  0.2433  0.2395 -0.3303
24619SOL    HW175470   1.264   2.781   4.601 -0.9787  1.6734  0.5950
24619SOL    HW275471   1.193   2.660   4.657 -0.7083  1.1520 -0.1673
24620SOL     OW75472   1.213   4.604   8.663 -0.0865 -0.9138  0.3328
24620SOL    HW175473   1.249   4.530   8.712  0.9543 -0.7106 -0.1045
24620SOL    HW275474   1.287   4.639   8.614 -0.8358 -0.3382 -0.4208
24621SOL     OW75475   5.469   2.686   8.816  0.5710 -0.4051 -0.2664
24621SOL    HW175476   5.380   2.654   8.804  1.0955 -1.9903 -0.2219
24621SOL    HW275477   5.496   2.716   8.729 -0.2487  0.8097 -0.1215
24622SOL     OW75478   5.818   9.437   1.065 -0.3428 -0.1609 -0.2305
24622SOL    HW175479   5.852   9.350   1.043 -1.4514 -0.7909  0.4469
24622SOL    HW275480   5.896   9.489   1.085  0.2744 -1.3814  0.7045
24623SOL     OW75481   0.471   5.276   7.196 -0.0798 -0.5039 -0.1383
24623SOL    HW175482   0.455   5.347   7.133 -0.8785 -2.5906 -2.4200
24623SOL    HW275483   0.383   5.249   7.223  0.1584 -1.5926 -0.4382
24624SOL     OW75484   9.038   2.312   1.535  1.3397 -0.2180 -0.4689
24624SOL    HW175485   9.073   2.311   1.446 -0.3033  0.4158 -1.1721
24624SOL    HW275486   9.024   2.220   1.557 -2.0417 -0.3456 -2.5276
24625SOL     OW75487   6.322   1.992   4.460  0.7200 -0.2318  0.6933
24625SOL    HW175488   6.271   2.054   4.512  0.8458 -1.3221  2.1941
24625SOL    HW275489   6.358   2.044   4.389 -2.3633  0.6277 -0.3928
24626SOL     OW75490   3.132   3.172   2.848  0.3381  0.1006 -0.8278
24626SOL    HW175491   3.221   3.208   2.850 -0.6783  2.9031  2.1777
24626SOL    HW275492   3.078   3.244   2.817 -1.3194 -0.0798  1.3830
24627SOL     OW75493   1.511   9.643   6.198 -0.1956 -0.0475 -0.1528
24627SOL    HW175494   1.573   9.585   6.154 -0.3266  0.0936 -0.5315
24627SOL    HW275495   1.510   9.722   6.144 -0.9171 -0.1627 -0.3218
24628SOL     OW75496   8.704   2.320   6.789 -0.0569  0.2440 -0.6587
24628SOL    HW175497   8.743   2.395   6.744 -3.0143  1.6993 -1.0068
24628SOL    HW275498   8.680   2.259   6.718  0.9915 -0.3861 -0.4905
24629SOL     OW75499   6.745   7.056   6.068  0.0288 -0.5704 -0.2260
24629SOL    HW175500   6.715   7.000   5.996  1.3543 -0.7374 -0.6891
24629SOL    HW275501   6.838   7.071   6.049 -0.2240  1.6517 -0.0264
24630SOL     OW75502   3.022   0.674   8.837 -0.3594  0.3875 -0.3228
24630SOL    HW175503   2.970   0.639   8.909 -0.7100 -0.5961 -1.0355
24630SOL    HW275504   2.960   0.682   8.764  0.1338  0.7315 -0.7142
24631SOL     OW75505   8.888   8.451   9.559 -0.1200 -0.1786 -0.9894
24631SOL    HW175506   8.925   8.450   9.470 -2.2740 -0.9089 -1.9287
24631SOL    HW275507   8.847   8.366   9.569  2.3426 -1.2021  1.7990
24632SOL     OW75508   7.518   4.237   4.804 -0.2181 -0.5814  0.0080
24632SOL    HW175509   7.536   4.173   4.736 -1.6085 -0.6998 -0.2932
24632SOL    HW275510   7.476   4.310   4.757 -0.6001 -0.3892  0.6333
24633SOL     OW75511   9.425   8.346   8.590 -0.1884  0.6745 -0.4395
24633SOL    HW175512   9.480   8.339   8.512  0.5465 -0.0660  0.1206
24633SOL    HW275513   9.383   8.260   8.598 -2.2459  1.5204 -1.4118
24634SOL     OW75514   5.739   8.120   3.326  0.0927 -0.1539  0.0621
24634SOL    HW175515   5.664   8.063   3.313  0.3508 -0.7542  1.1482
24634SOL    HW275516   5.780   8.126   3.240 -0.6760 -0.5456 -0.3383
24635SOL     OW75517   7.630   7.887   9.798 -0.0411 -0.1723 -0.2008
24635SOL    HW175518   7.550   7.835   9.800 -0.9359  0.9931 -2.1998
24635SOL    HW275519   7.601   7.975   9.822  0.6446  0.2419 -0.8539
24636SOL     OW75520   0.738   1.558   5.604 -0.1445  0.3455 -0.0374
24636SOL    HW175521   0.817   1.609   5.624 -0.8983  1.2567  0.6795
24636SOL    HW275522   0.742   1.546   5.509 -0.7965  3.2610 -0.5330
24637SOL     OW75523   9.393   3.473   0.057  0.0242 -0.6697 -0.4121
24637SOL    HW175524   9.432   3.385   0.058  0.3872 -0.5349 -1.5997
24637SOL    HW275525   9.378   3.493   0.150  2.4250 -0.8830  0.0991
24638SOL     OW75526   6.472   1.511   2.014  0.3534 -0.1425  0.3067
24638SOL    HW175527   6.465   1.511   2.109 -0.3898 -1.7002  0.2893
24638SOL    HW275528   6.416   1.584   1.986 -0.1948 -0.2671  1.0365
24639SOL     OW75529   4.666   3.091   9.787 -0.9731 -0.4893  0.0783
24639SOL    HW175530   4.684   3.103   9.881 -3.0102 -0.1078  0.4588
24639SOL    HW275531   4.589   3.034   9.784 -2.6678  1.6924 -1.2243
24640SOL     OW75532   6.147   2.892   9.114  0.5699  0.1439  0.1919
24640SOL    HW175533   6.168   2.983   9.137  0.6627  0.0936  0.3050
24640SOL    HW275534   6.100   2.858   9.190  0.6538  0.0557  0.2047
24641SOL     OW75535   9.615   2.175   2.275  0.2914 -0.5824  0.2294
24641SOL    HW175536   9.541   2.159   2.216 -0.6890  1.7645  0.7165
24641SOL    HW275537   9.610   2.104   2.339 -2.3251  0.1574  0.9622
24642SOL     OW75538   2.194   0.927   2.336 -0.2883  0.4235  0.4850
24642SOL    HW175539   2.262   0.994   2.342  0.4680 -0.0584 -1.8095
24642SOL    HW275540   2.226   0.856   2.393  0.6377  0.6017  0.1958
24643SOL     OW75541   2.312   8.241   5.884 -0.1384 -0.1740  0.3079
24643SOL    HW175542   2.353   8.322   5.914 -1.0617  0.3181  0.2724
24643SOL    HW275543   2.351   8.172   5.938  0.4854  0.3213  0.4928
24644SOL     OW75544   0.966   9.357   3.052 -0.2802 -0.2575 -0.5299
24644SOL    HW175545   0.957   9.414   2.976  1.6885  0.2382 -0.4540
24644SOL    HW275546   0.924   9.406   3.124 -0.2254  0.2678 -0.8481
24645SOL     OW75547   0.192   8.238   5.030 -0.0580 -0.2968  0.0676
24645SOL    HW175548   0.242   8.158   5.013  0.5396  0.1193 -0.1558
24645SOL    HW275549   0.101   8.208   5.034  0.2632 -1.2137  1.3727
24646SOL     OW75550   8.363   6.342   0.214  0.2856  0.0081  0.3028
24646SOL    HW175551   8.452   6.374   0.228  0.1241  0.8963 -0.5772
24646SOL    HW275552   8.311   6.421   0.197 -0.6528 -0.5038  0.6832
24647SOL     OW75553   8.744   3.724   0.948 -0.2377  0.2202  0.2078
24647SOL    HW175554   8.829   3.710   0.906  0.3390 -1.5363  1.8171
24647SOL    HW275555   8.681   3.681   0.890 -0.0977  1.6441 -1.0611
24648SOL     OW75556   6.504   9.540   4.737 -0.2898  0.0041  0.1856
24648SOL    HW175557   6.552   9.623   4.742  1.8499 -1.2002  1.1482
24648SOL    HW275558   6.412   9.565   4.739  0.2815  2.3736 -0.1777
24649SOL     OW75559   3.756   0.866   4.220  0.4038  0.7393  0.0010
24649SOL    HW175560   3.687   0.806   4.192  1.8098  0.0892 -2.3613
24649SOL    HW275561   3.796   0.823   4.296  0.0958 -0.3394 -0.4300
24650SOL     OW75562   0.847   5.876   5.374 -0.1934  0.5239  0.2328
24650SOL    HW175563   0.802   5.907   5.453  0.4573 -1.2981  1.3588
24650SOL    HW275564   0.841   5.781   5.378  2.3349  0.2673 -0.4124
24651SOL     OW75565   6.747   5.731   0.564  0.2782  0.7549 -0.4919
24651SOL    HW175566   6.670   5.738   0.507  0.5677  0.1164 -0.9694
24651SOL    HW275567   6.762   5.820   0.594 -0.2073  1.0107 -0.9850
24652SOL     OW75568   5.635   5.705   2.192 -0.4907 -0.0693  0.6936
24652SOL    HW175569   5.667   5.769   2.255  1.1183  0.0935 -0.2420
24652SOL    HW275570   5.711   5.683   2.138 -1.6439 -0.7132 -0.7623
24653SOL     OW75571   0.709   9.413   1.676 -0.2371 -0.5043 -0.8190
24653SOL    HW175572   0.670   9.330   1.648 -2.9871  1.0052 -1.7782
24653SOL    HW275573   0.681   9.422   1.767  0.2297 -0.6851 -0.6522
24654SOL     OW75574   4.649   3.125   3.146  0.0175 -0.5209 -0.0931
24654SOL    HW175575   4.638   3.044   3.195  1.5621  0.0416  1.2940
24654SOL    HW275576   4.560   3.158   3.133 -0.5473 -1.8087  0.3819
24655SOL     OW75577   1.739   0.306   7.511  0.3278 -0.0725 -0.7087
24655SOL    HW175578   1.826   0.319   7.472 -1.0462  0.1943 -3.9261
24655SOL    HW275579   1.755   0.246   7.584  2.9902 -1.3675 -2.1938
24656SOL     OW75580   2.857   7.703   1.569  0.0789 -0.5090  0.1489
24656SOL    HW175581   2.786   7.658   1.616 -1.1577  0.0671 -1.0928
24656SOL    HW275582   2.869   7.785   1.615  1.7878 -1.6646  1.9361
24657SOL     OW75583   5.656   6.514   5.001  0.1781  0.2283  0.4174
24657SOL    HW175584   5.673   6.468   5.084 -1.3220 -0.2133  0.5130
24657SOL    HW275585   5.728   6.576   4.992 -0.8268  2.0100  3.2778
24658SOL     OW75586   9.665   3.235   7.406 -0.3484 -0.2813  0.1966
24658SOL    HW175587   9.748   3.192   7.387 -0.1513  0.4671 -0.7176
24658SOL    HW275588   9.659   3.234   7.502  0.6291 -0.4996  0.2704
24659SOL     OW75589   0.139   8.499   2.228  0.2950  0.2302  0.1125
24659SOL    HW175590   0.190   8.473   2.152 -0.4595  1.8207 -0.9993
24659SOL    HW275591   0.173   8.446   2.300  1.2803 -1.0452 -1.2495
24660SOL     OW75592   4.046   6.943   6.721  0.2509 -0.2811  0.0965
24660SOL    HW175593   4.137   6.918   6.708  0.5493  0.2716  1.0050
24660SOL    HW275594   3.996   6.868   6.689  1.0039 -0.4558 -0.7225
24661SOL     OW75595   5.881   6.037   3.452  0.0164  0.0372 -0.7119
24661SOL    HW175596   5.842   5.978   3.518  1.7827 -1.1755 -0.6937
24661SOL    HW275597   5.935   6.097   3.503  2.2512 -1.5737 -1.0195
24662SOL     OW75598   5.131   4.632   1.182 -0.2608 -0.3294  0.8316
24662SOL    HW175599   5.081   4.632   1.100 -0.1149 -1.8519  0.7169
24662SOL    HW275600   5.163   4.722   1.190  1.1302 -0.4897 -1.6642
24663SOL     OW75601   5.437   8.348   1.092 -0.6598  0.0525 -0.4445
24663SOL    HW175602   5.439   8.316   1.182 -0.5476  0.6869 -0.2168
24663SOL    HW275603   5.521   8.392   1.081 -1.6736  2.2005 -0.0290
24664SOL     OW75604   7.527   5.094   4.299 -0.7402  0.0188  0.7507
24664SOL    HW175605   7.544   5.077   4.206  0.3224  0.3550  0.8642
24664SOL    HW275606   7.434   5.074   4.311 -0.2661 -3.0988  0.2668
24665SOL     OW75607   7.329   8.207   8.827  0.0543  0.0296 -0.4650
24665SOL    HW175608   7.264   8.245   8.887  0.3322 -1.7082  1.0430
24665SOL    HW275609   7.412   8.217   8.873  0.4208 -0.4201 -1.0222
24666SOL     OW75610   1.516   1.259   2.448  0.1079  0.3697 -0.0085
24666SOL    HW175611   1.439   1.265   2.392 -0.3732 -0.6544  0.5085
24666SOL    HW275612   1.590   1.255   2.387 -0.4062 -0.7177 -0.5861
24667SOL     OW75613   5.807   8.570   7.105 -0.6388 -0.2080 -0.5101
24667SOL    HW175614   5.833   8.658   7.132  1.0932 -1.2902  1.6966
24667SOL    HW275615   5.712   8.568   7.119 -0.6800  1.2390 -0.4237
24668SOL     OW75616   9.699   7.228   5.133  0.1449 -0.1033 -0.1927
24668SOL    HW175617   9.613   7.219   5.092  1.1757 -2.2550 -2.1607
24668SOL    HW275618   9.759   7.186   5.071  2.2410 -1.2127  2.3759
24669SOL     OW75619   2.695   4.978   4.206 -0.3125  0.4960 -0.1259
24669SOL    HW175620   2.623   5.034   4.235 -0.1734 -0.0516  1.3378
24669SOL    HW275621   2.772   5.035   4.212 -0.0564  0.0047  2.0690
24670SOL     OW75622   4.920   1.667   0.368 -0.0609 -0.2907 -0.0309
24670SOL    HW175623   4.913   1.577   0.337  0.3176 -0.2387 -0.2730
24670SOL    HW275624   4.847   1.713   0.328  0.4428 -0.2126 -0.8895
24671SOL     OW75625   0.258   8.334   2.398 -0.2309 -0.1626  0.4295
24671SOL    HW175626   0.311   8.254   2.395 -0.4308 -0.3606  1.7491
24671SOL    HW275627   0.299   8.388   2.466 -1.6502 -0.2793  1.4195
24672SOL     OW75628   0.748   4.058   4.263  0.5285 -0.3446 -0.2079
24672SOL    HW175629   0.798   4.079   4.184 -0.2437  1.2772 -0.2919
24672SOL    HW275630   0.758   4.134   4.319 -1.3735 -0.2160  0.0042
24673SOL     OW75631   3.730   8.357   3.107 -0.9109  0.1287  0.7342
24673SOL    HW175632   3.660   8.294   3.119 -1.5219  0.8528  1.0490
24673SOL    HW275633   3.691   8.442   3.128  0.2104  0.4840  1.5405
24674SOL     OW75634   0.022   1.587   2.712  0.3500 -0.0962  0.3399
24674SOL    HW175635   0.027   1.534   2.792 -0.1082 -0.6033  0.0449
24674SOL    HW275636   0.023   1.523   2.641 -0.2035  0.2857 -0.0249
24675SOL     OW75637   7.494   1.480   2.032 -0.2492  0.1056 -0.2478
24675SOL    HW175638   7.544   1.468   1.951 -1.4544  2.0781 -1.3551
24675SOL    HW275639   7.405   1.455   2.009 -0.1171 -2.1460  1.3562
24676SOL     OW75640   1.715   8.119   9.228  0.0672  0.6579 -0.4820
24676SOL    HW175641   1.713   8.213   9.244 -0.5655  0.4517  0.7197
24676SOL    HW275642   1.655   8.106   9.154  0.6804  1.2613 -1.1001
24677SOL     OW75643   3.449   3.955   9.386  0.0477 -0.2512 -0.0949
24677SOL    HW175644   3.513   4.025   9.377 -0.2945  0.0799  0.0396
24677SOL    HW275645   3.497   3.876   9.362  0.7956 -0.1477  1.0143
24678SOL     OW75646   3.595   9.837   7.372  0.2912 -0.2529 -0.3188
24678SOL    HW175647   3.622   9.746   7.364 -0.3818 -0.8569  2.9546
24678SOL    HW275648   3.672   9.882   7.408 -0.2789 -0.1939  0.8810
24679SOL     OW75649   4.595   7.586   1.141  0.4313  0.0736  0.3148
24679SOL    HW175650   4.639   7.504   1.119  0.9000 -0.2256  2.1669
24679SOL    HW275651   4.667   7.646   1.162  0.0844  0.9442 -0.8582
24680SOL     OW75652   9.450   6.134   0.948 -0.4163  0.3348 -0.1320
24680SOL    HW175653   9.409   6.217   0.973  0.8605  0.6936  0.8880
24680SOL    HW275654   9.441   6.131   0.853 -0.9339  1.3892 -0.1350
24681SOL     OW75655   1.652   8.276   6.953 -0.4945  0.1511  0.1032
24681SOL    HW175656   1.604   8.239   7.027 -1.7498  1.0141 -0.2407
24681SOL    HW275657   1.726   8.217   6.939 -1.3300 -1.0812  0.8160
24682SOL     OW75658   2.063   8.319   2.274 -0.2830 -0.0632 -0.3605
24682SOL    HW175659   2.154   8.304   2.248 -0.6039 -0.7046 -1.1536
24682SOL    HW275660   2.069   8.377   2.350  0.8213 -0.7020  0.0658
24683SOL     OW75661   3.623   5.386   5.718 -0.6840 -0.2541  0.8664
24683SOL    HW175662   3.617   5.480   5.739  0.2526 -0.3260  1.5385
24683SOL    HW275663   3.594   5.380   5.627 -2.2343  0.4609  1.2696
24684SOL     OW75664   2.155   4.253   2.897  0.2196  0.1842 -0.2650
24684SOL    HW175665   2.124   4.338   2.928 -0.1601  0.0572 -0.2963
24684SOL    HW275666   2.177   4.268   2.805 -1.6602 -0.2028 -0.8191
24685SOL     OW75667   9.624   0.205   1.704 -0.0814 -0.1899  0.3194
24685SOL    HW175668   9.545   0.166   1.668  1.0444 -2.2858 -0.0994
24685SOL    HW275669   9.644   0.150   1.780  2.2241 -1.2745 -0.9705
24686SOL     OW75670   8.424   7.547   2.696  0.5551 -0.2621  0.5480
24686SOL    HW175671   8.466   7.559   2.781  2.4334 -3.0590  0.1463
24686SOL    HW275672   8.354   7.484   2.711  1.5576 -1.5770 -0.0809
24687SOL     OW75673   5.797   0.241   4.274  0.2470  0.7484 -0.0692
24687SOL    HW175674   5.886   0.216   4.249  0.6074  1.0604  0.8541
24687SOL    HW275675   5.763   0.290   4.198  0.8455  0.5957 -0.4408
24688SOL     OW75676   7.865   8.222   0.613 -0.0908 -0.2578 -0.3455
24688SOL    HW175677   7.867   8.317   0.609 -0.1252 -0.2194  0.4480
24688SOL    HW275678   7.953   8.195   0.587  0.2897  0.0461  0.5991
24689SOL     OW75679   5.303   1.037   1.710  0.1252 -0.3837 -0.0707
24689SOL    HW175680   5.210   1.013   1.712 -0.2733  1.0846  0.1529
24689SOL    HW275681   5.308   1.119   1.760  2.1062 -2.2182  3.1485
24690SOL     OW75682   7.345   7.397   6.633 -0.4805  0.7130 -0.2488
24690SOL    HW175683   7.426   7.433   6.669 -1.1985  3.2940 -0.9670
24690SOL    HW275684   7.373   7.329   6.572  0.9883  0.0575  1.0871
24691SOL     OW75685   8.988   9.050   8.546 -0.3923 -0.4603  0.5728
24691SOL    HW175686   9.055   8.984   8.532  0.1277 -0.1734  1.5921
24691SOL    HW275687   9.029   9.115   8.603 -1.0313  0.5311 -0.0647
24692SOL     OW75688   0.149   1.016   4.972 -0.1805 -0.3563  0.1529
24692SOL    HW175689   0.175   1.019   5.064 -0.9403  0.0038  0.3688
24692SOL    HW275690   0.216   0.963   4.929  0.9594  0.6289  0.6591
24693SOL     OW75691   3.615   8.827   1.784  0.0277 -0.1796  0.6082
24693SOL    HW175692   3.618   8.750   1.840 -0.2902  0.1615  1.1040
24693SOL    HW275693   3.685   8.883   1.817 -0.7456  0.4215  1.2679
24694SOL     OW75694   6.578   9.140   9.062  0.3241 -0.0009 -0.1156
24694SOL    HW175695   6.506   9.171   9.117  0.5510  1.7551 -0.7407
24694SOL    HW275696   6.578   9.199   8.987  1.2954 -1.0949 -1.0148
24695SOL     OW75697   5.205   6.514   2.330  0.3022 -0.0297  0.4947
24695SOL    HW175698   5.216   6.447   2.263  0.6777 -0.7078  1.2245
24695SOL    HW275699   5.282   6.506   2.387 -0.3679  0.0153  1.4441
24696SOL     OW75700   0.408   9.603   1.521  0.5118 -0.0379 -0.5397
24696SOL    HW175701   0.411   9.516   1.560  1.5414  0.4071  0.4529
24696SOL    HW275702   0.500   9.629   1.514  0.2176  2.0420  1.7756
24697SOL     OW75703   3.080   3.699   1.239 -0.3390 -0.0154 -0.1402
24697SOL    HW175704   2.997   3.722   1.282 -0.8252 -2.1895  0.1776
24697SOL    HW275705   3.054   3.663   1.155  0.4247  0.8511 -0.7703
24698SOL     OW75706   2.777   3.269   7.402 -0.0688 -0.3974 -0.2010
24698SOL    HW175707   2.800   3.291   7.492  1.4081 -1.2122 -0.3413
24698SOL    HW275708   2.810   3.342   7.350  0.5366 -0.6660 -0.2112
24699SOL     OW75709   5.077   4.497   2.909  0.1557 -0.9633 -0.4559
24699SOL    HW175710   5.025   4.421   2.937  0.5580 -1.4458 -0.9919
24699SOL    HW275711   5.028   4.536   2.837 -1.1842  0.6349  1.2336
24700SOL     OW75712   5.774   5.638   3.933  0.0715  0.1246 -0.2040
24700SOL    HW175713   5.840   5.684   3.985  0.5705 -1.1048  0.2977
24700SOL    HW275714   5.823   5.572   3.884 -0.4338  1.1011 -2.0897
24701SOL     OW75715   4.588   1.645   6.717  0.5896  0.1209  0.2886
24701SOL    HW175716   4.603   1.554   6.691 -2.8258 -0.2077 -1.2189
24701SOL    HW275717   4.585   1.643   6.812  1.0603 -1.2415  0.2987
24702SOL     OW75718   6.108   3.668   5.320  0.7584  0.7068 -0.2665
24702SOL    HW175719   6.148   3.703   5.399  0.7972  1.3247 -0.5554
24702SOL    HW275720   6.016   3.697   5.325  0.3359 -0.6575  0.3700
24703SOL     OW75721   1.395   8.592   0.110  0.9086  0.7355  0.3782
24703SOL    HW175722   1.470   8.535   0.128  0.6325  0.9634  2.5047
24703SOL    HW275723   1.344   8.544   0.045  0.5676 -1.6538  2.2374
24704SOL     OW75724   3.618   3.185   2.413  0.8514 -0.3162 -0.4637
24704SOL    HW175725   3.532   3.150   2.387  0.2434  1.9053 -1.7654
24704SOL    HW275726   3.670   3.183   2.333  0.8296  1.5110 -0.5692
24705SOL     OW75727   7.176   5.488   2.452 -0.5095 -0.2360 -0.0659
24705SOL    HW175728   7.081   5.480   2.447 -0.4226 -1.1179 -0.3537
24705SOL    HW275729   7.193   5.580   2.430 -1.3339  0.0968  0.6381
24706SOL     OW75730   4.733   5.971   4.742 -0.2498  0.5796 -0.1615
24706SOL    HW175731   4.769   6.059   4.741 -0.7264  0.7770 -0.0939
24706SOL    HW275732   4.675   5.968   4.666 -1.3074  0.7849  0.6148
24707SOL     OW75733   2.065   3.015   1.075  0.1324  0.3346 -0.3163
24707SOL    HW175734   2.142   2.965   1.047 -0.1247 -0.7038  0.7720
24707SOL    HW275735   2.054   3.081   1.006  2.2112  0.7623 -0.3209
24708SOL     OW75736   6.555   8.447   1.171 -0.2101  0.3497 -0.9146
24708SOL    HW175737   6.555   8.366   1.120 -3.6637  0.1523 -0.8429
24708SOL    HW275738   6.470   8.488   1.151 -0.0164  2.2316  1.6328
24709SOL     OW75739   3.970   4.425   6.719 -0.3876  0.1667 -0.9227
24709SOL    HW175740   4.009   4.390   6.799 -0.8356 -0.9918 -1.1870
24709SOL    HW275741   3.885   4.461   6.747 -0.4028  0.0567 -0.8286
24710SOL     OW75742   9.355   4.199   6.460 -0.1365 -0.3086  0.1830
24710SOL    HW175743   9.404   4.130   6.504  0.8541 -0.8200 -1.5900
24710SOL    HW275744   9.419   4.268   6.443 -1.0048  0.8927  1.4890
24711SOL     OW75745   0.762   5.900   6.249  0.2162 -0.3416  0.3663
24711SOL    HW175746   0.751   5.954   6.171  1.6632 -0.7812 -0.1710
24711SOL    HW275747   0.825   5.833   6.224 -1.3514 -2.2009  1.0768
24712SOL     OW75748   9.289   8.106   8.542  0.7996  0.0987 -0.3828
24712SOL    HW175749   9.307   8.023   8.588 -0.9824 -0.6604 -0.9707
24712SOL    HW275750   9.357   8.111   8.475  1.4207 -0.4721  0.1860
24713SOL     OW75751   9.134   0.496   5.274  0.2619 -0.1657  0.5399
24713SOL    HW175752   9.167   0.554   5.342  0.4470  1.5639 -0.9563
24713SOL    HW275753   9.205   0.434   5.257  0.6580  0.1420  1.0838
24714SOL     OW75754   8.026   6.576   1.343  0.4503 -0.3705  0.1096
24714SOL    HW175755   8.116   6.602   1.322 -0.4176  2.2022 -0.8303
24714SOL    HW275756   8.017   6.597   1.436  0.4023  0.7836 -0.1442
24715SOL     OW75757   4.430   9.093   5.689  0.2595 -0.0952  0.1429
24715SOL    HW175758   4.509   9.039   5.681 -0.0140 -0.6777  1.2294
24715SOL    HW275759   4.361   9.032   5.715 -0.3505  0.5682  0.1174
24716SOL     OW75760   5.119   1.521   2.907 -0.6378  0.1704  0.1246
24716SOL    HW175761   5.173   1.582   2.958 -1.9121  0.6723  0.9170
24716SOL    HW275762   5.156   1.435   2.926  1.1718  0.6355 -0.9857
24717SOL     OW75763   1.446   2.289   4.803 -0.4040 -0.5842 -0.4491
24717SOL    HW175764   1.404   2.202   4.804  0.3782 -0.9724 -0.7523
24717SOL    HW275765   1.425   2.324   4.716 -0.8030 -0.4179 -0.2911
24718SOL     OW75766   6.531   2.206   6.917 -0.2175 -0.1134  0.1486
24718SOL    HW175767   6.527   2.133   6.978 -1.4294  0.2241  0.5085
24718SOL    HW275768   6.555   2.281   6.971 -0.2545 -0.0047  0.0145
24719SOL     OW75769   6.015   4.113   9.386 -0.3327  0.4180 -0.7377
24719SOL    HW175770   6.063   4.083   9.309 -0.1142  0.0978 -0.4804
24719SOL    HW275771   6.021   4.040   9.448  0.2350  1.0057 -0.0825
24720SOL     OW75772   2.353   0.894   8.800 -0.8057  0.4697  0.0531
24720SOL    HW175773   2.261   0.910   8.776 -0.8220 -0.5173 -0.6177
24720SOL    HW275774   2.356   0.907   8.895 -1.5053  1.1091 -0.0036
24721SOL     OW75775   7.988   4.843   2.780 -0.0702  0.1815  0.1014
24721SOL    HW175776   8.023   4.793   2.707 -0.5763 -0.8049  0.5192
24721SOL    HW275777   7.894   4.848   2.764 -0.3994 -1.2223  1.3319
24722SOL     OW75778   8.102   7.339   7.242  0.6878  0.1020 -0.4086
24722SOL    HW175779   8.054   7.311   7.164  1.1365 -0.3407 -0.5327
24722SOL    HW275780   8.183   7.377   7.208 -0.4314  2.8117 -0.3335
24723SOL     OW75781   2.365   4.974   4.330 -0.1617 -0.1744  0.2304
24723SOL    HW175782   2.329   5.012   4.411 -0.2688 -1.4452  0.7926
24723SOL    HW275783   2.297   4.914   4.299  0.7717 -1.3602  0.4153
24724SOL     OW75784   0.168   0.988   8.523  0.4810  0.0009 -0.0499
24724SOL    HW175785   0.236   0.975   8.457 -0.0987 -2.7897 -0.2167
24724SOL    HW275786   0.088   0.955   8.483 -0.2741 -0.0244  1.3983
24725SOL     OW75787   2.828   3.377   8.471 -0.6900  0.1458  0.2413
24725SOL    HW175788   2.793   3.414   8.390 -0.4254  1.6198  0.7686
24725SOL    HW275789   2.753   3.332   8.510 -0.9323 -0.2162 -0.6031
24726SOL     OW75790   4.384   0.754   4.376  1.2230 -0.0839 -0.0785
24726SOL    HW175791   4.468   0.794   4.396  0.7382  1.1506 -0.4347
24726SOL    HW275792   4.347   0.808   4.306  0.2880 -0.8095 -0.1695
24727SOL     OW75793   1.532   6.488   9.179  0.2454 -0.2285  0.6411
24727SOL    HW175794   1.597   6.420   9.199 -0.7609 -1.0366  1.2507
24727SOL    HW275795   1.459   6.470   9.239 -1.5488 -0.7756 -1.5622
24728SOL     OW75796   7.390   9.334   6.479 -0.3035 -0.3346 -0.4156
24728SOL    HW175797   7.349   9.258   6.520 -1.6015  1.0859  1.1392
24728SOL    HW275798   7.484   9.319   6.489 -0.5454 -0.8229  1.7609
24729SOL     OW75799   6.019   5.701   9.254 -0.1594 -0.0543 -0.5191
24729SOL    HW175800   6.074   5.623   9.256 -1.5083 -1.0222  0.2630
24729SOL    HW275801   6.033   5.744   9.338 -0.6668 -0.3588 -0.2754
24730SOL     OW75802   4.910   6.235   1.643 -0.4746  0.2722 -0.1193
24730SOL    HW175803   4.990   6.197   1.679  0.6131  1.6747 -0.9764
24730SOL    HW275804   4.863   6.269   1.720 -0.3358 -0.6643  0.3976
24731SOL     OW75805   6.370   7.950   1.568 -0.1276 -0.0758 -0.4224
24731SOL    HW175806   6.417   8.006   1.507 -1.9704  2.4577  0.3070
24731SOL    HW275807   6.387   7.861   1.537  1.4416  0.9328 -2.7608
24732SOL     OW75808   6.963   5.733   3.436 -0.3944 -0.0453  0.1780
24732SOL    HW175809   6.972   5.720   3.530 -1.2361  2.1203  0.6064
24732SOL    HW275810   7.021   5.806   3.416 -0.4700 -0.2706 -0.9315
24733SOL     OW75811   3.300   2.414   0.942  0.6194 -0.2403 -0.1920
24733SOL    HW175812   3.311   2.343   1.006 -1.0078 -1.2241 -0.9584
24733SOL    HW275813   3.222   2.390   0.892 -0.6705  2.6507  0.2290
24734SOL     OW75814   0.744   3.820   5.651 -0.4621  0.0902  0.5249
24734SOL    HW175815   0.720   3.752   5.589  0.6764  0.8733 -0.8242
24734SOL    HW275816   0.751   3.775   5.735 -1.6198 -1.0701  0.0225
24735SOL     OW75817   9.668   1.752   2.639 -0.4002 -0.6227 -0.4597
24735SOL    HW175818   9.612   1.679   2.613  1.2684 -1.7734 -0.9361
24735SOL    HW275819   9.752   1.712   2.660 -0.1139  0.8776  1.6446
24736SOL     OW75820   7.180   1.378   8.890  0.3340 -0.6555  0.3802
24736SOL    HW175821   7.185   1.284   8.907  0.2758 -0.3561  2.2161
24736SOL    HW275822   7.098   1.406   8.931 -1.1484 -0.2296 -2.5931
24737SOL     OW75823   7.381   1.957   9.473 -0.2703 -0.1031  0.6027
24737SOL    HW175824   7.381   1.892   9.542 -1.0531 -0.3212  0.4085
24737SOL    HW275825   7.338   1.914   9.399  0.9359 -0.0263 -0.1789
24738SOL     OW75826   5.556   2.783   3.005  0.0838 -0.2023  0.3762
24738SOL    HW175827   5.481   2.823   3.049 -0.0062 -0.1928  0.2146
24738SOL    HW275828   5.517   2.720   2.944  0.1657  0.5110 -0.4243
24739SOL     OW75829   8.707   9.043   0.951 -0.1119  0.1691  0.0896
24739SOL    HW175830   8.778   8.981   0.970  0.4725  0.9981  0.6584
24739SOL    HW275831   8.703   9.100   1.027  0.5597  1.9576 -1.1452
24740SOL     OW75832   0.922   5.685   6.186  0.5787 -0.1744 -0.2980
24740SOL    HW175833   1.017   5.685   6.184  0.6587  1.7264  0.6524
24740SOL    HW275834   0.896   5.614   6.128  2.5625 -0.7753 -0.5142
24741SOL     OW75835   8.597   2.368   8.091  0.6035  0.3316  0.0088
24741SOL    HW175836   8.669   2.353   8.152  2.5523  0.3425 -2.1477
24741SOL    HW275837   8.566   2.281   8.068  1.0378  0.2469 -0.2739
24742SOL     OW75838   8.007   3.071   5.805 -0.2936 -0.2376  0.6764
24742SOL    HW175839   7.997   2.977   5.789 -3.3702 -0.3492  2.5242
24742SOL    HW275840   8.069   3.100   5.738 -0.7683 -3.2012 -1.2227
24743SOL     OW75841   8.469   5.347   0.044 -0.0476 -0.1095 -0.1462
24743SOL    HW175842   8.397   5.389   0.091  0.1538  0.7175 -0.5459
24743SOL    HW275843   8.504   5.283   0.105  1.9554  2.7299  1.9851
24744SOL     OW75844   9.548   0.098   6.439 -0.0612 -0.0379  0.1268
24744SOL    HW175845   9.501   0.023   6.474  1.0310 -0.9095 -0.2091
24744SOL    HW275846   9.590   0.065   6.359 -0.6571  1.2964 -0.7772
24745SOL     OW75847   8.444   9.718   7.874  0.3125  0.0491 -0.6189
24745SOL    HW175848   8.378   9.721   7.943  0.3151  0.4105 -0.6320
24745SOL    HW275849   8.411   9.777   7.806  1.0491  0.8850 -0.2656
24746SOL     OW75850   1.596   1.915   3.243 -0.6827  0.2086 -0.2011
24746SOL    HW175851   1.565   1.880   3.160 -1.0962 -0.7688  0.3430
24746SOL    HW275852   1.662   1.980   3.219 -0.4390 -0.4118 -1.2841
24747SOL     OW75853   8.686   6.119   9.587  0.1153 -0.2127 -0.0224
24747SOL    HW175854   8.736   6.082   9.514  0.5227 -1.5397  0.8811
24747SOL    HW275855   8.597   6.085   9.575 -0.4486  1.5493 -1.2174
24748SOL     OW75856   5.923   9.695   2.970 -0.1963  0.0773  0.0734
24748SOL    HW175857   5.868   9.618   2.988  0.9002 -0.5469  0.9078
24748SOL    HW275858   6.010   9.659   2.955  0.2364  1.1328 -0.0318
24749SOL     OW75859   9.172   3.938   3.383 -0.1083 -0.1223 -0.2415
24749SOL    HW175860   9.119   3.953   3.305  0.1529  1.8680 -0.0702
24749SOL    HW275861   9.260   3.919   3.350 -0.2152 -0.2490 -0.4506
24750SOL     OW75862   6.349   8.701   1.394 -0.1710 -0.3191  0.4650
24750SOL    HW175863   6.380   8.733   1.478 -0.9277  0.3919  0.4829
24750SOL    HW275864   6.411   8.736   1.330 -0.2214  0.0466  0.6177
24751SOL     OW75865   4.083   3.104   5.806 -0.3391  0.3906 -0.0244
24751SOL    HW175866   4.093   3.155   5.886  0.5142 -1.6404  1.2553
24751SOL    HW275867   4.170   3.108   5.764 -0.4604  0.5214 -0.2659
24752SOL     OW75868   5.787   3.386   5.551  0.6520  0.2022  0.5949
24752SOL    HW175869   5.730   3.454   5.515  0.6553 -0.7007 -1.2063
24752SOL    HW275870   5.727   3.322   5.591  0.4650 -0.1610 -0.2593
24753SOL     OW75871   0.287   1.829   0.488  0.6705  0.6331  0.2091
24753SOL    HW175872   0.328   1.761   0.435  1.6130  0.8356  0.6532
24753SOL    HW275873   0.196   1.831   0.459  0.9023 -0.0371 -0.5942
24754SOL     OW75874   1.790   1.525   2.296 -0.2669 -0.4296  0.0898
24754SOL    HW175875   1.705   1.528   2.340 -0.6073 -2.8910 -0.2667
24754SOL    HW275876   1.770   1.494   2.208  0.9047  0.0244 -0.3534
24755SOL     OW75877   7.105   2.748   0.085 -0.0462  0.5985  0.1754
24755SOL    HW175878   7.116   2.656   0.106  2.3377  0.5967 -0.7074
24755SOL    HW275879   7.016   2.769   0.113  0.1382 -1.3548  2.5946
24756SOL     OW75880   7.757   3.905   7.452  0.5180  0.0042  0.9032
24756SOL    HW175881   7.835   3.934   7.405 -0.1057 -1.4534 -1.1503
24756SOL    HW275882   7.688   3.965   7.423  0.1887 -0.7335  0.1284
24757SOL     OW75883   2.915   3.332   7.881  0.0596  0.1852  0.5074
24757SOL    HW175884   2.966   3.312   7.803 -1.2751  0.9443 -0.5835
24757SOL    HW275885   2.964   3.401   7.925  0.2712  0.5088 -0.2265
24758SOL     OW75886   8.590   6.180   8.148 -0.1434 -0.0537  0.6965
24758SOL    HW175887   8.653   6.120   8.109 -0.6981 -0.2320  0.0648
24758SOL    HW275888   8.631   6.266   8.139 -0.2037 -0.1078 -0.1652
24759SOL     OW75889   4.269   0.460   0.152 -0.1029  0.1863  0.1632
24759SOL    HW175890   4.354   0.416   0.150 -1.2499 -2.1846 -1.5417
24759SOL    HW275891   4.224   0.421   0.227 -0.4843 -0.2568 -0.2916
24760SOL     OW75892   1.482   6.700   2.637  0.0621  0.0850 -0.3973
24760SOL    HW175893   1.440   6.701   2.723 -0.7565  1.2490 -0.7708
24760SOL    HW275894   1.575   6.716   2.655 -0.0759  0.1614  0.2743
24761SOL     OW75895   3.840   4.977   0.751  0.6521 -0.0839  0.6965
24761SOL    HW175896   3.862   5.064   0.785 -0.1715  0.0846  0.8215
24761SOL    HW275897   3.897   4.965   0.675  0.7282  0.5976  0.6422
24762SOL     OW75898   1.852   3.791   8.114 -0.0802 -0.3684  0.5058
24762SOL    HW175899   1.775   3.829   8.156 -0.1886 -2.1537  2.0440
24762SOL    HW275900   1.849   3.824   8.025 -3.4458 -1.5046  0.0556
24763SOL     OW75901   1.866   8.639   6.065  1.2121  0.5601  0.3745
24763SOL    HW175902   1.909   8.690   5.996 -0.4599  1.1151 -0.3149
24763SOL    HW275903   1.816   8.572   6.019 -0.1284  1.0874  0.9719
24764SOL     OW75904   4.656   3.810   4.028 -0.8506  0.1936  0.0947
24764SOL    HW175905   4.701   3.866   3.965 -0.4221  0.3513  0.5416
24764SOL    HW275906   4.563   3.827   4.012 -0.9510 -2.3327 -2.8988
24765SOL     OW75907   0.159   8.513   5.855  0.4060 -0.0142  0.2571
24765SOL    HW175908   0.106   8.435   5.871 -3.5312  2.3815  0.3122
24765SOL    HW275909   0.199   8.497   5.769  0.3078 -2.3322  0.5840
24766SOL     OW75910   6.939   9.586   2.363  0.1667 -0.0498  0.3781
24766SOL    HW175911   6.884   9.592   2.441 -0.9657 -0.5671 -0.3618
24766SOL    HW275912   6.901   9.650   2.303  0.2200 -0.5794 -0.2243
24767SOL     OW75913   5.482   2.399   1.973  0.5101 -0.5852  0.0517
24767SOL    HW175914   5.396   2.381   2.010  0.2065  0.3872 -0.1618
24767SOL    HW275915   5.517   2.470   2.026 -0.2895  1.4562 -1.9662
24768SOL     OW75916   3.530   4.946   8.199  0.0668  0.3503  0.2902
24768SOL    HW175917   3.615   4.965   8.159  0.3179 -1.0747  0.0811
24768SOL    HW275918   3.540   4.972   8.290  0.7649  0.1361  0.2846
24769SOL     OW75919   7.619   3.590   0.416 -0.1268 -0.1586  0.1513
24769SOL    HW175920   7.711   3.564   0.423 -0.2065 -1.0075 -1.4845
24769SOL    HW275921   7.604   3.645   0.492  1.6553 -0.2547  0.6177
24770SOL     OW75922   7.602   4.067   9.821  0.1063 -0.7072  0.1994
24770SOL    HW175923   7.517   4.054   9.863  0.5628  1.7366  2.1435
24770SOL    HW275924   7.583   4.122   9.745  0.0436  1.6006  1.7740
24771SOL     OW75925   2.818   5.508   6.833 -0.4720 -0.1200  0.6081
24771SOL    HW175926   2.786   5.550   6.913 -2.1667  0.0636 -0.1347
24771SOL    HW275927   2.895   5.459   6.862 -0.7065  0.4014  2.2436
24772SOL     OW75928   4.412   9.738   1.206  0.3693  0.0538 -0.4211
24772SOL    HW175929   4.447   9.662   1.160 -0.8491 -0.4864 -0.4990
24772SOL    HW275930   4.459   9.813   1.168 -0.6082 -0.3561 -2.5938
24773SOL     OW75931   6.213   2.584   1.079  0.4168  0.2675  0.2647
24773SOL    HW175932   6.125   2.596   1.043 -0.5124  1.3283  2.6960
24773SOL    HW275933   6.270   2.621   1.012 -0.8945 -0.7991 -1.5531
24774SOL     OW75934   1.682   3.902   4.616  0.3666  0.0237 -0.3809
24774SOL    HW175935   1.676   3.853   4.534 -2.0293 -1.4677  0.5806
24774SOL    HW275936   1.595   3.940   4.626  0.5631  0.0190  1.5624
24775SOL     OW75937   1.511   6.184   4.293 -0.2761 -0.0549  0.9672
24775SOL    HW175938   1.482   6.266   4.334 -0.9048  0.1282  0.1796
24775SOL    HW275939   1.581   6.211   4.234 -1.5025  0.1733 -0.4470
24776SOL     OW75940   6.032   5.573   7.826  0.2706  0.1563  0.0735
24776SOL    HW175941   5.962   5.518   7.791 -0.8628  1.9335 -0.6261
24776SOL    HW275942   6.013   5.579   7.920  0.7951 -1.1522  0.2729
24777SOL     OW75943   8.218   8.264   5.482  0.1560  0.3394  0.8026
24777SOL    HW175944   8.223   8.170   5.463 -0.5716  0.4790 -0.1559
24777SOL    HW275945   8.140   8.293   5.436 -1.8263  0.7312  4.0792
24778SOL     OW75946   3.621   5.537   8.357 -0.1602  0.6679  0.1766
24778SOL    HW175947   3.671   5.617   8.341 -1.2040  1.2152 -0.4703
24778SOL    HW275948   3.529   5.564   8.351 -0.5966 -1.0592 -2.7896
24779SOL     OW75949   2.856   4.115   8.895 -0.0817 -0.1166 -0.2559
24779SOL    HW175950   2.872   4.188   8.955  0.6808 -0.8729  0.4877
24779SOL    HW275951   2.878   4.150   8.808  0.1283  0.5810  0.0731
24780SOL     OW75952   5.529   6.523   2.652 -0.2649 -0.3914 -0.5294
24780SOL    HW175953   5.618   6.539   2.621  0.2527  0.9993  1.4957
24780SOL    HW275954   5.477   6.595   2.614  0.4161  1.4567  1.7794
24781SOL     OW75955   7.328   2.774   2.977  0.0969 -0.0580 -0.8718
24781SOL    HW175956   7.341   2.743   2.887 -0.4334 -1.2170 -0.5790
24781SOL    HW275957   7.394   2.727   3.027 -1.4463 -1.6663 -0.2398
24782SOL     OW75958   5.368   4.732   4.485 -0.1340 -0.1121 -0.5359
24782SOL    HW175959   5.305   4.664   4.511  1.7267 -1.6872  0.0811
24782SOL    HW275960   5.335   4.765   4.402 -1.8084 -0.8207 -0.1950
24783SOL     OW75961   4.061   8.790   3.478  1.0386 -0.6875 -0.3044
24783SOL    HW175962   3.990   8.853   3.475  1.7416  0.0781 -1.2693
24783SOL    HW275963   4.132   8.835   3.524  1.0143 -1.3548  0.4284
24784SOL     OW75964   1.830   2.784   3.435  0.1457  0.1378  0.2200
24784SOL    HW175965   1.856   2.834   3.513 -1.5509  0.4319  0.6523
24784SOL    HW275966   1.743   2.819   3.412 -1.3336 -2.8295  0.7752
24785SOL     OW75967   6.406   1.272   5.225  0.3410  0.0294  0.3847
24785SOL    HW175968   6.500   1.253   5.229  0.7607  1.2681 -1.9323
24785SOL    HW275969   6.399   1.349   5.169 -2.1703 -1.1056 -1.0288
24786SOL     OW75970   1.645   0.164   8.388 -0.3237  0.0790  0.5927
24786SOL    HW175971   1.704   0.134   8.319 -0.0685 -2.1553  1.6794
24786SOL    HW275972   1.703   0.197   8.457 -0.5160  1.0600  0.2929
24787SOL     OW75973   7.799   2.781   0.061 -0.1780  0.9475  0.0019
24787SOL    HW175974   7.840   2.866   0.044 -0.1492  1.0381  0.5235
24787SOL    HW275975   7.750   2.794   0.142 -1.5420  0.9507 -0.7896
24788SOL     OW75976   9.078   1.459   5.562  0.2131  0.6568 -0.4768
24788SOL    HW175977   9.047   1.439   5.473  2.9170  1.5247 -1.7274
24788SOL    HW275978   9.080   1.554   5.566 -0.0527  0.6290  0.6106
24789SOL     OW75979   8.947   6.205   1.083  0.5892  0.8032  0.1795
24789SOL    HW175980   9.016   6.174   1.024 -0.4567 -0.9003 -0.1955
24789SOL    HW275981   8.869   6.212   1.028 -0.1275  0.3237  1.1054
24790SOL     OW75982   1.964   0.675   4.346  0.3714  0.0011  0.3339
24790SOL    HW175983   1.942   0.582   4.343 -0.2430  0.1605 -0.7090
24790SOL    HW275984   2.044   0.683   4.293 -0.2353  0.2148 -0.5838
24791SOL     OW75985   4.181   6.185   5.307 -0.1982 -0.0615 -0.3870
24791SOL    HW175986   4.107   6.172   5.365 -0.3449 -1.0865 -0.7861
24791SOL    HW275987   4.150   6.248   5.242 -1.6089 -2.2868 -2.0081
24792SOL     OW75988   8.981   3.202   2.544 -0.0042  0.2312 -0.0165
24792SOL    HW175989   8.981   3.273   2.480  0.3038 -0.1251 -0.4153
24792SOL    HW275990   8.888   3.188   2.564 -0.0202  1.5761  1.0125
24793SOL     OW75991   9.473   0.262   5.742 -0.0358  0.0663  0.3798
24793SOL    HW175992   9.384   0.296   5.753  0.4139  1.1221  0.8591
24793SOL    HW275993   9.477   0.186   5.800 -0.8314 -0.4061 -0.1626
24794SOL     OW75994   7.763   3.170   0.237  0.0085 -0.0881 -0.5806
24794SOL    HW175995   7.698   3.123   0.185 -0.7620  0.7249 -0.3810
24794SOL    HW275996   7.840   3.175   0.181 -0.9839  1.2735 -1.9159
24795SOL     OW75997   9.697   5.526   9.261  0.0897  0.4235 -0.3350
24795SOL    HW175998   9.703   5.478   9.343  2.3761  0.9273 -0.1313
24795SOL    HW275999   9.617   5.579   9.270  0.3554  0.5793  1.6442
24796SOL     OW76000   5.850   5.217   6.691 -0.0962 -0.7403 -0.2884
24796SOL    HW176001   5.759   5.244   6.699  0.4643  1.3253 -0.4117
24796SOL    HW276002   5.893   5.287   6.642  2.2023 -0.0744  2.3837
24797SOL     OW76003   4.583   4.670   1.913  0.4809 -0.3087  0.3472
24797SOL    HW176004   4.572   4.602   1.847 -0.1296  0.3751 -0.2750
24797SOL    HW276005   4.498   4.714   1.916  1.3571  1.5662 -0.5544
24798SOL     OW76006   2.629   6.232   1.797  0.1210 -0.3765  0.5387
24798SOL    HW176007   2.681   6.218   1.718  0.7197  1.4531  0.5551
24798SOL    HW276008   2.615   6.327   1.800 -1.3541 -0.5840  1.7259
24799SOL     OW76009   7.059   6.167   4.813 -0.2192 -0.3444  0.2626
24799SOL    HW176010   6.996   6.099   4.790  0.3875 -1.2739  1.2830
24799SOL    HW276011   7.143   6.134   4.781  0.0359  0.0613  0.5039
24800SOL     OW76012   0.894   6.036   0.943  0.6467 -0.0521 -0.7795
24800SOL    HW176013   0.907   5.999   0.856  0.0908  1.3505 -1.4819
24800SOL    HW276014   0.961   6.105   0.950  0.6052 -0.0670 -0.1504
24801SOL     OW76015   2.137   5.746   4.165 -0.8316  1.1970 -0.0847
24801SOL    HW176016   2.168   5.836   4.158 -0.3635  0.9890 -0.7058
24801SOL    HW276017   2.197   5.695   4.111 -1.0388  0.4957  0.3338
24802SOL     OW76018   5.575   7.408   8.348  0.7960  0.7852 -1.0795
24802SOL    HW176019   5.622   7.384   8.268 -0.7748 -0.2034 -1.7506
24802SOL    HW276020   5.644   7.431   8.410  2.0799  1.2020 -2.5797
24803SOL     OW76021   0.809   2.066   0.639 -0.3327  0.4091  0.3755
24803SOL    HW176022   0.822   2.129   0.710 -1.3727 -1.7496  2.6782
24803SOL    HW276023   0.721   2.084   0.607 -0.5578  0.2785  0.9037
24804SOL     OW76024   4.680   7.256   5.571  1.0225  0.0762  0.7566
24804SOL    HW176025   4.644   7.334   5.528  0.2014 -1.0528 -0.7081
24804SOL    HW276026   4.658   7.184   5.512  1.2768 -1.3545  2.3330
24805SOL     OW76027   7.288   6.144   4.414 -0.1310  0.7168 -0.7862
24805SOL    HW176028   7.220   6.134   4.348 -0.3780  1.9248 -0.7479
24805SOL    HW276029   7.361   6.090   4.382 -0.4452  0.8487 -1.7676
24806SOL     OW76030   8.239   1.480   5.279 -0.1018  0.7250  0.2725
24806SOL    HW176031   8.297   1.522   5.342  1.4522 -0.5135 -0.2473
24806SOL    HW276032   8.152   1.489   5.316  0.5524  1.6572  1.6667
24807SOL     OW76033   7.269   7.643   6.490 -0.1950  0.0861 -0.1905
24807SOL    HW176034   7.195   7.697   6.518 -0.5125 -0.5394  0.2186
24807SOL    HW276035   7.257   7.561   6.538  0.4552 -0.2234 -0.5526
24808SOL     OW76036   1.769   4.363   3.455 -0.3602  0.0546 -0.2322
24808SOL    HW176037   1.697   4.310   3.420 -0.9445  0.3807  0.4473
24808SOL    HW276038   1.846   4.331   3.409 -1.2102  1.2209 -2.6456
24809SOL     OW76039   2.512   2.006   8.700 -0.0320  0.0935 -0.0607
24809SOL    HW176040   2.417   2.001   8.711 -0.1986  0.5488 -1.2313
24809SOL    HW276041   2.540   1.915   8.691 -0.3118 -0.0624  0.5908
24810SOL     OW76042   6.202   3.595   1.558 -0.2948  0.3465  0.5297
24810SOL    HW176043   6.154   3.539   1.619  1.2909 -2.3468 -0.5574
24810SOL    HW276044   6.194   3.552   1.473  2.4889  0.7586 -0.0347
24811SOL     OW76045   0.402   0.806   7.281  0.5175  0.6658  1.0431
24811SOL    HW176046   0.401   0.747   7.356 -0.4727  1.3778  1.6200
24811SOL    HW276047   0.311   0.835   7.273  0.5169  0.3068 -0.6830
24812SOL     OW76048   5.111   9.364   5.785 -0.5466  0.1965  0.0513
24812SOL    HW176049   5.046   9.322   5.728 -1.1208 -0.5861  1.2402
24812SOL    HW276050   5.193   9.356   5.736 -0.9920 -0.5915 -0.6055
24813SOL     OW76051   2.833   4.002   2.837 -0.1293 -0.1451  0.0703
24813SOL    HW176052   2.890   4.057   2.784  0.5625 -1.5891 -0.7169
24813SOL    HW276053   2.768   3.968   2.776  0.6524 -1.7958  0.1135
24814SOL     OW76054   3.258   1.344   6.463 -0.0562  0.1795  0.9422
24814SOL    HW176055   3.340   1.308   6.498  0.0767 -0.3664  0.1033
24814SOL    HW276056   3.191   1.284   6.495  0.0803 -0.3983  0.1668
24815SOL     OW76057   4.769   6.135   5.421  0.1914  0.0201  0.4397
24815SOL    HW176058   4.675   6.141   5.407  0.3625  1.1989 -0.3457
24815SOL    HW276059   4.780   6.129   5.516 -0.6514  0.3032  0.5565
24816SOL     OW76060   8.615   7.634   0.558 -0.2701  0.1787  0.0885
24816SOL    HW176061   8.531   7.590   0.555 -0.9595  1.4991 -1.3337
24816SOL    HW276062   8.666   7.585   0.623 -2.7350  0.4420  2.3688
24817SOL     OW76063   0.731   4.328   8.945  0.0466  0.2652  0.3151
24817SOL    HW176064   0.816   4.308   8.983 -0.3334 -1.4039  0.3707
24817SOL    HW276065   0.730   4.424   8.936  1.4871  0.3994  1.2984
24818SOL     OW76066   4.653   7.543   3.099 -0.5587  0.0891 -0.4452
24818SOL    HW176067   4.746   7.536   3.077 -0.5301  2.5252 -1.4470
24818SOL    HW276068   4.652   7.567   3.192 -0.1911  0.0277 -0.4235
24819SOL     OW76069   6.733   1.594   5.572 -0.1469 -0.1767 -0.2671
24819SOL    HW176070   6.827   1.614   5.574 -0.0683 -0.5426  2.0963
24819SOL    HW276071   6.719   1.533   5.644 -2.4106  0.8534  0.2741
24820SOL     OW76072   3.666   4.702   8.973 -0.1061  0.1274  0.1534
24820SOL    HW176073   3.611   4.781   8.977 -0.0218  0.1745  0.4662
24820SOL    HW276074   3.625   4.642   9.035  0.0050  0.0416  0.1432
24821SOL     OW76075   0.623   0.528   0.059  0.0474  0.2052 -0.1746
24821SOL    HW176076   0.698   0.509   0.115 -0.4851 -0.0240  0.4773
24821SOL    HW276077   0.590   0.612   0.091  0.1346  0.3972 -0.5817
24822SOL     OW76078   1.221   5.262   0.492  0.1867 -0.0647 -0.0846
24822SOL    HW176079   1.161   5.202   0.447  0.5839 -0.8016  0.3341
24822SOL    HW276080   1.288   5.204   0.529  0.1255  0.5696  1.0544
24823SOL     OW76081   4.926   1.753   7.576  0.0391  0.4007 -0.2301
24823SOL    HW176082   5.006   1.700   7.569  0.5639  1.0157  0.7927
24823SOL    HW276083   4.930   1.812   7.501  1.0145  1.0190  0.2878
24824SOL     OW76084   3.799   6.560   5.218  0.4605 -0.2472 -0.0280
24824SOL    HW176085   3.754   6.621   5.160  2.5449  0.6911 -0.7764
24824SOL    HW276086   3.861   6.515   5.161  0.3504 -1.6124  0.9060
24825SOL     OW76087   5.772   6.042   1.395 -0.6661  0.0712 -0.6436
24825SOL    HW176088   5.844   6.082   1.345  0.0180  1.3972  1.2795
24825SOL    HW276089   5.724   6.116   1.431 -0.1124 -0.7408  2.0083
24826SOL     OW76090   0.114   3.245   6.277  0.0010 -0.2980 -0.2218
24826SOL    HW176091   0.022   3.236   6.303 -0.4270  0.0664 -1.5578
24826SOL    HW276092   0.113   3.311   6.208  1.0635 -1.4002 -1.3320
24827SOL     OW76093   2.506   6.174   5.407  0.5580 -0.3723 -0.3580
24827SOL    HW176094   2.502   6.154   5.313 -0.3140  0.1734 -0.4501
24827SOL    HW276095   2.596   6.157   5.432  0.2840 -2.7583 -0.7989
24828SOL     OW76096   9.494   9.648   2.329 -0.1173  0.7210  0.1164
24828SOL    HW176097   9.488   9.560   2.365  0.8828  0.0260 -1.2932
24828SOL    HW276098   9.565   9.689   2.377  0.1922  0.3413 -0.0103
24829SOL     OW76099   5.867   1.065   2.536  0.3652 -0.5959 -0.3337
24829SOL    HW176100   5.872   0.971   2.520  3.3863 -0.6363  0.1970
24829SOL    HW276101   5.869   1.073   2.632 -0.5820  0.0123 -0.3529
24830SOL     OW76102   8.907   0.159   2.422 -0.3618  0.0517  0.0495
24830SOL    HW176103   8.904   0.131   2.331 -1.2313  2.6304 -0.8011
24830SOL    HW276104   8.820   0.136   2.457 -0.1264 -0.6821  0.1692
24831SOL     OW76105   7.790   5.077   0.515 -0.5730  0.2185 -0.1928
24831SOL    HW176106   7.820   4.991   0.546  0.8222  1.1366  1.1760
24831SOL    HW276107   7.840   5.140   0.567 -3.0725  1.8942  0.3908
24832SOL     OW76108   5.425   1.479   6.066  0.0754 -0.5562  0.3105
24832SOL    HW176109   5.491   1.411   6.078  0.5336 -0.3471 -0.8528
24832SOL    HW276110   5.462   1.557   6.107  0.3504 -0.5654  0.0849
24833SOL     OW76111   9.192   1.517   7.982  0.1286 -0.1597 -0.3157
24833SOL    HW176112   9.267   1.458   7.989  0.6832  0.6467  0.8277
24833SOL    HW276113   9.219   1.596   8.028 -1.7591 -0.1803  0.9225
24834SOL     OW76114   1.482   8.027   6.558 -0.0299  0.1510  0.0904
24834SOL    HW176115   1.565   8.062   6.592  0.8599 -0.9620 -0.8377
24834SOL    HW276116   1.415   8.065   6.614  1.0833  1.3499  0.6554
24835SOL     OW76117   1.888   0.705   3.591  0.4800  0.4479 -0.2038
24835SOL    HW176118   1.942   0.629   3.574  2.7163  1.8506  0.2309
24835SOL    HW276119   1.905   0.764   3.518  0.6281  1.4827  0.6348
24836SOL     OW76120   6.598   1.738   9.231 -0.6806  1.2423  0.0146
24836SOL    HW176121   6.654   1.680   9.179 -2.5472 -0.6273 -0.0444
24836SOL    HW276122   6.649   1.756   9.310 -0.1581 -0.7815  0.1865
24837SOL     OW76123   0.019   8.921   6.288  0.3450 -0.3697 -0.1594
24837SOL    HW176124  -0.003   8.966   6.370  0.7454 -1.6444  0.6737
24837SOL    HW276125  -0.066   8.894   6.253  0.2905 -1.9057  1.0765
24838SOL     OW76126   7.513   6.193   6.513 -1.0545 -0.1307  0.2762
24838SOL    HW176127   7.573   6.192   6.438  1.5529 -0.3047  2.2154
24838SOL    HW276128   7.468   6.277   6.508  0.8990  0.9304 -0.1616
24839SOL     OW76129   1.101   5.930   9.528  0.0601  0.3690 -0.7671
24839SOL    HW176130   1.018   5.977   9.520  1.1231  2.5649  0.2173
24839SOL    HW276131   1.078   5.838   9.516 -2.8099  0.7044  1.2401
24840SOL     OW76132   6.301   1.339   3.254 -0.1716 -0.2251 -0.3918
24840SOL    HW176133   6.260   1.253   3.262  1.1002 -1.0177 -1.8936
24840SOL    HW276134   6.272   1.371   3.168 -1.3742  1.2965  0.5248
24841SOL     OW76135   7.949   1.372   3.074  0.2017  0.2676 -0.2025
24841SOL    HW176136   7.985   1.440   3.016 -1.0599 -0.4784 -1.9642
24841SOL    HW276137   7.985   1.290   3.040  1.7393 -0.0132  1.9289
24842SOL     OW76138   6.910   9.748   7.853  0.3662 -0.2095 -0.1407
24842SOL    HW176139   6.989   9.743   7.908  1.7006 -1.0759 -2.0319
24842SOL    HW276140   6.926   9.821   7.794 -1.0870  0.7660  0.6097
24843SOL     OW76141   3.819   3.087   3.403  0.0745  0.1769  0.3661
24843SOL    HW176142   3.784   3.029   3.470  0.6384 -0.0931  0.4301
24843SOL    HW276143   3.870   3.152   3.451 -0.0025  0.3315  0.2418
24844SOL     OW76144   9.498   2.064   9.679  0.6894  0.1499  0.0077
24844SOL    HW176145   9.552   2.022   9.746  0.9411  1.4053  0.6214
24844SOL    HW276146   9.534   2.153   9.672 -0.1306  0.4256 -0.9051
24845SOL     OW76147   1.291   7.688   7.043 -0.1274 -0.8606 -0.3848
24845SOL    HW176148   1.251   7.602   7.059  0.4566 -1.1787 -0.5862
24845SOL    HW276149   1.383   7.675   7.067  0.0245 -0.3734 -0.7097
24846SOL     OW76150   4.138   1.465   6.267  0.2138  0.1046 -0.0565
24846SOL    HW176151   4.131   1.380   6.223  1.4093  1.0849 -2.3035
24846SOL    HW276152   4.163   1.444   6.357 -3.8302 -2.0771  0.8145
24847SOL     OW76153   9.072   5.808   9.746  0.2480 -0.1662 -0.1221
24847SOL    HW176154   9.001   5.862   9.780  2.2445  1.5536  1.6347
24847SOL    HW276155   9.146   5.828   9.803  1.9468 -2.4601 -1.3741
24848SOL     OW76156   7.291   1.830   6.292  0.6916  0.2040 -0.6305
24848SOL    HW176157   7.264   1.764   6.356  0.7364 -0.3321 -1.1473
24848SOL    HW276158   7.258   1.913   6.326  1.0082 -0.0256  0.2507
24849SOL     OW76159   3.985   5.379   8.351 -0.1364 -0.1530 -0.0543
24849SOL    HW176160   4.081   5.371   8.344 -0.2184 -0.3805 -1.1738
24849SOL    HW276161   3.954   5.359   8.263 -1.1596  0.8191  0.0773
24850SOL     OW76162   9.434   2.136   4.078  0.6335 -0.3717 -0.1956
24850SOL    HW176163   9.503   2.074   4.057  2.4059  0.5866  2.4117
24850SOL    HW276164   9.368   2.085   4.124  1.5285 -0.5872  0.8795
24851SOL     OW76165   3.547   9.378   1.293 -0.0456  0.1078  0.0226
24851SOL    HW176166   3.604   9.302   1.304 -1.5708 -0.8497  2.1777
24851SOL    HW276167   3.478   9.348   1.233  0.1824  0.3316 -0.3571
24852SOL     OW76168   5.537   3.940   3.964  0.3089  0.3739 -0.0064
24852SOL    HW176169   5.608   3.987   3.920  0.5910 -0.0853 -0.0421
24852SOL    HW276170   5.560   3.944   4.057  0.2567  0.4294  0.0043
24853SOL     OW76171   5.017   3.496   4.828 -0.1826 -0.6094 -0.0688
24853SOL    HW176172   5.021   3.502   4.733  0.1516 -0.2101 -0.0343
24853SOL    HW276173   4.932   3.535   4.851 -0.5220 -1.2353 -0.2356
24854SOL     OW76174   4.799   8.971   7.506  0.0760  0.3383  0.1501
24854SOL    HW176175   4.821   9.057   7.542  0.3613  0.4469 -0.2845
24854SOL    HW276176   4.883   8.926   7.496 -0.0879 -0.0884  0.6032
24855SOL     OW76177   1.786   9.162   2.368 -0.0708  0.2187 -0.2034
24855SOL    HW176178   1.804   9.111   2.447  2.7022 -0.0752 -0.9385
24855SOL    HW276179   1.868   9.160   2.319 -0.9157  2.6032 -1.8692
24856SOL     OW76180   8.800   0.226   3.696 -0.2794  0.0202 -0.1865
24856SOL    HW176181   8.833   0.174   3.769 -0.1807  1.0545  0.5347
24856SOL    HW276182   8.728   0.277   3.734 -0.9213 -0.2150 -1.0765
24857SOL     OW76183   9.695   1.825   8.368 -0.4397 -0.3439 -0.4390
24857SOL    HW176184   9.752   1.840   8.443 -1.5357  1.2767  0.1222
24857SOL    HW276185   9.744   1.857   8.292 -0.5424  0.9493  0.0224
24858SOL     OW76186   5.789   0.106   9.450 -0.0576 -0.2758 -0.3316
24858SOL    HW176187   5.777   0.093   9.356  1.2523 -3.8850 -0.1415
24858SOL    HW276188   5.858   0.173   9.457  0.3531 -0.5062 -1.9532
24859SOL     OW76189   4.130   1.162   4.948  0.0590 -0.1409 -0.1657
24859SOL    HW176190   4.135   1.239   4.891 -0.0546  0.5610  0.7528
24859SOL    HW276191   4.218   1.124   4.945  0.1728  0.1435 -0.4606
24860SOL     OW76192   5.088   4.540   7.308  0.6852 -0.3877  0.6362
24860SOL    HW176193   5.034   4.597   7.363  1.3583 -0.3510  1.2742
24860SOL    HW276194   5.117   4.597   7.237  1.3748  0.0840  1.2827
24861SOL     OW76195   5.294   1.996   3.156 -0.1110 -0.2724 -0.5338
24861SOL    HW176196   5.379   1.953   3.155  1.1744  2.0888 -2.6902
24861SOL    HW276197   5.288   2.035   3.244  0.9500 -0.6042 -0.3033
24862SOL     OW76198   9.733   1.503   7.672 -0.4969  0.3375  0.1720
24862SOL    HW176199   9.703   1.414   7.690  0.6173 -0.3141 -1.0173
24862SOL    HW276200   9.706   1.519   7.581 -1.5245  1.6007  0.6643
24863SOL     OW76201   4.597   6.326   9.011  0.2571  0.3244  0.3233
24863SOL    HW176202   4.557   6.252   8.965  0.8517 -0.6035  1.2548
24863SOL    HW276203   4.643   6.374   8.942  0.4554 -0.5808 -0.1980
24864SOL     OW76204   5.238   6.557   0.186 -1.3799  0.0368 -0.1842
24864SOL    HW176205   5.245   6.463   0.172 -1.6332 -0.0036 -0.0473
24864SOL    HW276206   5.172   6.566   0.255 -0.3720  0.2452  0.7684
24865SOL     OW76207   0.215   8.554   8.619  0.2198  0.0445  0.2216
24865SOL    HW176208   0.300   8.591   8.641 -0.7998  1.3837  2.2643
24865SOL    HW276209   0.162   8.630   8.592 -1.4558 -0.0321  2.9544
24866SOL     OW76210   6.948   7.639   7.940 -0.1383 -0.2349  0.2740
24866SOL    HW176211   6.973   7.563   7.993 -0.3298 -0.9051 -0.5705
24866SOL    HW276212   7.005   7.709   7.970  2.0145 -1.4252 -0.8397
24867SOL     OW76213   6.734   2.731   7.722 -0.3848 -0.0295  1.0916
24867SOL    HW176214   6.709   2.694   7.637  2.4483 -2.9403  1.3161
24867SOL    HW276215   6.769   2.817   7.700 -2.6082  0.6236 -0.2008
24868SOL     OW76216   5.159   0.504   3.758 -0.2768  0.3665  1.3148
24868SOL    HW176217   5.168   0.431   3.818 -1.5840 -0.5515  0.4531
24868SOL    HW276218   5.227   0.566   3.784  0.2693 -0.7518  2.6321
24869SOL     OW76219   6.129   9.100   9.439  0.5601  0.1825  0.2598
24869SOL    HW176220   6.209   9.108   9.491 -1.5363  0.4327  3.7691
24869SOL    HW276221   6.136   9.015   9.397  2.1492 -0.3662  1.5342
24870SOL     OW76222   0.841   7.885   8.181  0.5805  0.0624  0.1841
24870SOL    HW176223   0.888   7.968   8.187  1.5630 -0.5185  0.7911
24870SOL    HW276224   0.855   7.844   8.266  1.4498 -1.4327 -0.6523
24871SOL     OW76225   0.832   7.834   7.376 -0.0567 -0.4716  0.0194
24871SOL    HW176226   0.805   7.909   7.429  0.8908 -0.3457  0.3444
24871SOL    HW276227   0.750   7.790   7.354 -0.8016  1.4379 -1.3864
24872SOL     OW76228   6.891   1.605   9.795 -0.1589  1.1118 -0.4652
24872SOL    HW176229   6.957   1.537   9.805 -1.5807 -0.7474 -2.8952
24872SOL    HW276230   6.940   1.681   9.763  0.9041 -0.0679 -1.7575
24873SOL     OW76231   8.209   9.018   9.738 -0.5252  0.3397  0.4413
24873SOL    HW176232   8.155   9.005   9.816 -0.3218  0.9032  0.6810
24873SOL    HW276233   8.283   8.960   9.751 -0.4801  0.4477  0.6800
24874SOL     OW76234   7.269   8.130   2.634 -0.1644 -0.0534 -0.2808
24874SOL    HW176235   7.210   8.168   2.699 -1.1301  0.4834 -1.4350
24874SOL    HW276236   7.302   8.205   2.585  0.7566 -0.4331 -0.2731
24875SOL     OW76237   1.831   8.573   5.120  0.0780  0.0805 -0.6171
24875SOL    HW176238   1.880   8.648   5.156  0.7362 -0.2124 -0.8787
24875SOL    HW276239   1.818   8.594   5.028  1.0377 -0.4962 -0.9078
24876SOL     OW76240   0.332   3.087   3.315  0.0199  0.1880 -0.1412
24876SOL    HW176241   0.276   3.112   3.388  0.7828 -0.1093  0.5568
24876SOL    HW276242   0.271   3.067   3.244 -0.7184  0.7736  0.3148
24877SOL     OW76243   5.352   2.007   3.938  0.7471  0.3051 -0.3179
24877SOL    HW176244   5.285   1.975   3.878  0.8626  0.0512 -0.3112
24877SOL    HW276245   5.404   2.067   3.884 -0.0063  1.1785 -0.0954
24878SOL     OW76246   2.870   2.913   8.355  0.2409 -0.6875 -0.0895
24878SOL    HW176247   2.962   2.940   8.352 -0.1666  0.7918  0.0066
24878SOL    HW276248   2.852   2.880   8.267  0.9476 -1.3119 -0.0072
24879SOL     OW76249   9.092   7.543   3.003  0.0970 -0.3901  0.3760
24879SOL    HW176250   9.126   7.612   2.946 -1.5418 -0.5693 -0.8935
24879SOL    HW276251   9.159   7.476   3.001  0.5755  0.0884 -0.4648
24880SOL     OW76252   0.645   7.609   9.247  0.3596  0.8565  0.1864
24880SOL    HW176253   0.669   7.588   9.337  1.1573  2.5280  0.3951
24880SOL    HW276254   0.567   7.663   9.255  0.4457  1.0295 -0.1141
24881SOL     OW76255   8.704   4.239   7.381 -0.1591 -0.0730 -0.5323
24881SOL    HW176256   8.628   4.246   7.323 -0.6513 -3.0518 -0.4079
24881SOL    HW276257   8.779   4.251   7.324 -0.6933  0.7550 -1.0745
24882SOL     OW76258   0.844   4.848   0.357 -0.8323  0.1630 -0.3074
24882SOL    HW176259   0.837   4.812   0.269 -1.4979  2.7279 -1.4231
24882SOL    HW276260   0.771   4.911   0.362  0.0587  1.1316  1.5185
24883SOL     OW76261   8.891   2.642   8.336 -0.1925  0.3858 -0.3201
24883SOL    HW176262   8.951   2.585   8.288  0.5053  1.4569 -0.7304
24883SOL    HW276263   8.877   2.717   8.279  0.7756  1.7728  1.1931
24884SOL     OW76264   1.838   7.689   1.329 -0.2941  0.1410 -0.0180
24884SOL    HW176265   1.922   7.727   1.303 -0.0026 -1.1198 -0.9936
24884SOL    HW276266   1.852   7.659   1.419 -0.0687  0.9641  0.2307
24885SOL     OW76267   2.536   7.600   2.341 -0.3407  0.3730 -0.2936
24885SOL    HW176268   2.473   7.620   2.411 -0.3566 -0.8700  0.0650
24885SOL    HW276269   2.483   7.566   2.269 -0.2323  0.8331 -0.5954
24886SOL     OW76270   7.257   4.862   2.522 -0.0200 -0.0064 -0.3532
24886SOL    HW176271   7.270   4.953   2.549 -0.5147 -0.6746  2.5579
24886SOL    HW276272   7.289   4.858   2.432 -0.6420  3.1713 -0.8355
24887SOL     OW76273   5.240   6.351   3.058  0.2205  0.3075 -0.3519
24887SOL    HW176274   5.241   6.407   2.980  2.0283 -1.3470 -1.6233
24887SOL    HW276275   5.156   6.305   3.053 -0.3211  1.2788 -0.4910
24888SOL     OW76276   2.868   6.481   2.854 -0.0870  0.1463  0.0022
24888SOL    HW176277   2.833   6.467   2.767  0.2976 -3.3376  0.2686
24888SOL    HW276278   2.963   6.471   2.844  0.2130  2.0873  0.4877
24889SOL     OW76279   5.955   0.082   3.097  0.1413  0.4436  1.0423
24889SOL    HW176280   5.862   0.082   3.122 -0.5243 -0.7275 -1.1622
24889SOL    HW276281   5.965   0.003   3.044  1.4965  2.3108 -1.7468
24890SOL     OW76282   1.485   3.111   7.266  0.1846 -0.1701 -0.3895
24890SOL    HW176283   1.570   3.129   7.306  0.7243  1.2847 -2.0574
24890SOL    HW276284   1.501   3.033   7.212  0.6069  0.3355 -1.0187
24891SOL     OW76285   4.093   1.570   4.907  0.0319 -0.3817  0.1554
24891SOL    HW176286   4.144   1.524   4.840  1.0035  1.5981 -0.5404
24891SOL    HW276287   4.137   1.548   4.990  1.9916  1.1278 -0.4079
24892SOL     OW76288   0.488   7.118   0.296  0.5496  0.2252 -0.8085
24892SOL    HW176289   0.541   7.070   0.233  0.3536 -2.5974  1.0241
24892SOL    HW276290   0.404   7.072   0.298 -0.0888  1.3630  0.2166
24893SOL     OW76291   2.748   0.880   6.345  0.3053 -0.5920 -0.1224
24893SOL    HW176292   2.797   0.817   6.293  1.4690  0.6213 -0.5545
24893SOL    HW276293   2.778   0.965   6.315 -1.2227  0.1921  0.4476
24894SOL     OW76294   3.970   0.815   8.879  0.2170 -0.5053  0.1182
24894SOL    HW176295   4.058   0.820   8.915  0.2862 -2.5659  0.3839
24894SOL    HW276296   3.937   0.730   8.908 -1.0615 -0.7021 -1.7255
24895SOL     OW76297   4.805   2.821   9.074  0.4153 -0.6006 -0.6453
24895SOL    HW176298   4.757   2.752   9.028  0.8078 -0.8953 -0.6121
24895SOL    HW276299   4.850   2.869   9.004  0.2602 -0.4687 -0.6551
24896SOL     OW76300   8.463   2.962   9.729  0.5889  0.1861 -0.2130
24896SOL    HW176301   8.438   3.014   9.653  0.7362  0.7577  0.1275
24896SOL    HW276302   8.524   3.017   9.777  2.1852 -0.9863 -0.7941
24897SOL     OW76303   6.307   8.424   7.179  0.0086 -0.4272  0.0765
24897SOL    HW176304   6.269   8.338   7.198 -0.8748 -0.1763 -0.5087
24897SOL    HW276305   6.349   8.450   7.260  0.0958 -1.3148  0.3298
24898SOL     OW76306   2.454   9.521   2.814 -0.5716  0.3805 -0.3795
24898SOL    HW176307   2.432   9.601   2.862 -2.0547  0.3757 -1.0012
24898SOL    HW276308   2.508   9.551   2.741  0.1531  0.6148  0.2426
24899SOL     OW76309   6.625   7.979   5.822 -0.1702  0.3386  0.6205
24899SOL    HW176310   6.672   7.922   5.883  1.2713  1.8885  1.0233
24899SOL    HW276311   6.547   8.007   5.871 -0.0972 -0.0518  0.9733
24900SOL     OW76312   9.211   3.522   2.504  0.2892 -0.1782  0.9139
24900SOL    HW176313   9.206   3.445   2.560  2.3597  0.4888  2.1000
24900SOL    HW276314   9.132   3.572   2.525 -0.1456 -1.0668  1.4700
24901SOL     OW76315   3.064   9.100   5.332 -0.1355  0.5384  0.2493
24901SOL    HW176316   3.047   9.127   5.422 -0.5966 -0.8706  0.6131
24901SOL    HW276317   3.081   9.182   5.285  2.0891  1.1950  1.9853
24902SOL     OW76318   2.159   3.037   4.554 -0.2517 -0.6024  0.6634
24902SOL    HW176319   2.114   2.962   4.593  0.0659 -0.2166  1.8078
24902SOL    HW276320   2.187   3.006   4.468 -0.9165 -1.4962  0.7527
24903SOL     OW76321   7.523   6.903   7.311 -0.1218 -0.3413  0.0847
24903SOL    HW176322   7.462   6.862   7.372  1.0513  2.2442  3.2682
24903SOL    HW276323   7.575   6.830   7.276 -0.8022 -1.9525  2.2458
24904SOL     OW76324   8.486   8.701   8.496 -0.5197 -0.5562  0.1738
24904SOL    HW176325   8.480   8.692   8.401 -1.2998 -1.3790  0.2881
24904SOL    HW276326   8.572   8.664   8.518 -0.5240 -0.7713 -0.1636
24905SOL     OW76327   1.706   8.637   3.163 -0.1167 -1.4226 -0.6672
24905SOL    HW176328   1.731   8.666   3.251 -0.9240  1.8321 -1.3755
24905SOL    HW276329   1.779   8.664   3.108 -1.8453  1.7645 -1.6928
24906SOL     OW76330   3.194   7.638   2.864 -0.1417  0.0364 -0.2124
24906SOL    HW176331   3.218   7.685   2.784 -1.0102 -0.2586 -0.6612
24906SOL    HW276332   3.125   7.578   2.837 -1.8925  1.3421  1.1284
24907SOL     OW76333   2.302   4.991   0.322  0.1517 -0.8711  0.6837
24907SOL    HW176334   2.261   5.064   0.369  2.9031 -0.1199  2.1683
24907SOL    HW276335   2.252   4.914   0.348 -1.3512  0.1717  1.0036
24908SOL     OW76336   6.420   2.111   5.699 -0.2088 -0.1564  0.3425
24908SOL    HW176337   6.429   2.064   5.616 -1.7338  3.0111 -1.8332
24908SOL    HW276338   6.493   2.172   5.700  1.1117 -1.6192  2.5909
24909SOL     OW76339   7.653   9.373   0.264 -0.0478  0.3354  0.6070
24909SOL    HW176340   7.736   9.355   0.219 -0.8242  0.0109 -0.7489
24909SOL    HW276341   7.644   9.468   0.262  0.5008  0.4074  1.1751
24910SOL     OW76342   3.978   7.767   8.474  0.3051 -0.3878 -0.2214
24910SOL    HW176343   3.894   7.746   8.433  0.0757 -1.0639  0.5700
24910SOL    HW276344   3.961   7.763   8.568  0.5835  2.0167  0.0105
24911SOL     OW76345   6.759   2.374   3.366 -0.3913 -0.1260  0.7614
24911SOL    HW176346   6.708   2.379   3.285 -0.0265 -0.9751  0.4590
24911SOL    HW276347   6.850   2.379   3.338 -0.2765  2.1019  1.3610
24912SOL     OW76348   0.207   6.710   2.042  0.4692 -0.2651 -0.3480
24912SOL    HW176349   0.282   6.714   2.101  0.5823 -0.4991 -0.4783
24912SOL    HW276350   0.216   6.627   1.996  0.1290 -0.2995 -0.3609
24913SOL     OW76351   2.493   7.288   8.192  0.4633  0.4403  0.2784
24913SOL    HW176352   2.461   7.327   8.273  0.0741  2.8443 -0.9561
24913SOL    HW276353   2.420   7.232   8.162  0.5116 -0.2537  1.4156
24914SOL     OW76354   8.865   6.371   1.296  0.2813 -0.1528  0.3624
24914SOL    HW176355   8.940   6.429   1.291 -0.7044  1.1163 -0.2821
24914SOL    HW276356   8.878   6.309   1.225 -0.2444  1.3030 -1.0633
24915SOL     OW76357   9.240   2.676   7.951  0.3025 -0.3014  0.3169
24915SOL    HW176358   9.249   2.752   7.894 -0.1132 -0.1877  0.3973
24915SOL    HW276359   9.215   2.605   7.892 -2.4984  0.3324  0.6212
24916SOL     OW76360   8.263   8.456   0.242 -0.1421  0.2747 -0.7286
24916SOL    HW176361   8.185   8.512   0.248 -0.1273  0.2319 -0.0957
24916SOL    HW276362   8.321   8.490   0.310 -0.1256 -0.5031 -0.3525
24917SOL     OW76363   1.401   3.784   7.039 -0.0879 -0.3085  0.5940
24917SOL    HW176364   1.496   3.778   7.033  0.2244  2.3815  1.4976
24917SOL    HW276365   1.385   3.831   7.121 -2.1200  0.3689 -0.1284
24918SOL     OW76366   1.120   4.122   5.340 -0.4816  0.4830  0.1522
24918SOL    HW176367   1.034   4.163   5.346 -0.7929 -0.1143 -0.1329
24918SOL    HW276368   1.115   4.048   5.401 -0.3002  0.2237 -0.1488
24919SOL     OW76369   8.170   9.825   0.873 -0.4517  0.2434  0.2495
24919SOL    HW176370   8.204   9.900   0.923 -1.0666  1.8258 -1.5865
24919SOL    HW276371   8.229   9.753   0.896  0.3357  1.3303  1.8752
24920SOL     OW76372   3.498   6.190   6.760 -0.5623  0.1054 -0.2550
24920SOL    HW176373   3.454   6.275   6.767  0.5185  0.5438  3.3676
24920SOL    HW276374   3.581   6.202   6.807  0.0683 -2.6694 -0.5126
24921SOL     OW76375   5.672   5.437   6.716 -0.4721 -0.1601 -0.5566
24921SOL    HW176376   5.615   5.495   6.666  0.0738  1.0345  0.1360
24921SOL    HW276377   5.634   5.436   6.804 -1.2251 -1.9541 -0.8584
24922SOL     OW76378   8.016   6.989   1.269  0.4320  0.4426  0.3731
24922SOL    HW176379   8.084   7.038   1.222 -0.7354 -0.1899 -2.1993
24922SOL    HW276380   7.999   6.913   1.213 -2.1100  0.3833  1.1084
24923SOL     OW76381   0.867   0.486   2.454 -0.0699  0.0761 -0.3979
24923SOL    HW176382   0.890   0.451   2.540  1.7562  0.7733 -0.5558
24923SOL    HW276383   0.951   0.516   2.418 -1.1097  1.7043 -1.5594
24924SOL     OW76384   0.403   5.605   4.468  0.0519  0.3757  0.7226
24924SOL    HW176385   0.347   5.594   4.545 -1.6145  1.2033 -0.3182
24924SOL    HW276386   0.347   5.579   4.394  1.6036 -0.3869 -0.2275
24925SOL     OW76387   8.159   1.043   9.282  0.7112  0.6716 -0.6855
24925SOL    HW176388   8.242   1.014   9.245  1.1428 -0.0396  0.7624
24925SOL    HW276389   8.179   1.128   9.322  0.8417  0.3258 -0.0084
24926SOL     OW76390   8.823   2.283   6.018 -0.4628 -0.1046 -0.1298
24926SOL    HW176391   8.899   2.317   5.970  0.6447 -0.3263  1.3567
24926SOL    HW276392   8.764   2.250   5.951  0.5350  0.5381 -1.3643
24927SOL     OW76393   2.987   0.784   4.773  0.1800 -0.1845  0.3157
24927SOL    HW176394   3.070   0.735   4.778 -1.1369 -2.5524  0.5820
24927SOL    HW276395   2.960   0.796   4.864 -0.1191 -0.0744  0.2147
24928SOL     OW76396   8.273   6.695   8.567  0.5429 -0.2123 -0.4376
24928SOL    HW176397   8.326   6.745   8.629  0.6436 -0.0613 -0.6469
24928SOL    HW276398   8.241   6.621   8.618 -1.6216  1.3210  0.5381
24929SOL     OW76399   1.235   9.449   6.492 -0.2212  0.1122 -0.2010
24929SOL    HW176400   1.231   9.354   6.506  1.9952  0.3025  2.6018
24929SOL    HW276401   1.167   9.485   6.550  0.2187  0.3157  0.1917
24930SOL     OW76402   8.972   6.465   4.261  0.3781  0.1830 -0.1121
24930SOL    HW176403   8.954   6.555   4.233  0.6665 -0.0696 -1.1836
24930SOL    HW276404   8.951   6.463   4.354  0.8280  1.4752  0.0228
24931SOL     OW76405   8.334   5.754   4.635  0.4808 -0.3399 -0.1807
24931SOL    HW176406   8.339   5.786   4.725  1.2148  0.5049 -0.5046
24931SOL    HW276407   8.240   5.742   4.619  0.2531  0.6941  0.2983
24932SOL     OW76408   9.436   4.938   3.371  0.1480 -0.2311  0.0635
24932SOL    HW176409   9.455   5.027   3.400 -1.3279  0.6548 -1.4566
24932SOL    HW276410   9.421   4.947   3.276 -2.7034 -1.5684  0.2696
24933SOL     OW76411   8.397   3.851   4.677 -0.1369  0.1974 -0.2987
24933SOL    HW176412   8.374   3.763   4.709 -1.3558  0.7949  0.5271
24933SOL    HW276413   8.325   3.906   4.705  0.5518  1.4556 -0.9385
24934SOL     OW76414   5.381   0.878   7.229  0.3134 -0.2943  0.1003
24934SOL    HW176415   5.405   0.966   7.259  0.2959 -0.8048  1.6723
24934SOL    HW276416   5.378   0.825   7.308 -1.5331 -1.2986 -0.5792
24935SOL     OW76417   3.458   1.377   4.628  0.7594 -0.2976  0.4916
24935SOL    HW176418   3.488   1.437   4.560  2.1433  0.3532  1.6170
24935SOL    HW276419   3.538   1.341   4.665  0.0324 -0.8453  1.5845
24936SOL     OW76420   8.387   2.602   0.168 -0.2086 -0.5135 -0.8809
24936SOL    HW176421   8.407   2.644   0.084 -3.2686  1.6922 -0.6971
24936SOL    HW276422   8.301   2.561   0.154 -0.3236 -0.9553  0.8752
24937SOL     OW76423   8.044   9.654   1.305  0.0884 -0.3810  0.9866
24937SOL    HW176424   8.139   9.643   1.297  0.4633  2.2365  0.8439
24937SOL    HW276425   8.007   9.570   1.277  2.3553 -1.6499  1.5854
24938SOL     OW76426   0.075   2.658   6.580 -0.1841 -0.1400 -0.2605
24938SOL    HW176427   0.136   2.731   6.596 -1.8876  1.1179  0.7790
24938SOL    HW276428   0.116   2.608   6.509  1.9604  0.7396  0.2658
24939SOL     OW76429   0.912   1.145   0.878  0.0946 -0.5752  0.0381
24939SOL    HW176430   0.907   1.197   0.799  0.8049 -0.4478  0.0775
24939SOL    HW276431   0.942   1.205   0.946 -0.6095 -0.6541  0.4389
24940SOL     OW76432   4.127   2.892   0.671 -0.2732 -0.1599  0.4394
24940SOL    HW176433   4.132   2.900   0.576 -0.8059 -3.4673  0.0159
24940SOL    HW276434   4.169   2.972   0.704 -0.1876  1.1576 -2.5234
24941SOL     OW76435   1.359   8.536   8.530  0.0518  0.0216 -0.4721
24941SOL    HW176436   1.385   8.474   8.598 -0.1535  0.5183  0.0638
24941SOL    HW276437   1.431   8.599   8.526 -0.3938  0.5673 -0.0075
24942SOL     OW76438   1.719   6.833   8.539 -0.1203  0.3199 -0.8341
24942SOL    HW176439   1.666   6.847   8.461  1.4096 -0.1093 -1.9973
24942SOL    HW276440   1.807   6.860   8.514  0.2461  1.0700  1.0625
24943SOL     OW76441   0.266   7.905   0.788 -0.0277  1.0744 -0.8079
24943SOL    HW176442   0.345   7.954   0.811  0.2387  1.0212 -1.5652
24943SOL    HW276443   0.198   7.940   0.846  0.9392 -0.2180  1.2207
24944SOL     OW76444   2.526   4.761   6.181  0.1850  0.4996 -0.5880
24944SOL    HW176445   2.448   4.709   6.199  0.4926  0.5258  0.9371
24944SOL    HW276446   2.501   4.818   6.108 -1.1086  0.2863 -0.3265
24945SOL     OW76447   1.436   7.727   7.582 -0.5030 -0.5005 -0.2217
24945SOL    HW176448   1.406   7.657   7.524  0.4358 -0.1709 -1.1448
24945SOL    HW276449   1.370   7.732   7.650 -1.0365 -1.6949 -0.6243
24946SOL     OW76450   8.054   8.455   1.243 -0.0600 -0.3574 -0.1118
24946SOL    HW176451   7.973   8.481   1.200  0.9306 -0.3551 -2.0910
24946SOL    HW276452   8.037   8.466   1.337 -1.9831  0.6228 -0.5395
24947SOL     OW76453   3.951   7.036   6.951  0.0438 -0.4100  0.0492
24947SOL    HW176454   3.877   7.090   6.922  0.5498 -0.0512 -0.6144
24947SOL    HW276455   3.986   7.000   6.870 -0.7699 -2.4162  0.5253
24948SOL     OW76456   5.648   5.879   4.196 -0.3012 -0.7074  0.5395
24948SOL    HW176457   5.607   5.793   4.204 -1.8676  0.0820  1.5534
24948SOL    HW276458   5.657   5.910   4.286  0.3727  0.1306  0.2007
24949SOL     OW76459   4.279   1.958   5.548  0.1053 -0.1275 -0.0712
24949SOL    HW176460   4.195   1.947   5.504  0.3217  0.8698 -0.7815
24949SOL    HW276461   4.318   1.871   5.547 -0.2182 -0.2869 -1.2247
24950SOL     OW76462   8.354   2.159   1.324  0.6282  1.1715 -0.6284
24950SOL    HW176463   8.287   2.113   1.375  1.9545  0.8746  0.9432
24950SOL    HW276464   8.381   2.232   1.380  2.4076  0.6118 -0.6922
24951SOL     OW76465   2.230   5.486   6.628 -0.0313  0.0016  0.1476
24951SOL    HW176466   2.318   5.468   6.594  0.5864 -0.6827  1.9877
24951SOL    HW276467   2.183   5.403   6.617 -0.1144  0.0454  0.1750
24952SOL     OW76468   7.293   5.996   9.359  0.0684 -0.3213  0.2498
24952SOL    HW176469   7.320   5.975   9.448  1.2031 -0.0782 -0.0167
24952SOL    HW276470   7.321   6.086   9.345 -0.2530 -0.2979 -0.2966
24953SOL     OW76471   5.363   0.745   6.456 -0.1176  0.8436  0.3327
24953SOL    HW176472   5.435   0.740   6.519 -0.3218 -0.8442  0.4842
24953SOL    HW276473   5.406   0.745   6.370  0.0809 -0.7926  0.4044
24954SOL     OW76474   5.634   1.118   0.080  0.5799  0.5280  0.8505
24954SOL    HW176475   5.549   1.155   0.104  0.1058 -0.4561  0.7805
24954SOL    HW276476   5.631   1.111  -0.016 -0.3479 -1.8636  0.9751
24955SOL     OW76477   2.788   4.081   2.441  0.0912  0.5283 -0.1806
24955SOL    HW176478   2.868   4.034   2.417  1.7885  2.5236  1.1520
24955SOL    HW276479   2.759   4.040   2.522  1.6859  1.7872  1.0945
24956SOL     OW76480   4.240   4.778   2.071  0.5499 -0.1065  0.0378
24956SOL    HW176481   4.276   4.849   2.018  2.0194 -0.9368 -0.1353
24956SOL    HW276482   4.149   4.770   2.042  1.1269 -0.0988 -1.8926
24957SOL     OW76483   0.726   7.930   9.200 -0.7663 -0.4152 -0.1963
24957SOL    HW176484   0.787   7.932   9.126 -0.6619  4.5417 -0.2984
24957SOL    HW276485   0.644   7.897   9.162 -0.2193  0.3073 -2.1159
24958SOL     OW76486   7.973   9.349   8.042  0.0049 -0.6681 -0.3434
24958SOL    HW176487   8.060   9.384   8.024 -0.5371  1.1239  0.2570
24958SOL    HW276488   7.942   9.316   7.958  0.5686  0.3529 -0.9737
24959SOL     OW76489   6.022   3.095   0.663  0.1186 -0.7210  0.4324
24959SOL    HW176490   5.933   3.068   0.641 -0.0808  0.9848 -1.0392
24959SOL    HW276491   6.064   3.113   0.579  0.5748  2.2743  1.1708
24960SOL     OW76492   5.818   7.317   9.428 -0.7191  0.4143 -0.2830
24960SOL    HW176493   5.861   7.402   9.424  0.5647 -0.0774  1.4440
24960SOL    HW276494   5.890   7.254   9.426 -1.3235 -0.4728  2.1324
24961SOL     OW76495   3.517   8.679   6.873 -0.0877  0.4277  0.3399
24961SOL    HW176496   3.510   8.760   6.925 -0.3782  1.0139 -0.5905
24961SOL    HW276497   3.601   8.687   6.829  0.4552 -0.3726  1.2011
24962SOL     OW76498   2.411   5.772   9.226 -0.2306 -0.4509  0.1052
24962SOL    HW176499   2.477   5.729   9.171  1.0632  0.3025  1.0288
24962SOL    HW276500   2.409   5.862   9.195 -0.1037 -0.2283  0.7334
24963SOL     OW76501   8.121   4.248   0.108  0.0402 -0.2955 -0.0876
24963SOL    HW176502   8.032   4.229   0.136 -0.3474  0.4221 -0.7618
24963SOL    HW276503   8.173   4.246   0.188 -0.4398 -1.4516  0.2153
24964SOL     OW76504   2.155   7.516   9.380  0.3418 -0.4348 -0.0942
24964SOL    HW176505   2.077   7.551   9.337  0.6177  0.4349  0.0939
24964SOL    HW276506   2.204   7.593   9.408  1.7664 -0.9345 -1.0777
24965SOL     OW76507   1.694   7.637   8.773 -0.1633 -0.0794  0.3587
24965SOL    HW176508   1.605   7.629   8.807 -0.2944  0.6782  0.2108
24965SOL    HW276509   1.732   7.549   8.783 -1.2887 -0.6862 -0.6114
24966SOL     OW76510   0.695   2.224   6.084 -0.0053  0.5925  0.3205
24966SOL    HW176511   0.725   2.315   6.079 -0.5469  0.7662  0.0692
24966SOL    HW276512   0.624   2.219   6.020 -0.1780  0.0732  0.5453
24967SOL     OW76513   1.490   6.293   5.957  0.0602 -0.0239 -0.1267
24967SOL    HW176514   1.541   6.369   5.985 -0.8631  0.9235 -0.9339
24967SOL    HW276515   1.484   6.302   5.862 -2.7329  0.6449  0.0399
24968SOL     OW76516   4.950   0.314   0.085 -0.4362  0.5532  0.0900
24968SOL    HW176517   4.983   0.395   0.047 -0.5250  0.7137  0.3562
24968SOL    HW276518   5.028   0.267   0.115 -0.0030 -1.0235 -3.0571
24969SOL     OW76519   8.882   4.564   5.393  0.4030 -0.4240 -0.3137
24969SOL    HW176520   8.835   4.516   5.325  0.6148  3.1693 -3.3002
24969SOL    HW276521   8.968   4.521   5.396  0.1597 -1.1005 -1.8555
24970SOL     OW76522   3.171   3.166   7.281  0.5318  0.2893 -0.9105
24970SOL    HW176523   3.107   3.099   7.257 -0.6081  0.7665  0.6030
24970SOL    HW276524   3.251   3.118   7.301 -0.3110 -0.6750  0.2967
24971SOL     OW76525   1.195   8.916   7.586  0.0439  0.7673 -0.1611
24971SOL    HW176526   1.248   8.994   7.603  1.0120  0.0265  0.3365
24971SOL    HW276527   1.130   8.915   7.656 -0.1710  1.2910 -0.3486
24972SOL     OW76528   3.340   9.641   9.410 -0.3369 -0.4251  0.5874
24972SOL    HW176529   3.305   9.703   9.475 -1.6677 -1.0061  0.4497
24972SOL    HW276530   3.316   9.679   9.326 -4.1482 -2.6480  0.4785
24973SOL     OW76531   3.575   6.317   5.269  0.2666 -0.6565  0.1352
24973SOL    HW176532   3.570   6.386   5.203 -1.9495  0.3188  1.2107
24973SOL    HW276533   3.568   6.236   5.219 -0.3857  0.0156 -0.9160
24974SOL     OW76534   1.148   4.734   3.621  0.2131  0.6137 -0.2725
24974SOL    HW176535   1.060   4.770   3.606 -0.4383 -0.2717  1.2011
24974SOL    HW276536   1.133   4.643   3.644  1.6237  0.1678 -1.0329
24975SOL     OW76537   4.389   2.252   0.925 -0.1305 -0.3139  0.3058
24975SOL    HW176538   4.297   2.280   0.924  0.3103  1.2662 -1.1685
24975SOL    HW276539   4.431   2.311   0.988  0.0447 -0.3801  0.2497
24976SOL     OW76540   0.605   8.510   7.155  0.1524  0.0674  0.6700
24976SOL    HW176541   0.672   8.448   7.181  0.2285  0.0308  0.3898
24976SOL    HW276542   0.626   8.590   7.203 -2.2604 -1.2342  4.2809
24977SOL     OW76543   0.690   0.084   5.024 -0.3620 -0.0578  0.0754
24977SOL    HW176544   0.655   0.022   4.960 -1.4559  1.2277 -0.6291
24977SOL    HW276545   0.782   0.093   5.000 -0.5529 -0.2462 -0.7900
24978SOL     OW76546   7.840   8.370   4.074 -0.1325 -0.1824 -0.4860
24978SOL    HW176547   7.857   8.427   4.149  2.2927 -1.1088 -0.2332
24978SOL    HW276548   7.926   8.354   4.036 -1.2375  0.0856 -3.4057
24979SOL     OW76549   0.268   5.582   6.506  0.0819 -0.7536  0.2223
24979SOL    HW176550   0.180   5.551   6.484 -0.1492 -0.1201  0.2372
24979SOL    HW276551   0.274   5.572   6.601 -0.9893  1.6927  0.6205
24980SOL     OW76552   7.713   0.806   9.161  0.5825  0.5287  0.3849
24980SOL    HW176553   7.782   0.741   9.154  1.4790  1.5542 -0.9515
24980SOL    HW276554   7.757   0.883   9.197  0.2608  1.3093 -0.8156
24981SOL     OW76555   1.917   1.954   4.298  0.0739  0.0112  0.2464
24981SOL    HW176556   1.834   1.962   4.346  0.7456 -2.7999  2.1016
24981SOL    HW276557   1.898   1.890   4.230  0.4095  0.3107 -0.1288
24982SOL     OW76558   9.837   7.093   2.235 -0.6879 -0.3513  0.0190
24982SOL    HW176559   9.830   7.145   2.155  1.0837  0.6542  0.4684
24982SOL    HW276560   9.757   7.113   2.283 -0.3960  1.4097 -0.1685
24983SOL     OW76561   1.397   7.173   0.034  0.1264 -0.7057 -0.5109
24983SOL    HW176562   1.464   7.106   0.020  0.2017 -0.2469 -2.7071
24983SOL    HW276563   1.440   7.238   0.089  0.4168 -1.9005  0.7218
24984SOL     OW76564   8.239   4.666   1.565  0.4692  0.0943 -0.0743
24984SOL    HW176565   8.159   4.619   1.538  0.2410  0.8752 -0.7836
24984SOL    HW276566   8.262   4.720   1.489  1.7925 -0.2636  0.0518
24985SOL     OW76567   5.583   3.221   5.305  0.6772  0.0243 -0.3362
24985SOL    HW176568   5.606   3.176   5.387 -1.3102 -0.9425 -0.2694
24985SOL    HW276569   5.507   3.174   5.272  0.2097  1.6665 -1.7095
24986SOL     OW76570   0.543   8.191   7.608  0.0191  0.5387 -0.3809
24986SOL    HW176571   0.468   8.170   7.553  0.3780  0.3534 -0.7992
24986SOL    HW276572   0.564   8.282   7.588  0.2049  0.4440 -0.6149
24987SOL     OW76573   4.555   3.958   9.070 -0.5039 -0.3468 -0.6479
24987SOL    HW176574   4.567   4.042   9.025  1.4355 -0.6175 -0.6979
24987SOL    HW276575   4.507   3.905   9.007  1.0753 -0.3014 -1.9628
24988SOL     OW76576   5.398   3.047   5.252  0.2429 -0.7339  0.2290
24988SOL    HW176577   5.367   3.012   5.335  0.2523 -0.5486  0.3113
24988SOL    HW276578   5.358   2.992   5.185  1.2058 -1.6617  0.3974
24989SOL     OW76579   5.347   7.500   0.530 -0.3169  1.0521  0.0155
24989SOL    HW176580   5.375   7.589   0.509 -2.3092  1.2541 -2.1700
24989SOL    HW276581   5.331   7.502   0.625 -1.0952  3.2633 -0.1011
24990SOL     OW76582   1.718   2.164   7.356 -0.3000  0.0550  0.5111
24990SOL    HW176583   1.758   2.231   7.301  0.0616 -1.0591 -0.6533
24990SOL    HW276584   1.629   2.196   7.371 -0.7507 -0.0113 -1.5815
24991SOL     OW76585   6.128   4.940   9.076  0.0434 -0.3050  0.1761
24991SOL    HW176586   6.222   4.923   9.068 -0.0592 -0.9118  0.1925
24991SOL    HW276587   6.088   4.853   9.082 -0.6091 -0.1102 -0.8871
24992SOL     OW76588   6.177   3.238   8.947 -0.5130  0.1323  1.1168
24992SOL    HW176589   6.117   3.309   8.969  0.7180  2.1862 -1.5411
24992SOL    HW276590   6.124   3.177   8.896 -0.4056  2.1726 -1.6403
24993SOL     OW76591   7.796   7.915   2.324 -0.0681 -0.2083 -0.1492
24993SOL    HW176592   7.829   7.985   2.381  1.0748  0.5972 -1.7328
24993SOL    HW276593   7.723   7.956   2.278  0.1928 -0.2622 -0.6106
24994SOL     OW76594   8.474   5.371   2.378  0.3552 -0.2943 -0.0215
24994SOL    HW176595   8.524   5.317   2.317 -0.4968 -0.9813 -0.1337
24994SOL    HW276596   8.513   5.458   2.371 -0.3998 -0.0776 -2.3574
24995SOL     OW76597   8.657   0.727   5.925 -0.5058  0.4945 -0.0819
24995SOL    HW176598   8.740   0.729   5.972 -1.3950 -0.0346  1.6105
24995SOL    HW276599   8.669   0.658   5.859 -0.1863 -0.9425  1.3962
24996SOL     OW76600   6.755   4.671   0.565 -0.4804 -0.2706 -0.0969
24996SOL    HW176601   6.805   4.594   0.538 -0.1045  0.0826 -0.4322
24996SOL    HW276602   6.774   4.681   0.658  1.4852  0.8554 -0.5594
24997SOL     OW76603   7.787   6.117   4.260  0.1267  0.0964 -0.4378
24997SOL    HW176604   7.726   6.110   4.333  0.0931  0.5042 -0.4269
24997SOL    HW276605   7.848   6.186   4.285  0.6758 -0.3919 -0.3938
24998SOL     OW76606   7.108   5.036   4.874  0.1311  0.0849 -0.2871
24998SOL    HW176607   7.103   5.091   4.952  0.1932  0.5934 -0.6435
24998SOL    HW276608   7.133   4.950   4.908 -0.0876  0.2387  0.2826
24999SOL     OW76609   2.015   2.695   3.820 -0.4339 -0.4762  0.2125
24999SOL    HW176610   2.066   2.711   3.741 -1.6580 -1.2982 -0.7916
24999SOL    HW276611   2.079   2.668   3.886  0.6370  0.5099 -0.4071
25000SOL     OW76612   0.941   8.128   7.984 -0.2854 -0.1419  0.0673
25000SOL    HW176613   1.036   8.114   7.986 -0.4965 -1.8351  2.1712
25000SOL    HW276614   0.905   8.042   7.962 -1.3410  0.8122 -2.1871
25001SOL     OW76615   7.457   3.441   8.077 -0.2205  0.0989 -0.5085
25001SOL    HW176616   7.547   3.434   8.109  0.0550 -1.0463 -1.4631
25001SOL    HW276617   7.449   3.533   8.049  0.2370  0.5243  0.7049
25002SOL     OW76618   0.126   4.580   3.811 -0.3611  0.0030 -0.0228
25002SOL    HW176619   0.055   4.546   3.866 -0.3076 -1.2382 -0.6795
25002SOL    HW276620   0.083   4.620   3.737 -0.3943 -0.7592 -0.4260
25003SOL     OW76621   0.401   7.205   2.315 -0.3729  0.2627 -0.3663
25003SOL    HW176622   0.468   7.210   2.383 -2.1908 -1.3358  1.7033
25003SOL    HW276623   0.398   7.113   2.290 -2.6313 -0.0053  0.6149
25004SOL     OW76624   4.409   2.452   8.735 -0.0666 -0.3710 -0.7794
25004SOL    HW176625   4.394   2.358   8.749  2.4189 -0.6459  0.7083
25004SOL    HW276626   4.323   2.492   8.746 -0.9357 -2.3289  0.0414
25005SOL     OW76627   3.514   1.519   5.425 -0.2677 -0.5549  0.2562
25005SOL    HW176628   3.421   1.515   5.401  0.1844 -1.0088 -1.5707
25005SOL    HW276629   3.514   1.535   5.520 -2.2277 -3.8448  0.9694
25006SOL     OW76630   9.360   6.480   7.629  0.5292  0.1986 -0.3899
25006SOL    HW176631   9.378   6.388   7.610  2.2590  0.2995  0.5746
25006SOL    HW276632   9.416   6.529   7.569 -0.4111  0.6660 -0.9274
25007SOL     OW76633   2.001   5.522   5.793 -0.4059  0.2870  0.3032
25007SOL    HW176634   2.036   5.499   5.707  1.2878 -0.2218  1.0751
25007SOL    HW276635   1.949   5.601   5.777 -0.8537 -0.2900 -1.3099
25008SOL     OW76636   0.314   1.892   3.884 -0.4148 -0.2286 -0.3798
25008SOL    HW176637   0.355   1.922   3.802 -1.3535  2.4616  0.0312
25008SOL    HW276638   0.386   1.854   3.934  0.2051 -1.8322 -2.3541
25009SOL     OW76639   8.004   6.213   7.489 -0.1247 -0.4462  0.1128
25009SOL    HW176640   8.032   6.121   7.486  1.6745  0.0654 -0.2317
25009SOL    HW276641   7.964   6.229   7.403  1.1730 -0.4724 -0.5261
25010SOL     OW76642   2.923   3.177   9.624 -0.3818  0.3882 -0.7764
25010SOL    HW176643   2.850   3.153   9.681 -0.2845  0.7882 -0.4820
25010SOL    HW276644   2.919   3.113   9.553 -1.0307  0.4225 -0.7750
25011SOL     OW76645   6.229   9.252   3.748  0.2921 -0.2338  0.2038
25011SOL    HW176646   6.321   9.250   3.722  0.2339 -0.2475  0.0020
25011SOL    HW276647   6.231   9.247   3.844  0.4629 -1.0979  0.1566
25012SOL     OW76648   3.657   3.498   6.559  0.1698 -0.5707 -0.0832
25012SOL    HW176649   3.591   3.503   6.489 -0.3981 -3.8959  0.0291
25012SOL    HW276650   3.740   3.506   6.513 -0.2246  0.2807 -0.6973
25013SOL     OW76651   9.409   8.535   9.814  0.1012  0.0949  0.6073
25013SOL    HW176652   9.439   8.518   9.725  2.5129 -1.3181  1.5663
25013SOL    HW276653   9.361   8.457   9.839 -1.2125  0.7972  0.3284
25014SOL     OW76654   0.635   3.297   6.510  0.0574 -0.1232  0.1079
25014SOL    HW176655   0.592   3.231   6.564 -1.5189 -1.3191 -2.4374
25014SOL    HW276656   0.728   3.278   6.518 -0.2987 -1.8866  0.3841
25015SOL     OW76657   0.343   5.720   0.867 -0.1105 -0.4003  0.3070
25015SOL    HW176658   0.337   5.780   0.941  1.8782  0.6506 -0.2862
25015SOL    HW276659   0.285   5.757   0.801 -0.5786 -0.3833  0.7254
25016SOL     OW76660   0.666   5.357   1.360  0.1434  0.0321 -0.3301
25016SOL    HW176661   0.604   5.354   1.288  0.2545  2.5671 -0.6097
25016SOL    HW276662   0.749   5.382   1.320  0.5508  0.0410  0.4926
25017SOL     OW76663   8.018   6.014   6.172 -0.0962 -0.2630  0.1620
25017SOL    HW176664   8.030   5.957   6.097  0.9397  0.1911 -0.0323
25017SOL    HW276665   8.023   5.956   6.248  1.0108 -0.4270 -0.0305
25018SOL     OW76666   7.865   0.920   8.051  0.1629 -0.6630  0.3354
25018SOL    HW176667   7.811   0.861   7.999  0.2708 -1.0628  0.6766
25018SOL    HW276668   7.922   0.963   7.988 -1.4791  0.8067 -0.2420
25019SOL     OW76669   5.541   1.203   2.032 -0.3893  0.2798 -0.1673
25019SOL    HW176670   5.618   1.147   2.027  0.1634  1.0741 -0.8279
25019SOL    HW276671   5.504   1.185   2.118 -0.8309 -1.8454 -0.7465
25020SOL     OW76672   7.304   0.054   7.523  0.2237  0.3777  0.1789
25020SOL    HW176673   7.241  -0.016   7.505  0.6117  0.3175 -1.0415
25020SOL    HW276674   7.251   0.126   7.557 -0.6342  0.5967 -1.5136
25021SOL     OW76675   8.522   6.805   5.544  0.1558 -0.4818 -0.4707
25021SOL    HW176676   8.563   6.891   5.539  0.0644 -0.4552 -0.8159
25021SOL    HW276677   8.456   6.806   5.474 -2.1921  0.4057  1.5787
25022SOL     OW76678   5.141   2.273   6.536 -0.0954 -0.1565 -0.5180
25022SOL    HW176679   5.049   2.285   6.512 -0.5731 -1.6329  0.3994
25022SOL    HW276680   5.143   2.187   6.577  1.7757 -0.2842 -0.8125
25023SOL     OW76681   2.047   3.301   2.839 -0.5606 -0.3498 -0.3444
25023SOL    HW176682   2.136   3.285   2.870 -1.2558 -1.4698  1.2215
25023SOL    HW276683   2.054   3.381   2.787  1.2902 -0.2395 -0.0172
25024SOL     OW76684   5.634   2.183   3.053  0.1162 -0.5644 -0.1870
25024SOL    HW176685   5.640   2.095   3.090 -0.2360 -0.6920 -0.4256
25024SOL    HW276686   5.597   2.170   2.965  1.4584 -0.3176 -0.8076
25025SOL     OW76687   7.977   8.176   3.213  0.5392 -0.5724 -0.1274
25025SOL    HW176688   7.921   8.254   3.206  0.4963 -0.7254 -2.1144
25025SOL    HW276689   7.915   8.103   3.208  0.7417 -0.7356 -0.2148
25026SOL     OW76690   8.113   2.346   3.635 -0.4000  0.4494 -0.3416
25026SOL    HW176691   8.197   2.391   3.626 -0.9971  1.1420 -3.2987
25026SOL    HW276692   8.052   2.414   3.663 -0.0027 -0.1610  2.3540
25027SOL     OW76693   9.041   0.591   2.060 -0.0667  0.0268  0.1724
25027SOL    HW176694   9.113   0.528   2.053 -0.6883 -0.6483 -0.2215
25027SOL    HW276695   9.035   0.630   1.973  1.2382  1.6882  0.7725
25028SOL     OW76696   6.186   6.809   0.099 -0.2969 -0.0956  0.1895
25028SOL    HW176697   6.221   6.778   0.182 -2.8355 -2.1310  0.6497
25028SOL    HW276698   6.159   6.729   0.054 -2.2804  1.1582 -0.9936
25029SOL     OW76699   6.616   0.530   3.820 -0.1151 -0.1688  0.2595
25029SOL    HW176700   6.636   0.512   3.728  1.4439 -1.0402  0.7511
25029SOL    HW276701   6.651   0.455   3.868 -3.9223 -1.5216  1.3279
25030SOL     OW76702   0.672   7.956   7.045  0.4593 -0.1128 -0.9203
25030SOL    HW176703   0.765   7.973   7.062 -0.2210  3.2981  0.0462
25030SOL    HW276704   0.659   7.866   7.075  3.8343 -1.5638 -3.1380
25031SOL     OW76705   9.622   0.449   3.186 -0.1198  0.2122 -0.1331
25031SOL    HW176706   9.526   0.447   3.186 -0.1332 -0.4076 -1.3466
25031SOL    HW276707   9.648   0.371   3.235 -0.2473 -0.0410 -0.4646
25032SOL     OW76708   2.404   9.655   7.932 -0.3568  0.4032 -0.3170
25032SOL    HW176709   2.333   9.599   7.964 -0.2372  1.1155  1.2814
25032SOL    HW276710   2.362   9.714   7.869 -0.6581 -0.8332 -1.3189
25033SOL     OW76711   0.582   0.898   5.916  0.0370 -0.4869 -0.0010
25033SOL    HW176712   0.595   0.993   5.922  0.7979 -0.4788 -1.4211
25033SOL    HW276713   0.643   0.870   5.848  0.4248 -2.1312  0.9716
25034SOL     OW76714   2.344   9.292   7.186 -0.5784  0.3385  0.1036
25034SOL    HW176715   2.274   9.353   7.165 -2.0402 -0.8656  1.3089
25034SOL    HW276716   2.300   9.211   7.211  1.2359 -0.4527  0.9721
25035SOL     OW76717   7.612   6.669   9.636  0.0372  0.7379 -0.3892
25035SOL    HW176718   7.641   6.732   9.702 -1.3024 -0.0150  0.9851
25035SOL    HW276719   7.532   6.707   9.600 -1.1073 -0.3359  0.8528
25036SOL     OW76720   0.546   6.830   4.383  0.2921  0.1995  1.0075
25036SOL    HW176721   0.617   6.767   4.395  0.1658 -0.8350 -2.4794
25036SOL    HW276722   0.467   6.776   4.374 -0.4940  1.1529  1.9274
25037SOL     OW76723   6.990   1.023   3.331 -0.5078 -0.4947  0.1320
25037SOL    HW176724   6.988   1.100   3.388 -1.1952  0.4208 -1.0421
25037SOL    HW276725   6.898   0.996   3.324 -0.4156 -0.6977 -0.3771
25038SOL     OW76726   3.689   2.433   8.240 -0.5099  0.5145  0.4005
25038SOL    HW176727   3.737   2.351   8.230 -0.0995  0.8953 -1.0123
25038SOL    HW276728   3.597   2.409   8.230 -0.5401 -0.0203  1.7759
25039SOL     OW76729   3.057   3.997   1.713  0.4726  0.2573 -0.1933
25039SOL    HW176730   3.129   4.059   1.704  2.2571 -1.5039  1.1427
25039SOL    HW276731   3.084   3.921   1.661 -1.3222  0.2549 -1.1978
25040SOL     OW76732   7.784   1.212   1.347 -0.2050  0.2137  0.8352
25040SOL    HW176733   7.819   1.243   1.263  0.1272 -0.9339  0.5308
25040SOL    HW276734   7.745   1.127   1.327 -2.7737  1.2139  1.2744
25041SOL     OW76735   6.955   3.441   7.324  0.2615 -0.0360 -0.5454
25041SOL    HW176736   6.873   3.487   7.341  0.4284 -0.0611  0.4181
25041SOL    HW276737   7.020   3.511   7.316  0.3423 -0.0580 -0.1073
25042SOL     OW76738   3.047   8.769   7.017 -0.0088  0.1266  0.2098
25042SOL    HW176739   3.117   8.751   6.954 -0.6347 -1.2197 -0.1230
25042SOL    HW276740   2.975   8.802   6.964 -0.1952 -0.0621  0.3455
25043SOL     OW76741   5.156   8.776   9.585 -0.2397  0.1101 -0.2021
25043SOL    HW176742   5.242   8.806   9.615  0.3050 -0.2621 -1.3240
25043SOL    HW276743   5.150   8.809   9.495 -1.1718 -0.0676 -0.2083
25044SOL     OW76744   0.752   1.333   5.405  0.0929 -0.5672  0.2334
25044SOL    HW176745   0.756   1.281   5.486 -1.2389 -1.4088 -0.2193
25044SOL    HW276746   0.700   1.280   5.345  0.7104  0.2395 -1.0504
25045SOL     OW76747   4.891   6.995   7.423  0.2958 -0.7054 -0.0477
25045SOL    HW176748   4.952   7.024   7.491  1.4203  1.0701 -1.6923
25045SOL    HW276749   4.883   6.900   7.436  0.0001 -0.3628  2.8424
25046SOL     OW76750   7.939   4.173   5.443  0.3652  0.1818  0.0602
25046SOL    HW176751   7.866   4.191   5.503 -0.3054 -1.3819 -0.2221
25046SOL    HW276752   7.897   4.154   5.360  1.1336 -0.1860 -0.2507
25047SOL     OW76753   6.950   5.573   4.990 -0.0393 -0.3327  0.3175
25047SOL    HW176754   6.998   5.490   4.982 -2.2930 -1.8224  1.2905
25047SOL    HW276755   6.913   5.571   5.078 -1.8264  0.7496 -0.3509
25048SOL     OW76756   9.000   6.818   0.818  0.0104 -0.1101  0.1094
25048SOL    HW176757   8.941   6.747   0.793 -1.5438  1.3021 -0.4005
25048SOL    HW276758   8.971   6.844   0.905 -2.9164  3.1736 -1.5898
25049SOL     OW76759   1.361   3.290   6.760 -0.0934  0.4459  0.2522
25049SOL    HW176760   1.312   3.309   6.840  1.7417  0.2894  1.4721
25049SOL    HW276761   1.448   3.265   6.791 -0.1628 -2.6055 -1.6247
25050SOL     OW76762   0.945   3.010   8.148  0.7133  0.1207  0.4464
25050SOL    HW176763   1.022   2.978   8.101 -0.6526 -0.9690 -1.1861
25050SOL    HW276764   0.879   3.023   8.079 -0.6400  0.7679  1.8157
25051SOL     OW76765   8.468   2.325   1.003  0.2535 -0.7918  0.1625
25051SOL    HW176766   8.429   2.248   0.961 -0.9907 -0.1268  0.0585
25051SOL    HW276767   8.393   2.378   1.030  0.9882 -1.1269  3.1583
25052SOL     OW76768   7.561   3.089   6.409 -0.6399 -1.2744 -0.3158
25052SOL    HW176769   7.590   3.162   6.355 -2.6696  0.4896  0.7987
25052SOL    HW276770   7.594   3.011   6.365  1.4419  0.2799 -1.6744
25053SOL     OW76771   8.465   1.494   1.559 -0.5608  0.2710  0.3237
25053SOL    HW176772   8.383   1.521   1.600 -0.3360  0.7958  0.4320
25053SOL    HW276773   8.484   1.564   1.496 -0.3081  0.0426  0.1455
25054SOL     OW76774   8.844   7.270   5.346  0.1350  0.4296 -0.4635
25054SOL    HW176775   8.869   7.178   5.335 -1.3821 -0.4320  2.2528
25054SOL    HW276776   8.748   7.269   5.342  0.1294  2.1226 -1.5732
25055SOL     OW76777   5.361   0.927   4.145 -0.2387  0.0200 -0.4870
25055SOL    HW176778   5.312   0.871   4.205 -1.1928  1.3214  0.0213
25055SOL    HW276779   5.443   0.945   4.190 -0.6947  0.4850  0.1945
25056SOL     OW76780   1.157   9.664   2.066  0.2886  0.0374  0.2936
25056SOL    HW176781   1.115   9.580   2.049 -0.5790  0.7389 -1.1943
25056SOL    HW276782   1.207   9.682   1.985  0.8487  0.7377  0.7836
25057SOL     OW76783   4.289   5.508   3.684  0.3043  0.3139 -0.2948
25057SOL    HW176784   4.349   5.565   3.635  0.4952  1.1242  0.8604
25057SOL    HW276785   4.307   5.527   3.776  0.7320 -1.9910  0.1514
25058SOL     OW76786   9.570   4.325   7.906 -0.1293  0.6416  0.1369
25058SOL    HW176787   9.500   4.372   7.861  0.2449  0.2363 -0.8995
25058SOL    HW276788   9.638   4.314   7.839  1.2589  1.7088  1.3083
25059SOL     OW76789   4.580   9.605   8.211  1.0016  0.6915 -0.0278
25059SOL    HW176790   4.551   9.517   8.190 -1.4659  1.7240 -1.3737
25059SOL    HW276791   4.548   9.659   8.139  1.1240  2.9109  1.4767
25060SOL     OW76792   4.097   2.177   3.075  0.1502 -0.3996  0.3619
25060SOL    HW176793   4.044   2.255   3.057  1.3144  0.1767 -0.7063
25060SOL    HW276794   4.172   2.210   3.124 -0.5892 -1.2646  2.1977
25061SOL     OW76795   5.266   8.291   2.683  0.0244 -0.1750 -0.5825
25061SOL    HW176796   5.218   8.350   2.624 -1.5168 -0.9401 -0.1138
25061SOL    HW276797   5.219   8.208   2.679  1.9482 -1.3244 -0.9435
25062SOL     OW76798   1.559   4.790   5.195  0.0074  0.9357 -0.1824
25062SOL    HW176799   1.650   4.761   5.185 -0.0906  0.8923 -1.0614
25062SOL    HW276800   1.508   4.709   5.194  0.1116  0.6920  3.1387
25063SOL     OW76801   9.565   8.546   0.217  0.2073  0.0230 -0.1885
25063SOL    HW176802   9.508   8.582   0.284  1.7140  0.3610  0.9647
25063SOL    HW276803   9.505   8.517   0.147 -1.4411 -0.7307  1.4538
25064SOL     OW76804   2.571   0.299   4.078 -0.0762 -0.0247  0.0529
25064SOL    HW176805   2.492   0.353   4.069  0.3879  0.3840 -2.0974
25064SOL    HW276806   2.556   0.248   4.157 -1.6897  1.3582  0.7062
25065SOL     OW76807   8.245   1.512   1.736 -0.2730  0.2490  0.0568
25065SOL    HW176808   8.200   1.596   1.743 -0.7322  0.3597 -2.8850
25065SOL    HW276809   8.190   1.460   1.677  0.7207 -1.6284  0.6858
25066SOL     OW76810   1.358   4.883   8.042  0.0058  0.3869  0.5049
25066SOL    HW176811   1.397   4.842   8.119 -0.1928  1.3399  1.1336
25066SOL    HW276812   1.362   4.816   7.974  0.5092 -0.3488  1.2441
25067SOL     OW76813   1.252   8.897   5.577 -0.6370 -0.3681  0.0375
25067SOL    HW176814   1.189   8.897   5.506 -0.7192 -1.9809  0.0654
25067SOL    HW276815   1.275   8.805   5.588  2.4299  0.2168 -0.5858
25068SOL     OW76816   9.436   8.438   8.836  0.1757  0.0797 -0.6222
25068SOL    HW176817   9.430   8.416   8.743 -2.0471 -0.3750 -0.4250
25068SOL    HW276818   9.399   8.526   8.842 -0.2100 -0.1152 -0.1029
25069SOL     OW76819   0.767   6.888   5.306 -0.7086  0.0256  0.1353
25069SOL    HW176820   0.690   6.880   5.362 -2.4998 -1.0211 -2.2700
25069SOL    HW276821   0.802   6.975   5.323 -4.3595  1.8672 -0.8863
25070SOL     OW76822   2.898   7.420   5.755  0.1523  0.5763 -0.1763
25070SOL    HW176823   2.870   7.384   5.671  0.1084 -1.0899  0.5069
25070SOL    HW276824   2.818   7.452   5.796 -0.1937 -0.6416  0.1412
25071SOL     OW76825   4.365   9.238   2.314 -0.1316  0.0437  0.7787
25071SOL    HW176826   4.304   9.174   2.350 -2.5640  1.2891 -0.8159
25071SOL    HW276827   4.385   9.296   2.387 -1.1804 -0.2005  1.2773
25072SOL     OW76828   5.233   5.178   8.011 -0.0199  0.3579 -0.2672
25072SOL    HW176829   5.255   5.146   7.923 -0.4370 -1.0395  0.1251
25072SOL    HW276830   5.147   5.142   8.029  1.6487 -2.8155  2.3262
25073SOL     OW76831   6.764   0.088   7.276 -0.3639  0.2395  0.1136
25073SOL    HW176832   6.755   0.032   7.199 -0.6511  1.1795 -0.5564
25073SOL    HW276833   6.679   0.132   7.284  0.2847  1.5952 -0.1889
25074SOL     OW76834   3.824   9.753   1.162  0.0322 -0.3357  0.0772
25074SOL    HW176835   3.907   9.715   1.135 -0.0530 -0.3426 -0.1744
25074SOL    HW276836   3.849   9.831   1.213  0.1854  0.5285 -1.2504
25075SOL     OW76837   5.150   8.840   1.380  0.0165  0.0895 -0.1464
25075SOL    HW176838   5.076   8.900   1.390 -1.1445 -0.9421 -1.9686
25075SOL    HW276839   5.149   8.787   1.460 -0.2400  1.0845  0.5310
25076SOL     OW76840   4.031   9.488   6.006 -0.5113 -0.0483 -0.6041
25076SOL    HW176841   4.100   9.545   5.972 -0.5689 -0.0555 -0.7338
25076SOL    HW276842   4.073   9.438   6.076 -0.0673 -0.8975 -1.4610
25077SOL     OW76843   6.548   8.866   4.934  0.0982  0.3820  0.2180
25077SOL    HW176844   6.510   8.857   4.847 -0.4469 -0.5618  0.5399
25077SOL    HW276845   6.518   8.951   4.965  0.8133  1.0163 -0.7438
25078SOL     OW76846   1.483   1.429   4.003 -0.0568  0.5765  0.1563
25078SOL    HW176847   1.449   1.518   3.991  0.3604  0.7454  0.2091
25078SOL    HW276848   1.550   1.420   3.935 -0.0474  0.3285  0.1984
25079SOL     OW76849   4.564   7.388   8.152 -0.1723 -0.0050  0.0133
25079SOL    HW176850   4.618   7.370   8.075  0.2641 -1.4645  0.6394
25079SOL    HW276851   4.515   7.467   8.128  1.6338  0.9145 -0.8759
25080SOL     OW76852   1.374   0.274   0.245 -0.0283 -0.1727 -0.0109
25080SOL    HW176853   1.405   0.238   0.328  0.3676  2.9147  1.2999
25080SOL    HW276854   1.452   0.277   0.190  0.4095  0.6919  0.6441
25081SOL     OW76855   7.531   3.579   4.100  0.0424 -0.2010  0.0241
25081SOL    HW176856   7.436   3.578   4.089 -0.0737  1.6932  0.5875
25081SOL    HW276857   7.565   3.553   4.014 -0.9830  0.1385 -0.4973
25082SOL     OW76858   5.455   3.698   7.563 -0.3063 -0.0798  0.4344
25082SOL    HW176859   5.523   3.685   7.629  2.1335  1.4949 -1.5524
25082SOL    HW276860   5.383   3.642   7.591  3.0357 -4.7228  0.8797
25083SOL     OW76861   1.583   3.763   2.811 -0.2538  0.1745  0.0041
25083SOL    HW176862   1.552   3.815   2.885 -0.4753 -0.2917  0.2403
25083SOL    HW276863   1.663   3.807   2.782 -0.9994  1.2754 -0.4769
25084SOL     OW76864   8.994   8.235   1.690  0.7007 -0.2037  0.2984
25084SOL    HW176865   8.966   8.265   1.604  0.5346 -1.3837 -0.0633
25084SOL    HW276866   8.921   8.255   1.748  0.5596  0.0160  0.0457
25085SOL     OW76867   7.194   5.778   8.739  0.1605  0.5490 -0.3720
25085SOL    HW176868   7.104   5.776   8.771  0.4878 -1.3032  0.5395
25085SOL    HW276869   7.192   5.840   8.666 -1.8887  0.3895 -0.4985
25086SOL     OW76870   0.877   6.283   5.136 -0.3077  0.1478  0.2479
25086SOL    HW176871   0.927   6.330   5.069  1.9281 -0.0481  1.6785
25086SOL    HW276872   0.822   6.351   5.176  0.5873  0.9099  0.2207
25087SOL     OW76873   5.001   0.746   4.943  0.3470  0.1780 -0.6615
25087SOL    HW176874   4.998   0.834   4.906  2.0046  0.2764 -0.6202
25087SOL    HW276875   4.942   0.749   5.018  0.4221  1.2643 -0.6378
25088SOL     OW76876   6.034   1.499   5.785  0.0809  0.3625  0.2222
25088SOL    HW176877   6.055   1.444   5.710 -0.2675  0.5880 -0.0456
25088SOL    HW276878   5.945   1.473   5.810  0.1433  0.3852  0.4717
25089SOL     OW76879   3.800   3.152   7.854  0.2528 -0.3517  0.8056
25089SOL    HW176880   3.726   3.094   7.875 -0.4647  0.1413 -0.2840
25089SOL    HW276881   3.788   3.228   7.911  0.6311 -0.8184  1.5209
25090SOL     OW76882   4.534   2.527   7.279  0.2080 -0.1123  0.0810
25090SOL    HW176883   4.515   2.437   7.306  0.0501  0.1553  0.9073
25090SOL    HW276884   4.500   2.581   7.351  1.7501  0.5138  0.3780
25091SOL     OW76885   0.611   1.649   3.178  0.4620 -0.2627 -0.7333
25091SOL    HW176886   0.655   1.576   3.222  3.6803  1.0209 -1.5514
25091SOL    HW276887   0.610   1.625   3.085 -0.0535 -0.0105 -0.7976
25092SOL     OW76888   0.989   4.641   5.371 -0.6711 -0.2376  0.6636
25092SOL    HW176889   1.012   4.584   5.445 -0.8824 -0.6463  0.4234
25092SOL    HW276890   0.910   4.687   5.400 -0.2224  0.3022  1.0450
25093SOL     OW76891   4.504   7.910   9.497 -0.4565 -0.7086  0.1487
25093SOL    HW176892   4.530   8.000   9.479  1.0889 -1.0918  0.2790
25093SOL    HW276893   4.494   7.870   9.411  0.0417 -0.7051  0.0824
25094SOL     OW76894   3.007   1.435   5.390  0.0507 -0.1074  0.5659
25094SOL    HW176895   3.000   1.355   5.441 -0.9150 -1.0167 -0.9435
25094SOL    HW276896   2.939   1.492   5.426  1.4515  0.5271  2.3843
25095SOL     OW76897   8.012   0.671   4.559  0.3636  0.3648 -0.1052
25095SOL    HW176898   7.995   0.610   4.487  2.6338 -0.7145  0.2021
25095SOL    HW276899   8.035   0.754   4.516 -2.1450  0.9347 -0.5224
25096SOL     OW76900   2.026   1.831   6.849  0.3373 -0.1530 -0.2286
25096SOL    HW176901   1.987   1.876   6.773 -0.5665 -1.1063 -0.3532
25096SOL    HW276902   1.964   1.848   6.920  0.6597 -0.1232  0.0459
25097SOL     OW76903   6.261   3.107   3.105  0.3992 -0.0594 -0.2089
25097SOL    HW176904   6.216   3.188   3.081  0.3518 -0.0977 -0.2502
25097SOL    HW276905   6.259   3.055   3.025  2.5967  0.8868 -0.9626
25098SOL     OW76906   2.990   8.263   6.736 -0.1692 -0.5310 -0.1282
25098SOL    HW176907   3.068   8.314   6.758 -0.1653 -0.2614 -0.7477
25098SOL    HW276908   3.023   8.185   6.692 -0.2908  0.1110 -1.3932
25099SOL     OW76909   8.695   3.967   1.088  0.4984 -0.0711 -0.4757
25099SOL    HW176910   8.716   3.900   1.023  0.1446 -0.4801 -0.1648
25099SOL    HW276911   8.620   3.933   1.136  2.1006 -0.7945  1.6431
25100SOL     OW76912   5.680   9.207   1.998  0.3064  0.3548  0.2362
25100SOL    HW176913   5.594   9.229   2.034  0.3839 -1.1234  1.4273
25100SOL    HW276914   5.665   9.195   1.904 -0.6307  0.8071  0.3187
25101SOL     OW76915   8.441   4.128   8.660  0.1158 -0.2321  0.2535
25101SOL    HW176916   8.366   4.070   8.676 -1.0099  0.7883 -1.0839
25101SOL    HW276917   8.411   4.214   8.689  1.0814  0.0377  0.4672
25102SOL     OW76918   8.801   1.701   1.753 -0.5241  0.2235  0.1875
25102SOL    HW176919   8.799   1.670   1.662  0.5297 -1.3860  0.6758
25102SOL    HW276920   8.877   1.759   1.757 -1.8474  2.1379 -0.4430
25103SOL     OW76921   7.463   0.760   8.428  0.5361 -0.4819  0.0903
25103SOL    HW176922   7.507   0.822   8.370  0.8626  0.4178  1.2722
25103SOL    HW276923   7.371   0.787   8.426  0.8423  0.7875  1.4595
25104SOL     OW76924   2.142   9.386   6.834 -0.2625 -0.4463 -0.2932
25104SOL    HW176925   2.081   9.329   6.787 -1.8135  0.0710  0.9992
25104SOL    HW276926   2.120   9.474   6.807  1.2478 -0.3373 -1.2771
25105SOL     OW76927   8.164   4.841   3.829 -0.1331  0.1768  0.4814
25105SOL    HW176928   8.219   4.828   3.752 -2.1833 -1.3327 -0.8571
25105SOL    HW276929   8.167   4.935   3.846 -2.2808  1.2655 -3.6828
25106SOL     OW76930   9.039   7.419   0.055  0.1495  0.1672 -0.0610
25106SOL    HW176931   9.004   7.438   0.142 -0.3393  0.8528 -0.3956
25106SOL    HW276932   9.129   7.449   0.057 -0.3408  1.7524 -0.2938
25107SOL     OW76933   5.039   8.514   9.093  0.1942 -0.3355  0.0011
25107SOL    HW176934   4.950   8.486   9.073  0.7052 -1.8266 -0.3838
25107SOL    HW276935   5.054   8.590   9.038 -0.2519 -1.1501 -1.2844
25108SOL     OW76936   7.724   0.845   9.514 -0.2920 -0.1480  0.5938
25108SOL    HW176937   7.631   0.865   9.503 -0.5017 -1.5885 -0.6286
25108SOL    HW276938   7.753   0.900   9.587 -2.0149  0.5705  0.7657
25109SOL     OW76939   2.329   3.645   8.470 -0.1722 -0.2708  0.0395
25109SOL    HW176940   2.364   3.703   8.402 -1.5071  3.3632  2.1475
25109SOL    HW276941   2.251   3.606   8.431 -0.3713  0.9740 -0.8758
25110SOL     OW76942   4.094   5.508   9.406  0.2845  0.5228  0.0110
25110SOL    HW176943   4.036   5.581   9.425 -0.0042  0.3430 -0.1646
25110SOL    HW276944   4.037   5.431   9.405  0.4191  0.4199 -0.7569
25111SOL     OW76945   4.057   8.014   4.078  0.1067  0.8413  0.3147
25111SOL    HW176946   4.052   7.925   4.044  0.5362  0.7738  0.4202
25111SOL    HW276947   4.145   8.020   4.117  0.0991  1.3245  0.2622
25112SOL     OW76948   5.458   4.921   0.990  0.0979 -0.0712  0.1768
25112SOL    HW176949   5.504   4.992   0.946 -0.5359  0.0958 -0.2384
25112SOL    HW276950   5.365   4.940   0.974 -0.1022 -0.5498  0.7534
25113SOL     OW76951   2.462   9.527   1.667 -0.3198 -0.0747  0.0291
25113SOL    HW176952   2.510   9.589   1.612 -0.8129  0.3559  0.0850
25113SOL    HW276953   2.415   9.582   1.730 -2.6863 -0.3270 -1.4137
25114SOL     OW76954   7.817   4.564   4.216  0.5607  0.5352  0.5499
25114SOL    HW176955   7.760   4.488   4.207 -1.1277  1.7714  0.2858
25114SOL    HW276956   7.898   4.529   4.254 -0.5738 -1.1954  1.5250
25115SOL     OW76957   2.331   9.319   8.939 -0.2687  0.0566  0.0178
25115SOL    HW176958   2.396   9.310   8.869 -1.4532  1.8329 -1.4205
25115SOL    HW276959   2.285   9.235   8.940  1.6651 -1.0587  0.7505
25116SOL     OW76960   5.454   8.016   5.308  0.8117 -0.7473 -0.1197
25116SOL    HW176961   5.469   7.933   5.264  2.5891 -1.1992  1.2146
25116SOL    HW276962   5.376   8.053   5.265  0.5052 -2.6654 -1.3161
25117SOL     OW76963   4.621   7.370   3.605  0.1089 -0.4576 -0.2875
25117SOL    HW176964   4.538   7.407   3.577  0.2372 -0.4396 -0.6510
25117SOL    HW276965   4.626   7.285   3.562 -0.8741 -1.5973  1.7283
25118SOL     OW76966   6.209   9.166   0.194 -0.3360  0.4923  0.4012
25118SOL    HW176967   6.154   9.239   0.223 -0.0120  0.9727 -0.1586
25118SOL    HW276968   6.147   9.103   0.158 -0.5919  0.6355  0.5797
25119SOL     OW76969   1.520   3.518   7.112 -0.2747  0.2823  0.1569
25119SOL    HW176970   1.583   3.585   7.138 -1.3401  1.5245 -0.3258
25119SOL    HW276971   1.526   3.516   7.017  1.0410 -1.6563  0.2360
25120SOL     OW76972   3.789   4.299   3.188 -0.0221  0.5762  0.3990
25120SOL    HW176973   3.784   4.208   3.159  1.0317  0.8668 -0.8493
25120SOL    HW276974   3.718   4.309   3.251 -1.1725 -0.6834 -0.6325
25121SOL     OW76975   4.206   3.111   7.797 -0.6321 -0.0086  0.0234
25121SOL    HW176976   4.141   3.076   7.858  0.0961  1.3321  1.6513
25121SOL    HW276977   4.160   3.180   7.749 -1.0310 -0.6288 -0.4923
25122SOL     OW76978   9.736   4.414   0.321  0.6600  0.2064 -0.1743
25122SOL    HW176979   9.717   4.441   0.411  1.5497  0.4460 -0.0558
25122SOL    HW276980   9.695   4.481   0.266 -0.7865 -0.4842  0.0063
25123SOL     OW76981   1.420   3.993   6.083  0.1626 -0.0852  0.2770
25123SOL    HW176982   1.477   3.922   6.113  1.5277  1.5661  1.8340
25123SOL    HW276983   1.334   3.970   6.120  0.8548 -0.3382  1.8337
25124SOL     OW76984   5.741   3.336   4.815  0.1575  0.0609  0.3871
25124SOL    HW176985   5.836   3.336   4.815  0.1907 -1.6436 -0.5430
25124SOL    HW276986   5.717   3.316   4.906  0.7319 -1.0033  0.3243
25125SOL     OW76987   9.117   5.663   7.834 -0.3167 -0.1502 -0.4798
25125SOL    HW176988   9.114   5.591   7.898  0.8435  0.7707  0.6677
25125SOL    HW276989   9.177   5.633   7.766 -0.3186 -0.5090 -0.3270
25126SOL     OW76990   4.614   4.223   8.625 -0.0293  0.5785  0.0552
25126SOL    HW176991   4.631   4.314   8.651 -0.2659  0.8685 -0.7840
25126SOL    HW276992   4.648   4.171   8.698 -1.1822  1.3807  1.2133
25127SOL     OW76993   8.584   9.310   6.253  0.4791  0.0833  0.2326
25127SOL    HW176994   8.650   9.256   6.211  0.7421 -0.8884  1.8080
25127SOL    HW276995   8.594   9.292   6.347 -1.9374 -0.0294  0.5345
25128SOL     OW76996   8.628   0.123   0.877  0.4590 -0.0349  0.3418
25128SOL    HW176997   8.636   0.142   0.971  0.2673  3.5199 -0.2121
25128SOL    HW276998   8.710   0.081   0.854  0.6551 -0.6516  2.0357
25129SOL     OW76999   5.237   2.917   4.401  0.0546 -0.2243 -0.5195
25129SOL    HW177000   5.311   2.892   4.346 -0.0284  0.0376 -0.7506
25129SOL    HW277001   5.271   2.989   4.455 -0.9654  2.3600 -3.0272
25130SOL     OW77002   3.789   9.465   2.959  0.0778 -1.0443  0.0302
25130SOL    HW177003   3.746   9.411   2.893  0.1151  1.9630 -2.7042
25130SOL    HW277004   3.719   9.522   2.992  0.8434  0.2391 -0.4946
25131SOL     OW77005   0.306   2.040   5.804 -0.2337 -0.1462  0.1794
25131SOL    HW177006   0.213   2.033   5.826 -0.0426 -1.2715  0.6821
25131SOL    HW277007   0.322   1.966   5.745  0.5690 -0.5828  0.9351
25132SOL     OW77008   0.740   8.731   7.632 -0.6640 -0.2913 -0.1756
25132SOL    HW177009   0.765   8.809   7.583 -2.4878  0.3723 -0.1431
25132SOL    HW277010   0.813   8.715   7.692 -0.1313  1.2202 -0.3804
25133SOL     OW77011   8.659   2.400   3.272  0.3514 -0.1445  0.2983
25133SOL    HW177012   8.745   2.437   3.249  0.3673 -1.2277 -1.5458
25133SOL    HW277013   8.613   2.393   3.189 -1.3795 -0.0106  1.2123
25134SOL     OW77014   9.472   2.080   9.416 -0.3520  0.0844 -0.0481
25134SOL    HW177015   9.558   2.058   9.381  0.3796  0.9661  1.1342
25134SOL    HW277016   9.477   2.059   9.509 -0.9900  1.2781  0.2869
25135SOL     OW77017   4.027   0.186   4.694  0.4458  0.4407  0.2414
25135SOL    HW177018   3.943   0.142   4.685 -0.2041  0.9065  3.0759
25135SOL    HW277019   4.089   0.116   4.715  0.1111  0.4350  1.2614
25136SOL     OW77020   8.726   8.333   0.100  0.0316  0.1695 -0.2214
25136SOL    HW177021   8.708   8.245   0.065 -0.7189  0.3367 -0.2640
25136SOL    HW277022   8.701   8.392   0.030  2.1043  0.3742 -0.8324
25137SOL     OW77023   2.157   7.684   8.049 -0.1619 -0.4462 -0.0407
25137SOL    HW177024   2.210   7.653   7.975 -0.6160  0.8231 -0.9441
25137SOL    HW277025   2.153   7.610   8.109  1.4441 -1.0316 -0.6048
25138SOL     OW77026   2.650   2.104   9.157  0.4268  0.2704  0.3685
25138SOL    HW177027   2.610   2.187   9.132  0.1084 -0.0639 -0.2392
25138SOL    HW277028   2.588   2.066   9.220 -0.8583 -0.7926 -1.4407
25139SOL     OW77029   1.341   8.456   2.234  0.5912  0.1227 -0.1686
25139SOL    HW177030   1.301   8.495   2.311 -2.1706  0.4528 -1.6136
25139SOL    HW277031   1.360   8.529   2.176  0.2482 -0.2829 -0.8109
25140SOL     OW77032   5.228   9.578   5.430  0.2986  0.0846  0.1676
25140SOL    HW177033   5.176   9.510   5.474  1.4999 -1.6796 -1.0198
25140SOL    HW277034   5.304   9.590   5.487 -0.5098  1.4300  1.0296
25141SOL     OW77035   9.691   4.225   4.120  0.3214 -0.0958 -0.4516
25141SOL    HW177036   9.638   4.297   4.153  0.6402  0.4246 -1.0551
25141SOL    HW277037   9.763   4.218   4.183 -1.5765 -2.2713  1.6423
25142SOL     OW77038   4.090   2.985   6.245  0.8901  0.4960 -0.2520
25142SOL    HW177039   4.171   2.951   6.205  0.3246  0.2011 -1.1769
25142SOL    HW277040   4.110   3.077   6.263  1.0062  0.7796 -1.6994
25143SOL     OW77041   6.110   4.277   7.505 -0.0473 -0.1290  0.3874
25143SOL    HW177042   6.053   4.214   7.549  0.1400 -0.2161  0.5036
25143SOL    HW277043   6.197   4.240   7.513 -0.1342 -0.6890 -1.0093
25144SOL     OW77044   3.018   0.462   8.196  0.1693  0.4319  0.0637
25144SOL    HW177045   3.044   0.450   8.287  1.4376  0.6463 -0.2576
25144SOL    HW277046   3.035   0.378   8.154 -2.1329 -0.2773  0.3695
25145SOL     OW77047   6.661   9.838   6.314 -0.0872  0.1073  0.2665
25145SOL    HW177048   6.581   9.786   6.321  0.6690 -2.0109 -3.9588
25145SOL    HW277049   6.732   9.778   6.337  0.5526  0.5352 -0.4992
25146SOL     OW77050   3.609   3.231   9.058  0.2489  0.4312  0.4472
25146SOL    HW177051   3.568   3.194   8.980  0.5832  1.7706 -0.3972
25146SOL    HW277052   3.693   3.186   9.065  0.0127 -0.0370  0.3318
25147SOL     OW77053   9.195   8.568   0.240 -0.0787  0.3568 -0.2968
25147SOL    HW177054   9.256   8.604   0.304 -0.3453 -0.6565  0.5383
25147SOL    HW277055   9.249   8.511   0.185  0.2446  1.5795 -1.3098
25148SOL     OW77056   3.293   3.680   2.060  0.2628  0.5458  0.0922
25148SOL    HW177057   3.217   3.681   2.119 -1.2145  1.2040 -1.7027
25148SOL    HW277058   3.305   3.771   2.035  1.5455  0.4151  0.1881
25149SOL     OW77059   6.668   2.853   6.636 -0.2955 -0.4735  0.2361
25149SOL    HW177060   6.681   2.873   6.543 -0.9221  3.3200  0.8067
25149SOL    HW277061   6.650   2.759   6.638 -1.5520 -0.5045 -3.6374
25150SOL     OW77062   6.880   4.141   8.352 -0.0368  0.5479  0.2817
25150SOL    HW177063   6.807   4.196   8.325 -0.1348  0.6258  0.7027
25150SOL    HW277064   6.853   4.052   8.330 -1.1398  0.3343  2.3154
25151SOL     OW77065   9.595   2.897   7.444  0.2147 -0.2684  0.5654
25151SOL    HW177066   9.657   2.943   7.501  0.8276 -0.8289  0.3601
25151SOL    HW277067   9.648   2.830   7.401 -0.0202  0.7601 -1.4025
25152SOL     OW77068   6.018   2.503   0.525  0.5351 -0.0265 -0.8700
25152SOL    HW177069   6.010   2.597   0.506  0.3250  0.1931  0.2289
25152SOL    HW277070   6.034   2.499   0.620  0.0987 -1.1226 -0.8283
25153SOL     OW77071   0.600   7.310   1.593  0.0232 -0.0033  0.1344
25153SOL    HW177072   0.689   7.333   1.566 -0.6359  0.5164 -1.7628
25153SOL    HW277073   0.602   7.216   1.609  0.8289 -0.0464 -0.2040
25154SOL     OW77074   9.052   5.027   8.574  0.5249 -0.2344  0.2964
25154SOL    HW177075   9.037   5.092   8.642  2.1077 -0.8281  1.2691
25154SOL    HW277076   9.069   4.946   8.622 -0.7041 -1.2282 -0.8746
25155SOL     OW77077   1.083   3.392   3.228  0.4082  0.8989  0.2418
25155SOL    HW177078   1.000   3.411   3.184  1.6544  0.6455 -2.4176
25155SOL    HW277079   1.060   3.330   3.297 -1.5626  0.5971 -0.6107
25156SOL     OW77080   6.395   0.220   9.733 -0.8844 -0.7750  0.2999
25156SOL    HW177081   6.399   0.302   9.781 -0.4801 -0.4478 -0.2731
25156SOL    HW277082   6.453   0.233   9.658 -1.1557 -1.4274 -0.0371
25157SOL     OW77083   5.482   7.699   4.540  0.2940  0.3807  0.5353
25157SOL    HW177084   5.436   7.736   4.464 -0.4050  1.2895  1.3723
25157SOL    HW277085   5.490   7.606   4.520 -0.8412  0.4181 -0.1842
25158SOL     OW77086   0.413   1.210   4.472 -0.4792 -0.5573 -0.5663
25158SOL    HW177087   0.434   1.214   4.566  1.0627 -1.7368 -0.8105
25158SOL    HW277088   0.470   1.275   4.432  0.7846 -1.8353 -0.9314
25159SOL     OW77089   7.814   0.953   9.747  0.1564 -0.7640 -0.1698
25159SOL    HW177090   7.885   0.889   9.747  1.7900  0.8624  2.6773
25159SOL    HW277091   7.750   0.917   9.809  0.1904 -0.5142  0.0094
25160SOL     OW77092   7.869   8.339   7.633 -0.1703  0.2035  0.2738
25160SOL    HW177093   7.961   8.361   7.650  0.3148 -0.6544 -1.0388
25160SOL    HW277094   7.840   8.294   7.712  0.3241  1.0887  0.9764
25161SOL     OW77095   8.620   5.916   5.619 -0.4022 -0.0542 -0.7746
25161SOL    HW177096   8.563   5.887   5.548 -0.5320 -0.5314 -0.4783
25161SOL    HW277097   8.681   5.844   5.633 -1.5740 -0.7968  0.8591
25162SOL     OW77098   6.703   8.515   4.135  0.0699 -0.0625  0.7634
25162SOL    HW177099   6.630   8.453   4.131 -0.1340  0.0172  2.3638
25162SOL    HW277100   6.781   8.460   4.144  0.4589 -0.2151 -2.4036
25163SOL     OW77101   5.262   2.180   5.077 -0.1546  0.5558  0.1028
25163SOL    HW177102   5.341   2.216   5.035  0.7291 -0.5703  0.7298
25163SOL    HW277103   5.252   2.230   5.158  0.4684  0.0990  0.4707
25164SOL     OW77104   9.589   1.674   1.864  0.0352  0.0487  0.1964
25164SOL    HW177105   9.603   1.623   1.784 -1.9895  0.7106 -0.6396
25164SOL    HW277106   9.671   1.722   1.876  0.1349  0.4882 -1.9205
25165SOL     OW77107   5.990   7.344   2.973  0.4872 -0.8449 -0.2251
25165SOL    HW177108   5.940   7.314   2.897  0.5548 -0.8995 -0.2486
25165SOL    HW277109   6.081   7.337   2.946  0.4851  1.3765 -1.0026
25166SOL     OW77110   2.154   7.493   8.224 -1.1051 -0.1185  0.1025
25166SOL    HW177111   2.244   7.491   8.258 -1.3061 -0.3304  0.6306
25166SOL    HW277112   2.120   7.405   8.241 -2.0125  0.4757  1.5914
25167SOL     OW77113   7.882   2.995   9.016  0.6987  0.5171  0.3364
25167SOL    HW177114   7.824   2.923   8.993  0.3697  0.3044  1.7165
25167SOL    HW277115   7.846   3.071   8.969  0.2588  0.0577 -0.0806
25168SOL     OW77116   2.234   6.113   5.160  0.1297  0.7097 -0.2650
25168SOL    HW177117   2.249   6.118   5.066 -0.8203  0.8232 -0.4207
25168SOL    HW277118   2.253   6.022   5.183  3.6234  1.3771  0.0592
25169SOL     OW77119   7.715   6.123   2.006 -0.2673  0.5990 -0.9076
25169SOL    HW177120   7.719   6.183   2.081 -1.2639  2.0896 -1.9907
25169SOL    HW277121   7.780   6.056   2.026 -2.2518 -0.5471  2.5048
25170SOL     OW77122   9.640   2.894   1.599 -0.0658  0.5715  0.3305
25170SOL    HW177123   9.613   2.984   1.577 -0.9550  0.1345 -0.4364
25170SOL    HW277124   9.563   2.855   1.638 -0.1102 -0.2559 -0.5486
25171SOL     OW77125   4.797   0.090   2.771  0.1439 -0.8037 -0.2232
25171SOL    HW177126   4.815   0.101   2.865  1.0050 -0.5011 -0.4166
25171SOL    HW277127   4.707   0.121   2.761 -0.7017 -2.7626  0.8352
25172SOL     OW77128   6.756   1.595   2.595  0.1962  0.1691  0.1119
25172SOL    HW177129   6.848   1.583   2.571 -0.6290 -1.5127 -2.7587
25172SOL    HW277130   6.746   1.689   2.606  2.2881  0.3640  0.7934
25173SOL     OW77131   5.214   9.325   9.799  0.2106  0.5177 -0.0064
25173SOL    HW177132   5.130   9.322   9.844  0.3468  1.0305  0.2932
25173SOL    HW277133   5.192   9.349   9.708 -0.3400 -3.1651 -0.9945
25174SOL     OW77134   8.176   4.608   1.020 -0.2736  0.5022  0.1979
25174SOL    HW177135   8.225   4.563   0.950  0.2672  0.8358  0.3622
25174SOL    HW277136   8.240   4.622   1.089 -0.6567  0.7532  0.5033
25175SOL     OW77137   4.418   8.965   1.897  0.5647  0.7986 -0.3865
25175SOL    HW177138   4.347   8.902   1.904  0.8665  0.6174  2.1611
25175SOL    HW277139   4.395   9.020   1.823 -1.2921 -0.3745 -0.7339
25176SOL     OW77140   7.244   1.371   1.942  0.5224 -0.3785 -0.2847
25176SOL    HW177141   7.223   1.464   1.941  1.8091 -0.0550  0.1086
25176SOL    HW277142   7.183   1.331   1.881 -0.5271  0.6154  0.0906
25177SOL     OW77143   8.391   7.378   7.113 -0.6809  0.2417 -0.0333
25177SOL    HW177144   8.386   7.454   7.170 -0.9386  0.7761 -0.7505
25177SOL    HW277145   8.388   7.414   7.024  0.9053 -0.4874 -0.4082
25178SOL     OW77146   7.483   0.922   7.439 -0.5105 -0.2514  0.3569
25178SOL    HW177147   7.450   0.954   7.523 -1.3844 -1.0123  0.3209
25178SOL    HW277148   7.548   0.856   7.462  0.1385  0.4061  0.4297
25179SOL     OW77149   2.962   1.212   2.240  0.3498  0.1351  0.6449
25179SOL    HW177150   2.996   1.211   2.329 -0.0631  2.2632  0.8708
25179SOL    HW277151   3.029   1.256   2.188  0.1486 -0.1886  0.0958
25180SOL     OW77152   9.576   3.235   5.968  0.7458 -0.0651  0.2424
25180SOL    HW177153   9.542   3.146   5.957 -0.1528  0.1049  1.5266
25180SOL    HW277154   9.611   3.237   6.057  0.5476  0.9355  0.3058
25181SOL     OW77155   5.067   5.776   5.737  0.4545  0.8309 -0.0692
25181SOL    HW177156   5.081   5.749   5.827 -0.0922 -0.4772 -0.3477
25181SOL    HW277157   5.056   5.871   5.741 -0.4076  0.6958  1.3626
25182SOL     OW77158   2.466   9.323   9.723  0.2281  0.0046  0.3694
25182SOL    HW177159   2.464   9.365   9.809  1.5331  2.9998 -0.9356
25182SOL    HW277160   2.558   9.303   9.708 -0.1791 -1.9996  0.2638
25183SOL     OW77161   4.763   6.928   9.490 -0.4779  0.1821  0.0810
25183SOL    HW177162   4.689   6.949   9.434 -0.3054  0.6519  0.0210
25183SOL    HW277163   4.840   6.941   9.434 -0.3756 -0.8107 -0.0115
25184SOL     OW77164   8.046   8.173   9.321  0.1125  0.1619 -0.3618
25184SOL    HW177165   8.133   8.211   9.330 -0.2886  1.3501 -1.3759
25184SOL    HW277166   8.002   8.226   9.255 -0.7683 -1.5263 -1.2231
25185SOL     OW77167   8.745   4.542   4.767 -0.2310  0.4289  0.2734
25185SOL    HW177168   8.780   4.610   4.824 -0.6544 -0.1051  1.2004
25185SOL    HW277169   8.650   4.548   4.778 -0.3838  0.9054 -1.0899
25186SOL     OW77170   6.706   1.935   2.334  0.3586 -0.5806 -0.2383
25186SOL    HW177171   6.729   1.874   2.405  2.3786 -1.3801 -1.4998
25186SOL    HW277172   6.616   1.962   2.355  0.4649 -1.6646  1.9875
25187SOL     OW77173   2.672   8.935   1.716  0.5255  0.0112 -0.5226
25187SOL    HW177174   2.586   8.974   1.730  0.5517  0.4950 -1.5629
25187SOL    HW277175   2.668   8.850   1.759 -0.3015  0.2385 -0.1404
25188SOL     OW77176   4.024   6.222   2.902  0.2261  0.5654  0.3600
25188SOL    HW177177   3.996   6.220   2.811  1.8817 -0.8020 -0.1760
25188SOL    HW277178   4.006   6.311   2.931  0.6656  1.3469 -1.6341
25189SOL     OW77179   4.956   3.561   3.343 -0.0100  0.1757 -0.3701
25189SOL    HW177180   4.897   3.635   3.361  1.5219  1.7710 -1.5394
25189SOL    HW277181   4.923   3.524   3.261 -0.9610 -0.6773  0.3714
25190SOL     OW77182   3.539   9.769   3.267 -0.0034 -0.5673  0.6760
25190SOL    HW177183   3.457   9.795   3.309  0.2816 -3.2199  3.1100
25190SOL    HW277184   3.599   9.841   3.286 -0.7443 -0.3042  2.1707
25191SOL     OW77185   5.819   6.991   2.764  0.0038  0.1460  0.0532
25191SOL    HW177186   5.821   6.948   2.678 -2.3988  0.3378 -0.1753
25191SOL    HW277187   5.786   6.923   2.823 -2.9225  1.2585 -0.1344
25192SOL     OW77188   3.691   8.097   8.933  0.0762  0.3733 -0.5750
25192SOL    HW177189   3.743   8.084   8.854  1.7271 -0.2887  0.5816
25192SOL    HW277190   3.739   8.163   8.983  0.1965 -0.7303  0.8154
25193SOL     OW77191   7.821   5.843   1.951 -0.9770 -0.5542  0.3988
25193SOL    HW177192   7.745   5.840   1.893  0.0693  0.2543 -1.1133
25193SOL    HW277193   7.896   5.827   1.892  0.2089  1.2575  1.3281
25194SOL     OW77194   1.994   5.189   3.526 -0.0284  0.4626  0.0109
25194SOL    HW177195   2.066   5.155   3.578  1.3762  1.7222 -1.0126
25194SOL    HW277196   2.016   5.165   3.435 -1.6727 -0.4178 -0.1961
25195SOL     OW77197   0.562   9.386   4.660 -0.2560  0.4790 -0.8794
25195SOL    HW177198   0.542   9.293   4.666 -1.7381  0.8228 -0.2067
25195SOL    HW277199   0.490   9.423   4.609  0.5632  1.2004 -1.5509
25196SOL     OW77200   2.744   4.828   7.928 -0.0109 -0.1884  0.4333
25196SOL    HW177201   2.747   4.894   7.858  1.4839  0.9631  1.5159
25196SOL    HW277202   2.798   4.756   7.896  2.8821  1.4010  1.3108
25197SOL     OW77203   4.428   3.802   8.852 -0.4990  0.0755 -0.4256
25197SOL    HW177204   4.475   3.843   8.780  1.1484  0.3859  0.7614
25197SOL    HW277205   4.349   3.764   8.812  0.9198 -0.7542 -2.5789
25198SOL     OW77206   0.312   3.886   2.790 -0.1605 -0.0185 -0.1157
25198SOL    HW177207   0.248   3.839   2.736  0.6955  0.2858 -1.4524
25198SOL    HW277208   0.331   3.966   2.740  1.9112 -0.5168 -0.2484
25199SOL     OW77209   6.114   3.994   5.414  0.4895  0.1007 -0.3956
25199SOL    HW177210   6.162   3.965   5.491  2.5312  1.1733 -1.1758
25199SOL    HW277211   6.037   3.937   5.410  0.7419 -0.4949  1.9482
25200SOL     OW77212   7.236   6.589   3.730  0.1579  0.6553  0.6036
25200SOL    HW177213   7.281   6.516   3.686  1.7101  1.7435  0.3078
25200SOL    HW277214   7.143   6.569   3.720  0.5281 -0.8237 -0.2566
25201SOL     OW77215   7.489   4.498   5.006 -0.0906  0.1510 -0.8793
25201SOL    HW177216   7.482   4.404   5.019  0.5955  0.1273 -0.6771
25201SOL    HW277217   7.403   4.524   4.972 -0.0121 -0.6799 -1.7636
25202SOL     OW77218   7.121   6.113   6.195  0.5996 -0.1829  0.1628
25202SOL    HW177219   7.115   6.072   6.281 -0.9768 -0.3439 -0.0060
25202SOL    HW277220   7.092   6.203   6.209 -0.4092 -0.4181 -0.3193
25203SOL     OW77221   4.212   2.269   6.200  0.6523  0.3448  0.7740
25203SOL    HW177222   4.189   2.188   6.246 -0.2326 -0.3835 -0.8489
25203SOL    HW277223   4.272   2.314   6.259 -1.0984 -0.0856  3.0140
25204SOL     OW77224   6.887   5.903   0.191 -0.1080  0.0140 -0.5274
25204SOL    HW177225   6.889   5.856   0.275 -0.0900  0.2611 -0.3876
25204SOL    HW277226   6.841   5.844   0.132  1.5416 -1.0106 -0.8684
25205SOL     OW77227   1.359   7.532   7.417  0.1515  0.0325 -0.3953
25205SOL    HW177228   1.386   7.558   7.328 -0.1157 -1.7390 -1.0291
25205SOL    HW277229   1.373   7.438   7.420 -2.3190 -0.3810  0.5389
25206SOL     OW77230   4.507   7.537   6.430 -0.3308 -0.5037  0.1941
25206SOL    HW177231   4.534   7.608   6.488 -0.8191 -0.3592  0.2489
25206SOL    HW277232   4.435   7.574   6.378 -1.2739 -1.2450  0.9122
25207SOL     OW77233   3.221   0.006   3.519 -0.0822 -0.2963 -0.1557
25207SOL    HW177234   3.250   0.094   3.496 -0.5963  0.6058  2.4086
25207SOL    HW277235   3.126   0.014   3.530 -0.0708 -1.0418  0.5749
25208SOL     OW77236   7.455   3.216   7.740  0.5333 -0.2602 -0.0306
25208SOL    HW177237   7.485   3.280   7.675 -0.9022 -0.2679 -0.7453
25208SOL    HW277238   7.517   3.224   7.812  2.2341 -0.3147 -1.4361
25209SOL     OW77239   9.830   4.548   5.821  0.1157  0.0610  0.1456
25209SOL    HW177240   9.812   4.563   5.728 -0.5547 -0.7130  0.1401
25209SOL    HW277241   9.859   4.634   5.853  0.6192  0.2706 -0.8266
25210SOL     OW77242   3.931   7.227   5.259 -0.2342  0.1651 -0.0629
25210SOL    HW177243   3.950   7.156   5.319  0.3582  0.1618 -0.2436
25210SOL    HW277244   3.934   7.306   5.313  1.8502  0.3330 -0.3276
25211SOL     OW77245   1.737   0.314   5.555 -0.1138 -0.0571  0.0936
25211SOL    HW177246   1.694   0.383   5.606 -1.5142  0.1739 -1.3175
25211SOL    HW277247   1.675   0.241   5.557  1.8338 -1.8116  2.5403
25212SOL     OW77248   6.302   2.116   0.439 -0.0200 -0.0125  0.5928
25212SOL    HW177249   6.390   2.152   0.428  0.8495 -2.4699 -1.3474
25212SOL    HW277250   6.316   2.023   0.455 -2.2633 -0.2819  1.3579
25213SOL     OW77251   8.483   1.841   0.931 -0.1636  0.0583  0.0536
25213SOL    HW177252   8.535   1.915   0.900  1.1103 -0.5875  0.5701
25213SOL    HW277253   8.455   1.797   0.852 -0.1133  0.5469 -0.2442
25214SOL     OW77254   1.552   6.886   8.318  0.1709 -0.5157  0.5558
25214SOL    HW177255   1.529   6.802   8.278  0.6043  1.3692 -4.3105
25214SOL    HW277256   1.476   6.942   8.301  1.8918  1.4372 -1.1578
25215SOL     OW77257   6.301   5.534   8.693  0.0398  0.3442 -0.0675
25215SOL    HW177258   6.319   5.493   8.778 -1.1936  0.5078  0.2950
25215SOL    HW277259   6.209   5.512   8.675  0.0657  0.9532 -1.0006
25216SOL     OW77260   2.133   4.009   3.495  0.1099  0.0018  0.4906
25216SOL    HW177261   2.046   4.004   3.455 -0.1622  1.0284  0.9127
25216SOL    HW277262   2.139   3.932   3.550 -0.7995  0.2527  0.9586
25217SOL     OW77263   9.500   7.696   4.636 -0.2281 -0.5599  0.2240
25217SOL    HW177264   9.525   7.607   4.659 -0.3324 -1.4534 -2.7040
25217SOL    HW277265   9.409   7.689   4.607 -0.4824  0.6510  0.6563
25218SOL     OW77266   5.925   0.801   4.012  0.1280 -0.2806 -0.2836
25218SOL    HW177267   5.893   0.724   4.058 -0.2607  0.3553  0.5300
25218SOL    HW277268   6.021   0.793   4.016  0.1193 -0.0331  1.0361
25219SOL     OW77269   1.670   3.979   6.939  0.3186 -0.0718  0.5895
25219SOL    HW177270   1.648   4.032   7.016  0.9701 -1.0496  1.4803
25219SOL    HW277271   1.618   4.017   6.868 -0.2455  0.9029  1.4922
25220SOL     OW77272   7.843   1.284   6.941  0.4752  0.0664 -0.0060
25220SOL    HW177273   7.936   1.287   6.920  1.0876 -0.1996  2.3930
25220SOL    HW277274   7.828   1.364   6.993 -0.9146  0.6893 -1.3089
25221SOL     OW77275   4.304   4.541   1.311 -0.2875 -0.6066 -0.1420
25221SOL    HW177276   4.244   4.471   1.285 -0.6799 -0.3891  0.1719
25221SOL    HW277277   4.266   4.577   1.391  1.2306 -1.6753  1.1061
25222SOL     OW77278   9.352   4.481   8.976 -0.0952  0.2487  0.1488
25222SOL    HW177279   9.404   4.475   8.896  1.3402  1.6282  0.9041
25222SOL    HW277280   9.363   4.395   9.018  0.1105 -0.0810 -0.5723
25223SOL     OW77281   8.591   1.836   2.774 -0.3657  0.1962 -0.1936
25223SOL    HW177282   8.663   1.815   2.834 -0.4127 -0.1499 -0.2536
25223SOL    HW277283   8.612   1.923   2.741 -0.5206  0.5419  0.5966
25224SOL     OW77284   1.508   2.836   2.728 -0.2829 -0.2495  0.9170
25224SOL    HW177285   1.564   2.908   2.701 -0.1013 -0.2656  1.2459
25224SOL    HW277286   1.502   2.780   2.650  0.0211 -0.1630  0.8301
25225SOL     OW77287   8.044   7.434   3.844 -0.1972 -0.7961  0.2929
25225SOL    HW177288   8.137   7.432   3.821 -0.3727 -0.5657 -0.4478
25225SOL    HW277289   8.035   7.369   3.914  0.4652 -1.0250  0.1703
25226SOL     OW77290   7.053   0.101   1.040  0.1411  0.5643 -0.7380
25226SOL    HW177291   7.029   0.077   1.130 -3.0262  0.9107 -1.3642
25226SOL    HW277292   7.126   0.161   1.050  0.1337  0.2834  1.5859
25227SOL     OW77293   1.954   2.392   8.018 -0.4455  0.1939  0.5427
25227SOL    HW177294   1.865   2.380   7.985 -0.6395 -1.0510  1.4474
25227SOL    HW277295   1.992   2.458   7.960 -1.3919 -0.5005 -0.9267
25228SOL     OW77296   3.184   8.475   2.747  0.2270  0.0999 -0.4029
25228SOL    HW177297   3.273   8.449   2.725  0.3024 -1.6225  1.6363
25228SOL    HW277298   3.129   8.405   2.712 -0.6218  2.0140 -3.2600
25229SOL     OW77299   8.513   8.201   9.189  0.0710  0.0095  0.0643
25229SOL    HW177300   8.510   8.294   9.165 -0.3101 -0.0881 -0.2673
25229SOL    HW277301   8.493   8.200   9.283 -0.0684  0.2458  0.0371
25230SOL     OW77302   7.852   7.129   9.338  0.7797  0.4362 -0.3152
25230SOL    HW177303   7.924   7.067   9.327  0.6293  0.3047 -0.5771
25230SOL    HW277304   7.891   7.215   9.319  0.6642  0.2738 -1.3427
25231SOL     OW77305   7.665   1.419   0.024 -0.4822 -0.1652  0.0588
25231SOL    HW177306   7.668   1.430   0.119 -1.0822 -4.0471  0.6801
25231SOL    HW277307   7.586   1.368   0.008 -0.5671  0.6597 -2.6133
25232SOL     OW77308   1.498   5.068   2.176  0.0487  0.1515  0.0802
25232SOL    HW177309   1.537   5.118   2.105 -0.4452 -0.0131 -0.3154
25232SOL    HW277310   1.446   5.132   2.225 -0.8083 -0.0038 -0.5888
25233SOL     OW77311   7.600   6.202   0.446  0.5286  0.3462 -0.2539
25233SOL    HW177312   7.538   6.215   0.374  0.8180  0.0814 -0.5558
25233SOL    HW277313   7.646   6.122   0.423  0.7267  0.3417  0.1563
25234SOL     OW77314   9.734   8.583   2.130 -0.4744  0.4834  0.0191
25234SOL    HW177315   9.682   8.507   2.157  0.0924  0.3108  0.6556
25234SOL    HW277316   9.822   8.565   2.162  0.1595  0.4603 -1.6363
25235SOL     OW77317   1.818   0.288   7.094 -0.5819 -0.2351 -0.6637
25235SOL    HW177318   1.883   0.340   7.047  0.0315  0.1982  0.6213
25235SOL    HW277319   1.742   0.345   7.102 -0.1769  0.2066  0.0930
25236SOL     OW77320   3.607   4.426   7.386  0.0334  0.0696 -0.1008
25236SOL    HW177321   3.588   4.460   7.298  1.3281  0.7839 -0.1273
25236SOL    HW277322   3.526   4.442   7.435 -0.5472  0.0881 -1.0343
25237SOL     OW77323   8.191   0.177   8.707 -0.0440 -0.5699  0.3475
25237SOL    HW177324   8.186   0.192   8.802 -0.6610 -1.3569  0.4490
25237SOL    HW277325   8.279   0.206   8.683  0.1695 -0.4971  1.1879
25238SOL     OW77326   8.800   9.163   7.776 -0.1573 -0.1942  0.1377
25238SOL    HW177327   8.843   9.200   7.853 -1.5840 -0.1099  0.9183
25238SOL    HW277328   8.740   9.231   7.746  0.6466 -0.0820 -1.3031
25239SOL     OW77329   6.637   6.514   8.219  0.3380 -0.4109 -0.5577
25239SOL    HW177330   6.715   6.568   8.206 -1.0012  2.0612  0.9329
25239SOL    HW277331   6.641   6.490   8.312 -0.7784 -0.0796 -0.4194
25240SOL     OW77332   7.041   0.614   1.942  0.2967 -0.8167 -0.2880
25240SOL    HW177333   7.000   0.550   1.884  0.9313 -0.1447 -1.5113
25240SOL    HW277334   7.107   0.657   1.888  1.2135 -0.4622  1.0573
25241SOL     OW77335   4.093   0.643   5.283 -0.1284  0.2532  0.4063
25241SOL    HW177336   4.012   0.631   5.333  0.2590 -1.9336  0.6081
25241SOL    HW277337   4.064   0.676   5.198 -1.2101 -0.3345  0.5305
25242SOL     OW77338   2.646   0.330   1.809 -0.3116  1.1263 -0.3569
25242SOL    HW177339   2.723   0.273   1.810 -0.5844  0.7535  0.4569
25242SOL    HW277340   2.573   0.271   1.830 -0.6650  1.6855  0.0024
25243SOL     OW77341   8.563   7.370   3.890  0.4544 -0.5190 -0.0786
25243SOL    HW177342   8.563   7.277   3.912  0.0699 -0.2037  1.3537
25243SOL    HW277343   8.579   7.415   3.973 -0.6793  0.7436 -0.4905
25244SOL     OW77344   8.831   2.244   4.643 -0.2302 -0.5880  0.3309
25244SOL    HW177345   8.767   2.308   4.675 -1.3083 -0.8840 -1.1136
25244SOL    HW277346   8.821   2.169   4.702 -1.4138 -0.7148 -0.0004
25245SOL     OW77347   2.988   2.729   5.914 -0.5735 -0.7766  0.0178
25245SOL    HW177348   2.935   2.721   5.994 -1.1869 -0.8628 -0.3944
25245SOL    HW277349   3.003   2.639   5.886 -0.3132 -0.7480  0.0629
25246SOL     OW77350   7.989   9.610   6.669  0.0511  0.5981  0.0833
25246SOL    HW177351   8.004   9.694   6.625  2.1779 -0.0164 -0.4530
25246SOL    HW277352   8.027   9.621   6.756  0.0014  0.3097  0.1410
25247SOL     OW77353   6.514   4.776   5.608 -0.6188  0.2672 -0.7556
25247SOL    HW177354   6.431   4.759   5.653  0.5079  0.2245  1.4427
25247SOL    HW277355   6.520   4.871   5.604  0.1671  0.3316  1.0578
25248SOL     OW77356   7.163   3.655   8.466  0.3507  0.0091 -0.5851
25248SOL    HW177357   7.122   3.734   8.430  1.4341  1.0756  0.4230
25248SOL    HW277358   7.154   3.664   8.561  0.7188 -0.9580 -0.4466
25249SOL     OW77359   1.650   1.471   6.895 -0.1654 -0.0228 -0.0345
25249SOL    HW177360   1.596   1.432   6.827 -1.8747  0.4402  0.9764
25249SOL    HW277361   1.707   1.533   6.849 -1.3527  0.3583 -1.0338
25250SOL     OW77362   8.943   3.445   3.003 -0.0431 -0.0310 -0.7704
25250SOL    HW177363   8.905   3.488   3.080  1.6708  0.8090 -0.3442
25250SOL    HW277364   8.873   3.389   2.970 -0.1902 -2.2633  2.7698
25251SOL     OW77365   3.682   4.648   8.167 -0.4249  0.1873  0.0853
25251SOL    HW177366   3.695   4.666   8.260 -0.5725  0.7684 -0.0052
25251SOL    HW277367   3.600   4.691   8.145 -0.8532 -0.7019 -0.1168
25252SOL     OW77368   7.490   5.970   4.435 -0.0202 -0.3090  0.0388
25252SOL    HW177369   7.577   5.976   4.474  0.3339  0.6015 -0.8510
25252SOL    HW277370   7.482   5.878   4.410  1.8273  0.0785 -2.3451
25253SOL     OW77371   7.166   4.801   4.198 -0.0683  0.3262 -0.0086
25253SOL    HW177372   7.143   4.814   4.106  0.4248 -1.4720 -0.4288
25253SOL    HW277373   7.201   4.712   4.201  2.2747  1.2179  1.4609
25254SOL     OW77374   7.251   4.729   9.661  0.8412  0.4162  0.2281
25254SOL    HW177375   7.188   4.658   9.652  1.1314  0.4176 -2.9095
25254SOL    HW277376   7.312   4.699   9.730 -0.4060 -1.2341  0.6708
25255SOL     OW77377   5.208   5.163   0.601 -0.4405  0.1359  0.8983
25255SOL    HW177378   5.235   5.224   0.532 -1.4409  0.4666  0.7939
25255SOL    HW277379   5.181   5.085   0.554  0.4110 -0.2437  1.0120
25256SOL     OW77380   4.313   3.525   4.646 -0.1857  0.1622  0.1405
25256SOL    HW177381   4.252   3.597   4.631 -0.2674 -0.1198 -1.0406
25256SOL    HW277382   4.305   3.471   4.567  0.2396 -0.8675  0.7909
25257SOL     OW77383   2.556   8.693   7.189  0.2374 -0.3627 -0.0425
25257SOL    HW177384   2.489   8.759   7.208 -1.7254 -2.3963  0.4470
25257SOL    HW277385   2.569   8.699   7.095  0.4171  0.9684  0.0392
25258SOL     OW77386   1.871   2.189   9.744 -0.3180  0.2918 -0.6609
25258SOL    HW177387   1.901   2.267   9.697  0.5670  0.1020 -0.4335
25258SOL    HW277388   1.834   2.222   9.825 -1.1531  0.5655 -1.1424
25259SOL     OW77389   5.231   1.402   2.263  0.2781 -0.3493 -0.4786
25259SOL    HW177390   5.193   1.395   2.175  0.8246  0.1288 -0.7591
25259SOL    HW277391   5.208   1.320   2.305  1.5387 -1.3564 -1.6667
25260SOL     OW77392   7.160   9.376   4.768 -0.4217  0.2192 -0.1998
25260SOL    HW177393   7.113   9.308   4.719 -1.2834  0.1922  0.6371
25260SOL    HW277394   7.204   9.330   4.838  1.9122  0.0777 -1.6551
25261SOL     OW77395   7.543   5.073   0.988  0.3260 -0.1218 -0.5306
25261SOL    HW177396   7.511   5.137   1.051  0.8917  0.0204 -0.3841
25261SOL    HW277397   7.575   5.001   1.042 -0.2850 -0.5282 -0.6927
25262SOL     OW77398   5.811   6.915   5.505  0.0904 -0.3417  0.4104
25262SOL    HW177399   5.854   6.860   5.439  0.1269 -1.7237  1.5335
25262SOL    HW277400   5.725   6.874   5.518  0.5251 -0.8224  2.0420
25263SOL     OW77401   9.825   5.629   6.699  0.5328 -0.0254 -0.2903
25263SOL    HW177402   9.826   5.563   6.629  1.5578  1.8887 -2.2089
25263SOL    HW277403   9.738   5.669   6.692  0.4777 -0.1198 -0.1568
25264SOL     OW77404   7.627   6.296   1.161 -0.9218  0.1951  0.2827
25264SOL    HW177405   7.567   6.352   1.209 -2.1911 -0.2182 -0.7701
25264SOL    HW277406   7.659   6.233   1.226 -1.8493  0.2486  0.8078
25265SOL     OW77407   0.497   8.331   3.188 -0.2429  0.0328 -0.2753
25265SOL    HW177408   0.432   8.290   3.246  0.7652  0.5019  1.2486
25265SOL    HW277409   0.516   8.265   3.122 -1.9040 -0.2847 -0.4943
25266SOL     OW77410   8.804   7.951   1.129 -0.1915 -0.5671  0.3210
25266SOL    HW177411   8.739   7.962   1.060  0.9364  0.4345 -0.6146
25266SOL    HW277412   8.845   8.037   1.138  0.6606 -1.0433  1.2434
25267SOL     OW77413   3.620   2.729   4.201  0.0858  0.4699 -0.7267
25267SOL    HW177414   3.618   2.775   4.285 -3.2610  0.3374 -0.5895
25267SOL    HW277415   3.688   2.663   4.211 -0.5119  0.1632  2.0719
25268SOL     OW77416   0.538   2.208   8.832  0.2437  0.0117  0.0487
25268SOL    HW177417   0.617   2.187   8.782 -1.1881 -0.7929 -1.9850
25268SOL    HW277418   0.508   2.291   8.796  0.1708  0.3610  0.8809
25269SOL     OW77419   1.619   2.444   8.312  0.4776  0.2751 -0.5248
25269SOL    HW177420   1.534   2.468   8.273  0.6556  0.6514 -0.6914
25269SOL    HW277421   1.643   2.362   8.269 -1.3009 -1.6022  1.7924
25270SOL     OW77422   7.986   8.163   2.743 -0.3640  0.7652  0.6026
25270SOL    HW177423   7.905   8.125   2.777 -0.2543 -1.8355 -1.7465
25270SOL    HW277424   8.052   8.141   2.810 -0.5894 -2.2096  0.0131
25271SOL     OW77425   3.045   2.970   6.479  1.2105  0.4416 -0.1910
25271SOL    HW177426   3.057   2.889   6.430  1.6742  0.5428 -0.2564
25271SOL    HW277427   3.025   3.036   6.413  0.2195  0.2637 -0.0758
25272SOL     OW77428   8.538   1.853   8.156  0.2107  0.2347 -0.3888
25272SOL    HW177429   8.480   1.919   8.195  0.4015 -0.0833  0.4702
25272SOL    HW277430   8.495   1.827   8.075 -0.8153  0.0572  0.2019
25273SOL     OW77431   9.099   6.171   5.931  0.0531 -0.0001  0.0806
25273SOL    HW177432   9.070   6.126   6.010  0.0929  0.7513  0.5361
25273SOL    HW277433   9.065   6.118   5.859 -0.5648 -0.3259  0.6029
25274SOL     OW77434   2.272   8.524   6.995 -0.1199 -0.2967  0.1569
25274SOL    HW177435   2.229   8.455   7.044  0.5497 -0.1929  0.9165
25274SOL    HW277436   2.230   8.605   7.025  0.5937 -0.1923  0.9272
25275SOL     OW77437   7.335   1.255   9.183  0.1346 -0.4628  0.1778
25275SOL    HW177438   7.393   1.217   9.249  0.1972  1.4840  1.3075
25275SOL    HW277439   7.392   1.312   9.131 -0.7092  1.5519  1.3635
25276SOL     OW77440   7.707   6.036   3.702  0.4053 -0.2325  0.3152
25276SOL    HW177441   7.775   5.969   3.693  0.3040 -0.3694  0.5432
25276SOL    HW277442   7.737   6.090   3.775 -0.2952 -0.9878  1.1829
25277SOL     OW77443   3.660   1.840   4.428  0.2376  0.1226 -0.5223
25277SOL    HW177444   3.655   1.766   4.368 -2.8490  0.1209 -0.4122
25277SOL    HW277445   3.751   1.841   4.458  0.9342 -2.1468 -2.3154
25278SOL     OW77446   1.170   1.234   3.656 -0.3570 -0.4895 -0.5418
25278SOL    HW177447   1.236   1.212   3.722  0.0066 -0.1724 -0.7996
25278SOL    HW277448   1.209   1.205   3.573 -1.2993 -1.9793 -0.5019
25279SOL     OW77449   9.434   5.254   7.631  0.6665 -0.0653  0.2217
25279SOL    HW177450   9.527   5.235   7.643  1.0196  1.4638  0.0609
25279SOL    HW277451   9.427   5.286   7.541  0.1234  0.6138  0.4989
25280SOL     OW77452   5.101   1.536   7.598 -0.2358  0.6095  0.3681
25280SOL    HW177453   5.186   1.536   7.642 -0.2047 -1.6732  0.4418
25280SOL    HW277454   5.040   1.501   7.663 -0.2512 -2.5023 -1.1395
25281SOL     OW77455   0.589   5.020   5.281  0.2417  0.0531  0.0102
25281SOL    HW177456   0.536   5.055   5.209 -1.2645 -2.3999 -0.2085
25281SOL    HW277457   0.558   4.930   5.291  2.2205 -0.4836  2.0487
25282SOL     OW77458   8.277   2.977   0.970  0.0403  0.3274 -0.8176
25282SOL    HW177459   8.357   2.925   0.980  0.9125  1.6712 -0.6444
25282SOL    HW277460   8.299   3.063   1.005 -1.6160  0.6157 -0.3915
25283SOL     OW77461   4.964   1.520   6.733 -0.3291 -0.2419 -0.2792
25283SOL    HW177462   5.054   1.489   6.733 -0.0188  0.5098  1.3569
25283SOL    HW277463   4.911   1.441   6.742  0.2155 -0.6339 -0.4680
25284SOL     OW77464   0.088   2.534   5.496  0.3505  0.4073 -0.0207
25284SOL    HW177465   0.057   2.596   5.563 -1.0377 -1.8725  1.6059
25284SOL    HW277466   0.178   2.516   5.521 -0.2462 -0.6615  1.5270
25285SOL     OW77467   7.213   3.017   7.852 -0.1518 -0.1948 -0.3993
25285SOL    HW177468   7.248   3.104   7.871 -0.4989 -0.1012 -0.1873
25285SOL    HW277469   7.139   3.032   7.793 -0.0814 -0.3629 -0.5318
25286SOL     OW77470   1.331   9.709   1.856  0.3045  0.8984 -0.5119
25286SOL    HW177471   1.418   9.716   1.896  0.9991 -0.4729 -1.6588
25286SOL    HW277472   1.343   9.747   1.768  0.0331 -0.1788 -1.0295
25287SOL     OW77473   4.972   9.147   6.845  0.0926  0.5858  0.1859
25287SOL    HW177474   4.975   9.232   6.802 -4.1104 -0.1868 -2.2174
25287SOL    HW277475   4.927   9.163   6.928 -2.3719  0.6401 -1.0653
25288SOL     OW77476   9.075   2.846   1.979  0.5203  0.0227 -0.2764
25288SOL    HW177477   9.008   2.838   1.910 -0.0523  0.4452  0.2177
25288SOL    HW277478   9.151   2.801   1.943  0.2541  0.2856 -1.2225
25289SOL     OW77479   0.700   8.302   8.743 -0.0526 -0.4966 -0.3422
25289SOL    HW177480   0.644   8.291   8.665 -0.1661  2.0166 -0.6872
25289SOL    HW277481   0.675   8.387   8.778  1.0656 -0.9283  1.6196
25290SOL     OW77482   6.751   4.934   4.349  0.5762  0.6680  0.4253
25290SOL    HW177483   6.753   5.007   4.288  0.4597 -0.0798 -0.4939
25290SOL    HW277484   6.843   4.907   4.358  0.3718 -0.9202 -1.5533
25291SOL     OW77485   3.725   6.230   8.796  0.0704 -0.1253 -0.2601
25291SOL    HW177486   3.695   6.201   8.710 -0.9726 -1.9257  0.6490
25291SOL    HW277487   3.682   6.314   8.810 -0.4742 -0.2484 -1.1315
25292SOL     OW77488   3.573   7.373   2.488  0.1780  0.4097  0.1722
25292SOL    HW177489   3.595   7.355   2.396  1.4314 -3.5355  1.0561
25292SOL    HW277490   3.479   7.388   2.487  0.3904  2.1585 -1.9021
25293SOL     OW77491   7.905   8.104   8.170  1.0352  0.4777  0.3578
25293SOL    HW177492   7.850   8.040   8.125  1.9025 -0.4365  0.5784
25293SOL    HW277493   7.891   8.087   8.263  2.3749 -0.3859  0.4223
25294SOL     OW77494   3.236   7.764   2.617 -0.4769  0.0938 -0.3282
25294SOL    HW177495   3.170   7.829   2.595 -0.4024  0.0862 -0.5737
25294SOL    HW277496   3.269   7.733   2.533 -0.3531 -0.0989 -0.2105
25295SOL     OW77497   7.898   9.567   3.951 -0.1563  0.7223 -0.1230
25295SOL    HW177498   7.914   9.474   3.938 -3.0632 -0.1473  1.6487
25295SOL    HW277499   7.908   9.581   4.045 -0.0715  2.1594 -0.3210
25296SOL     OW77500   1.742   3.084   3.265 -0.5518 -0.2882 -0.4443
25296SOL    HW177501   1.699   3.002   3.241 -1.6778 -0.4797  1.9516
25296SOL    HW277502   1.673   3.150   3.259 -0.0207  0.2372 -0.9030
25297SOL     OW77503   8.201   4.504   8.160 -0.0167 -0.2291  0.4992
25297SOL    HW177504   8.246   4.463   8.233 -0.5913 -1.7775  0.0275
25297SOL    HW277505   8.124   4.448   8.144 -0.3830  0.5651 -0.7144
25298SOL     OW77506   1.840   5.843   6.911  0.0074 -0.3234 -0.0924
25298SOL    HW177507   1.874   5.830   7.000  0.9493  0.7228 -0.2728
25298SOL    HW277508   1.880   5.772   6.860 -1.8713 -1.9683  0.6065
25299SOL     OW77509   4.850   7.495   1.282 -0.2139 -0.4361  0.3049
25299SOL    HW177510   4.926   7.550   1.260 -1.2019  0.9674  0.2761
25299SOL    HW277511   4.820   7.461   1.198  0.6097 -1.3316  0.3585
25300SOL     OW77512   8.905   7.061   8.111  0.7459 -0.1047  0.2279
25300SOL    HW177513   8.975   7.124   8.091  0.4724 -0.0187 -0.5012
25300SOL    HW277514   8.930   7.023   8.194  1.3149  0.4206  0.3063
25301SOL     OW77515   0.196   0.190   6.319 -0.8648 -0.3134 -0.3415
25301SOL    HW177516   0.277   0.242   6.323 -0.7286 -0.4119 -1.5244
25301SOL    HW277517   0.213   0.126   6.250 -1.1483 -1.7472  0.8579
25302SOL     OW77518   5.821   9.117   5.036 -0.2392 -0.2801  0.5931
25302SOL    HW177519   5.833   9.204   5.074 -2.8408 -0.1685  1.3939
25302SOL    HW277520   5.870   9.119   4.954 -1.2021  2.4013 -0.0111
25303SOL     OW77521   4.905   7.068   1.644  0.1738 -0.2018  0.4876
25303SOL    HW177522   4.947   7.083   1.729  1.2004 -1.0596  0.1605
25303SOL    HW277523   4.913   6.974   1.631  3.1170  0.2328 -2.0345
25304SOL     OW77524   8.446   7.816   1.174  0.4186 -0.4285  0.3767
25304SOL    HW177525   8.470   7.774   1.256  0.7589  0.0045  0.5001
25304SOL    HW277526   8.420   7.905   1.198 -0.7656 -0.7022  0.1742
25305SOL     OW77527   9.754   3.551   8.585 -0.0949 -0.3438  0.6628
25305SOL    HW177528   9.842   3.573   8.617 -0.8562  0.7175  2.1541
25305SOL    HW277529   9.750   3.590   8.498  2.1107 -3.4698 -1.0420
25306SOL     OW77530   2.201   6.458   3.838 -0.3690 -0.2667  0.1743
25306SOL    HW177531   2.242   6.454   3.924  0.8977 -1.7722 -0.4467
25306SOL    HW277532   2.270   6.432   3.777 -1.7267 -1.0212 -1.1192
25307SOL     OW77533   8.197   7.597   6.856  0.1020  0.2485 -0.6273
25307SOL    HW177534   8.241   7.513   6.845 -0.2743 -0.0828  0.2580
25307SOL    HW277535   8.257   7.649   6.910 -0.5642 -0.2101  0.5953
25308SOL     OW77536   4.537   8.429   6.431 -0.5138 -0.8565  0.2798
25308SOL    HW177537   4.478   8.498   6.460 -0.2529 -0.6549  0.3339
25308SOL    HW277538   4.547   8.444   6.337 -1.0332 -1.2609  0.1564
25309SOL     OW77539   9.364   8.050   3.513  0.6168  0.3097 -0.3639
25309SOL    HW177540   9.337   8.140   3.528 -1.6710 -0.3207 -0.4245
25309SOL    HW277541   9.283   8.003   3.493  1.4786 -2.1176  1.3575
25310SOL     OW77542   2.568   2.568   9.220  0.0333 -0.0643 -0.1351
25310SOL    HW177543   2.586   2.622   9.298  0.8789 -0.5439  0.0218
25310SOL    HW277544   2.491   2.517   9.244 -1.0145  1.3089 -0.4231
25311SOL     OW77545   7.173   9.723   0.465  0.1089  0.0839  0.3757
25311SOL    HW177546   7.153   9.646   0.412 -1.4224  0.6513  0.1047
25311SOL    HW277547   7.247   9.764   0.421 -0.0194 -0.4224 -0.3161
25312SOL     OW77548   4.667   1.412   1.246 -0.0553 -0.2166  0.2030
25312SOL    HW177549   4.585   1.376   1.280 -0.6814  0.7547 -0.2369
25312SOL    HW277550   4.639   1.474   1.179  1.0148  0.6244  0.5227
25313SOL     OW77551   1.118   3.125   3.034 -0.4198 -0.4064 -0.4237
25313SOL    HW177552   1.028   3.124   3.003  0.1459  1.7019 -2.3885
25313SOL    HW277553   1.113   3.156   3.124 -1.5711  1.1106 -0.9789
25314SOL     OW77554   7.345   9.128   7.546  0.6168 -0.3885  0.1001
25314SOL    HW177555   7.349   9.045   7.497 -1.7675 -0.1045 -0.7140
25314SOL    HW277556   7.416   9.180   7.509 -0.2803 -0.6791 -2.2029
25315SOL     OW77557   8.342   1.022   7.454  0.3502 -0.4858 -0.5577
25315SOL    HW177558   8.370   1.042   7.365 -0.2571 -2.9222 -1.3745
25315SOL    HW277559   8.368   0.931   7.468 -1.6574 -0.9166  0.8690
25316SOL     OW77560   8.179   7.252   5.045  0.1827  0.3779 -0.2589
25316SOL    HW177561   8.226   7.203   5.112  0.1973  0.7490  0.0083
25316SOL    HW277562   8.217   7.340   5.050  0.6199  0.2503 -1.1802
25317SOL     OW77563   5.119   3.045   5.577  0.8822 -0.2596  0.1718
25317SOL    HW177564   5.108   3.090   5.493  0.0640  1.0395  0.9389
25317SOL    HW277565   5.099   3.112   5.643 -0.0804 -1.6601  1.3786
25318SOL     OW77566   0.390   4.255   1.416  0.6343  0.4090  0.3054
25318SOL    HW177567   0.403   4.175   1.365 -0.0447 -0.6175  1.6624
25318SOL    HW277568   0.353   4.318   1.353 -0.6209 -0.9472 -0.3829
25319SOL     OW77569   1.768   7.110   1.599 -0.6360  0.1134 -0.1537
25319SOL    HW177570   1.855   7.150   1.598  1.5990 -4.0615  1.4267
25319SOL    HW277571   1.751   7.093   1.692 -3.0625  0.4864 -0.4570
25320SOL     OW77572   9.458   7.596   5.249 -0.3258 -0.2506 -0.3944
25320SOL    HW177573   9.445   7.614   5.156  0.2834  1.2847 -0.2106
25320SOL    HW277574   9.512   7.669   5.280 -0.6755 -0.6433  1.2028
25321SOL     OW77575   4.334   4.853   6.239  0.6312  0.1685 -0.0047
25321SOL    HW177576   4.346   4.779   6.180 -0.3449 -1.2393  1.4556
25321SOL    HW277577   4.362   4.820   6.324 -1.2878  0.9416  0.9854
25322SOL     OW77578   6.866   4.507   5.249  0.5568 -0.9395  0.2737
25322SOL    HW177579   6.843   4.444   5.317  0.2541 -0.9915  0.1268
25322SOL    HW277580   6.947   4.548   5.280 -0.2110 -0.0972  1.2549
25323SOL     OW77581   6.284   5.901   6.815 -0.8392  0.2051 -0.3006
25323SOL    HW177582   6.251   5.845   6.744  0.4404  0.0803 -0.8230
25323SOL    HW277583   6.361   5.944   6.778 -0.6642  0.8185  0.7391
25324SOL     OW77584   4.174   4.298   2.730 -0.5781 -0.3430 -0.5780
25324SOL    HW177585   4.174   4.272   2.822 -0.4293  2.4873  0.3208
25324SOL    HW277586   4.229   4.233   2.687 -0.2873 -1.5012  1.4063
25325SOL     OW77587   0.327   8.157   4.055  0.1508 -0.1442  0.2024
25325SOL    HW177588   0.249   8.109   4.083 -0.1138 -1.3917 -2.4151
25325SOL    HW277589   0.399   8.096   4.074  0.2403  0.0100  0.3640
25326SOL     OW77590   1.690   5.960   3.426 -0.1961 -0.0383  0.5967
25326SOL    HW177591   1.617   6.017   3.451 -1.0396 -1.6365  1.9869
25326SOL    HW277592   1.731   6.005   3.353 -1.6784  1.6413  0.7170
25327SOL     OW77593   7.875   2.544   7.647  0.4068  0.5881  0.2108
25327SOL    HW177594   7.953   2.498   7.617  0.3004 -0.8972  1.9802
25327SOL    HW277595   7.826   2.563   7.568  1.2096 -1.0287 -0.7271
25328SOL     OW77596   6.388   6.716   6.761  0.2019 -0.3146  0.4508
25328SOL    HW177597   6.306   6.668   6.749  0.4796 -0.3318 -1.7869
25328SOL    HW277598   6.412   6.745   6.673  2.7165 -0.4758  1.0145
25329SOL     OW77599   4.635   5.106   8.426  0.3628  0.3565  0.7329
25329SOL    HW177600   4.581   5.073   8.354 -2.8140  1.1283  2.6115
25329SOL    HW277601   4.672   5.027   8.466 -1.2943 -0.4268  0.7940
25330SOL     OW77602   3.934   2.224   8.170 -0.5306 -0.3365 -0.3769
25330SOL    HW177603   3.974   2.143   8.136 -1.6697 -0.8822 -0.4585
25330SOL    HW277604   3.891   2.263   8.094 -1.7568 -0.7487  0.0830
25331SOL     OW77605   0.036   4.963   4.690  0.5054 -0.2269  0.1153
25331SOL    HW177606   0.028   4.931   4.600  0.3650  0.7567 -0.2332
25331SOL    HW277607   0.094   4.900   4.732  0.2243 -0.9438 -0.5442
25332SOL     OW77608   2.823   6.312   1.578  0.0265  0.2185  0.4486
25332SOL    HW177609   2.878   6.320   1.500 -0.8618 -1.0231 -0.3384
25332SOL    HW277610   2.737   6.345   1.551 -0.5998 -1.2735  0.5253
25333SOL     OW77611   5.149   1.201   7.192  0.0329  0.1975 -0.0014
25333SOL    HW177612   5.172   1.291   7.170 -0.9849  0.5772  0.4398
25333SOL    HW277613   5.222   1.170   7.246  0.2173  0.8625  0.1378
25334SOL     OW77614   3.844   5.310   4.881 -0.0444 -0.6620  0.6367
25334SOL    HW177615   3.884   5.396   4.890 -0.6645 -0.0761 -1.6169
25334SOL    HW277616   3.751   5.325   4.896 -0.5765 -0.3141 -2.3895
25335SOL     OW77617   7.856   7.529   6.663 -0.1583 -0.2164 -0.2719
25335SOL    HW177618   7.914   7.458   6.635 -0.6259 -0.4052 -0.7847
25335SOL    HW277619   7.827   7.569   6.581  0.2162  0.6609  0.0213
25336SOL     OW77620   5.984   8.647   1.941  0.1740 -0.4505 -1.0618
25336SOL    HW177621   5.970   8.561   1.901  0.9372 -0.3607 -1.5353
25336SOL    HW277622   5.973   8.709   1.869 -0.6210 -0.1207 -0.6723
25337SOL     OW77623   5.145   4.875   4.014 -0.0440 -0.2698  0.4672
25337SOL    HW177624   5.077   4.941   4.022  0.4687  0.2575  0.4707
25337SOL    HW277625   5.127   4.832   3.930 -0.2617 -0.0041  0.3786
25338SOL     OW77626   6.613   9.246   2.856 -0.0249  0.0530 -0.0186
25338SOL    HW177627   6.689   9.225   2.803 -1.0608 -1.9423 -0.8180
25338SOL    HW277628   6.624   9.195   2.936  0.2612  1.0394  0.5859
25339SOL     OW77629   4.143   1.035   7.609 -0.1742  0.2554 -0.8044
25339SOL    HW177630   4.129   1.118   7.564 -1.0885  0.8984  0.6109
25339SOL    HW277631   4.065   1.023   7.662  1.6901  0.5960  2.2334
25340SOL     OW77632   6.724   6.343   0.862  0.2371 -0.5277  0.2496
25340SOL    HW177633   6.678   6.271   0.904 -3.2276 -1.0545 -3.7606
25340SOL    HW277634   6.799   6.301   0.819 -0.9462 -1.5956 -0.8616
25341SOL     OW77635   6.377   0.114   9.308 -0.3499  0.5993  0.7096
25341SOL    HW177636   6.286   0.088   9.296 -0.0405 -0.5779  0.7741
25341SOL    HW277637   6.412   0.122   9.219 -0.6979  1.8151  0.6599
25342SOL     OW77638   3.806   2.704   8.223 -0.4042  0.1660 -0.5764
25342SOL    HW177639   3.827   2.613   8.203 -0.5055 -0.1606  0.7319
25342SOL    HW277640   3.747   2.699   8.298 -0.1053  1.3275 -0.2526
25343SOL     OW77641   5.441   6.103   2.145  0.3331  0.3125 -0.4780
25343SOL    HW177642   5.445   6.084   2.051  0.9893 -3.0394  0.0782
25343SOL    HW277643   5.505   6.043   2.184 -1.1452  0.3494  2.2587
25344SOL     OW77644   4.423   8.731   2.843  0.2709  0.3015 -1.0674
25344SOL    HW177645   4.405   8.663   2.908 -0.4824 -0.6622 -2.2537
25344SOL    HW277646   4.456   8.805   2.895 -1.3633 -0.0277  0.5406
25345SOL     OW77647   4.067   2.500   6.071  0.0133 -0.3083 -0.3561
25345SOL    HW177648   4.105   2.421   6.110 -0.8660 -1.0839 -1.0121
25345SOL    HW277649   4.117   2.572   6.108  0.9976 -1.1935  0.0739
25346SOL     OW77650   0.285   5.526   1.348  0.2468 -0.3763 -0.2394
25346SOL    HW177651   0.350   5.510   1.279  1.2934 -1.8301  1.0008
25346SOL    HW277652   0.335   5.566   1.419 -0.9573  1.7777 -0.5316
25347SOL     OW77653   5.481   5.404   0.869  0.1523 -0.3549  0.0984
25347SOL    HW177654   5.524   5.438   0.948 -0.7519  0.3028  0.3195
25347SOL    HW277655   5.499   5.470   0.803  1.1005 -1.0133 -0.3312
25348SOL     OW77656   8.340   2.548   3.993 -0.5792 -0.5662  0.3313
25348SOL    HW177657   8.369   2.608   3.924  0.2294 -1.1193  0.1796
25348SOL    HW277658   8.420   2.505   4.022 -1.0490 -0.9951  0.9924
25349SOL     OW77659   6.335   3.956   3.917 -0.1372 -0.4840 -0.2653
25349SOL    HW177660   6.358   4.039   3.960  0.9297 -1.3618  0.9486
25349SOL    HW277661   6.395   3.950   3.842  1.9121 -1.4766  1.3320
25350SOL     OW77662   9.584   7.618   7.613 -0.4198  0.1816 -0.0603
25350SOL    HW177663   9.672   7.635   7.646 -0.2179  1.0910 -1.0092
25350SOL    HW277664   9.541   7.704   7.612 -0.7051  0.0400 -1.2867
25351SOL     OW77665   3.591   7.368   4.809 -0.2634  0.1243 -0.5161
25351SOL    HW177666   3.578   7.424   4.886  0.6575 -0.2761 -0.0530
25351SOL    HW277667   3.536   7.408   4.741  0.8983  2.0441 -0.4145
25352SOL     OW77668   0.471   8.506   0.768 -0.3277  0.1857 -0.1215
25352SOL    HW177669   0.538   8.571   0.748  0.2505 -0.4708 -0.3569
25352SOL    HW277670   0.406   8.516   0.698 -1.0491  1.5621  0.7075
25353SOL     OW77671   0.743   2.103   7.803  0.3792 -0.1204  0.0591
25353SOL    HW177672   0.789   2.152   7.871 -0.5609 -0.9208  1.3221
25353SOL    HW277673   0.683   2.166   7.764  2.4102  0.9393 -1.6073
25354SOL     OW77674   1.793   7.230   7.512  0.6422 -0.2252 -0.4953
25354SOL    HW177675   1.744   7.165   7.562 -2.6918  1.8499 -0.7504
25354SOL    HW277676   1.768   7.215   7.421  2.6589 -0.7571 -1.0117
25355SOL     OW77677   7.111   7.649   0.747  0.4779 -0.2059 -0.3876
25355SOL    HW177678   7.193   7.622   0.788 -0.7739 -2.9939  0.4812
25355SOL    HW277679   7.056   7.570   0.747 -2.2491  1.5462 -0.8723
25356SOL     OW77680   7.791   9.432   2.204  0.6886 -0.5403  0.9056
25356SOL    HW177681   7.803   9.355   2.259  3.6608  0.0054  1.1546
25356SOL    HW277682   7.832   9.504   2.252  2.1546  0.2292 -1.3235
25357SOL     OW77683   4.313   6.410   6.072 -0.4770  0.2230  0.7235
25357SOL    HW177684   4.373   6.476   6.036 -0.1513  0.4487  1.6264
25357SOL    HW277685   4.285   6.448   6.156  0.4165 -1.1869  1.6834
25358SOL     OW77686   8.760   1.600   4.080  0.3413  0.0732 -0.4599
25358SOL    HW177687   8.842   1.649   4.086  0.5602 -0.1262 -1.5034
25358SOL    HW277688   8.776   1.535   4.011 -0.9969  0.6586 -1.3744
25359SOL     OW77689   2.953   5.444   9.280  0.0391 -0.3534 -0.1774
25359SOL    HW177690   2.949   5.353   9.249 -0.3258 -0.2208 -0.5354
25359SOL    HW277691   2.885   5.449   9.347  0.5074 -0.5149  0.3163
25360SOL     OW77692   2.319   9.633   3.576  0.2218 -0.0616 -0.1780
25360SOL    HW177693   2.260   9.563   3.549 -1.8028  0.2832  2.9183
25360SOL    HW277694   2.366   9.597   3.651  0.1519  1.3994  0.6013
25361SOL     OW77695   4.059   6.416   3.213  0.8189  0.2610 -0.2598
25361SOL    HW177696   4.102   6.481   3.269 -0.7727  0.5965  0.6469
25361SOL    HW277697   4.041   6.463   3.132 -2.9486  2.0596  1.3812
25362SOL     OW77698   3.339   2.069   1.580  0.4025 -0.3343 -0.1029
25362SOL    HW177699   3.403   2.135   1.553  1.5771 -0.9729  1.0040
25362SOL    HW277700   3.387   1.986   1.574  0.6715 -0.5763  3.4839
25363SOL     OW77701   1.507   5.034   2.861 -0.7606  0.2140  0.0090
25363SOL    HW177702   1.492   5.061   2.770 -0.6763  1.4927  0.3610
25363SOL    HW277703   1.456   4.954   2.870  1.2124 -1.3715 -1.8809
25364SOL     OW77704   5.492   8.425   7.027  0.6031 -0.6388 -0.0441
25364SOL    HW177705   5.403   8.461   7.036  0.9158 -0.2260  1.6999
25364SOL    HW277706   5.514   8.440   6.935  0.1199  2.3094  0.2095
25365SOL     OW77707   3.930   9.566   4.153 -0.3614 -0.2125  0.1787
25365SOL    HW177708   3.991   9.561   4.079  0.6790  0.0068  0.9880
25365SOL    HW277709   3.872   9.639   4.132  0.0281 -0.0488 -0.3481
25366SOL     OW77710   5.204   2.061   8.683  0.2176 -0.2214 -0.3744
25366SOL    HW177711   5.285   2.105   8.709  0.4416 -0.6700 -0.3009
25366SOL    HW277712   5.151   2.130   8.644  0.1265  0.3378  0.7161
25367SOL     OW77713   3.742   4.867   1.058  0.3919  0.4019  0.2894
25367SOL    HW177714   3.831   4.895   1.082  1.1918 -0.7981 -1.1000
25367SOL    HW277715   3.748   4.849   0.964 -0.4773 -2.7251  0.7370
25368SOL     OW77716   2.478   6.495   8.609  0.0900  0.2547 -0.0257
25368SOL    HW177717   2.431   6.444   8.543 -0.2229 -0.2123  0.5492
25368SOL    HW277718   2.557   6.443   8.627 -0.0575  0.1460  0.3090
25369SOL     OW77719   7.024   3.624   3.432  0.2576 -0.5020  0.1145
25369SOL    HW177720   7.028   3.564   3.358  0.0164  0.1937 -0.4692
25369SOL    HW277721   7.113   3.624   3.469  0.8199  0.3732 -1.1640
25370SOL     OW77722   6.768   4.340   8.888 -0.4222  0.2902 -0.3215
25370SOL    HW177723   6.703   4.270   8.877 -1.7382  1.5128 -0.5059
25370SOL    HW277724   6.781   4.374   8.799  1.8018 -1.0479 -0.5876
25371SOL     OW77725   7.553   4.568   7.528  0.4896 -0.2628  0.2841
25371SOL    HW177726   7.479   4.573   7.468  0.9800  0.5714 -0.2784
25371SOL    HW277727   7.614   4.635   7.497  1.3020 -0.6496  0.9801
25372SOL     OW77728   2.428   3.767   2.390  0.1320  0.0612  0.2293
25372SOL    HW177729   2.504   3.716   2.419  0.7353  1.3071  0.8775
25372SOL    HW277730   2.358   3.702   2.382  0.9808 -0.9363  0.6586
25373SOL     OW77731   7.444   4.212   2.497 -0.3015  0.1262  0.3135
25373SOL    HW177732   7.418   4.300   2.470  0.1469  0.0597 -0.3411
25373SOL    HW277733   7.533   4.222   2.530 -1.1403  0.3890  2.7442
25374SOL     OW77734   7.429   5.210   5.753  0.1491 -0.1112  0.5423
25374SOL    HW177735   7.410   5.213   5.659  0.7683 -2.1403  0.2939
25374SOL    HW277736   7.523   5.228   5.759  0.7081 -2.6558  0.4391
25375SOL     OW77737   5.167   9.028   7.265 -0.2793  0.4179 -0.6857
25375SOL    HW177738   5.110   9.014   7.340 -0.5594 -2.2762 -1.3039
25375SOL    HW277739   5.253   9.048   7.302 -0.3349 -1.1851  0.3665
25376SOL     OW77740   0.877   3.799   1.297 -0.8245  0.0575  0.1260
25376SOL    HW177741   0.953   3.747   1.321  0.2503  0.5768 -1.8935
25376SOL    HW277742   0.804   3.737   1.295 -0.2881 -0.6275  1.2201
25377SOL     OW77743   2.690   2.677   2.704  0.0392 -0.2175 -0.5205
25377SOL    HW177744   2.781   2.688   2.679  0.0376  1.1322 -0.0327
25377SOL    HW277745   2.651   2.763   2.689 -0.3532  0.2224  2.4259
25378SOL     OW77746   8.569   4.233   0.507  0.1657  0.1623 -0.0535
25378SOL    HW177747   8.613   4.286   0.574  1.1049 -1.8505  1.0283
25378SOL    HW277748   8.513   4.174   0.557 -1.3963  0.5678 -1.2607
25379SOL     OW77749   0.701   8.721   7.311 -0.3623 -0.5320  0.5184
25379SOL    HW177750   0.711   8.810   7.343  1.0045 -0.5121  0.0945
25379SOL    HW277751   0.766   8.713   7.241 -0.7702 -1.7212  0.2523
25380SOL     OW77752   4.873   5.002   0.122  0.2267 -0.2829 -0.5774
25380SOL    HW177753   4.890   5.045   0.206  1.5506 -1.3596 -0.2688
25380SOL    HW277754   4.806   5.057   0.080 -0.8546 -0.0003  1.3905
25381SOL     OW77755   2.400   8.810   2.740 -0.2097  0.5241 -0.0288
25381SOL    HW177756   2.308   8.788   2.759 -0.8251  2.6980 -0.2766
25381SOL    HW277757   2.396   8.861   2.660  0.8989  2.8689  1.3249
25382SOL     OW77758   7.204   5.934   1.082 -0.2086  0.7386 -0.3852
25382SOL    HW177759   7.192   5.976   0.997  1.6226 -0.3808 -1.2608
25382SOL    HW277760   7.128   5.876   1.091  0.5863 -0.7111 -2.2923
25383SOL     OW77761   9.516   6.951   5.000  0.0761  0.7430 -0.3212
25383SOL    HW177762   9.483   7.038   5.020 -0.8595  0.2452  0.3532
25383SOL    HW277763   9.540   6.914   5.085 -1.3597 -0.3669 -0.3686
25384SOL     OW77764   4.950   6.847   4.276  0.0794  0.2514 -0.3591
25384SOL    HW177765   4.961   6.813   4.365  0.0101  0.6686 -0.1889
25384SOL    HW277766   5.037   6.879   4.252  0.2504 -0.4465 -0.6905
25385SOL     OW77767   9.702   0.288   4.345  0.3552 -0.2013  0.4057
25385SOL    HW177768   9.722   0.261   4.256  0.6037  0.2077  0.3362
25385SOL    HW277769   9.681   0.381   4.338 -3.1803 -0.8765  0.2095
25386SOL     OW77770   5.949   0.464   7.607 -0.2133  0.1529  0.9790
25386SOL    HW177771   5.892   0.434   7.537  0.4569 -1.8364  1.2170
25386SOL    HW277772   5.908   0.432   7.688  0.7625 -0.5702  1.2125
25387SOL     OW77773   1.395   5.503   2.743 -0.3965 -0.0884  0.0595
25387SOL    HW177774   1.356   5.560   2.809 -1.3995  0.4354 -0.9346
25387SOL    HW277775   1.334   5.429   2.737 -0.7722  0.2697 -0.8282
25388SOL     OW77776   3.711   0.007   4.490 -0.6266 -1.1471 -0.2925
25388SOL    HW177777   3.642   0.013   4.557 -0.0573  1.0400  0.2034
25388SOL    HW277778   3.684   0.070   4.423  1.0329  0.0511  0.1051
25389SOL     OW77779   1.656   1.975   7.774  0.3938  0.1726  0.3476
25389SOL    HW177780   1.592   1.959   7.705 -0.6965  1.5665  0.9858
25389SOL    HW277781   1.681   2.066   7.764  1.7527 -0.1527  0.5710
25390SOL     OW77782   3.627   8.790   8.075 -0.6289  0.3060  0.1911
25390SOL    HW177783   3.573   8.712   8.083 -0.2827  0.1842  1.5179
25390SOL    HW277784   3.564   8.863   8.078 -1.1326  0.1279 -2.6526
25391SOL     OW77785   3.515   1.715   2.201 -0.3761  0.0899  0.1648
25391SOL    HW177786   3.494   1.629   2.166  0.5142 -0.0301 -0.0842
25391SOL    HW277787   3.473   1.776   2.140 -0.2745 -0.1534 -0.1519
25392SOL     OW77788   3.414   6.890   8.000 -0.4350  0.3851  0.2668
25392SOL    HW177789   3.357   6.823   7.964  1.3270 -2.1797  1.9054
25392SOL    HW277790   3.428   6.952   7.928 -0.5662 -2.0898 -2.0156
25393SOL     OW77791   9.387   6.511   4.781 -0.5246 -0.2359 -0.0552
25393SOL    HW177792   9.450   6.581   4.799  0.0035 -0.3192 -1.4363
25393SOL    HW277793   9.437   6.447   4.730 -1.2842 -1.1242  0.3015
25394SOL     OW77794   0.377   1.843   5.635  0.0710 -0.4146 -0.5467
25394SOL    HW177795   0.455   1.797   5.664 -0.7309 -0.3970  1.8567
25394SOL    HW277796   0.406   1.897   5.561  1.6991 -2.3868 -1.4270
25395SOL     OW77797   1.608   3.194   3.593 -0.5116  0.0241 -0.7777
25395SOL    HW177798   1.555   3.254   3.644 -0.3949  0.1042 -0.7514
25395SOL    HW277799   1.699   3.220   3.610 -0.4865  1.5680 -2.8260
25396SOL     OW77800   0.118   5.937   2.966  0.4875 -0.2005  0.4785
25396SOL    HW177801   0.057   6.004   2.995  1.5826  1.4625 -0.8740
25396SOL    HW277802   0.077   5.898   2.889  0.2447 -0.4822  0.7486
25397SOL     OW77803   4.815   5.797   0.078 -0.4719  0.2167  0.5452
25397SOL    HW177804   4.812   5.723   0.018  1.4731  0.0036  0.6452
25397SOL    HW277805   4.753   5.774   0.148 -0.5645 -0.8928  0.1189
25398SOL     OW77806   9.559   0.341   6.571  0.0816 -0.5081  0.3902
25398SOL    HW177807   9.584   0.258   6.530  0.5252  0.4533 -1.4217
25398SOL    HW277808   9.630   0.401   6.548 -1.3064  0.9519 -0.3557
25399SOL     OW77809   7.909   7.492   0.283 -0.3436  0.3287 -0.4544
25399SOL    HW177810   7.863   7.552   0.341  0.2879 -0.3088  0.7488
25399SOL    HW277811   7.929   7.544   0.206 -2.4353  0.8036 -0.7277
25400SOL     OW77812   4.353   1.245   6.063  0.1761  0.0839 -0.3771
25400SOL    HW177813   4.435   1.214   6.101 -0.5728 -0.7037  0.6618
25400SOL    HW277814   4.292   1.172   6.076 -0.7341  0.7327 -0.9487
25401SOL     OW77815   6.462   5.137   7.559  0.1280 -0.6151 -0.4644
25401SOL    HW177816   6.461   5.135   7.655 -2.4264  1.3152 -0.3548
25401SOL    HW277817   6.441   5.047   7.533 -0.5357 -0.8502  0.8088
25402SOL     OW77818   2.903   6.544   9.517  0.1913 -0.2291  0.0817
25402SOL    HW177819   2.995   6.548   9.491  0.7351  1.8468  2.0232
25402SOL    HW277820   2.859   6.605   9.459  0.4468  0.4029  0.5431
25403SOL     OW77821   0.427   5.265   4.890 -0.8977  0.5692  0.8281
25403SOL    HW177822   0.467   5.349   4.868  1.8633 -1.4796 -3.3044
25403SOL    HW277823   0.340   5.268   4.850 -0.1870  0.9777 -0.7708
25404SOL     OW77824   5.304   8.158   1.546 -0.0061  0.0881 -0.1737
25404SOL    HW177825   5.230   8.204   1.585 -0.4405  0.0246 -0.9131
25404SOL    HW277826   5.292   8.067   1.574  0.5869  0.3148  0.8828
25405SOL     OW77827   3.782   4.114   8.681 -0.1422 -0.0478  0.0308
25405SOL    HW177828   3.707   4.155   8.723 -0.0869 -0.7429  0.8164
25405SOL    HW277829   3.858   4.154   8.724 -0.0058  1.3818 -1.4318
25406SOL     OW77830   0.244   4.572   6.953 -0.7211  0.0835 -0.4863
25406SOL    HW177831   0.161   4.595   6.995 -0.4222  0.8295 -0.2760
25406SOL    HW277832   0.311   4.602   7.015 -0.2896 -0.0404 -0.8867
25407SOL     OW77833   3.039   9.240   8.835  0.0246 -0.0987 -0.3080
25407SOL    HW177834   3.026   9.303   8.906 -1.3375  0.5996 -1.1503
25407SOL    HW277835   2.973   9.172   8.852  1.0580 -1.0131  0.2284
25408SOL     OW77836   7.841   4.297   4.556  0.4064  0.4454 -0.0046
25408SOL    HW177837   7.845   4.241   4.634 -3.2274 -0.7485 -0.4873
25408SOL    HW277838   7.905   4.259   4.495 -0.4166 -1.8727  0.4963
25409SOL     OW77839   0.088   3.747   7.523  0.1356 -0.0657  0.1991
25409SOL    HW177840   0.146   3.672   7.509  0.0260  0.0588 -1.0237
25409SOL    HW277841  -0.000   3.713   7.508  0.0041  0.0878  0.6053
25410SOL     OW77842   1.845   9.746   8.839 -0.4419 -0.2946 -0.1870
25410SOL    HW177843   1.755   9.779   8.835 -0.7393 -1.0471  0.1404
25410SOL    HW277844   1.838   9.660   8.881  0.5585  0.1350  0.9213
25411SOL     OW77845   0.840   3.136   2.933 -0.0931 -0.3270 -0.3908
25411SOL    HW177846   0.812   3.167   2.847 -1.4631 -0.2113  0.0763
25411SOL    HW277847   0.813   3.044   2.935  0.7756 -0.5957 -0.4214
25412SOL     OW77848   7.681   2.032   4.101 -0.0464 -0.0129  0.5610
25412SOL    HW177849   7.759   2.048   4.048 -0.9759  0.3523 -0.7533
25412SOL    HW277850   7.637   2.117   4.105 -1.4444 -0.6511 -0.5055
25413SOL     OW77851   7.031   7.612   4.205 -0.0687  0.3060  0.4893
25413SOL    HW177852   6.937   7.626   4.198 -0.1997  0.0132  1.5204
25413SOL    HW277853   7.070   7.680   4.150 -0.8960 -0.0436 -0.5498
25414SOL     OW77854   5.714   3.179   9.331 -0.0275  0.0546 -0.0937
25414SOL    HW177855   5.626   3.146   9.349 -1.2585  2.8012 -0.6452
25414SOL    HW277856   5.747   3.123   9.261 -0.1901 -2.6753  1.8059
25415SOL     OW77857   1.840   3.748   5.427  0.3147 -0.3675  0.2290
25415SOL    HW177858   1.779   3.717   5.494  0.5371  1.2790  1.2391
25415SOL    HW277859   1.886   3.669   5.398 -1.0095 -1.3683  0.7373
25416SOL     OW77860   1.542   6.556   7.897 -0.4280 -0.0776 -0.5956
25416SOL    HW177861   1.626   6.595   7.876 -1.3607  0.8510 -2.8764
25416SOL    HW277862   1.560   6.462   7.902  0.5767  0.0134 -2.0396
25417SOL     OW77863   0.443   0.441   7.954  0.5948 -0.1913  0.6177
25417SOL    HW177864   0.525   0.472   7.991  0.1106  1.8618  0.1273
25417SOL    HW277865   0.442   0.476   7.865 -0.6813 -0.4040  0.5238
25418SOL     OW77866   7.985   5.956   3.821  0.1870  0.4097  0.5782
25418SOL    HW177867   7.911   5.926   3.874  0.6292 -1.1033  0.3884
25418SOL    HW277868   7.977   5.907   3.739 -1.0740  3.4213 -1.2815
25419SOL     OW77869   9.777   6.387   4.946  0.2506 -0.1121  1.0368
25419SOL    HW177870   9.866   6.353   4.956  0.5454  0.9048  2.1377
25419SOL    HW277871   9.720   6.316   4.976  0.5889 -1.2032 -0.7422
25420SOL     OW77872   2.327   8.719   1.873 -0.3056 -0.9889  0.7922
25420SOL    HW177873   2.268   8.656   1.833  0.9053  0.4505 -3.9693
25420SOL    HW277874   2.414   8.680   1.863  0.4337  1.0098 -2.0189
25421SOL     OW77875   8.984   5.293   5.056  0.7670  0.1531  0.4033
25421SOL    HW177876   8.973   5.200   5.041  1.6342 -0.0450  0.9066
25421SOL    HW277877   9.057   5.299   5.118 -1.5974  1.0002  3.3055
25422SOL     OW77878   0.718   0.585   0.593  0.3462  0.4793  0.1807
25422SOL    HW177879   0.759   0.508   0.633 -1.7215 -0.7786  0.0154
25422SOL    HW277880   0.784   0.618   0.532  0.8890 -1.9162 -0.6529
25423SOL     OW77881   5.679   7.222   5.670 -0.5550  0.3846  0.0209
25423SOL    HW177882   5.698   7.267   5.753 -0.5847  0.5910 -0.0851
25423SOL    HW277883   5.675   7.129   5.694 -0.9089  0.4741  0.3162
25424SOL     OW77884   9.616   6.110   1.514  0.4690 -0.5661  0.0083
25424SOL    HW177885   9.576   6.195   1.533  1.3957 -0.3135  0.9319
25424SOL    HW277886   9.710   6.127   1.515  0.6582 -1.5170 -0.2941
25425SOL     OW77887   1.050   3.666   2.505  0.2208 -0.1366  0.0388
25425SOL    HW177888   1.052   3.750   2.460  0.6815 -0.0288  0.2538
25425SOL    HW277889   1.107   3.678   2.582  0.7408 -0.8102 -0.2321
25426SOL     OW77890   1.916   2.824   9.158 -0.0902  0.7026 -0.2366
25426SOL    HW177891   1.979   2.894   9.178  1.3127  0.2947 -2.7707
25426SOL    HW277892   1.837   2.849   9.205  1.7636  1.4951  2.7231
25427SOL     OW77893   4.295   3.232   2.212 -0.2242 -0.0516  0.0975
25427SOL    HW177894   4.257   3.262   2.129  1.6807 -0.2302 -0.8837
25427SOL    HW277895   4.321   3.312   2.257 -0.8625  0.0244  0.3415
25428SOL     OW77896   3.450   6.169   1.952 -0.4647  0.1839  0.3785
25428SOL    HW177897   3.393   6.112   2.004 -2.6695  1.1035 -0.8727
25428SOL    HW277898   3.393   6.200   1.881  2.1687 -0.3992 -2.1691
25429SOL     OW77899   2.457   9.664   1.070 -0.2375  0.1182  0.0220
25429SOL    HW177900   2.453   9.570   1.054 -1.5920  0.2597 -0.6623
25429SOL    HW277901   2.520   9.697   1.006 -1.3085 -0.0895 -1.1981
25430SOL     OW77902   5.102   8.360   1.657  0.0774  0.3172 -0.5386
25430SOL    HW177903   5.045   8.353   1.580 -2.0346  0.6261  0.9280
25430SOL    HW277904   5.076   8.287   1.713  1.2804  0.3534  0.0920
25431SOL     OW77905   8.334   4.723   0.779 -0.0478  0.1549 -0.1871
25431SOL    HW177906   8.396   4.718   0.706  2.4351 -0.3630  1.8370
25431SOL    HW277907   8.282   4.643   0.772 -0.4207  0.4903 -1.7884
25432SOL     OW77908   4.493   0.894   2.647 -0.6199 -0.5767  0.1960
25432SOL    HW177909   4.459   0.978   2.615 -4.4331 -2.7756 -2.2809
25432SOL    HW277910   4.441   0.875   2.725 -0.5437 -1.1106  0.1208
25433SOL     OW77911   3.559   4.065   4.476  0.5949  0.1759  0.0155
25433SOL    HW177912   3.495   4.109   4.421 -0.3588  1.0190  1.7089
25433SOL    HW277913   3.507   4.018   4.542  1.6641 -1.4793 -0.2453
25434SOL     OW77914   6.250   7.699   3.332  0.2557  0.7031 -0.8866
25434SOL    HW177915   6.162   7.663   3.320  0.0939  0.4602  0.7738
25434SOL    HW277916   6.307   7.623   3.336 -0.0288  0.5488  2.1704
25435SOL     OW77917   2.534   4.689   8.671  0.7288 -0.0938 -0.1793
25435SOL    HW177918   2.531   4.783   8.654  0.8403  0.3768  2.1073
25435SOL    HW277919   2.612   4.659   8.625 -0.2109  0.5705 -2.3335
25436SOL     OW77920   6.490   0.604   5.363  0.1773 -0.0052 -0.1006
25436SOL    HW177921   6.401   0.612   5.330  0.5569 -0.2122 -1.2562
25436SOL    HW277922   6.492   0.520   5.409 -0.6435  0.7751  1.4038
25437SOL     OW77923   4.929   9.006   6.405  0.0859 -0.0365  0.3408
25437SOL    HW177924   4.878   8.998   6.324  0.8060  0.7519 -0.2018
25437SOL    HW277925   5.020   9.005   6.376  0.3589  2.2352  0.9192
25438SOL     OW77926   2.909   4.610   0.382  0.5381  0.4077  0.1011
25438SOL    HW177927   2.900   4.561   0.464 -0.9443  0.7061  0.1501
25438SOL    HW277928   2.938   4.546   0.318 -1.1660 -0.5244  0.2112
25439SOL     OW77929   9.158   4.681   5.131  0.0900  0.5928 -0.3204
25439SOL    HW177930   9.186   4.680   5.040  0.2031  0.4334 -0.2835
25439SOL    HW277931   9.123   4.593   5.147 -0.6328  0.8535 -0.4299
25440SOL     OW77932   8.534   9.240   3.990 -1.0351  0.4140  0.3484
25440SOL    HW177933   8.450   9.209   4.023 -1.9974  1.3922 -1.0537
25440SOL    HW277934   8.583   9.267   4.068 -1.0964 -2.2162  1.3946
25441SOL     OW77935   8.724   5.912   2.484 -0.4487  0.4833 -0.0849
25441SOL    HW177936   8.711   5.944   2.395  0.0517 -1.8849 -1.0826
25441SOL    HW277937   8.636   5.909   2.522 -0.7077  1.1351 -0.6168
25442SOL     OW77938   1.140   4.419   3.613 -0.2865  0.4477  0.1067
25442SOL    HW177939   1.212   4.434   3.674 -1.1247  0.5477  1.0968
25442SOL    HW277940   1.094   4.343   3.648  1.8936 -2.5434 -2.9620
25443SOL     OW77941   7.809   7.930   8.381 -0.2485 -0.6399  0.5078
25443SOL    HW177942   7.792   7.932   8.475  1.0050 -2.0306  0.8029
25443SOL    HW277943   7.894   7.887   8.373 -1.1350 -2.1981 -1.3522
25444SOL     OW77944   2.727   5.567   0.508 -0.2654 -0.3238  0.4343
25444SOL    HW177945   2.648   5.517   0.486 -0.5225 -0.1921  1.0566
25444SOL    HW277946   2.795   5.528   0.454 -0.6901 -0.6426  0.1183
25445SOL     OW77947   5.765   0.336   4.030  0.5042 -0.7375 -0.1413
25445SOL    HW177948   5.758   0.278   3.955 -1.9057 -1.7662  0.7660
25445SOL    HW277949   5.678   0.374   4.040  0.7710 -0.5471  2.0446
25446SOL     OW77950   3.526   4.643   9.239  0.5379 -0.1628  0.0298
25446SOL    HW177951   3.434   4.639   9.263  0.5862 -1.4463  0.0430
25446SOL    HW277952   3.549   4.736   9.249 -1.5461  0.8281 -3.0503
25447SOL     OW77953   1.701   1.062   2.948  0.4987  0.8767 -0.1480
25447SOL    HW177954   1.717   1.079   3.041  0.6933  0.7764 -0.1635
25447SOL    HW277955   1.606   1.068   2.939  0.0484 -2.6949  0.7931
25448SOL     OW77956   0.750   7.797   8.809  0.3729 -0.0590  0.4863
25448SOL    HW177957   0.814   7.757   8.750 -0.7682 -0.4127 -0.5485
25448SOL    HW277958   0.752   7.890   8.787 -1.5966 -0.4528 -1.7339
25449SOL     OW77959   0.885   9.051   9.241  0.5970 -0.1877 -0.1412
25449SOL    HW177960   0.968   9.061   9.287  0.8670 -0.5927 -0.5401
25449SOL    HW277961   0.819   9.074   9.307  1.0660  2.0903 -0.3703
25450SOL     OW77962   3.162   8.614   6.019 -0.2891 -0.1848  0.1740
25450SOL    HW177963   3.222   8.688   6.029 -0.3076 -0.1090 -0.2679
25450SOL    HW277964   3.218   8.541   5.993  0.3098 -1.2731  3.8844
25451SOL     OW77965   5.956   9.427   9.215 -0.6174  0.2245 -0.0249
25451SOL    HW177966   5.930   9.373   9.289 -1.8036 -0.2260 -0.7426
25451SOL    HW277967   5.910   9.510   9.228 -0.6414  0.2299 -0.1441
25452SOL     OW77968   7.895   6.720   4.370 -0.2637  0.7784  0.1745
25452SOL    HW177969   7.871   6.788   4.307  1.0733  1.2958  0.1879
25452SOL    HW277970   7.923   6.646   4.316 -1.1709  0.4275  0.1653
25453SOL     OW77971   8.971   2.345   5.427 -0.2418  0.1610 -0.2637
25453SOL    HW177972   9.061   2.355   5.396  0.5822  0.1315  1.9570
25453SOL    HW277973   8.917   2.369   5.351  1.5982 -0.2868 -1.8026
25454SOL     OW77974   0.217   6.742   6.902  0.0157  0.3480  0.2886
25454SOL    HW177975   0.232   6.652   6.873  1.9672  0.7048  0.0525
25454SOL    HW277976   0.142   6.772   6.852  0.0842 -0.7654 -0.5095
25455SOL     OW77977   8.397   7.049   2.652  0.0671  1.6132  0.6513
25455SOL    HW177978   8.483   7.088   2.670  0.5466  0.3657  1.2047
25455SOL    HW277979   8.411   6.955   2.663 -1.1204  1.2992 -0.3563
25456SOL     OW77980   2.656   7.005   6.749 -0.1138  0.2217 -0.5026
25456SOL    HW177981   2.619   7.072   6.807 -0.4917 -0.2286 -0.2234
25456SOL    HW277982   2.618   7.024   6.663 -1.0231 -0.2555 -0.2115
25457SOL     OW77983   3.233   1.649   8.867 -0.7397  0.8387 -0.3963
25457SOL    HW177984   3.221   1.613   8.779  0.7986 -1.0106  0.0935
25457SOL    HW277985   3.170   1.602   8.921 -0.0335  0.2311 -0.0932
25458SOL     OW77986   1.984   6.620   2.392  0.2562  0.0120 -0.2430
25458SOL    HW177987   2.057   6.673   2.422 -1.0073  1.3051  0.6758
25458SOL    HW277988   1.964   6.562   2.466 -0.0029  0.0701 -0.2655
25459SOL     OW77989   3.142   5.126   6.955 -0.0491 -0.3654 -0.4298
25459SOL    HW177990   3.238   5.134   6.960 -0.1337  0.5748 -0.1884
25459SOL    HW277991   3.121   5.061   7.022  0.4944 -1.2704 -1.1076
25460SOL     OW77992   9.135   8.173   0.096  0.7189  0.0886 -0.0214
25460SOL    HW177993   9.072   8.102   0.112  0.3300  0.5532  0.5693
25460SOL    HW277994   9.081   8.246   0.066  1.2355 -0.1652 -1.6253
25461SOL     OW77995   5.407   4.066   0.870  0.2719 -0.2984  0.9382
25461SOL    HW177996   5.387   4.042   0.961 -0.1709 -1.0441  0.6528
25461SOL    HW277997   5.403   4.162   0.869 -0.8038 -0.3234  1.4669
25462SOL     OW77998   2.179   9.632   2.728  0.2089  0.2528 -0.4947
25462SOL    HW177999   2.229   9.664   2.803  1.4839 -0.1858 -1.1214
25462SOL    HW278000   2.094   9.675   2.736  1.0766  1.9982 -0.0450
25463SOL     OW78001   1.518   5.315   1.406 -0.2176 -0.4216 -0.0584
25463SOL    HW178002   1.536   5.310   1.499  0.7720  0.3318 -0.1988
25463SOL    HW278003   1.432   5.358   1.400  0.5777  1.3197  0.4640
25464SOL     OW78004   2.871   0.278   1.103 -0.2739 -0.0119 -0.8348
25464SOL    HW178005   2.904   0.198   1.144  0.0393 -0.3800 -1.7684
25464SOL    HW278006   2.949   0.334   1.094 -0.1962 -0.2225 -1.5527
25465SOL     OW78007   9.124   8.984   5.119 -0.2740  0.1575  0.0883
25465SOL    HW178008   9.068   9.048   5.075 -0.5072 -0.6401 -0.8023
25465SOL    HW278009   9.205   8.984   5.067  0.4235  0.9954  1.1183
25466SOL     OW78010   2.566   9.187   5.229 -0.7652 -0.2871 -0.1692
25466SOL    HW178011   2.523   9.167   5.313 -1.7769  1.5227 -0.1988
25466SOL    HW278012   2.494   9.211   5.171 -0.1983 -2.4417 -1.9278
25467SOL     OW78013   3.342   7.711   1.788  0.1371  0.1796  0.8801
25467SOL    HW178014   3.350   7.760   1.706 -0.8277 -0.2341  0.5229
25467SOL    HW278015   3.292   7.769   1.845 -0.2636 -0.0310  0.7475
25468SOL     OW78016   0.131   1.046   6.603 -0.3929  0.8018 -0.1442
25468SOL    HW178017   0.150   1.117   6.664  0.4050  1.0516 -0.6592
25468SOL    HW278018   0.037   1.055   6.583 -0.6387  0.7579  0.9642
25469SOL     OW78019   4.410   8.141   5.076  0.3088  0.0028  0.7289
25469SOL    HW178020   4.385   8.166   4.987  0.3038 -1.1546  0.3972
25469SOL    HW278021   4.384   8.049   5.085 -1.1323  0.5092  2.4601
25470SOL     OW78022   2.614   0.007   8.022 -0.0653 -0.0751 -0.1582
25470SOL    HW178023   2.548  -0.062   8.027  0.3263 -0.4179  0.4197
25470SOL    HW278024   2.615   0.033   7.929  1.1184 -2.1801 -0.8038
25471SOL     OW78025   0.072   7.949   7.420  0.0709  0.2661  0.1890
25471SOL    HW178026   0.086   7.854   7.421  1.7428  0.4647  2.5951
25471SOL    HW278027  -0.015   7.961   7.458  1.2401 -0.2513  3.3230
25472SOL     OW78028   0.831   3.271   8.246  0.5130  0.0433  0.0931
25472SOL    HW178029   0.888   3.198   8.223 -0.4070 -0.1785 -1.6617
25472SOL    HW278030   0.866   3.345   8.196  0.5039  0.4218  0.6422
25473SOL     OW78031   2.645   2.901   7.545 -0.4729  0.3393 -0.2856
25473SOL    HW178032   2.648   2.871   7.636 -0.5831  0.6347 -0.1825
25473SOL    HW278033   2.556   2.935   7.535 -0.7243 -0.4287 -0.7400
25474SOL     OW78034   0.819   5.848   2.175  0.4991 -0.1807 -0.3783
25474SOL    HW178035   0.854   5.760   2.189 -1.2964 -1.0282 -0.8620
25474SOL    HW278036   0.778   5.844   2.089 -2.7445 -0.0277  1.0071
25475SOL     OW78037   0.516   7.070   6.515 -0.1396 -0.2909 -0.0282
25475SOL    HW178038   0.605   7.050   6.544 -0.1948  0.9507  1.0967
25475SOL    HW278039   0.524   7.155   6.471 -0.8282  0.0944  0.5602
25476SOL     OW78040   4.804   1.099   4.092 -0.3555 -0.0473  0.2407
25476SOL    HW178041   4.858   1.160   4.041  0.0527 -0.2238  0.4558
25476SOL    HW278042   4.864   1.064   4.158 -1.3616  1.7334  2.2111
25477SOL     OW78043   3.046   2.430   5.386  0.1381  0.0315  0.2416
25477SOL    HW178044   3.090   2.484   5.320 -1.4169 -0.2066 -1.0601
25477SOL    HW278045   3.104   2.356   5.401 -0.0147 -0.5470 -1.8135
25478SOL     OW78046   9.209   4.712   8.536  0.2901  0.1252  0.1177
25478SOL    HW178047   9.175   4.649   8.473 -0.5055 -0.0572  0.7048
25478SOL    HW278048   9.230   4.790   8.484 -0.7765  0.1394 -0.3037
25479SOL     OW78049   5.067   2.616   9.454  0.1372  0.0574  0.0142
25479SOL    HW178050   5.006   2.561   9.404 -0.0353  0.4016 -0.1553
25479SOL    HW278051   5.138   2.633   9.392 -0.2190  0.7312 -0.2176
25480SOL     OW78052   6.170   0.673   0.420 -0.1431  0.3866 -0.0110
25480SOL    HW178053   6.252   0.642   0.459  0.3435  0.4193 -0.9994
25480SOL    HW278054   6.155   0.758   0.461  0.5300  0.5650 -0.1271
25481SOL     OW78055   7.091   6.447   4.170 -0.5502  0.0102 -0.4077
25481SOL    HW178056   7.024   6.497   4.218 -0.3424  1.3400 -1.4391
25481SOL    HW278057   7.048   6.365   4.146 -1.2131  0.0783  0.5138
25482SOL     OW78058   1.021   2.684   6.100  0.0519 -0.9092  0.7531
25482SOL    HW178059   0.953   2.711   6.039  0.0392  0.4111  1.3199
25482SOL    HW278060   1.059   2.766   6.132  1.0823 -1.6018  1.3668
25483SOL     OW78061   8.075   0.077   9.280  0.2266 -0.2001  0.3189
25483SOL    HW178062   8.013   0.005   9.274 -0.3528  0.1281  1.8682
25483SOL    HW278063   8.037   0.136   9.346  1.3154  0.8860  0.0197
25484SOL     OW78064   1.460   0.673   1.032  0.2718  0.5141  0.2312
25484SOL    HW178065   1.529   0.609   1.050  0.9375  0.8088 -1.1417
25484SOL    HW278066   1.380   0.621   1.024  0.8742 -0.2300 -1.3073
25485SOL     OW78067   5.269   2.612   4.322  0.8071 -0.3024  0.0362
25485SOL    HW178068   5.199   2.659   4.366  0.5398  0.1100 -0.7935
25485SOL    HW278069   5.233   2.525   4.305  0.2744  0.0841 -0.8868
25486SOL     OW78070   3.065   8.894   2.540  0.2516  0.2034 -0.0545
25486SOL    HW178071   3.057   8.980   2.581 -0.3588  0.5070 -0.7779
25486SOL    HW278072   3.029   8.833   2.604 -1.2182  0.7328 -0.3360
25487SOL     OW78073   2.001   3.866   5.880  0.1549 -0.0754 -0.8180
25487SOL    HW178074   1.911   3.842   5.858 -0.0116 -0.1198 -0.1110
25487SOL    HW278075   2.033   3.912   5.803 -0.1558 -0.8914 -1.4457
25488SOL     OW78076   1.450   3.143   2.023 -0.1598  0.1026 -0.2416
25488SOL    HW178077   1.379   3.080   2.038  0.0652  0.4842  2.9796
25488SOL    HW278078   1.525   3.088   2.001 -0.5611 -0.5588 -0.0135
25489SOL     OW78079   1.342   5.849   4.653  0.0325  0.2911  0.0727
25489SOL    HW178080   1.253   5.882   4.664 -0.5419 -0.5417 -1.6966
25489SOL    HW278081   1.391   5.923   4.619 -0.0657  0.6338  0.6543
25490SOL     OW78082   3.141   9.424   9.249 -0.0963 -0.0332 -0.4384
25490SOL    HW178083   3.234   9.404   9.252 -0.1532 -0.1802  0.9853
25490SOL    HW278084   3.137   9.520   9.241  0.1920  0.0375  0.1887
25491SOL     OW78085   4.622   5.959   9.510 -0.4798 -0.1430 -0.0271
25491SOL    HW178086   4.658   5.892   9.453  0.7375  0.7388 -0.3424
25491SOL    HW278087   4.689   5.974   9.576 -1.5392 -0.5840  1.1938
25492SOL     OW78088   7.247   1.435   3.077  0.3068 -0.2918 -0.1149
25492SOL    HW178089   7.265   1.508   3.136 -0.5325 -1.0552  1.1423
25492SOL    HW278090   7.279   1.464   2.992  2.7357  0.3582  0.9354
25493SOL     OW78091   6.746   1.469   7.532 -0.0220 -0.5200  0.1125
25493SOL    HW178092   6.725   1.543   7.474  1.4412 -0.2610 -0.1306
25493SOL    HW278093   6.702   1.490   7.614 -0.7891 -0.0838 -0.4014
25494SOL     OW78094   1.897   5.577   0.077 -0.3388  0.4452 -0.0965
25494SOL    HW178095   1.950   5.498   0.061  0.0266  0.7856 -0.5793
25494SOL    HW278096   1.921   5.603   0.166  1.0875  1.1744 -0.6615
25495SOL     OW78097   2.420   6.860   5.739  0.1982  0.6007 -0.0815
25495SOL    HW178098   2.378   6.877   5.654 -1.3765  2.3524  0.9709
25495SOL    HW278099   2.351   6.824   5.793  1.6789 -2.4534 -0.0175
25496SOL     OW78100   3.239   3.165   6.617 -0.7895 -0.3680  0.5432
25496SOL    HW178101   3.218   3.104   6.547 -0.6685  0.8836 -0.6279
25496SOL    HW278102   3.158   3.171   6.669 -1.5804  0.2256 -0.7007
25497SOL     OW78103   2.192   1.700   3.209  0.9900 -0.9097  0.0067
25497SOL    HW178104   2.175   1.789   3.239  1.2224 -0.7830 -0.2431
25497SOL    HW278105   2.280   1.703   3.172  0.5196 -0.9385 -1.1691
25498SOL     OW78106   8.761   5.180   8.328  0.1092 -0.6307 -0.4828
25498SOL    HW178107   8.744   5.271   8.351 -0.1325 -0.3242 -1.8153
25498SOL    HW278108   8.684   5.154   8.276  0.6747 -1.2580 -1.0224
25499SOL     OW78109   6.187   1.651   6.486  0.5616  0.5849 -0.2023
25499SOL    HW178110   6.186   1.714   6.558  0.9997 -0.5933  0.8689
25499SOL    HW278111   6.148   1.698   6.412  0.5926  1.9940  0.6478
25500SOL     OW78112   5.863   7.169   5.004  0.1590 -0.2695  0.4959
25500SOL    HW178113   5.883   7.078   5.026  0.7411  0.0576  1.3930
25500SOL    HW278114   5.773   7.181   5.033  0.5103 -0.2034  1.6017
25501SOL     OW78115   2.395   9.043   9.688  0.1250 -0.0966  0.3217
25501SOL    HW178116   2.416   9.135   9.671  0.4540 -0.2218  0.0175
25501SOL    HW278117   2.440   9.023   9.770  3.5540 -1.0618 -1.5472
25502SOL     OW78118   7.242   1.307   4.040  0.0604 -0.5517 -0.1447
25502SOL    HW178119   7.269   1.340   3.955 -1.7137 -1.3321 -1.0581
25502SOL    HW278120   7.235   1.385   4.095 -1.3164  0.2893 -1.4662
25503SOL     OW78121   3.168   4.717   0.419 -0.1819  0.4540  0.1909
25503SOL    HW178122   3.089   4.663   0.419  1.4856 -2.1758 -0.4704
25503SOL    HW278123   3.187   4.731   0.511 -0.4190 -0.4774  0.3910
25504SOL     OW78124   7.002   8.251   3.768  0.1102  0.1564 -0.2169
25504SOL    HW178125   6.961   8.233   3.683 -0.2777 -0.6510  0.1282
25504SOL    HW278126   7.065   8.180   3.780  1.5924  1.3295 -0.6959
25505SOL     OW78127   3.362   3.769   5.003  0.2729 -0.1729 -0.3121
25505SOL    HW178128   3.427   3.740   5.066  1.6171  0.8976 -1.1421
25505SOL    HW278129   3.278   3.743   5.041  0.9574  1.0834  2.2564
25506SOL     OW78130   0.443   0.565   4.047 -0.3605  0.4948  0.0003
25506SOL    HW178131   0.476   0.653   4.032  0.8283 -0.2416 -2.0042
25506SOL    HW278132   0.348   0.574   4.043 -0.2163  1.4340 -1.8860
25507SOL     OW78133   2.583   5.477   2.460 -1.0488 -0.3194 -0.1237
25507SOL    HW178134   2.623   5.391   2.474  1.9066  0.5335 -2.3954
25507SOL    HW278135   2.496   5.457   2.424 -0.6618 -2.3418 -0.0681
25508SOL     OW78136   5.158   4.980   8.973  0.4100 -0.3436 -0.3139
25508SOL    HW178137   5.155   5.045   9.043 -0.8477  1.1619 -1.6990
25508SOL    HW278138   5.250   4.952   8.971  0.6587  0.2314  1.3185
25509SOL     OW78139   0.274   3.950   7.435  0.4955  0.0407 -0.1392
25509SOL    HW178140   0.297   4.001   7.512 -0.1560 -1.2931  0.9672
25509SOL    HW278141   0.203   3.893   7.463 -0.4898  0.2513 -2.0104
25510SOL     OW78142   0.916   1.509   3.382  0.7256  0.9202  0.0717
25510SOL    HW178143   0.905   1.485   3.290 -2.8957  0.0709  0.6022
25510SOL    HW278144   0.892   1.602   3.386 -0.4249  0.6212  0.3282
25511SOL     OW78145   6.761   5.334   9.307 -0.1345  0.0889  0.3111
25511SOL    HW178146   6.796   5.404   9.252 -0.7933  1.2356  1.3089
25511SOL    HW278147   6.786   5.359   9.396 -0.9433 -0.6043  0.7452
25512SOL     OW78148   3.569   6.287   7.667  0.5023  0.3862 -0.5145
25512SOL    HW178149   3.575   6.365   7.611 -1.8174  0.3175 -0.9486
25512SOL    HW278150   3.523   6.317   7.745 -1.9990 -0.8238 -1.4120
25513SOL     OW78151   5.757   4.722   8.660  0.6096  0.6900 -0.5451
25513SOL    HW178152   5.694   4.767   8.717  0.6348  0.7649 -0.5769
25513SOL    HW278153   5.839   4.723   8.709  0.4818  0.2089 -0.3121
25514SOL     OW78154   3.573   8.445   7.252  0.3717 -0.2479 -0.0473
25514SOL    HW178155   3.668   8.454   7.246  0.4761 -1.2017 -0.0181
25514SOL    HW278156   3.559   8.352   7.269 -0.6542 -0.5601 -2.2156
25515SOL     OW78157   7.970   0.446   2.931 -0.2342  0.0317  0.5406
25515SOL    HW178158   7.882   0.425   2.899 -0.6196  2.1589  0.0196
25515SOL    HW278159   7.957   0.475   3.021 -0.1447  0.7506  0.3283
25516SOL     OW78160   9.698   1.955   1.396  0.4731 -0.3935  0.0880
25516SOL    HW178161   9.636   2.000   1.339 -0.1861 -0.7830  0.4912
25516SOL    HW278162   9.723   1.876   1.347  0.3569 -0.4324  0.0930
25517SOL     OW78163   8.703   3.847   9.417 -0.3106 -0.2336 -0.0423
25517SOL    HW178164   8.633   3.825   9.355 -0.1389  1.5000 -0.9152
25517SOL    HW278165   8.699   3.778   9.483 -2.6274 -0.3629 -0.2403
25518SOL     OW78166   3.469   0.011   6.099  0.2048 -0.1012 -0.7746
25518SOL    HW178167   3.480   0.023   6.005  1.2402 -0.6063 -0.7281
25518SOL    HW278168   3.548  -0.035   6.127  1.9293  3.5266  1.0193
25519SOL     OW78169   8.988   6.337   3.137  0.2299 -0.2412  0.3709
25519SOL    HW178170   8.993   6.348   3.042  1.2959 -0.0637  0.4267
25519SOL    HW278171   8.958   6.247   3.150  0.1972 -0.3067 -0.1316
25520SOL     OW78172   5.886   9.467   3.863 -0.3367  0.3126  0.2433
25520SOL    HW178173   5.894   9.401   3.794 -0.2451 -0.4008  0.9130
25520SOL    HW278174   5.964   9.455   3.917 -0.2682  1.0470  0.3150
25521SOL     OW78175   4.118   8.451   5.289  0.0007  0.3549 -0.4841
25521SOL    HW178176   4.106   8.461   5.194 -2.0706  2.2947 -0.0812
25521SOL    HW278177   4.081   8.365   5.309 -2.7707  1.3206 -1.0341
25522SOL     OW78178   6.766   4.993   0.804  0.1057 -0.9068 -0.5899
25522SOL    HW178179   6.811   4.950   0.731  0.7830  0.1346 -0.8188
25522SOL    HW278180   6.816   5.074   0.817  0.3360 -1.3196  1.3878
25523SOL     OW78181   2.841   6.866   3.646  0.1398  0.0754 -0.5232
25523SOL    HW178182   2.838   6.847   3.553  0.6204  0.5370 -0.6360
25523SOL    HW278183   2.910   6.932   3.656  0.1006  0.0294  0.1557
25524SOL     OW78184   8.831   9.200   9.181 -0.0485 -0.1982 -0.4476
25524SOL    HW178185   8.926   9.190   9.174  0.2631  2.0522 -0.0309
25524SOL    HW278186   8.798   9.176   9.095  1.1665  1.3584 -1.4020
25525SOL     OW78187   9.436   9.265   1.208 -0.3588  0.0790 -0.1778
25525SOL    HW178188   9.457   9.277   1.300  0.2319 -1.5135 -0.0705
25525SOL    HW278189   9.489   9.190   1.181  1.3615  1.9321 -2.4428
25526SOL     OW78190   3.292   2.037   3.408 -0.1726 -0.6324  0.1221
25526SOL    HW178191   3.285   2.121   3.361  0.7879 -0.8158 -0.3673
25526SOL    HW278192   3.236   2.049   3.485 -0.9536  0.0476 -0.5260
25527SOL     OW78193   4.848   9.017   7.846  0.0529 -0.4229  0.1903
25527SOL    HW178194   4.877   8.927   7.833 -0.2287 -0.8255  2.1285
25527SOL    HW278195   4.886   9.043   7.929 -1.5110  0.5625  0.6383
25528SOL     OW78196   0.995   2.891   3.928 -0.6376  0.6979 -0.0693
25528SOL    HW178197   1.078   2.936   3.943  0.7962 -1.0609 -2.1116
25528SOL    HW278198   0.929   2.954   3.956  1.3067  2.9449 -0.1623
25529SOL     OW78199   4.707   0.902   8.457 -0.3941 -0.1781 -0.8548
25529SOL    HW178200   4.651   0.967   8.500  1.3412  1.3343 -0.7722
25529SOL    HW278201   4.702   0.924   8.364  1.7363  1.4207 -0.6531
25530SOL     OW78202   4.234   7.695   2.508 -0.2767 -0.5636  0.6023
25530SOL    HW178203   4.288   7.745   2.446 -0.8326  2.0822  2.1178
25530SOL    HW278204   4.297   7.643   2.558  0.5417  0.1061  0.2899
25531SOL     OW78205   1.979   1.062   2.009 -0.8560  0.3355 -0.2590
25531SOL    HW178206   1.996   1.065   1.915 -0.1835 -0.1904 -0.1602
25531SOL    HW278207   2.058   1.101   2.048 -0.3882 -0.9842  0.1518
25532SOL     OW78208   6.282   8.268   3.235  0.2276  0.2899 -0.2054
25532SOL    HW178209   6.339   8.277   3.158  0.1823 -2.5482 -0.6589
25532SOL    HW278210   6.341   8.278   3.309  1.6245 -3.1510 -0.6554
25533SOL     OW78211   4.616   4.125   1.384  0.1321  0.1291  0.2571
25533SOL    HW178212   4.678   4.091   1.320  0.4931  3.3318 -1.2773
25533SOL    HW278213   4.670   4.150   1.459  0.2893  0.2382  0.1074
25534SOL     OW78214   6.462   1.728   0.008  0.4235 -0.5756 -0.4218
25534SOL    HW178215   6.513   1.745  -0.071 -2.6770  1.6222 -2.1528
25534SOL    HW278216   6.442   1.815   0.043  2.1706 -1.4515  3.2889
25535SOL     OW78217   3.011   0.538   5.535  0.1735 -0.8368 -0.2713
25535SOL    HW178218   2.960   0.492   5.602  1.5976 -0.5977  1.0294
25535SOL    HW278219   2.986   0.630   5.545  0.1727 -0.8363 -0.2772
25536SOL     OW78220   3.516   2.533   0.455  0.5424  0.0165  0.0482
25536SOL    HW178221   3.444   2.594   0.439  1.2718  0.8755 -0.1154
25536SOL    HW278222   3.595   2.587   0.446  1.2074 -0.8962  0.2063
25537SOL     OW78223   4.942   9.269   2.721  0.3686  0.2301 -0.1130
25537SOL    HW178224   4.972   9.343   2.667  1.3168  0.5010  0.7434
25537SOL    HW278225   4.985   9.193   2.683  1.6477  0.5218  0.6758
25538SOL     OW78226   1.300   5.131   4.579  0.2450  0.0494 -0.1021
25538SOL    HW178227   1.368   5.111   4.643  0.4327 -0.1126 -0.3499
25538SOL    HW278228   1.325   5.215   4.542  0.8044 -0.4196 -0.8322
25539SOL     OW78229   4.161   8.816   0.270  0.7983  0.2413 -0.0598
25539SOL    HW178230   4.225   8.867   0.319  0.8120  1.0896 -0.9270
25539SOL    HW278231   4.182   8.834   0.178 -0.0824 -0.2224 -0.3610
25540SOL     OW78232   2.460   4.831   7.682  0.0230 -0.2896  0.0559
25540SOL    HW178233   2.430   4.914   7.718  0.6044  0.4881 -1.1983
25540SOL    HW278234   2.555   4.833   7.690  0.0251 -0.9902  0.3215
25541SOL     OW78235   6.055   1.185   3.976  0.4246  0.2729 -0.3453
25541SOL    HW178236   6.130   1.214   4.026  2.1053 -4.1537  0.1029
25541SOL    HW278237   6.092   1.136   3.902 -2.0595  0.5470 -1.9162
25542SOL     OW78238   2.079   5.152   0.963  0.4771  0.4233 -0.3948
25542SOL    HW178239   2.087   5.246   0.980 -1.3756  0.8936 -1.6757
25542SOL    HW278240   2.080   5.111   1.049 -2.1520  2.0073  0.5233
25543SOL     OW78241   7.083   9.082   5.476  0.2390 -0.4629 -0.0860
25543SOL    HW178242   7.065   9.176   5.482 -0.9245 -0.6180 -0.7719
25543SOL    HW278243   7.030   9.052   5.402 -0.7713 -1.9701  1.1802
25544SOL     OW78244   9.346   2.095   6.191  0.0687  0.7913  0.1227
25544SOL    HW178245   9.312   2.126   6.274  0.1318  1.5766 -0.1322
25544SOL    HW278246   9.274   2.044   6.152  0.7303 -1.3598  1.5479
25545SOL     OW78247   9.476   5.697   9.269  0.5403 -0.4939 -0.4234
25545SOL    HW178248   9.408   5.655   9.216  0.4420 -1.2805  0.3027
25545SOL    HW278249   9.503   5.772   9.218  1.3334 -1.9109 -2.1950
25546SOL     OW78250   5.213   8.501   6.989  0.6928 -0.3716  0.0910
25546SOL    HW178251   5.120   8.512   7.012  0.0794  0.6331 -2.5218
25546SOL    HW278252   5.213   8.432   6.922  1.5829  0.7788 -1.1426
25547SOL     OW78253   0.125   0.903   3.075 -0.0695  0.1282  0.3590
25547SOL    HW178254   0.121   0.873   2.984  0.4917 -1.4913  0.8401
25547SOL    HW278255   0.073   0.839   3.123  0.2536  0.5531  1.2911
25548SOL     OW78256   8.713   3.409   7.018 -0.2240  0.1794  0.2669
25548SOL    HW178257   8.633   3.403   7.070 -1.3410  0.3617 -1.3542
25548SOL    HW278258   8.769   3.470   7.065 -0.7772 -0.4253  1.7452
25549SOL     OW78259   4.059   6.300   0.984 -0.1804 -0.2118  0.0766
25549SOL    HW178260   4.102   6.224   1.023 -0.4858 -0.4246  0.0028
25549SOL    HW278261   3.969   6.295   1.016 -0.3414 -0.1887 -0.3734
25550SOL     OW78262   6.813   8.735   1.429  0.0297  0.1528 -0.4813
25550SOL    HW178263   6.832   8.661   1.372  1.3698  0.5060 -0.5322
25550SOL    HW278264   6.884   8.797   1.413 -2.9618  3.3174 -3.4064
25551SOL     OW78265   9.339   7.847   6.646 -0.5498 -0.0443 -0.1813
25551SOL    HW178266   9.341   7.773   6.585 -0.2100  0.1037 -0.3528
25551SOL    HW278267   9.259   7.894   6.623 -0.5597 -0.1363 -0.3356
25552SOL     OW78268   6.675   9.422   6.414 -0.1099 -0.3474 -0.4909
25552SOL    HW178269   6.747   9.362   6.431  0.6146  0.0325 -1.9889
25552SOL    HW278270   6.699   9.464   6.331 -3.7915 -2.9188 -3.1837
25553SOL     OW78271   6.642   7.413   0.056  0.8907  0.4760  0.7748
25553SOL    HW178272   6.707   7.481   0.071  0.1433  1.7074 -1.1584
25553SOL    HW278273   6.565   7.459   0.022  0.2433 -1.2824 -0.3172
25554SOL     OW78274   8.599   4.208   7.081 -0.4665  0.3329  0.5790
25554SOL    HW178275   8.593   4.182   6.989  0.1840  0.5009  0.4849
25554SOL    HW278276   8.568   4.131   7.129  1.2361 -0.5715  0.2953
25555SOL     OW78277   4.639   5.990   2.979  0.2169 -0.4830 -0.1988
25555SOL    HW178278   4.693   5.911   2.977  2.8014  1.1838 -2.1854
25555SOL    HW278279   4.701   6.061   2.994 -1.2640  1.6401 -3.2160
25556SOL     OW78280   2.597   5.087   8.073 -0.2574  0.0901 -0.0284
25556SOL    HW178281   2.529   5.155   8.084 -0.3025 -0.0507  0.6288
25556SOL    HW278282   2.571   5.018   8.134 -0.1348 -0.4679 -0.5954
25557SOL     OW78283   7.404   4.022   8.385  0.1419  0.6564  0.1830
25557SOL    HW178284   7.376   4.100   8.433  1.2770  1.8229 -0.9640
25557SOL    HW278285   7.463   4.055   8.317  2.1216 -1.3707  0.7790
25558SOL     OW78286   6.398   0.507   6.584 -0.2511 -0.4340  0.2807
25558SOL    HW178287   6.464   0.458   6.634  0.9087 -0.7870 -1.5001
25558SOL    HW278288   6.339   0.439   6.550 -0.2181 -0.3456  0.0429
25559SOL     OW78289   3.349   6.577   2.600 -0.4374 -0.2156 -0.0098
25559SOL    HW178290   3.374   6.566   2.692  0.2654 -1.7365 -0.3588
25559SOL    HW278291   3.295   6.501   2.580 -2.4635  1.2221 -0.2770
25560SOL     OW78292   6.127   6.468   2.189 -0.2264 -0.4394  0.8290
25560SOL    HW178293   6.163   6.478   2.101 -1.6317  0.6005  0.3394
25560SOL    HW278294   6.121   6.557   2.224  0.2131 -0.8239  1.9549
25561SOL     OW78295   5.102   5.571   0.085  0.6530 -0.3094 -0.1324
25561SOL    HW178296   5.159   5.495   0.096 -0.7079 -1.1661  1.2545
25561SOL    HW278297   5.120   5.626   0.161  0.2742 -0.1673 -0.1420
25562SOL     OW78298   4.134   3.922   2.516  0.3048  0.0330  0.6253
25562SOL    HW178299   4.145   3.900   2.423 -0.6207  1.4360  0.1533
25562SOL    HW278300   4.185   4.002   2.528 -2.2182  1.7730  0.4541
25563SOL     OW78301   6.100   9.806   8.328  0.2763  0.3496  0.1872
25563SOL    HW178302   6.159   9.853   8.387  1.3561 -0.0121 -0.5614
25563SOL    HW278303   6.055   9.743   8.383 -0.4242  1.5285  1.0189
25564SOL     OW78304   5.869   7.145   6.592 -0.5544  0.4509 -0.1370
25564SOL    HW178305   5.880   7.056   6.624 -2.3572 -0.0674 -0.8353
25564SOL    HW278306   5.938   7.195   6.635  1.4188 -1.5313 -0.8240
25565SOL     OW78307   5.010   6.077   8.940 -0.2617  0.2186  0.4982
25565SOL    HW178308   4.955   6.146   8.904  0.2295 -0.4186 -1.6251
25565SOL    HW278309   5.096   6.118   8.952  0.6111 -0.4157 -2.7256
25566SOL     OW78310   6.150   6.233   5.912 -0.4181  0.1948  0.1393
25566SOL    HW178311   6.217   6.264   5.851 -2.2212 -0.3676 -2.3231
25566SOL    HW278312   6.086   6.304   5.915 -0.8544 -0.2076  0.5408
25567SOL     OW78313   3.449   9.151   7.698 -0.4723  0.0360 -0.1179
25567SOL    HW178314   3.480   9.179   7.785  0.9472 -0.8835 -0.3008
25567SOL    HW278315   3.354   9.164   7.702 -0.4654 -0.1163  1.6312
25568SOL     OW78316   7.865   2.785   9.493 -0.2474  0.3036  0.3209
25568SOL    HW178317   7.811   2.741   9.427  1.3432 -0.2636 -0.6774
25568SOL    HW278318   7.855   2.731   9.572 -0.2685 -0.4600 -0.1838
25569SOL     OW78319   1.554   9.011   8.095 -0.2508 -0.1236 -0.0079
25569SOL    HW178320   1.480   9.027   8.037 -0.7010  1.3408  0.9238
25569SOL    HW278321   1.617   9.080   8.075  0.6824 -1.0819 -0.4642
25570SOL     OW78322   2.836   8.371   8.429 -0.3590 -0.2980  0.5659
25570SOL    HW178323   2.767   8.438   8.439  0.2748  0.2907  1.0719
25570SOL    HW278324   2.870   8.359   8.518 -0.9237 -1.8163  0.6016
25571SOL     OW78325   8.191   0.992   2.399 -0.2789  0.0430  0.9667
25571SOL    HW178326   8.224   0.921   2.453  1.1494  0.5628  0.8039
25571SOL    HW278327   8.096   0.986   2.407 -0.1539 -1.3570  1.6180
25572SOL     OW78328   9.274   8.313   3.492  0.1336  0.0116  0.1968
25572SOL    HW178329   9.215   8.359   3.552 -1.6390 -2.6092  0.6035
25572SOL    HW278330   9.254   8.350   3.406  0.6125  1.7412  0.7832
25573SOL     OW78331   9.500   9.477   3.834 -0.0564  0.2894  0.6749
25573SOL    HW178332   9.571   9.416   3.853  1.6191  0.8334 -2.8385
25573SOL    HW278333   9.521   9.555   3.885  2.9446  0.9875 -1.3335
25574SOL     OW78334   4.389   9.426   4.036  0.0245  0.0466 -0.1490
25574SOL    HW178335   4.301   9.423   4.071  0.1185 -0.7688  0.0303
25574SOL    HW278336   4.428   9.505   4.074 -0.8053  0.7267 -0.6858
25575SOL     OW78337   1.128   1.946   3.737 -0.1458  0.0683 -0.4446
25575SOL    HW178338   1.038   1.917   3.753 -0.3587  0.3131 -1.1639
25575SOL    HW278339   1.159   1.888   3.667 -0.0106  0.4850 -0.7342
25576SOL     OW78340   6.138   0.391   7.358  0.1242  0.0330 -0.0117
25576SOL    HW178341   6.106   0.442   7.432 -0.5250 -0.1466 -0.1624
25576SOL    HW278342   6.144   0.301   7.391 -0.0894 -0.0339 -0.1518
25577SOL     OW78343   9.416   9.393   2.499  0.2020 -0.3815 -0.0969
25577SOL    HW178344   9.388   9.319   2.445  0.6060  1.5348 -3.1782
25577SOL    HW278345   9.512   9.394   2.492  0.2414  0.1392  0.3543
25578SOL     OW78346   6.296   4.709   5.804 -0.3871 -0.1543 -0.6225
25578SOL    HW178347   6.208   4.695   5.770 -0.0755 -1.8287 -0.8065
25578SOL    HW278348   6.313   4.633   5.859  0.6302  0.5739  0.1102
25579SOL     OW78349   5.371   8.020   7.612  0.4248 -0.0015 -0.1721
25579SOL    HW178350   5.319   7.940   7.604  0.1890  0.2176 -1.0256
25579SOL    HW278351   5.460   7.993   7.587  0.8259 -0.4584  1.6477
25580SOL     OW78352   0.690   0.965   5.437  0.6877 -0.9573 -0.6536
25580SOL    HW178353   0.720   0.876   5.456 -1.1059 -1.1224  1.7865
25580SOL    HW278354   0.619   0.980   5.499  0.7863  2.1139 -1.1620
25581SOL     OW78355   7.095   3.981   3.027  0.1277 -0.5979 -0.3651
25581SOL    HW178356   7.158   3.911   3.011  0.8499  0.0910 -0.6003
25581SOL    HW278357   7.110   4.006   3.118  2.3549  1.5764 -1.1754
25582SOL     OW78358   3.251   8.474   3.233 -0.2120 -0.4732 -0.2379
25582SOL    HW178359   3.218   8.385   3.249 -0.8858 -0.2024 -0.0667
25582SOL    HW278360   3.253   8.514   3.320 -2.0237  0.3806 -0.5365
25583SOL     OW78361   3.868   0.362   4.331  0.4750  0.5041 -0.7099
25583SOL    HW178362   3.781   0.351   4.368  0.5475  1.8456 -0.0941
25583SOL    HW278363   3.915   0.416   4.395  0.7264  2.5545 -2.4922
25584SOL     OW78364   1.239   0.830   1.739  0.2436  0.2446  0.1386
25584SOL    HW178365   1.220   0.811   1.647  0.5739 -0.8385  0.2794
25584SOL    HW278366   1.162   0.877   1.769  0.5773  1.5721 -0.9564
25585SOL     OW78367   0.439   3.454   4.307  0.6767  0.6733 -0.6482
25585SOL    HW178368   0.365   3.411   4.350  0.6161  0.9818 -0.4450
25585SOL    HW278369   0.432   3.429   4.215 -0.4607  1.7993 -0.8869
25586SOL     OW78370   7.937   6.118   5.038  0.3821  0.1504  0.3094
25586SOL    HW178371   7.841   6.120   5.034  0.3463  1.5832  1.0361
25586SOL    HW278372   7.957   6.063   5.114  0.1994 -1.2662 -0.6343
25587SOL     OW78373   4.879   5.264   4.700 -0.1172  0.2092 -0.3346
25587SOL    HW178374   4.915   5.288   4.786 -0.0375  1.1879 -0.6264
25587SOL    HW278375   4.908   5.174   4.687  0.2296  0.1884  0.4822
25588SOL     OW78376   3.535   2.445   9.666 -0.2931  0.4211  0.0829
25588SOL    HW178377   3.608   2.498   9.634  0.7517 -0.3790  1.0500
25588SOL    HW278378   3.483   2.425   9.587  1.4580 -0.4004 -0.9182
25589SOL     OW78379   2.850   0.594   9.046 -0.6096  0.1279  0.2480
25589SOL    HW178380   2.874   0.503   9.033  1.7031  0.7353 -0.1450
25589SOL    HW278381   2.868   0.611   9.139  1.0916  0.7141 -0.1542
25590SOL     OW78382   5.715   9.562   4.310  0.7181 -0.1084 -0.3908
25590SOL    HW178383   5.744   9.653   4.305 -0.2078  0.1921 -0.4114
25590SOL    HW278384   5.774   9.516   4.250  1.0625  0.5050 -0.5437
25591SOL     OW78385   4.363   0.589   3.009 -0.2438 -0.4916 -0.5579
25591SOL    HW178386   4.284   0.613   2.959  1.3935  2.1527 -2.1045
25591SOL    HW278387   4.386   0.668   3.056  1.0569 -1.4882  0.5509
25592SOL     OW78388   5.608   5.699   3.665 -0.3667  0.0109  0.0160
25592SOL    HW178389   5.554   5.645   3.607 -0.8822  1.7334 -1.1620
25592SOL    HW278390   5.579   5.674   3.753  0.2029 -2.4074 -0.3878
25593SOL     OW78391   7.807   4.004   1.759 -0.1725 -0.0945  0.1008
25593SOL    HW178392   7.742   3.974   1.823 -2.2357  2.5636 -0.5687
25593SOL    HW278393   7.755   4.035   1.684  1.9674  0.4264 -1.2574
25594SOL     OW78394   9.132   0.160   6.349  0.1838 -0.2855  0.3745
25594SOL    HW178395   9.052   0.212   6.340  0.3434 -0.1861 -0.5875
25594SOL    HW278396   9.203   0.224   6.348  0.3475 -0.4727 -0.1645
25595SOL     OW78397   1.137   2.700   8.474 -0.1393 -0.1784  0.3746
25595SOL    HW178398   1.232   2.710   8.469 -0.1511  0.3106  1.0639
25595SOL    HW278399   1.107   2.776   8.522 -1.2557  1.6209 -2.8301
25596SOL     OW78400   5.955   6.519   9.225  0.2004  0.5473  0.4382
25596SOL    HW178401   5.986   6.455   9.160 -1.4629 -1.7185  1.7248
25596SOL    HW278402   5.859   6.512   9.221  0.0437  0.8446  2.6065
25597SOL     OW78403   9.031   2.044   2.450 -0.1447 -0.0314  0.1855
25597SOL    HW178404   8.975   1.968   2.464 -1.4785  0.7818 -0.5354
25597SOL    HW278405   9.001   2.108   2.513  1.7332 -0.4316  1.5883
25598SOL     OW78406   5.167   5.006   9.537  0.1047 -0.7566  0.6268
25598SOL    HW178407   5.105   4.977   9.604  1.1746 -0.0390  1.9945
25598SOL    HW278408   5.119   5.073   9.488 -0.0472  0.2211  2.0462
25599SOL     OW78409   6.548   0.324   8.534  0.0257  0.0107 -0.6788
25599SOL    HW178410   6.532   0.346   8.443 -0.4937  2.5295 -0.0613
25599SOL    HW278411   6.549   0.409   8.579 -0.3112 -1.1929  1.7426
25600SOL     OW78412   4.977   5.840   9.478 -0.1620 -0.6419  0.2025
25600SOL    HW178413   5.062   5.814   9.511  0.3278 -1.2672 -1.4503
25600SOL    HW278414   4.996   5.900   9.406 -1.1279 -0.5140  0.0294
25601SOL     OW78415   6.831   1.402   4.524 -0.4996  0.2550 -0.0295
25601SOL    HW178416   6.866   1.421   4.437 -1.6417  1.0847 -0.3237
25601SOL    HW278417   6.779   1.323   4.513 -0.5908  0.3236 -0.0908
25602SOL     OW78418   2.724   6.870   4.198 -0.5387 -0.8103  0.5929
25602SOL    HW178419   2.767   6.813   4.134  1.0977  1.3306 -0.3521
25602SOL    HW278420   2.706   6.813   4.272  3.0796 -2.1800  0.6451
25603SOL     OW78421   1.103   8.875   0.605 -0.2703 -0.4615 -0.3351
25603SOL    HW178422   1.187   8.909   0.634  0.1520 -1.8824  0.1975
25603SOL    HW278423   1.125   8.811   0.537 -1.0148  0.1533 -1.1703
25604SOL     OW78424   3.488   0.703   7.412 -0.1808  0.1731  0.1027
25604SOL    HW178425   3.571   0.733   7.374  0.2079 -1.8083 -0.7729
25604SOL    HW278426   3.496   0.722   7.506  1.1290  0.3368 -0.0240
25605SOL     OW78427   2.316   7.258   0.350 -0.9311 -0.0306 -0.2101
25605SOL    HW178428   2.396   7.205   0.355  0.5893  2.2362  1.2402
25605SOL    HW278429   2.287   7.248   0.260 -1.7999 -4.6569  0.3370
25606SOL     OW78430   0.336   9.748   2.440 -0.4407 -0.1510 -0.2270
25606SOL    HW178431   0.414   9.695   2.422 -0.6074 -0.1650 -0.9441
25606SOL    HW278432   0.324   9.801   2.361 -1.6930 -0.8217 -0.5190
25607SOL     OW78433   4.499   2.025   1.205 -0.3743 -0.1052  0.5611
25607SOL    HW178434   4.495   2.042   1.111  3.0718  2.3072  0.6825
25607SOL    HW278435   4.479   2.110   1.245  0.3362 -0.5730  1.9384
25608SOL     OW78436   7.425   1.318   7.069  0.8318 -0.3243 -0.4019
25608SOL    HW178437   7.367   1.244   7.089 -2.5538  1.0726 -3.7155
25608SOL    HW278438   7.496   1.280   7.017 -0.3690 -1.4012 -1.3115
25609SOL     OW78439   8.131   5.029   1.864 -0.4720 -0.5286 -0.3420
25609SOL    HW178440   8.118   5.120   1.888 -0.7005 -0.5878 -0.2415
25609SOL    HW278441   8.095   4.979   1.937  1.1217 -0.7041  0.3758
25610SOL     OW78442   4.213   2.392   0.762 -0.7367  0.1307 -0.2288
25610SOL    HW178443   4.285   2.354   0.711  1.0832  0.7579  1.7163
25610SOL    HW278444   4.222   2.486   0.749 -1.1479  0.2183  0.1215
25611SOL     OW78445   3.151   6.295   7.936  0.3769  0.2296 -0.6869
25611SOL    HW178446   3.172   6.202   7.940  0.8787  0.3566 -0.1873
25611SOL    HW278447   3.093   6.310   8.010  1.0211  0.4845 -0.2237
25612SOL     OW78448   1.235   3.390   7.016 -0.7824 -0.1396 -0.0060
25612SOL    HW178449   1.306   3.404   7.078  0.9045 -0.1812 -1.8561
25612SOL    HW278450   1.207   3.300   7.032 -1.4399  0.3074  1.6736
25613SOL     OW78451   0.039   1.450   0.011 -0.1362  0.2391  0.1821
25613SOL    HW178452   0.049   1.435  -0.083  1.6185 -1.1266  0.5234
25613SOL    HW278453   0.040   1.362   0.049 -2.8745  0.6285  1.3531
25614SOL     OW78454   3.807   1.425   1.284 -0.1626  0.4797 -0.4233
25614SOL    HW178455   3.714   1.407   1.275 -0.0730  0.4639 -1.5916
25614SOL    HW278456   3.834   1.452   1.196  0.8201  1.0223  0.0294
25615SOL     OW78457   4.764   6.565   4.881  0.4723 -0.4435  0.2648
25615SOL    HW178458   4.744   6.490   4.824 -2.8442  0.0033  0.6090
25615SOL    HW278459   4.837   6.609   4.838 -2.1298  0.2075 -4.1905
25616SOL     OW78460   2.873   1.299   8.805  0.2862  0.0574 -0.1088
25616SOL    HW178461   2.839   1.366   8.864 -1.5122 -1.8367  1.1729
25616SOL    HW278462   2.796   1.248   8.779  1.0062  0.5808 -3.9677
25617SOL     OW78463   7.952   1.392   2.768 -0.0304  0.2463  0.6517
25617SOL    HW178464   7.998   1.452   2.826  0.8506  0.6258 -0.3952
25617SOL    HW278465   7.927   1.446   2.693 -2.3278  0.0907  1.2179
25618SOL     OW78466   6.733   6.220   1.379 -0.3920  0.1274 -0.1645
25618SOL    HW178467   6.651   6.207   1.331 -0.7640  0.4779  0.3697
25618SOL    HW278468   6.787   6.144   1.356  1.1209  2.1333 -4.4702
25619SOL     OW78469   9.245   0.039   2.365  0.1277  0.1754  0.0734
25619SOL    HW178470   9.269  -0.012   2.288 -0.1310 -0.5370  0.4634
25619SOL    HW278471   9.216   0.124   2.329  2.3464  0.7670 -0.4820
25620SOL     OW78472   3.717   8.373   6.335 -0.1154 -0.2671  0.1924
25620SOL    HW178473   3.795   8.344   6.288  0.2633  1.8123 -0.5326
25620SOL    HW278474   3.644   8.343   6.280  0.1914 -0.9866  0.1583
25621SOL     OW78475   2.286   1.907   6.905  0.2404 -0.1447  0.5170
25621SOL    HW178476   2.271   1.964   6.980  1.3953  1.0093 -0.0771
25621SOL    HW278477   2.200   1.896   6.864 -0.0769  0.8334  0.8982
25622SOL     OW78478   0.794   0.469   7.730 -0.2965  0.1694 -0.3764
25622SOL    HW178479   0.765   0.484   7.640 -0.2614  1.4947 -0.1893
25622SOL    HW278480   0.762   0.545   7.779  2.1176  0.9433  0.1427
25623SOL     OW78481   5.953   0.623   3.283 -0.1582  0.5061 -0.7633
25623SOL    HW178482   5.962   0.561   3.211 -0.4362  1.1364 -1.3549
25623SOL    HW278483   5.912   0.572   3.354 -1.7755  0.3683 -1.7435
25624SOL     OW78484   3.989   0.371   4.932  0.6198 -0.0415 -0.1784
25624SOL    HW178485   4.054   0.362   5.002 -0.0021  1.4682  0.6413
25624SOL    HW278486   4.015   0.306   4.867  3.5817  1.1658 -0.3573
25625SOL     OW78487   3.947   5.573   2.093 -0.2191  0.3752  0.0122
25625SOL    HW178488   3.947   5.600   2.001 -0.2849  1.5080  0.3362
25625SOL    HW278489   3.914   5.649   2.141  2.0102  0.6731  1.2135
25626SOL     OW78490   6.403   6.337   2.864  0.3106 -0.5354  0.2404
25626SOL    HW178491   6.352   6.375   2.936  0.8915 -0.4314  0.6093
25626SOL    HW278492   6.350   6.264   2.834 -0.5442  0.2057 -0.0908
25627SOL     OW78493   8.635   1.153   3.555 -0.6035  0.4544 -0.3273
25627SOL    HW178494   8.579   1.077   3.537 -0.2804 -0.2888  1.5998
25627SOL    HW278495   8.575   1.220   3.587 -1.0504  1.4776 -3.0217
25628SOL     OW78496   5.193   2.986   1.517  0.5788  0.7049  0.0432
25628SOL    HW178497   5.224   2.932   1.444  0.0006  0.2091  0.1533
25628SOL    HW278498   5.268   2.992   1.576  1.2370  1.5932 -0.8547
25629SOL     OW78499   9.529   5.077   0.024  0.1231  0.2347  0.4650
25629SOL    HW178500   9.519   5.168   0.054  1.2320 -0.0957  2.0015
25629SOL    HW278501   9.564   5.084  -0.064  1.7325  1.3469  1.1450
25630SOL     OW78502   1.709   5.773   8.928  0.3962  0.3027 -0.1950
25630SOL    HW178503   1.739   5.761   9.018  0.3963 -0.4292 -0.2931
25630SOL    HW278504   1.674   5.688   8.902  3.6821 -0.6635 -2.1146
25631SOL     OW78505   4.167   2.389   8.990 -0.5076 -0.8481 -0.1433
25631SOL    HW178506   4.134   2.322   8.932  0.4641  0.3519 -2.1952
25631SOL    HW278507   4.150   2.472   8.945 -1.4166  0.3320  2.1535
25632SOL     OW78508   3.988   1.750   5.078 -0.0344  0.2711  0.0897
25632SOL    HW178509   4.016   1.705   4.998  0.1114 -0.2656  0.4389
25632SOL    HW278510   3.929   1.819   5.047  0.8628  0.7557 -0.5692
25633SOL     OW78511   0.857   9.397   1.274  0.0405  0.1586 -0.4178
25633SOL    HW178512   0.783   9.455   1.257  1.0303  1.7418  0.3925
25633SOL    HW278513   0.874   9.356   1.190  0.0983  2.0644 -1.4059
25634SOL     OW78514   8.368   9.166   4.999  0.1836  0.0945 -0.2347
25634SOL    HW178515   8.403   9.165   4.910  0.0149 -1.2342 -0.3059
25634SOL    HW278516   8.445   9.159   5.056  0.2348  0.0317 -0.3110
25635SOL     OW78517   0.882   1.472   9.185  0.1747 -0.2043  0.2811
25635SOL    HW178518   0.841   1.514   9.109  0.0799 -0.4121  0.2179
25635SOL    HW278519   0.972   1.503   9.183  0.0383  0.2140  0.3916
25636SOL     OW78520   4.221   3.030   1.333 -0.1179  0.4559  0.2876
25636SOL    HW178521   4.189   2.983   1.410 -0.1541  1.7455  1.0828
25636SOL    HW278522   4.206   2.969   1.260 -1.6239 -0.1340  1.0523
25637SOL     OW78523   2.264   3.364   8.194 -0.2876 -0.3655 -0.8161
25637SOL    HW178524   2.352   3.327   8.190  0.4021  0.4019  2.8247
25637SOL    HW278525   2.206   3.288   8.198  0.4982 -0.9553 -0.1942
25638SOL     OW78526   1.825   0.464   5.300  0.1511  0.0985  0.4106
25638SOL    HW178527   1.764   0.456   5.227  0.1523 -0.1303  0.4334
25638SOL    HW278528   1.773   0.439   5.377  0.3132 -0.2419  0.4111
25639SOL     OW78529   6.788   5.588   3.895 -0.3095  0.1533  0.2143
25639SOL    HW178530   6.876   5.552   3.893  0.3158  1.5516  1.1084
25639SOL    HW278531   6.759   5.588   3.804  0.8046  0.1215 -0.1520
25640SOL     OW78532   5.816   2.244   3.698 -0.5204  0.5048  0.1519
25640SOL    HW178533   5.828   2.326   3.745 -0.1543  0.3949  0.2490
25640SOL    HW278534   5.876   2.249   3.623  1.5481 -0.8131  1.6284
25641SOL     OW78535   0.803   3.773   6.978  0.1665  0.3441 -0.1710
25641SOL    HW178536   0.806   3.734   6.891 -0.2152  0.5722 -0.2929
25641SOL    HW278537   0.759   3.708   7.033  1.2965 -0.2255  0.0939
25642SOL     OW78538   1.973   6.658   1.794 -0.2801 -0.2759 -0.2126
25642SOL    HW178539   1.902   6.684   1.735  0.8005  0.4514 -1.2491
25642SOL    HW278540   2.049   6.709   1.764  1.0268 -2.0093  0.0143
25643SOL     OW78541   2.672   3.485   8.270 -0.2196  0.8932  0.1846
25643SOL    HW178542   2.683   3.480   8.175 -1.4541  2.6194 -0.0836
25643SOL    HW278543   2.590   3.439   8.287  0.4472 -0.2136  0.5685
25644SOL     OW78544   9.750   2.834   3.761  0.3699  0.2244  0.1868
25644SOL    HW178545   9.825   2.785   3.793 -0.7768 -1.0059  1.0735
25644SOL    HW278546   9.674   2.795   3.805 -1.2358 -0.9971 -3.2854
25645SOL     OW78547   4.497   0.352   7.990 -0.8942  0.1652  0.3291
25645SOL    HW178548   4.502   0.352   7.895  0.1783  1.1290  0.3616
25645SOL    HW278549   4.586   0.330   8.018 -0.7677  1.5399  1.0932
25646SOL     OW78550   6.157   1.513   8.236 -0.4598  0.3469  0.4501
25646SOL    HW178551   6.235   1.562   8.263 -0.8092  1.2822 -0.1877
25646SOL    HW278552   6.183   1.470   8.154 -0.7063  0.9185  0.0674
25647SOL     OW78553   2.693   5.609   2.690 -0.0035  0.1941  0.3345
25647SOL    HW178554   2.653   5.569   2.612 -0.9977  0.4905  0.6731
25647SOL    HW278555   2.631   5.590   2.761  0.0199  1.4152  0.7086
25648SOL     OW78556   6.904   5.522   6.671  0.5191 -0.0765  0.1644
25648SOL    HW178557   6.857   5.579   6.609  1.1015  1.9151  1.4393
25648SOL    HW278558   6.839   5.503   6.739  0.7036  0.2799  0.4503
25649SOL     OW78559   4.874   1.599   9.367 -0.4995 -0.3334  0.4354
25649SOL    HW178560   4.954   1.592   9.418 -1.6312 -1.9132  2.1118
25649SOL    HW278561   4.833   1.680   9.398  1.0185  1.2360 -1.4169
25650SOL     OW78562   7.020   0.815   9.825  0.1892 -0.3274 -0.7818
25650SOL    HW178563   7.104   0.827   9.869  0.1323  0.8551 -0.9599
25650SOL    HW278564   6.982   0.737   9.866 -0.1164  1.0273  1.6972
25651SOL     OW78565   7.176   9.657   4.801 -0.4830  0.3837 -0.1314
25651SOL    HW178566   7.245   9.697   4.748 -1.0446 -0.2518 -1.3976
25651SOL    HW278567   7.196   9.563   4.798 -0.7542  0.3024  0.4758
25652SOL     OW78568   0.391   0.803   1.306  0.0880  0.2751 -0.2997
25652SOL    HW178569   0.473   0.850   1.288 -0.6005  1.6625  0.0024
25652SOL    HW278570   0.397   0.776   1.397  1.2290 -1.8433 -0.9411
25653SOL     OW78571   8.092   8.744   9.299  0.5869 -0.0112  0.3675
25653SOL    HW178572   8.159   8.812   9.304  0.3527  0.1933  0.8296
25653SOL    HW278573   8.095   8.714   9.208  1.0683  0.2330  0.2977
25654SOL     OW78574   4.655   9.115   1.872  0.0822 -0.0828  0.0256
25654SOL    HW178575   4.594   9.044   1.893  0.2133  0.2334  1.6493
25654SOL    HW278576   4.604   9.195   1.883  0.9022  0.2366  2.2483
25655SOL     OW78577   5.863   5.039   9.352 -0.1215 -0.1614  0.2749
25655SOL    HW178578   5.865   4.969   9.285  0.0680  0.1443 -0.0407
25655SOL    HW278579   5.808   5.107   9.313 -0.6876 -0.3205  0.7743
25656SOL     OW78580   2.376   2.736   4.556  0.4035  0.2860  0.1039
25656SOL    HW178581   2.281   2.730   4.563  0.5654 -0.6134  2.1907
25656SOL    HW278582   2.405   2.645   4.546  1.0545  0.5312 -0.2522
25657SOL     OW78583   1.829   9.130   2.936  0.5904 -0.7952 -0.0607
25657SOL    HW178584   1.808   9.222   2.920  0.1036 -1.0766 -1.0890
25657SOL    HW278585   1.761   9.100   2.995  1.2585 -0.2787  1.0115
25658SOL     OW78586   8.824   2.885   4.765  0.2036 -0.0980  0.9276
25658SOL    HW178587   8.870   2.811   4.804  1.7366  0.4945  0.2892
25658SOL    HW278588   8.754   2.845   4.712  0.3775 -1.0329  1.3911
25659SOL     OW78589   2.792   7.342   5.501  0.4350  0.8376  0.2041
25659SOL    HW178590   2.720   7.281   5.486  0.2737  0.7499  1.2336
25659SOL    HW278591   2.851   7.329   5.427 -0.4456  0.6736 -0.4744
25660SOL     OW78592   6.391   1.743   5.871  0.0096 -0.1969  0.0589
25660SOL    HW178593   6.465   1.703   5.916 -0.7012 -4.3911 -2.0422
25660SOL    HW278594   6.428   1.782   5.792  0.4031  1.5020  1.0271
25661SOL     OW78595   8.560   5.029   7.508  0.5373  0.3089 -0.3777
25661SOL    HW178596   8.590   5.069   7.427  0.8181 -0.4896 -0.6850
25661SOL    HW278597   8.507   5.096   7.551 -0.0587  0.5554 -1.4736
25662SOL     OW78598   5.771   5.479   9.831  0.1202  0.1140  0.2828
25662SOL    HW178599   5.800   5.570   9.837 -0.5864  0.2790  1.5572
25662SOL    HW278600   5.680   5.485   9.801  0.1875 -0.1974  0.0092
25663SOL     OW78601   0.466   4.459   1.211 -0.0910 -0.4667 -0.2106
25663SOL    HW178602   0.438   4.516   1.283  1.0135 -0.8534  0.5475
25663SOL    HW278603   0.386   4.444   1.161 -0.5331  1.2654 -0.0994
25664SOL     OW78604   5.608   5.403   3.872  0.5615 -0.0574  0.0548
25664SOL    HW178605   5.573   5.491   3.889  2.3661  0.8434 -0.6038
25664SOL    HW278606   5.532   5.351   3.846 -0.0601  2.3944 -3.7696
25665SOL     OW78607   9.649   0.116   8.936 -0.0451  0.0100 -0.6580
25665SOL    HW178608   9.579   0.176   8.911 -1.2023 -1.2111 -0.4622
25665SOL    HW278609   9.710   0.119   8.862  0.3628  1.9874 -0.3134
25666SOL     OW78610   7.760   7.350   6.325 -0.2687 -0.4469  0.0094
25666SOL    HW178611   7.748   7.386   6.237  3.9269 -1.5118 -1.2123
25666SOL    HW278612   7.759   7.426   6.383  1.5186  0.9186 -1.6248
25667SOL     OW78613   9.693   0.540   8.885 -0.2747  0.4077 -0.4930
25667SOL    HW178614   9.651   0.562   8.968  0.4177  0.9559 -0.2802
25667SOL    HW278615   9.763   0.478   8.909 -0.3974  0.1761 -0.7319
25668SOL     OW78616   4.790   3.977   7.442 -0.3536  0.6635  0.1209
25668SOL    HW178617   4.786   4.065   7.478 -3.0373  0.8710 -0.4626
25668SOL    HW278618   4.736   3.924   7.500  0.6360 -0.4720  0.0584
25669SOL     OW78619   4.621   4.463   1.183 -0.1024  0.1589  0.5550
25669SOL    HW178620   4.694   4.417   1.141  0.7726  0.7215  1.4447
25669SOL    HW278621   4.571   4.393   1.226 -0.5343 -0.3227 -0.6550
25670SOL     OW78622   4.982   4.792   3.176  0.2519  0.5441 -0.4365
25670SOL    HW178623   5.055   4.746   3.135  0.3794  0.3962 -0.0437
25670SOL    HW278624   4.929   4.723   3.215  0.4402  0.7312  0.1505
25671SOL     OW78625   1.170   0.021   5.213 -0.2796 -0.6722  0.2763
25671SOL    HW178626   1.175   0.078   5.137  0.7653 -1.9694 -0.6858
25671SOL    HW278627   1.240  -0.043   5.200  0.2543 -0.6642  2.5729
25672SOL     OW78628   0.805   3.221   5.119 -0.3470  0.0185  0.3133
25672SOL    HW178629   0.866   3.166   5.168 -0.2934  0.3907  0.6685
25672SOL    HW278630   0.859   3.260   5.050  0.1375  1.3719  1.4091
25673SOL     OW78631   6.227   9.584   5.565  0.0604  0.2089 -0.3391
25673SOL    HW178632   6.299   9.644   5.584 -0.0815  0.2989 -0.0807
25673SOL    HW278633   6.170   9.589   5.642 -0.4863  0.5258 -0.7555
25674SOL     OW78634   1.473   7.958   5.955  0.2417 -0.2345 -0.3247
25674SOL    HW178635   1.391   7.912   5.975  0.2176  0.0668  0.2860
25674SOL    HW278636   1.508   7.983   6.041 -0.0059  1.3427 -0.6681
25675SOL     OW78637   1.859   1.769   4.089  0.1909 -0.2844  0.3427
25675SOL    HW178638   1.765   1.761   4.107  0.0300  0.2566 -0.2203
25675SOL    HW278639   1.864   1.780   3.994  0.8259 -0.3128  0.3713
25676SOL     OW78640   9.637   8.277   4.752 -0.6192  0.4848 -0.8186
25676SOL    HW178641   9.559   8.332   4.750  0.2873  1.7872 -1.3950
25676SOL    HW278642   9.630   8.229   4.835 -3.0647 -1.0400 -1.7694
25677SOL     OW78643   2.693   7.585   3.401 -0.0421  0.4073 -0.3818
25677SOL    HW178644   2.649   7.574   3.485 -0.7132  1.4118 -0.5796
25677SOL    HW278645   2.669   7.507   3.350  3.2081 -2.0571  1.4857
25678SOL     OW78646   2.930   6.557   2.446 -0.4667  0.6170 -0.7457
25678SOL    HW178647   2.836   6.567   2.432 -0.4833  1.2535 -0.2185
25678SOL    HW278648   2.960   6.644   2.471  0.3680  0.5537 -1.4689
25679SOL     OW78649   6.782   9.005   7.811 -0.7007 -0.6291  0.1652
25679SOL    HW178650   6.746   8.948   7.742 -0.2653  0.2098 -0.7917
25679SOL    HW278651   6.868   8.968   7.830 -0.1889 -0.0207 -0.8451
25680SOL     OW78652   4.984   2.261   7.829  0.0723 -0.0831 -0.2920
25680SOL    HW178653   4.904   2.312   7.832 -0.5454 -1.0505  2.5642
25680SOL    HW278654   4.955   2.171   7.819  1.0144 -0.2271 -2.2987
25681SOL     OW78655   3.441   7.177   5.109  0.2951 -0.1899 -0.5140
25681SOL    HW178656   3.464   7.264   5.141 -0.8565  0.6258 -1.8106
25681SOL    HW278657   3.373   7.146   5.169 -1.6727  1.2232 -1.9110
25682SOL     OW78658   0.168   5.752   9.401 -0.0328  0.3359 -0.2786
25682SOL    HW178659   0.189   5.805   9.324 -0.0048  1.9368  0.7948
25682SOL    HW278660   0.086   5.707   9.377 -0.9218  2.0754 -0.6808
25683SOL     OW78661   9.409   2.307   3.742 -0.2061  0.2492 -0.6238
25683SOL    HW178662   9.473   2.359   3.791 -1.1667  0.1499  0.8190
25683SOL    HW278663   9.332   2.364   3.736 -1.6872 -1.2576  1.9625
25684SOL     OW78664   4.417   1.538   8.900 -0.7163  0.3442  0.3515
25684SOL    HW178665   4.407   1.492   8.816 -1.3653  1.5368 -0.2543
25684SOL    HW278666   4.371   1.483   8.963  1.7712 -1.8113  0.4498
25685SOL     OW78667   3.763   6.273   7.902 -0.4177 -0.3239 -0.4226
25685SOL    HW178668   3.694   6.211   7.879 -0.2991 -0.7010  0.1999
25685SOL    HW278669   3.795   6.242   7.987 -0.6067  0.8048  0.0728
25686SOL     OW78670   7.941   9.642   4.224  0.0522  0.4381  0.0599
25686SOL    HW178671   7.858   9.631   4.269  0.6298 -1.4376  0.7476
25686SOL    HW278672   8.004   9.660   4.294  0.1609  2.5162 -0.5124
25687SOL     OW78673   6.557   8.628   6.187 -0.5286 -0.0521 -0.3120
25687SOL    HW178674   6.461   8.627   6.183 -0.7046  2.2846  1.3160
25687SOL    HW278675   6.584   8.649   6.097 -1.7146  1.9328 -0.2786
25688SOL     OW78676   5.673   4.510   6.683 -0.1173 -0.3572  0.5831
25688SOL    HW178677   5.685   4.548   6.770  2.0003 -0.1824  0.2699
25688SOL    HW278678   5.598   4.452   6.692 -1.1037  1.0535  2.0323
25689SOL     OW78679   7.745   0.826   1.601 -0.5920 -0.8829  0.4744
25689SOL    HW178680   7.726   0.912   1.640  0.2760 -1.1982  1.6554
25689SOL    HW278681   7.840   0.820   1.601 -0.5775 -1.1904 -1.1299
25690SOL     OW78682   2.952   2.539   9.636 -0.0964  0.0610 -0.0464
25690SOL    HW178683   3.002   2.460   9.659  0.4360 -0.1977 -1.9748
25690SOL    HW278684   3.015   2.595   9.590  0.1200  2.5668  2.8955
25691SOL     OW78685   0.258   8.996   6.892 -0.4560 -0.3568  0.2822
25691SOL    HW178686   0.252   9.064   6.959  0.7223  0.1723 -0.1178
25691SOL    HW278687   0.312   9.035   6.823 -3.1395 -0.1836 -1.8697
25692SOL     OW78688   8.336   0.596   9.587 -0.1503  0.3980 -0.3171
25692SOL    HW178689   8.276   0.581   9.660  0.9748  0.2005  0.5902
25692SOL    HW278690   8.283   0.641   9.521 -1.2910  0.2171  0.4480
25693SOL     OW78691   5.063   1.680   0.785  0.1711  0.2142 -0.2434
25693SOL    HW178692   5.086   1.588   0.770 -0.4629  0.1715 -1.0537
25693SOL    HW278693   4.981   1.692   0.737  0.9070  1.5241 -1.2598
25694SOL     OW78694   7.263   1.771   4.389 -0.2150 -0.2099  0.1497
25694SOL    HW178695   7.239   1.690   4.434  1.1221 -0.8318 -0.2192
25694SOL    HW278696   7.354   1.786   4.414  0.1163  0.1895 -1.2270
25695SOL     OW78697   0.870   0.564   0.189 -0.4650  0.3096  0.3583
25695SOL    HW178698   0.904   0.596   0.272  0.6117 -0.8850  0.4219
25695SOL    HW278699   0.883   0.469   0.193  1.9408  0.4125 -2.1425
25696SOL     OW78700   6.324   4.470   8.768 -0.1439  0.1503 -0.0362
25696SOL    HW178701   6.235   4.482   8.803 -0.0804  0.7441 -0.0626
25696SOL    HW278702   6.378   4.452   8.844 -0.3141 -0.3981 -0.0386
25697SOL     OW78703   8.639   3.793   5.496  0.2054 -0.3384 -0.6053
25697SOL    HW178704   8.726   3.830   5.507 -0.1409  0.4594 -0.4780
25697SOL    HW278705   8.629   3.781   5.401  0.2990 -0.0487 -0.6522
25698SOL     OW78706   4.393   7.938   3.898 -0.1968 -0.4717  0.2103
25698SOL    HW178707   4.325   7.947   3.830 -1.4311 -1.6888  1.2147
25698SOL    HW278708   4.469   7.983   3.862 -0.7501 -1.1906 -2.0520
25699SOL     OW78709   4.375   8.281   2.698 -0.6051  0.4108  0.5462
25699SOL    HW178710   4.327   8.297   2.779 -0.4231 -0.9849  0.9576
25699SOL    HW278711   4.467   8.295   2.721 -0.4656 -0.8263  0.8502
25700SOL     OW78712   4.950   1.219   3.904  0.0858 -0.2026 -0.0543
25700SOL    HW178713   5.016   1.152   3.886  0.5430  0.1571  0.2776
25700SOL    HW278714   4.988   1.300   3.869 -1.4425 -0.4790 -2.6077
25701SOL     OW78715   8.182   2.684   2.846  0.2639  0.4639  0.7822
25701SOL    HW178716   8.166   2.633   2.926  0.4700  0.5036  0.8498
25701SOL    HW278717   8.277   2.685   2.838  0.3036  1.4813  1.2051
25702SOL     OW78718   8.574   7.153   5.410 -0.4810  0.2045  0.1546
25702SOL    HW178719   8.612   7.126   5.493  0.3439  0.6419 -0.0749
25702SOL    HW278720   8.498   7.206   5.434 -1.4894 -1.4004  0.6131
25703SOL     OW78721   1.442   6.005   3.777  0.4693  0.1091 -0.4119
25703SOL    HW178722   1.374   5.938   3.775 -0.3978  0.9525  0.1631
25703SOL    HW278723   1.509   5.970   3.836  0.7871 -0.9284 -1.3376
25704SOL     OW78724   9.669   2.166   4.655 -0.3411  0.0884  0.1364
25704SOL    HW178725   9.681   2.246   4.603 -1.8424 -1.4768 -2.8912
25704SOL    HW278726   9.739   2.108   4.626  1.7002  0.6336  3.4304
25705SOL     OW78727   8.756   5.504   3.747  0.3266  0.2099 -0.4146
25705SOL    HW178728   8.757   5.586   3.697 -0.4938  0.8575  0.5897
25705SOL    HW278729   8.849   5.483   3.759  0.7247  2.7114  1.9562
25706SOL     OW78730   5.588   0.416   6.233  0.4288  0.4784 -0.6927
25706SOL    HW178731   5.667   0.410   6.179 -0.0486  2.0210 -1.6415
25706SOL    HW278732   5.613   0.377   6.317  2.3844  1.4279 -0.7720
25707SOL     OW78733   4.715   1.769   7.753  1.1200  0.0558  0.1663
25707SOL    HW178734   4.632   1.737   7.717 -0.1312  3.1889 -0.0369
25707SOL    HW278735   4.782   1.732   7.696 -0.2666 -1.0534 -0.8187
25708SOL     OW78736   9.157   5.554   6.371  0.0578  0.2161 -0.3206
25708SOL    HW178737   9.146   5.648   6.358  0.2909  0.3619  0.4948
25708SOL    HW278738   9.085   5.529   6.428  0.0604 -0.0814 -0.4477
25709SOL     OW78739   0.623   5.815   2.694 -0.8268 -0.2135  0.9129
25709SOL    HW178740   0.648   5.803   2.602  2.5186  1.7043  1.4148
25709SOL    HW278741   0.576   5.735   2.717  0.8569 -2.0854 -1.6502
25710SOL     OW78742   3.371   3.652   4.696 -0.1708  0.1195  0.1656
25710SOL    HW178743   3.340   3.652   4.786 -0.8155 -0.3049 -0.0509
25710SOL    HW278744   3.304   3.604   4.647 -0.6777  1.7626 -0.8352
25711SOL     OW78745   5.224   5.591   5.169 -0.4727  0.4331 -0.6826
25711SOL    HW178746   5.178   5.576   5.252 -0.2249 -0.2766 -0.6616
25711SOL    HW278747   5.158   5.629   5.111 -0.9835 -0.2168 -0.5373
25712SOL     OW78748   9.302   7.059   4.616  0.2479 -0.0269 -0.3113
25712SOL    HW178749   9.351   7.139   4.634  1.2486 -0.8304  0.7463
25712SOL    HW278750   9.285   7.061   4.522 -0.1346  1.6289 -0.2237
25713SOL     OW78751   7.251   1.170   3.465 -0.3395 -0.2229 -0.3634
25713SOL    HW178752   7.244   1.168   3.370 -1.3002  0.9925 -0.3326
25713SOL    HW278753   7.335   1.213   3.482  0.1860 -1.1094 -0.6502
25714SOL     OW78754   8.743   3.313   4.786 -0.1086 -0.2846  0.4234
25714SOL    HW178755   8.704   3.310   4.873 -0.5669 -0.0795  0.2267
25714SOL    HW278756   8.813   3.378   4.794  0.2173 -0.6711  0.7823
25715SOL     OW78757   7.198   3.787   4.117 -0.0388  0.1717 -0.4499
25715SOL    HW178758   7.196   3.701   4.074 -0.1065  0.5577 -1.2507
25715SOL    HW278759   7.268   3.834   4.071 -0.3585  0.7209 -0.3811
25716SOL     OW78760   5.993   3.077   0.027 -0.0658  0.3544 -0.2990
25716SOL    HW178761   6.080   3.105  -0.001 -0.0498 -0.8063 -1.5274
25716SOL    HW278762   5.963   3.020  -0.044 -0.9985 -0.8810  1.0411
25717SOL     OW78763   9.115   5.792   0.715 -0.4948  0.2851 -0.4728
25717SOL    HW178764   9.083   5.765   0.801  0.4187 -0.2908 -0.2871
25717SOL    HW278765   9.061   5.866   0.690 -1.8736 -0.5818 -0.1464
25718SOL     OW78766   3.040   4.299   9.062  0.2916  0.2467  0.0114
25718SOL    HW178767   3.036   4.375   9.005 -0.0690 -0.7542 -1.3486
25718SOL    HW278768   3.133   4.283   9.074  0.4075 -0.3731 -1.5065
25719SOL     OW78769   0.670   0.666   8.595  0.3677  0.2462  0.0784
25719SOL    HW178770   0.710   0.710   8.670 -1.1976  0.1424  1.0295
25719SOL    HW278771   0.651   0.577   8.627 -0.5140  0.2701 -0.3616
25720SOL     OW78772   6.824   7.862   3.457  0.6428 -0.5273 -0.1025
25720SOL    HW178773   6.889   7.794   3.476  0.7392 -0.2078  0.7218
25720SOL    HW278774   6.739   7.819   3.472  0.6510 -0.9311 -1.1360
25721SOL     OW78775   7.801   1.553   4.934  0.0133 -0.0179 -0.1866
25721SOL    HW178776   7.774   1.564   4.843 -2.9554 -3.1050  0.0749
25721SOL    HW278777   7.875   1.493   4.930  0.2951  0.3507 -0.5779
25722SOL     OW78778   9.089   1.233   3.506 -0.0237  0.1246 -0.0518
25722SOL    HW178779   9.117   1.224   3.415  0.9111 -0.1457  0.2457
25722SOL    HW278780   9.170   1.222   3.556 -0.8268 -1.9252  0.9174
25723SOL     OW78781   3.457   6.681   3.925  0.3862  0.0098 -0.4418
25723SOL    HW178782   3.477   6.760   3.876  0.5040 -0.8398 -1.8188
25723SOL    HW278783   3.371   6.653   3.893  0.6606 -0.7996 -0.5149
25724SOL     OW78784   8.976   0.691   8.462 -0.5875 -0.1856 -0.3877
25724SOL    HW178785   8.986   0.664   8.553  0.5238  0.7346 -0.2145
25724SOL    HW278786   9.063   0.723   8.437 -0.8033 -0.6773 -1.8580
25725SOL     OW78787   9.433   5.976   8.441  0.4180 -0.2174 -0.2707
25725SOL    HW178788   9.406   5.913   8.374  1.4158  0.1598 -1.0426
25725SOL    HW278789   9.366   6.044   8.437  0.6552 -0.0199 -1.1413
25726SOL     OW78790   6.337   5.691   0.777  0.0648  0.1132 -0.0736
25726SOL    HW178791   6.304   5.682   0.688 -0.4904  0.2853  0.1063
25726SOL    HW278792   6.301   5.615   0.823  1.4398 -0.7141 -0.2968
25727SOL     OW78793   9.401   1.889   9.053  0.5380  0.1258  0.4453
25727SOL    HW178794   9.371   1.975   9.024 -0.2527  0.2124  1.4540
25727SOL    HW278795   9.496   1.892   9.043  0.3180  0.1068 -2.1445
25728SOL     OW78796   2.978   8.910   0.271  0.2687 -0.3622 -0.4895
25728SOL    HW178797   3.040   8.949   0.333 -0.3373  0.2202 -0.2385
25728SOL    HW278798   2.951   8.828   0.314 -1.2971  0.7470  0.7744
25729SOL     OW78799   6.964   9.129   2.509  0.0781 -0.4790  0.0346
25729SOL    HW178800   6.934   9.110   2.420 -0.5871 -0.0828  0.1679
25729SOL    HW278801   7.057   9.109   2.508  0.3262  0.6122 -1.0780
25730SOL     OW78802   4.372   7.373   0.560  0.2266 -0.3826 -0.1697
25730SOL    HW178803   4.293   7.333   0.597  1.1331 -1.8354  0.2516
25730SOL    HW278804   4.401   7.434   0.628 -0.3601 -0.0647 -0.2003
25731SOL     OW78805   5.704   2.907   7.532 -0.4418  0.0741  0.3365
25731SOL    HW178806   5.652   2.832   7.502 -0.9269  0.4421  0.2474
25731SOL    HW278807   5.687   2.975   7.466 -0.1395  0.3154  0.5111
25732SOL     OW78808   6.212   5.385   7.332 -0.0494 -0.0060  0.5428
25732SOL    HW178809   6.229   5.292   7.316 -0.1266 -0.4005  2.4625
25732SOL    HW278810   6.210   5.425   7.245  0.8788 -1.6378 -0.2761
25733SOL     OW78811   8.255   2.833   3.256  0.1040  0.2211  0.1993
25733SOL    HW178812   8.177   2.873   3.219  0.5536  1.4310  0.5121
25733SOL    HW278813   8.301   2.905   3.300 -0.4539 -1.1244  3.2391
25734SOL     OW78814   8.595   6.398   5.867 -0.0718 -0.5398  0.2251
25734SOL    HW178815   8.585   6.345   5.788 -0.1880 -1.4593  0.8338
25734SOL    HW278816   8.506   6.430   5.886  0.0543  0.1400 -0.3208
25735SOL     OW78817   8.232   5.159   0.042 -0.2798 -0.4049 -0.2152
25735SOL    HW178818   8.250   5.228   0.106 -1.4507  0.1310 -0.4454
25735SOL    HW278819   8.137   5.159   0.033 -0.3352 -2.3166  0.0595
25736SOL     OW78820   9.114   0.125   0.433  0.0414  0.0431 -0.8465
25736SOL    HW178821   9.141   0.182   0.505 -0.8566 -0.2788 -0.2452
25736SOL    HW278822   9.196   0.103   0.389  0.8476 -1.2148  1.1423
25737SOL     OW78823   8.951   2.626   6.095 -0.4519 -0.2786  0.5551
25737SOL    HW178824   8.916   2.538   6.108  0.0307 -0.3506  1.3968
25737SOL    HW278825   8.875   2.684   6.099 -0.5700 -0.4953  1.7465
25738SOL     OW78826   6.870   6.764   2.828 -0.3758  0.0041 -0.1820
25738SOL    HW178827   6.890   6.766   2.735 -0.6083 -0.6945 -0.2541
25738SOL    HW278828   6.789   6.813   2.837  0.4222  1.3703 -0.1256
25739SOL     OW78829   0.478   8.586   5.507 -0.3495  0.1485  0.2463
25739SOL    HW178830   0.523   8.610   5.426 -0.4383  0.8100  0.3845
25739SOL    HW278831   0.416   8.657   5.522 -0.0954  0.2181  1.0758
25740SOL     OW78832   7.555   4.993   2.290  0.5451 -0.1323  0.8143
25740SOL    HW178833   7.567   5.063   2.226 -0.8380  0.7981  1.5321
25740SOL    HW278834   7.617   5.015   2.361  0.3495  0.1767  0.8891
25741SOL     OW78835   3.176   2.546   3.377  0.2294  0.3276  0.1112
25741SOL    HW178836   3.099   2.601   3.391  0.2606  0.3406  0.2334
25741SOL    HW278837   3.142   2.456   3.376 -0.0550  0.4319 -1.7221
25742SOL     OW78838   7.832   7.599   6.381  0.6163  0.2056 -0.0266
25742SOL    HW178839   7.762   7.652   6.419 -0.7115 -1.8954  0.6062
25742SOL    HW278840   7.817   7.604   6.286  1.0281  1.5887 -0.0390
25743SOL     OW78841   3.336   6.133   6.112 -0.2375  0.0369  0.9759
25743SOL    HW178842   3.374   6.143   6.025 -0.8008 -0.0723  0.7113
25743SOL    HW278843   3.242   6.144   6.099 -0.2967  0.4408  1.6368
25744SOL     OW78844   4.773   8.478   7.891  0.6861 -0.0070  0.2772
25744SOL    HW178845   4.723   8.485   7.973 -2.0209 -1.0971 -1.1576
25744SOL    HW278846   4.824   8.398   7.902 -1.7413 -1.7354 -0.0041
25745SOL     OW78847   8.496   6.094   4.129  0.4310 -0.0438 -0.5204
25745SOL    HW178848   8.406   6.063   4.124  0.0642  0.7532  0.5890
25745SOL    HW278849   8.532   6.051   4.206  0.8512 -0.0143 -0.6990
25746SOL     OW78850   8.619   9.190   1.427 -0.5956  0.0418  0.0244
25746SOL    HW178851   8.671   9.190   1.507  1.5984  0.3638 -1.3091
25746SOL    HW278852   8.529   9.197   1.457  0.0911 -0.6364  2.4727
25747SOL     OW78853   7.589   6.635   3.038  0.4575 -0.2646 -0.2052
25747SOL    HW178854   7.517   6.698   3.033  0.3209 -0.3023  1.0043
25747SOL    HW278855   7.666   6.685   3.011  0.7085  1.0767  2.6037
25748SOL     OW78856   8.141   0.093   9.624  0.3335 -0.0201  0.4547
25748SOL    HW178857   8.067   0.063   9.677  1.4440  0.4734  2.3856
25748SOL    HW278858   8.217   0.048   9.662  1.0064 -1.0002 -1.8780
25749SOL     OW78859   0.503   1.885   3.262 -0.1370  0.2315 -0.1505
25749SOL    HW178860   0.534   1.803   3.225 -0.0167  0.3653 -0.3486
25749SOL    HW278861   0.412   1.892   3.232 -1.0252 -1.1053  2.0000
25750SOL     OW78862   5.821   2.704   6.703 -0.2906  0.1231 -0.6688
25750SOL    HW178863   5.881   2.635   6.676 -0.5497 -0.8326  1.0616
25750SOL    HW278864   5.866   2.786   6.680  0.4024 -0.5950 -1.9604
25751SOL     OW78865   0.187   8.034   2.861 -0.3224  0.9973  0.1483
25751SOL    HW178866   0.145   8.031   2.775  1.6439  0.0949 -0.8661
25751SOL    HW278867   0.170   7.948   2.899 -1.1120  1.3636  0.6553
25752SOL     OW78868   7.173   2.230   8.538 -0.1574  0.1109  0.2608
25752SOL    HW178869   7.138   2.142   8.522 -0.0305 -0.1099  1.1475
25752SOL    HW278870   7.250   2.236   8.481 -0.7888  0.0654 -0.6207
25753SOL     OW78871   5.685   0.603   1.041 -0.1670  0.1762  0.3029
25753SOL    HW178872   5.603   0.606   1.091 -0.6972  1.1931 -0.5766
25753SOL    HW278873   5.694   0.691   1.005  0.7646 -0.2209 -0.4814
25754SOL     OW78874   6.881   8.212   7.459  0.0909 -0.2834 -0.1442
25754SOL    HW178875   6.797   8.189   7.420  0.3025 -0.0507 -0.7422
25754SOL    HW278876   6.893   8.305   7.441 -0.5052  0.2233  1.8089
25755SOL     OW78877   7.445   7.432   2.342 -0.5592 -0.2440  0.1113
25755SOL    HW178878   7.504   7.451   2.415 -0.2529  0.1829 -0.2443
25755SOL    HW278879   7.365   7.480   2.363 -0.4911 -0.1659  0.1919
25756SOL     OW78880   3.081   9.563   0.810  0.3762 -0.2107 -0.1615
25756SOL    HW178881   3.051   9.654   0.816  0.1714 -0.3623  1.6596
25756SOL    HW278882   3.176   9.568   0.821  0.3419 -0.2245  0.1552
25757SOL     OW78883   7.334   0.633   3.482 -0.6345 -0.7000  0.1268
25757SOL    HW178884   7.255   0.658   3.434 -0.9620  3.1821  2.2601
25757SOL    HW278885   7.317   0.543   3.511 -4.4682  0.0526  0.7558
25758SOL     OW78886   7.326   9.524   7.623  0.0897  0.0639  0.1166
25758SOL    HW178887   7.416   9.506   7.648 -0.4845 -1.6966  1.1051
25758SOL    HW278888   7.319   9.493   7.533  0.7465  1.3272 -0.3965
25759SOL     OW78889   5.623   3.924   4.206 -0.4356  0.5724 -0.1106
25759SOL    HW178890   5.653   3.851   4.260 -0.6435  0.4168 -0.2050
25759SOL    HW278891   5.615   3.997   4.267 -1.5700  0.1557  0.2489
25760SOL     OW78892   4.220   8.653   6.037  0.0147 -0.4703 -0.5257
25760SOL    HW178893   4.273   8.592   6.088  0.7456  1.4591  1.1598
25760SOL    HW278894   4.261   8.738   6.051 -1.3483  0.5456 -2.2404
25761SOL     OW78895   1.427   6.341   1.053 -0.1037 -0.3477 -0.2321
25761SOL    HW178896   1.495   6.370   0.993 -1.2668 -0.2895 -1.5922
25761SOL    HW278897   1.427   6.246   1.045  0.1329 -0.3788  0.1287
25762SOL     OW78898   7.414   1.615   4.902  0.2371 -0.4434  0.4161
25762SOL    HW178899   7.421   1.557   4.826 -0.6517  0.0018 -0.0186
25762SOL    HW278900   7.467   1.572   4.970  0.5167 -1.1736 -0.2471
25763SOL     OW78901   8.908   9.730   8.010  0.0430  0.0936  0.0873
25763SOL    HW178902   8.954   9.813   8.016 -0.0632  0.2564 -1.1930
25763SOL    HW278903   8.817   9.755   7.991 -0.1523 -0.2918  0.5036
25764SOL     OW78904   9.317   1.407   2.051  0.5571  0.4513 -0.0474
25764SOL    HW178905   9.294   1.314   2.054 -0.8970  0.8106  1.6968
25764SOL    HW278906   9.413   1.408   2.045  0.8320 -1.2236  2.4106
25765SOL     OW78907   5.703   9.131   2.682  0.7418 -0.1421 -0.5550
25765SOL    HW178908   5.638   9.072   2.644  0.6880 -1.5877  1.6105
25765SOL    HW278909   5.787   9.099   2.648  0.6450 -0.9536 -0.0445
25766SOL     OW78910   7.057   2.668   0.886 -0.4793 -0.3070 -0.4273
25766SOL    HW178911   7.076   2.738   0.949  1.9600 -0.7693 -0.5589
25766SOL    HW278912   7.033   2.593   0.940  3.1014 -1.1743  0.2231
25767SOL     OW78913   3.884   8.184   1.380 -0.5052  0.4708  0.5378
25767SOL    HW178914   3.959   8.188   1.439  0.1616 -1.3556 -0.1002
25767SOL    HW278915   3.921   8.200   1.293 -0.4220 -2.2732 -0.0310
25768SOL     OW78916   2.022   9.100   5.984  0.1196 -0.3934 -0.5504
25768SOL    HW178917   2.034   9.163   5.913  1.2034  0.8902  0.7039
25768SOL    HW278918   2.079   9.027   5.961  0.1346 -0.1832 -1.2042
25769SOL     OW78919   9.199   8.945   0.866 -0.0416  0.5208  0.4202
25769SOL    HW178920   9.222   9.037   0.852 -0.3584  0.4500 -0.6472
25769SOL    HW278921   9.241   8.898   0.794 -3.5479  0.3945 -1.7869
25770SOL     OW78922   9.428   7.698   8.686 -0.1542 -0.0315  0.2672
25770SOL    HW178923   9.506   7.660   8.645 -0.1614  0.9379 -0.6814
25770SOL    HW278924   9.428   7.662   8.775  0.5584 -1.1865 -0.1846
25771SOL     OW78925   3.660   4.549   3.762 -0.1410  0.2332 -0.7903
25771SOL    HW178926   3.747   4.530   3.799 -0.4971 -0.9941 -0.5051
25771SOL    HW278927   3.677   4.569   3.670  0.5468  1.0772 -0.4899
25772SOL     OW78928   1.649   5.120   8.413 -0.1388 -0.1816  0.2332
25772SOL    HW178929   1.682   5.030   8.409  2.0536  0.4900  1.5821
25772SOL    HW278930   1.678   5.160   8.331  1.1592 -0.0168  0.7569
25773SOL     OW78931   3.100   0.158   9.681  0.2035  0.2126  0.3776
25773SOL    HW178932   3.038   0.199   9.621 -0.3841 -0.6712  0.3583
25773SOL    HW278933   3.113   0.224   9.750 -1.8344 -0.0700  1.1103
25774SOL     OW78934   1.452   1.647   9.510 -0.2964 -0.9037 -0.3984
25774SOL    HW178935   1.427   1.556   9.521 -0.1718 -1.2573 -2.6973
25774SOL    HW278936   1.456   1.661   9.416 -1.1526  1.7256 -0.1488
25775SOL     OW78937   9.097   8.849   1.750  0.0048  0.2903  0.4640
25775SOL    HW178938   9.023   8.799   1.716 -0.1993  0.7049  0.2912
25775SOL    HW278939   9.063   8.896   1.826 -0.0308  0.8263  0.1219
25776SOL     OW78940   7.050   4.953   0.104 -0.6384  0.0929 -0.5849
25776SOL    HW178941   7.080   4.913   0.022 -2.1880  0.0098 -1.1602
25776SOL    HW278942   7.037   4.878   0.163  3.2688  0.3080  0.8593
25777SOL     OW78943   6.164   2.221   5.027 -0.0496  0.2541  0.3872
25777SOL    HW178944   6.096   2.158   5.050  0.0627  0.3662  1.0404
25777SOL    HW278945   6.116   2.295   4.990 -0.2138 -0.0357  0.0223
25778SOL     OW78946   6.283   9.205   1.090 -0.5302 -0.5066  0.3008
25778SOL    HW178947   6.323   9.289   1.112 -1.1353  0.0439 -0.6319
25778SOL    HW278948   6.307   9.191   0.998  0.1524 -1.7034  0.6367
25779SOL     OW78949   3.568   4.944   9.257  0.4822  0.1820 -0.1361
25779SOL    HW178950   3.510   5.014   9.285  1.4170  1.7473 -1.8627
25779SOL    HW278951   3.653   4.966   9.295  0.7675 -0.0350 -0.6377
25780SOL     OW78952   0.612   8.486   2.995 -0.2191  0.0232  0.2315
25780SOL    HW178953   0.573   8.461   3.079 -0.4499  0.4854  0.2653
25780SOL    HW278954   0.539   8.520   2.944  0.0455  0.3922  0.0971
25781SOL     OW78955   5.290   0.176   4.839  0.1523 -0.3264 -0.4221
25781SOL    HW178956   5.383   0.199   4.848 -0.2642  0.7072  1.8239
25781SOL    HW278957   5.284   0.085   4.869  0.0723  0.5129  2.3941
25782SOL     OW78958   8.160   9.592   8.282 -0.1923 -0.2310 -0.1596
25782SOL    HW178959   8.160   9.497   8.295  0.1139 -0.3556 -1.0373
25782SOL    HW278960   8.230   9.623   8.340  0.8160 -0.7252 -1.0931
25783SOL     OW78961   6.340   6.016   5.108 -0.4111  0.2251 -0.4326
25783SOL    HW178962   6.254   6.017   5.067 -0.5874 -0.5068 -0.0907
25783SOL    HW278963   6.354   5.925   5.132  1.4457 -0.1685 -2.5853
25784SOL     OW78964   5.323   8.764   2.194  0.0821  0.0559 -0.2637
25784SOL    HW178965   5.376   8.688   2.168  1.4449 -0.2324  2.9245
25784SOL    HW278966   5.357   8.835   2.139 -1.0109 -1.4459 -3.1002
25785SOL     OW78967   3.114   3.802   7.871 -0.0727 -0.2826 -0.6391
25785SOL    HW178968   3.064   3.736   7.919 -0.3454  0.8937  0.7873
25785SOL    HW278969   3.170   3.842   7.938  2.9789 -1.6469 -2.1903
25786SOL     OW78970   3.172   8.253   8.883 -0.1238 -0.5208  0.1690
25786SOL    HW178971   3.158   8.292   8.969  3.6653 -1.7118  1.5543
25786SOL    HW278972   3.268   8.249   8.874 -0.3526 -1.2229 -3.7727
25787SOL     OW78973   3.795   1.465   4.414  0.0133 -0.7264 -0.2353
25787SOL    HW178974   3.854   1.479   4.340 -0.9962  0.3053 -0.8813
25787SOL    HW278975   3.802   1.371   4.432  0.6782 -0.9032 -1.2986
25788SOL     OW78976   1.483   1.378   9.392  0.6132 -0.6050  0.0272
25788SOL    HW178977   1.560   1.422   9.355 -0.1959  0.8874  0.0546
25788SOL    HW278978   1.487   1.290   9.356  1.3032  0.0194 -1.5202
25789SOL     OW78979   1.238   2.531   5.847  0.0324 -0.1009  0.0657
25789SOL    HW178980   1.154   2.512   5.807 -0.0520  0.8862 -0.2564
25789SOL    HW278981   1.292   2.454   5.828  0.0233  0.3585 -2.0709
25790SOL     OW78982   1.574   6.423   3.615  0.3062  0.2031 -0.0794
25790SOL    HW178983   1.585   6.375   3.697  0.2416  1.3932  0.6503
25790SOL    HW278984   1.585   6.515   3.639 -0.2532  0.6199 -1.3159
25791SOL     OW78985   1.370   8.154   3.618 -0.0286 -0.0780 -0.3839
25791SOL    HW178986   1.346   8.077   3.566  1.6138 -0.3962 -0.7204
25791SOL    HW278987   1.365   8.124   3.708  0.1494 -0.4505 -0.4953
25792SOL     OW78988   9.065   8.311   4.206 -0.5672 -0.2306  0.2571
25792SOL    HW178989   9.110   8.244   4.257 -1.8016  0.1637  1.9435
25792SOL    HW278990   9.074   8.282   4.115  0.3213 -1.8070  0.8086
25793SOL     OW78991   0.340   8.685   7.829 -0.4405 -0.3308  0.5807
25793SOL    HW178992   0.314   8.756   7.888  1.1249  0.3554  0.4871
25793SOL    HW278993   0.368   8.728   7.749  1.0420 -0.9684  0.7084
25794SOL     OW78994   1.560   1.873   0.617 -0.2934 -0.3952  0.1197
25794SOL    HW178995   1.480   1.852   0.665  0.6694 -0.6766  1.6851
25794SOL    HW278996   1.569   1.968   0.624 -1.2547 -0.1602 -1.3808
25795SOL     OW78997   5.805   6.838   3.959  0.3830  0.1859 -0.1142
25795SOL    HW178998   5.717   6.804   3.979  1.4963 -2.6474  0.4979
25795SOL    HW278999   5.795   6.878   3.872 -1.5898  0.3186  0.1117
25796SOL     OW79000   7.632   0.238   2.650  0.0536  0.6706 -0.2170
25796SOL    HW179001   7.646   0.312   2.591  0.5268 -0.1656 -1.1770
25796SOL    HW279002   7.544   0.253   2.686 -0.2778  1.1597 -1.1926
25797SOL     OW79003   2.168   9.335   4.358 -0.2590 -0.2495  0.3683
25797SOL    HW179004   2.248   9.387   4.357  0.2540 -1.0407 -0.7064
25797SOL    HW279005   2.106   9.385   4.304  0.3473 -0.8973 -0.9697
25798SOL     OW79006   5.819   1.244   8.964 -0.2902 -0.1339  0.2768
25798SOL    HW179007   5.848   1.164   8.919 -0.2620  0.3715 -0.6277
25798SOL    HW279008   5.830   1.313   8.899 -0.7644  0.5378  0.8956
25799SOL     OW79009   9.231   4.884   6.006 -0.5953 -0.6781 -0.1148
25799SOL    HW179010   9.250   4.803   5.960  0.4889 -1.0862  1.0009
25799SOL    HW279011   9.301   4.892   6.071 -0.5431  1.2648 -0.3488
25800SOL     OW79012   4.563   0.100   5.715 -0.1653 -0.4355  0.0061
25800SOL    HW179013   4.543   0.128   5.625  1.1012 -0.6639 -0.3695
25800SOL    HW279014   4.554   0.005   5.713  0.6409 -0.5183 -0.1048
25801SOL     OW79015   0.357   7.930   1.821 -0.1470 -0.2139 -0.3127
25801SOL    HW179016   0.295   7.860   1.801 -1.0033  0.0236  1.2828
25801SOL    HW279017   0.439   7.885   1.841 -0.3461 -0.6696 -0.5045
25802SOL     OW79018   5.487   2.501   3.270 -0.0553 -0.7752  0.3866
25802SOL    HW179019   5.405   2.506   3.221 -0.8132 -0.1123  1.6758
25802SOL    HW279020   5.554   2.486   3.203 -1.2153 -1.3690 -0.6860
25803SOL     OW79021   3.901   1.449   7.956 -0.1356  0.3947 -0.5220
25803SOL    HW179022   3.825   1.412   8.002  0.9442  0.0511  1.0616
25803SOL    HW279023   3.915   1.390   7.882 -0.0553 -0.8642  0.4577
25804SOL     OW79024   4.497   8.488   9.042  0.0458 -0.2675  0.2435
25804SOL    HW179025   4.476   8.577   9.016  0.7268  0.2581  1.4134
25804SOL    HW279026   4.419   8.458   9.089 -0.3000 -0.4082 -0.4084
25805SOL     OW79027   3.373   3.946   8.780 -0.0017 -0.2367 -0.5053
25805SOL    HW179028   3.462   3.927   8.808  1.0938  2.5340 -1.7211
25805SOL    HW279029   3.344   3.866   8.736  1.9718 -1.1101 -0.3222
25806SOL     OW79030   7.263   6.345   6.933  0.3316  0.3670 -0.5132
25806SOL    HW179031   7.245   6.299   6.851 -0.3647  0.1274 -0.2292
25806SOL    HW279032   7.247   6.280   7.001 -1.6167  1.2671 -0.0480
25807SOL     OW79033   0.871   9.153   8.385  0.2163 -0.4213  0.0107
25807SOL    HW179034   0.828   9.115   8.462 -0.3794 -0.1325 -0.1750
25807SOL    HW279035   0.917   9.230   8.420  1.4375 -1.2921  0.3892
25808SOL     OW79036   7.504   6.540   9.356 -0.0427 -0.3716  0.1784
25808SOL    HW179037   7.560   6.484   9.411 -1.0753 -0.7642  0.8603
25808SOL    HW279038   7.564   6.606   9.321  0.6667 -0.0571  1.8456
25809SOL     OW79039   7.867   4.539   2.785  0.0783 -0.0273  0.3765
25809SOL    HW179040   7.801   4.565   2.721  0.1483  3.4444  1.4976
25809SOL    HW279041   7.946   4.585   2.756  0.8001 -0.5109  1.5200
25810SOL     OW79042   7.697   0.935   6.666  0.2428  0.1434  0.3751
25810SOL    HW179043   7.617   0.922   6.615  0.4245  0.7728 -0.0786
25810SOL    HW279044   7.671   0.993   6.738  0.1337 -0.2293  0.6409
25811SOL     OW79045   4.422   1.730   7.712 -0.5102 -0.0035 -0.4256
25811SOL    HW179046   4.337   1.742   7.756  0.3831  0.3137  1.3036
25811SOL    HW279047   4.444   1.818   7.681  0.3128  0.4661  1.3576
25812SOL     OW79048   8.334   6.350   7.819 -0.5176 -0.1140 -0.0884
25812SOL    HW179049   8.386   6.411   7.766 -0.7998 -0.2578 -0.5339
25812SOL    HW279050   8.336   6.388   7.907 -0.1718  0.2082 -0.2315
25813SOL     OW79051   5.467   3.569   2.372 -0.0787  0.9025 -0.4517
25813SOL    HW179052   5.419   3.499   2.417 -1.4002  3.5763  2.7816
25813SOL    HW279053   5.404   3.606   2.310  0.8521 -1.0664 -2.6933
25814SOL     OW79054   8.117   6.339   2.239  0.0955  0.0645 -0.2134
25814SOL    HW179055   8.180   6.410   2.255 -1.6910  1.9715 -1.1783
25814SOL    HW279056   8.054   6.347   2.311 -0.1041 -0.5890 -0.3131
25815SOL     OW79057   9.717   7.871   1.450 -0.2550  0.5164 -0.3565
25815SOL    HW179058   9.692   7.792   1.498  0.2469  1.7879  2.1430
25815SOL    HW279059   9.642   7.930   1.461  0.3528  1.2527 -0.0856
25816SOL     OW79060   4.786   4.250   5.511 -0.4988 -0.3410 -0.6632
25816SOL    HW179061   4.815   4.161   5.493  0.2980 -0.7439  2.0633
25816SOL    HW279062   4.840   4.305   5.454 -1.5856 -1.5863 -2.9997
25817SOL     OW79063   1.570   2.514   9.193 -0.1802 -0.3032 -0.0846
25817SOL    HW179064   1.525   2.594   9.167  0.0493 -0.3884 -0.7869
25817SOL    HW279065   1.508   2.469   9.250 -0.5582  0.0883 -0.1804
25818SOL     OW79066   3.266   7.921   3.070 -0.2562  0.0584  0.0186
25818SOL    HW179067   3.333   7.854   3.083  0.3753  0.8361  0.9308
25818SOL    HW279068   3.185   7.881   3.102  0.3165  0.0893  1.5882
25819SOL     OW79069   1.727   2.175   5.230 -0.1470 -0.4254 -0.3610
25819SOL    HW179070   1.666   2.111   5.193  1.8441 -1.3411 -2.2679
25819SOL    HW279071   1.721   2.250   5.172 -0.0874 -0.1652 -0.0346
25820SOL     OW79072   6.695   0.430   0.917  0.2739 -0.4460 -0.0683
25820SOL    HW179073   6.633   0.357   0.920  0.2422 -0.3911  0.6309
25820SOL    HW279074   6.722   0.434   0.825 -1.6651  0.2830 -0.6640
25821SOL     OW79075   2.336   5.749   8.790  0.1050  0.3445 -0.1747
25821SOL    HW179076   2.392   5.714   8.720  1.7691  0.4043  1.0637
25821SOL    HW279077   2.391   5.745   8.868 -2.4596 -2.0955  1.7276
25822SOL     OW79078   9.629   0.132   5.264 -0.1747  0.3837 -0.0659
25822SOL    HW179079   9.620   0.059   5.203 -0.5417  0.3661  0.0057
25822SOL    HW279080   9.586   0.101   5.344 -1.5825  1.1853 -0.4726
25823SOL     OW79081   0.604   2.085   3.889 -0.0848  0.2303  0.2743
25823SOL    HW179082   0.694   2.052   3.888 -0.2534 -0.2654  1.1095
25823SOL    HW279083   0.606   2.161   3.830  0.6992 -0.2335 -0.3191
25824SOL     OW79084   9.355   7.564   2.267  0.0881 -0.3106  0.1486
25824SOL    HW179085   9.422   7.621   2.306  0.6685 -0.4636 -0.6024
25824SOL    HW279086   9.344   7.598   2.178 -0.4384 -0.6333  0.0868
25825SOL     OW79087   4.790   0.236   5.100  0.6139  0.2009 -0.6475
25825SOL    HW179088   4.876   0.196   5.094  0.9756  0.9431 -0.4545
25825SOL    HW279089   4.804   0.328   5.077  0.1763  0.7208  1.0411
25826SOL     OW79090   7.484   5.570   6.750  0.0617  0.6608 -0.1607
25826SOL    HW179091   7.555   5.624   6.785  1.3302 -1.2586  0.3615
25826SOL    HW279092   7.475   5.599   6.660  1.5299  0.9503 -0.2439
25827SOL     OW79093   2.903   1.469   3.995 -0.3047  0.2798 -0.4651
25827SOL    HW179094   2.931   1.406   4.061  1.5744  0.6967 -0.8032
25827SOL    HW279095   2.832   1.425   3.949  1.3192 -1.9250 -1.0818
25828SOL     OW79096   1.546   1.135   0.303 -0.1613 -0.0461  0.7473
25828SOL    HW179097   1.537   1.228   0.321  1.3330 -0.0573  1.7747
25828SOL    HW279098   1.601   1.102   0.374 -2.0882 -2.0752  1.4217
25829SOL     OW79099   7.121   2.798   3.571  0.4711  0.1589 -0.3279
25829SOL    HW179100   7.090   2.882   3.604 -0.0338  0.3411 -1.2230
25829SOL    HW279101   7.086   2.734   3.633  1.7142  0.6692  0.9362
25830SOL     OW79102   8.585   9.118   7.288  0.5833  0.7756 -0.1525
25830SOL    HW179103   8.605   9.066   7.366  0.4644 -0.1363 -0.7062
25830SOL    HW279104   8.537   9.057   7.231 -2.9484  2.5316  0.6971
25831SOL     OW79105   7.310   2.186   9.619  0.3266  0.5434 -0.0239
25831SOL    HW179106   7.331   2.111   9.563 -1.6488 -0.6076  0.6592
25831SOL    HW279107   7.374   2.183   9.689 -0.8735 -1.7743  1.0747
25832SOL     OW79108   4.532   6.889   6.937 -0.6483 -0.0541 -0.2215
25832SOL    HW179109   4.619   6.892   6.977 -0.7080 -0.5739 -0.0477
25832SOL    HW279110   4.544   6.929   6.851 -0.1240 -0.6050 -0.4102
25833SOL     OW79111   7.426   5.509   3.007 -0.6075 -0.4380 -0.2789
25833SOL    HW179112   7.421   5.592   3.055 -0.8715 -0.7882  0.3161
25833SOL    HW279113   7.336   5.476   3.006 -0.3554 -1.2005  0.3832
25834SOL     OW79114   8.709   8.200   2.080  1.0262  0.1280 -0.2443
25834SOL    HW179115   8.734   8.121   2.129  1.9158  0.9778  0.7246
25834SOL    HW279116   8.636   8.236   2.128  2.0721  1.1103  0.6614
25835SOL     OW79117   3.903   4.746   6.596 -0.6769 -0.0367 -0.0557
25835SOL    HW179118   3.943   4.698   6.668 -1.9207  1.5077  1.7630
25835SOL    HW279119   3.887   4.679   6.528  0.6487 -1.5051  1.0216
25836SOL     OW79120   5.051   9.085   2.258 -0.0903  0.1111 -0.3607
25836SOL    HW179121   4.967   9.106   2.217  0.6472  3.8524 -0.3538
25836SOL    HW279122   5.038   9.108   2.351  0.8733  0.7281 -0.3615
25837SOL     OW79123   4.808   9.135   4.589 -0.2149  0.4385 -0.0725
25837SOL    HW179124   4.831   9.197   4.519 -1.0484  0.0734 -0.6947
25837SOL    HW279125   4.717   9.110   4.569  0.5557 -2.1360 -0.7378
25838SOL     OW79126   5.281   6.889   1.525  0.2227  0.0350 -0.1243
25838SOL    HW179127   5.235   6.807   1.543  0.3235 -0.1344 -0.6390
25838SOL    HW279128   5.372   6.870   1.544  0.1922  0.1412  0.1304
25839SOL     OW79129   3.942   6.307   6.346 -0.1172  0.0020  0.0918
25839SOL    HW179130   4.015   6.359   6.379 -1.8003  1.0314  2.4596
25839SOL    HW279131   3.865   6.363   6.359 -1.7854 -2.3627  1.0222
25840SOL     OW79132   9.101   6.442   9.124  0.5584 -0.3917  0.0185
25840SOL    HW179133   9.192   6.454   9.098  0.4941  1.4616  0.5246
25840SOL    HW279134   9.051   6.489   9.057  0.0648 -0.1505  0.5573
25841SOL     OW79135   5.173   6.630   1.529  0.0101 -0.4162 -0.3406
25841SOL    HW179136   5.184   6.588   1.444  0.0832 -2.2324  0.5364
25841SOL    HW279137   5.177   6.559   1.592  0.0913  0.9130  1.2125
25842SOL     OW79138   5.507   2.858   0.090  0.3881 -0.2866  0.3804
25842SOL    HW179139   5.447   2.847   0.016  0.1541  0.3324  0.4765
25842SOL    HW279140   5.457   2.825   0.165 -0.6252  2.0360  0.8070
25843SOL     OW79141   5.917   1.322   3.035  0.7883  0.1035 -0.4400
25843SOL    HW179142   5.874   1.340   2.951 -0.3312 -0.6647 -0.0679
25843SOL    HW279143   5.863   1.253   3.074  2.0530 -0.4821  0.3267
25844SOL     OW79144   0.330   4.078   2.996  0.5144 -0.0273  0.6231
25844SOL    HW179145   0.307   4.013   2.930  2.9290 -1.5551  1.1990
25844SOL    HW279146   0.343   4.028   3.076  1.4833  1.2894  1.3249
25845SOL     OW79147   3.878   2.928   0.293  0.1214 -0.1850 -0.0749
25845SOL    HW179148   3.876   2.841   0.254  1.1959 -0.9513  1.4541
25845SOL    HW279149   3.809   2.976   0.248 -0.4107 -1.7766 -1.0544
25846SOL     OW79150   9.456   9.354   2.787 -0.0644 -0.1629 -0.1311
25846SOL    HW179151   9.444   9.389   2.698  1.1473 -0.2948 -0.3637
25846SOL    HW279152   9.396   9.405   2.841 -0.3796  0.3345 -0.9244
25847SOL     OW79153   4.698   7.620   4.882 -0.4144 -0.0495  0.5582
25847SOL    HW179154   4.790   7.613   4.908 -0.7406 -1.2316  1.4876
25847SOL    HW279155   4.667   7.697   4.930 -0.1994 -0.3449  1.1889
25848SOL     OW79156   5.893   0.951   1.704  0.1631 -0.1340 -0.3250
25848SOL    HW179157   5.806   0.979   1.676 -0.4342 -2.1638 -0.6769
25848SOL    HW279158   5.949   0.969   1.629 -0.4389 -0.9070 -0.9880
25849SOL     OW79159   1.626   9.377   0.380 -0.5704 -0.3421 -0.0309
25849SOL    HW179160   1.683   9.444   0.417 -0.6746 -0.8798  1.1752
25849SOL    HW279161   1.684   9.303   0.362 -0.5000 -0.0409 -1.0991
25850SOL     OW79162   2.306   1.695   8.782 -0.4060 -0.0024 -0.0682
25850SOL    HW179163   2.301   1.788   8.806  0.2381  0.1238 -0.3981
25850SOL    HW279164   2.215   1.668   8.773 -0.5986  0.8200 -0.7812
25851SOL     OW79165   1.233   7.007   1.726 -0.5664  0.0277  0.5385
25851SOL    HW179166   1.226   7.058   1.645 -1.5952  1.0182  1.2208
25851SOL    HW279167   1.246   6.917   1.696 -1.0288  0.3590 -0.7434
25852SOL     OW79168   8.187   3.138   6.518 -0.0919 -0.2483  0.0342
25852SOL    HW179169   8.108   3.166   6.472  1.0931  2.0275 -0.8008
25852SOL    HW279170   8.216   3.060   6.471 -0.2727  0.5936 -1.5520
25853SOL     OW79171   0.682   4.828   2.389  0.0133 -0.4719 -0.5450
25853SOL    HW179172   0.768   4.786   2.384  0.3695  0.2105 -0.2358
25853SOL    HW279173   0.698   4.919   2.368 -0.3759 -0.0118  1.0224
25854SOL     OW79174   7.378   8.279   7.924  0.9298 -0.7926 -0.0498
25854SOL    HW179175   7.331   8.254   8.003  0.0853  2.0904  0.4958
25854SOL    HW279176   7.317   8.258   7.853  1.1824 -2.2344  0.1274
25855SOL     OW79177   2.320   7.760   9.362 -0.0426  0.1156 -0.2567
25855SOL    HW179178   2.358   7.815   9.430  0.4093 -0.8024  0.2446
25855SOL    HW279179   2.231   7.795   9.350  0.0584  0.6263  0.4150
25856SOL     OW79180   3.784   6.602   2.105 -0.5987 -0.2157 -0.0930
25856SOL    HW179181   3.864   6.569   2.065  0.8099  0.4103  1.9912
25856SOL    HW279182   3.744   6.525   2.145 -1.1683 -0.5666 -1.3156
25857SOL     OW79183   1.983   0.231   1.632  0.3850 -0.1758  0.0200
25857SOL    HW179184   1.976   0.156   1.691  0.6479 -0.4001 -0.2282
25857SOL    HW279185   2.054   0.207   1.573 -0.0823 -0.0946 -0.5860
25858SOL     OW79186   9.614   6.442   6.172 -0.1921 -0.1067 -0.6143
25858SOL    HW179187   9.582   6.509   6.112 -0.9648 -0.4685 -0.6184
25858SOL    HW279188   9.696   6.410   6.133  0.7137  1.5028 -0.1190
25859SOL     OW79189   5.623   8.822   6.590 -0.0527 -0.0258 -0.5983
25859SOL    HW179190   5.579   8.748   6.548 -0.0461 -0.7928  0.7219
25859SOL    HW279191   5.553   8.887   6.602 -0.4497 -0.5510 -0.0758
25860SOL     OW79192   8.750   5.708   1.820  0.4697  0.0425 -0.3545
25860SOL    HW179193   8.726   5.617   1.837  1.2180  0.0725  0.9967
25860SOL    HW279194   8.726   5.722   1.729 -0.9480 -1.0836 -0.2021
25861SOL     OW79195   9.777   2.554   5.874 -0.1021 -0.0029 -0.9451
25861SOL    HW179196   9.777   2.560   5.969 -0.5268  0.4001 -0.9670
25861SOL    HW279197   9.867   2.530   5.851 -0.5979 -2.8392 -0.2862
25862SOL     OW79198   0.224   5.201   3.764 -0.1053 -0.4374  0.1154
25862SOL    HW179199   0.211   5.142   3.838 -0.9318  0.9284  1.1020
25862SOL    HW279200   0.141   5.247   3.755  0.6397  0.8702 -0.3542
25863SOL     OW79201   0.905   4.032   4.568  0.7092  0.2131  0.0855
25863SOL    HW179202   0.873   4.110   4.614  0.4296 -0.6180  1.3584
25863SOL    HW279203   0.856   3.960   4.606  0.9279 -0.5995 -1.1066
25864SOL     OW79204   9.427   0.212   4.134 -0.8827 -0.4244 -0.4628
25864SOL    HW179205   9.389   0.234   4.049 -1.0079 -0.5355 -0.4356
25864SOL    HW279206   9.409   0.289   4.188  0.7608  0.4168 -1.0329
25865SOL     OW79207   1.656   3.658   7.714  0.2907  0.4437  0.5036
25865SOL    HW179208   1.575   3.624   7.751  1.1207 -0.4396  1.5730
25865SOL    HW279209   1.643   3.753   7.713 -0.5724  0.3511  1.1185
25866SOL     OW79210   4.168   5.680   3.330 -0.4430  0.4126 -0.0550
25866SOL    HW179211   4.082   5.679   3.286 -0.7174 -0.6546  0.4546
25866SOL    HW279212   4.196   5.771   3.325 -1.3616  0.6873 -0.7073
25867SOL     OW79213   4.676   3.897   1.874  0.4889  0.2922  0.1373
25867SOL    HW179214   4.702   3.809   1.900 -0.5591 -0.5259 -1.3704
25867SOL    HW279215   4.726   3.914   1.794 -0.4628  0.3831 -0.4641
25868SOL     OW79216   1.832   7.373   6.746  0.3046 -0.1475  0.2384
25868SOL    HW179217   1.838   7.446   6.684  1.0660 -2.0367 -2.0687
25868SOL    HW279218   1.901   7.313   6.719 -1.2494 -2.4303  1.0378
25869SOL     OW79219   8.617   3.887   3.059  0.4990 -0.2240 -0.1143
25869SOL    HW179220   8.591   3.822   3.124  0.9721 -0.5965 -0.2837
25869SOL    HW279221   8.538   3.938   3.042  0.1792 -0.6117  0.1909
25870SOL     OW79222   2.615   1.488   5.625  0.3130  0.3574 -0.2453
25870SOL    HW179223   2.684   1.538   5.581  1.6105 -0.1543  1.1398
25870SOL    HW279224   2.617   1.518   5.716 -1.5171  0.5320 -0.2258
25871SOL     OW79225   6.647   1.291   9.493  0.2082 -0.1049 -0.2569
25871SOL    HW179226   6.658   1.362   9.556  0.6048  0.2319 -0.6933
25871SOL    HW279227   6.571   1.242   9.524  1.6056 -1.1682  1.6141
25872SOL     OW79228   8.155   6.792   1.803 -0.2224 -0.5989 -0.9176
25872SOL    HW179229   8.106   6.853   1.748  1.2960  1.1451 -0.4330
25872SOL    HW279230   8.101   6.781   1.881  0.0061  1.1763 -0.4597
25873SOL     OW79231   5.810   7.351   5.878 -0.0551 -0.1494 -0.6482
25873SOL    HW179232   5.905   7.355   5.868  0.1420 -0.1655  0.9684
25873SOL    HW279233   5.784   7.440   5.902 -0.3118 -0.3515 -0.1480
25874SOL     OW79234   3.452   2.118   7.448 -0.0921 -0.1237  0.4571
25874SOL    HW179235   3.534   2.161   7.424 -0.6181  0.9086  0.4697
25874SOL    HW279236   3.476   2.058   7.518  0.5413  0.6303  0.8997
25875SOL     OW79237   1.550   1.439   0.341 -0.3130 -0.5790 -0.2568
25875SOL    HW179238   1.634   1.418   0.300  1.4357 -1.8114  3.4574
25875SOL    HW279239   1.550   1.534   0.349 -1.3225 -0.1470 -3.9486
25876SOL     OW79240   7.001   6.901   8.692 -0.0708 -0.3306  0.3625
25876SOL    HW179241   6.914   6.882   8.658  0.7829 -0.9293 -1.5875
25876SOL    HW279242   6.999   6.995   8.711 -0.9351 -0.2044 -0.2853
25877SOL     OW79243   8.701   2.622   6.400  0.1744 -0.3166  0.1127
25877SOL    HW179244   8.711   2.688   6.468  2.4561  2.1845 -2.3726
25877SOL    HW279245   8.619   2.645   6.356  0.7345  0.6335 -0.4584
25878SOL     OW79246   8.236   0.580   0.278  0.4607 -0.1397  0.4044
25878SOL    HW179247   8.148   0.558   0.307  0.2567 -0.8191 -0.6883
25878SOL    HW279248   8.293   0.548   0.348 -0.1227 -0.0165  0.9468
25879SOL     OW79249   4.698   3.425   3.742 -0.3406  0.3222 -1.2628
25879SOL    HW179250   4.687   3.391   3.653 -0.4205 -0.2893 -1.0203
25879SOL    HW279251   4.702   3.348   3.797  1.1189  0.6509 -0.8816
25880SOL     OW79252   5.632   0.417   7.024  0.3249  0.0523  0.3362
25880SOL    HW179253   5.611   0.449   7.111 -1.0231  0.5705 -0.1495
25880SOL    HW279254   5.718   0.453   7.005 -0.0305  1.2095  0.8494
25881SOL     OW79255   1.774   2.506   6.143 -0.0376 -0.1776 -0.2506
25881SOL    HW179256   1.735   2.518   6.056 -0.1287  1.1697 -0.0489
25881SOL    HW279257   1.851   2.451   6.127  0.1853  0.3901 -1.2488
25882SOL     OW79258   0.138   1.423   6.416 -0.2860  0.1667  0.0234
25882SOL    HW179259   0.078   1.466   6.476 -0.9669  0.2332 -0.6819
25882SOL    HW279260   0.106   1.448   6.329  1.3317  0.9749 -0.3746
25883SOL     OW79261   4.199   0.762   0.892  0.7393 -0.0370  0.2397
25883SOL    HW179262   4.185   0.800   0.806  0.2973  0.6350  0.5997
25883SOL    HW279263   4.266   0.695   0.878 -0.9039 -1.4899 -1.0382
25884SOL     OW79264   2.598   5.819   9.451 -0.3700  0.6609 -0.2567
25884SOL    HW179265   2.559   5.738   9.418 -1.5654  0.0226  2.4091
25884SOL    HW279266   2.632   5.795   9.538  1.7057  2.4138 -0.5098
25885SOL     OW79267   4.869   6.641   3.602  0.4372 -0.1995  0.5911
25885SOL    HW179268   4.876   6.639   3.697 -2.0268  0.4992  0.8712
25885SOL    HW279269   4.875   6.549   3.575 -0.4076 -0.5763  1.6155
25886SOL     OW79270   3.192   6.083   3.122 -0.0559 -0.0689  0.5256
25886SOL    HW179271   3.279   6.055   3.149 -0.2727 -0.6444  0.6576
25886SOL    HW279272   3.153   6.122   3.200  0.5317  1.3651  0.1388
25887SOL     OW79273   0.017   0.131   9.661  0.1545 -0.2811  0.0993
25887SOL    HW179274   0.063   0.174   9.589 -1.1795 -0.8785 -1.1522
25887SOL    HW279275   0.026   0.037   9.643  0.0826 -0.4492  0.8995
25888SOL     OW79276   4.956   7.663   4.531 -0.0274 -0.1909  0.0990
25888SOL    HW179277   5.022   7.595   4.547 -1.4653 -1.7116 -0.1417
25888SOL    HW279278   4.988   7.738   4.581  1.2600 -1.2642  1.0000
25889SOL     OW79279   7.900   4.188   3.257  0.2018  0.2508 -0.3051
25889SOL    HW179280   7.908   4.230   3.343  0.0028  3.0486 -1.5342
25889SOL    HW279281   7.818   4.139   3.261 -0.7580  1.8528  0.5395
25890SOL     OW79282   2.443   3.904   5.553 -0.3630 -0.7869  0.0555
25890SOL    HW179283   2.499   3.976   5.524 -0.5236 -0.6819  0.0053
25890SOL    HW279284   2.499   3.852   5.611 -1.1866  1.2482  2.9215
25891SOL     OW79285   6.527   4.010   3.251  0.5926 -0.1682 -0.3069
25891SOL    HW179286   6.595   4.070   3.219  0.2135 -0.0079 -0.8290
25891SOL    HW279287   6.448   4.037   3.204  0.1588 -0.3380  0.3107
25892SOL     OW79288   7.348   0.668   5.256  0.0719  0.2958 -0.1800
25892SOL    HW179289   7.390   0.658   5.342  0.7292  3.6728  0.0373
25892SOL    HW279290   7.266   0.620   5.263  0.4905 -0.2005  2.0405
25893SOL     OW79291   6.399   3.282   4.584  0.2707  0.0868 -0.7530
25893SOL    HW179292   6.350   3.358   4.552  0.1774  0.3319 -0.0325
25893SOL    HW279293   6.478   3.280   4.530  0.8542  1.4039  0.0213
25894SOL     OW79294   8.522   6.628   8.927  0.1780  0.3566 -0.0927
25894SOL    HW179295   8.472   6.552   8.896  0.2469 -0.4717  1.6664
25894SOL    HW279296   8.467   6.703   8.907 -0.7612 -0.3374 -0.1814
25895SOL     OW79297   4.696   5.827   3.328  0.1506  0.2349 -0.0227
25895SOL    HW179298   4.692   5.835   3.423  1.2015 -1.0163  0.1561
25895SOL    HW279299   4.787   5.846   3.306  0.0529 -0.0641 -0.7014
25896SOL     OW79300   4.544   6.623   0.215 -0.2197 -0.1860 -0.2727
25896SOL    HW179301   4.500   6.540   0.230 -0.5030  0.4377  3.0703
25896SOL    HW279302   4.495   6.664   0.144 -2.6741 -1.1202  0.7962
25897SOL     OW79303   2.073   4.143   4.778 -0.1430  0.5053 -0.5987
25897SOL    HW179304   2.018   4.077   4.737 -1.1907 -0.3268  1.9449
25897SOL    HW279305   2.124   4.095   4.843  0.3338  1.9416  0.1401
25898SOL     OW79306   5.199   0.252   8.820  0.1063  0.2887  0.2865
25898SOL    HW179307   5.127   0.274   8.878 -0.7828 -0.1301 -0.6242
25898SOL    HW279308   5.271   0.230   8.879 -1.3262 -2.0663  1.3105
25899SOL     OW79309   8.157   8.178   7.198 -0.1780 -0.0102 -0.3648
25899SOL    HW179310   8.074   8.186   7.245  0.8887  2.3103  1.3256
25899SOL    HW279311   8.211   8.122   7.254  0.9134  2.3214  1.0348
25900SOL     OW79312   7.790   3.653   9.527  0.2241  0.1145 -0.6264
25900SOL    HW179313   7.699   3.622   9.521  0.1484 -0.0567  1.1141
25900SOL    HW279314   7.782   3.748   9.539  0.2804  0.1053 -0.5175
25901SOL     OW79315   5.350   1.812   2.700  0.0750  0.0129 -0.1411
25901SOL    HW179316   5.403   1.845   2.628 -0.9987 -0.3230 -1.1101
25901SOL    HW279317   5.291   1.748   2.660 -2.3126  1.6550  0.5271
25902SOL     OW79318   9.765   1.253   2.685 -0.3708 -0.3391 -0.0817
25902SOL    HW179319   9.803   1.299   2.760 -2.2600 -0.8944  1.3057
25902SOL    HW279320   9.791   1.304   2.609  2.0942 -0.0663  0.8631
25903SOL     OW79321   1.132   4.870   8.770 -0.3513  0.1378  0.2457
25903SOL    HW179322   1.170   4.800   8.717 -0.6013  0.6180 -0.5833
25903SOL    HW279323   1.093   4.930   8.707  0.0505  1.1441  0.9302
25904SOL     OW79324   0.208   8.920   3.630  0.4551 -0.0487  0.2068
25904SOL    HW179325   0.272   8.906   3.560 -0.0154 -1.3550  0.0176
25904SOL    HW279326   0.129   8.873   3.600 -0.3343  0.8655  0.8022
25905SOL     OW79327   4.889   1.936   2.710 -0.9359  0.1273 -0.0913
25905SOL    HW179328   4.818   1.996   2.735 -0.4275  1.2133 -1.1860
25905SOL    HW279329   4.964   1.966   2.761 -0.7990  0.1197 -0.2905
25906SOL     OW79330   8.567   4.945   4.536  0.5352 -0.2479 -0.1523
25906SOL    HW179331   8.526   4.947   4.622  1.7032 -0.4427  0.4289
25906SOL    HW279332   8.500   4.978   4.476 -0.8469 -1.6177  0.5851
25907SOL     OW79333   7.574   2.652   6.480  0.2831 -0.2559  0.3401
25907SOL    HW179334   7.550   2.579   6.422  0.5873 -0.8024  0.8926
25907SOL    HW279335   7.556   2.619   6.568 -0.4634  0.6789  0.5501
25908SOL     OW79336   3.449   6.945   8.612  0.2004 -0.2592  0.2014
25908SOL    HW179337   3.484   6.893   8.685 -0.3420 -0.7181  0.1417
25908SOL    HW279338   3.361   6.970   8.640  1.1773  2.4963  1.1710
25909SOL     OW79339   0.664   9.714   8.723 -0.2460  0.3896 -0.5109
25909SOL    HW179340   0.579   9.697   8.764 -0.4222 -0.3593 -1.1585
25909SOL    HW279341   0.726   9.660   8.772  0.0452  1.6752  0.5927
25910SOL     OW79342   2.265   7.961   8.671  0.0697  0.3547 -0.4784
25910SOL    HW179343   2.315   7.880   8.655 -2.1442 -1.0136 -0.9178
25910SOL    HW279344   2.285   8.016   8.596 -0.6698 -1.0367 -1.7578
25911SOL     OW79345   6.840   0.059   5.241  0.1101  0.0086 -0.0795
25911SOL    HW179346   6.933   0.042   5.229  0.6648  2.9379 -0.5280
25911SOL    HW279347   6.836   0.134   5.300 -1.9338  0.6414 -0.9264
25912SOL     OW79348   6.086   9.336   2.614 -0.1991  0.6422  0.8985
25912SOL    HW179349   6.105   9.392   2.539 -2.5298 -3.4541 -3.1929
25912SOL    HW279350   6.160   9.276   2.619 -1.5091 -1.1687 -0.4223
25913SOL     OW79351   5.892   1.997   1.616 -0.4755 -0.2736 -0.1711
25913SOL    HW179352   5.936   2.056   1.555 -0.8245  0.5448  0.3568
25913SOL    HW279353   5.962   1.966   1.674 -0.3939  0.1024 -0.0671
25914SOL     OW79354   5.661   4.741   2.636  0.3440 -0.0711  0.1410
25914SOL    HW179355   5.591   4.695   2.589 -0.3384  0.0656  0.9782
25914SOL    HW279356   5.709   4.672   2.681  0.7167 -0.1591 -0.3819
25915SOL     OW79357   3.829   6.011   1.363  0.6254  0.0959 -0.1916
25915SOL    HW179358   3.849   6.102   1.342  1.0043 -0.1212 -0.7979
25915SOL    HW279359   3.772   5.982   1.292  1.1284 -0.3643 -0.4129
25916SOL     OW79360   4.617   4.924   8.789  0.1354  0.0553 -0.0236
25916SOL    HW179361   4.581   4.909   8.702  0.1240 -0.1431  0.0138
25916SOL    HW279362   4.545   4.961   8.839  0.1340  0.1456 -0.0928
25917SOL     OW79363   2.944   4.566   4.543  0.9766 -0.2871  0.4896
25917SOL    HW179364   2.908   4.544   4.458  3.2211 -0.1119 -0.5773
25917SOL    HW279365   2.875   4.614   4.588 -0.2155 -0.3134 -1.2596
25918SOL     OW79366   6.066   0.698   1.566  0.2857  0.1681  0.1389
25918SOL    HW179367   6.144   0.741   1.530  1.2042 -1.1946  0.4280
25918SOL    HW279368   6.057   0.733   1.654 -0.8413  2.0761 -0.6714
25919SOL     OW79369   1.198   8.204   7.958  0.5750 -0.6577  0.7119
25919SOL    HW179370   1.201   8.168   7.869 -0.3680 -1.3765  0.9643
25919SOL    HW279371   1.219   8.297   7.946 -0.3100 -0.5690 -0.3675
25920SOL     OW79372   5.501   4.985   0.372 -0.1528  0.1094  0.0735
25920SOL    HW179373   5.467   5.064   0.329  1.1196  0.4960 -0.2665
25920SOL    HW279374   5.512   4.922   0.300  1.2033  0.4846 -0.0815
25921SOL     OW79375   7.671   5.672   6.914  0.3790  0.4940 -0.0881
25921SOL    HW179376   7.748   5.711   6.872  0.0192  1.4359  0.0972
25921SOL    HW279377   7.696   5.661   7.005  0.5259  0.1610 -0.1667
25922SOL     OW79378   6.377   7.622   6.489 -0.3126  0.4113 -0.0081
25922SOL    HW179379   6.352   7.690   6.552 -0.4620 -1.1235  1.6361
25922SOL    HW279380   6.471   7.635   6.476  0.0074 -0.1328  1.6428
25923SOL     OW79381   0.305   9.642   3.967 -0.1018 -0.1494  0.1634
25923SOL    HW179382   0.215   9.618   3.990  0.0831 -1.4461 -0.3882
25923SOL    HW279383   0.308   9.737   3.978 -1.7617  0.0176 -0.5662
25924SOL     OW79384   7.996   4.462   7.742 -0.2712  0.3860  0.2540
25924SOL    HW179385   7.917   4.496   7.786 -0.1799  0.2461  0.5311
25924SOL    HW279386   7.964   4.428   7.659 -0.2255  2.0291 -0.4777
25925SOL     OW79387   6.308   5.462   1.806 -0.2903 -0.7370 -0.4879
25925SOL    HW179388   6.274   5.481   1.894 -0.2200 -0.1218 -0.5870
25925SOL    HW279389   6.402   5.481   1.813  0.0083 -2.1718 -0.2857
25926SOL     OW79390   5.346   1.800   5.420  0.1002  0.8785  0.3493
25926SOL    HW179391   5.351   1.711   5.385  0.5333  0.4453  1.4654
25926SOL    HW279392   5.411   1.849   5.369  0.0621  0.4986 -0.0787
25927SOL     OW79393   3.170   9.456   6.376  0.3640 -0.2606 -0.1888
25927SOL    HW179394   3.259   9.465   6.342  0.5319 -0.7694  0.1100
25927SOL    HW279395   3.126   9.397   6.314  0.6361 -1.0942  0.3921
25928SOL     OW79396   5.127   4.541   9.413 -0.0870  0.1015  0.0209
25928SOL    HW179397   5.160   4.458   9.448  1.3862  0.8280  0.4326
25928SOL    HW279398   5.189   4.607   9.444 -1.2888  1.3932 -0.1925
25929SOL     OW79399   7.933   5.408   5.996 -0.3211 -0.3659  1.1689
25929SOL    HW179400   7.884   5.385   6.074  0.1562 -0.9929  1.2860
25929SOL    HW279401   7.869   5.401   5.925 -0.8225  0.4631  1.5186
25930SOL     OW79402   7.267   4.989   4.353  0.5526 -0.1802 -0.7348
25930SOL    HW179403   7.236   4.923   4.291 -1.4146  1.1410 -1.2306
25930SOL    HW279404   7.195   4.999   4.415  1.9145 -0.4357  0.9583
25931SOL     OW79405   5.587   9.380   7.870 -0.4232  0.3207 -0.4588
25931SOL    HW179406   5.640   9.366   7.948 -0.4843 -0.8619 -0.6191
25931SOL    HW279407   5.642   9.351   7.798 -1.2397 -0.8687 -0.6311
25932SOL     OW79408   2.670   2.027   6.106  0.1363  0.0492  0.1588
25932SOL    HW179409   2.742   2.087   6.086  0.2738 -0.5839 -1.3967
25932SOL    HW279410   2.591   2.077   6.085  0.2250 -0.0596 -0.4609
25933SOL     OW79411   6.835   4.535   6.991  0.2739 -0.2788 -0.2178
25933SOL    HW179412   6.849   4.458   6.936  0.3918 -1.8658  1.9109
25933SOL    HW279413   6.791   4.501   7.069 -2.2770  2.2833 -0.3982
25934SOL     OW79414   8.472   6.376   6.430 -0.7103 -0.2918 -0.1607
25934SOL    HW179415   8.507   6.315   6.495  3.4089 -0.1303 -1.9356
25934SOL    HW279416   8.423   6.440   6.481  2.5213  0.0168  2.9653
25935SOL     OW79417   7.161   2.904   8.216  0.1086 -0.0944  0.6138
25935SOL    HW179418   7.110   2.941   8.144  0.5119 -0.2249  0.2527
25935SOL    HW279419   7.126   2.815   8.227  1.1950 -0.7229 -0.6144
25936SOL     OW79420   2.070   2.988   1.349  0.0135  0.6356 -0.5681
25936SOL    HW179421   1.987   2.946   1.371  0.3142  0.0277 -0.5586
25936SOL    HW279422   2.069   2.996   1.254  0.7117 -1.0753 -0.7632
25937SOL     OW79423   7.998   9.275   9.182 -0.5418  0.4168  0.0328
25937SOL    HW179424   8.013   9.297   9.274  0.1607 -0.5936  0.1789
25937SOL    HW279425   7.916   9.319   9.161 -1.0720  0.1183  1.3391
25938SOL     OW79426   0.558   6.837   5.531  0.6290  0.3398 -0.7433
25938SOL    HW179427   0.464   6.837   5.512  0.4348 -1.5443 -0.0484
25938SOL    HW279428   0.569   6.895   5.606 -0.3065 -0.8558  0.3668
25939SOL     OW79429   3.564   1.470   6.422 -0.2578 -0.3240  0.0198
25939SOL    HW179430   3.537   1.538   6.484  2.8277  0.5011  0.5838
25939SOL    HW279431   3.549   1.388   6.469  0.3912  0.2065  1.1725
25940SOL     OW79432   2.825   6.602   5.157  0.3547 -0.0742  0.4435
25940SOL    HW179433   2.762   6.674   5.156  0.6482  0.1955 -0.8785
25940SOL    HW279434   2.771   6.523   5.163 -0.0209  0.2166  0.9523
25941SOL     OW79435   0.817   3.146   7.942  0.0100  0.1230 -0.3852
25941SOL    HW179436   0.792   3.129   7.851 -0.6345 -0.1436 -0.1611
25941SOL    HW279437   0.749   3.205   7.975 -0.1633 -0.3616  0.1384
25942SOL     OW79438   4.129   2.090   2.271  0.1988  0.4342 -0.1361
25942SOL    HW179439   4.046   2.125   2.303 -0.7598 -0.1100 -1.8898
25942SOL    HW279440   4.114   2.074   2.178  1.8859 -0.8195 -0.2390
25943SOL     OW79441   7.915   9.487   6.446 -0.0604  0.2509 -0.5927
25943SOL    HW179442   7.875   9.563   6.403  0.6984 -0.3212 -2.3871
25943SOL    HW279443   7.937   9.519   6.534 -0.4773  1.8591 -1.0371
25944SOL     OW79444   3.788   1.947   0.058 -0.1275 -0.0897 -0.1009
25944SOL    HW179445   3.711   2.001   0.077 -0.4175 -0.8680  1.0423
25944SOL    HW279446   3.752   1.860   0.038  0.3304  0.0872 -1.9090
25945SOL     OW79447   5.793   5.382   4.124 -0.3814 -0.5515 -0.7690
25945SOL    HW179448   5.775   5.288   4.121  0.8741 -0.7817 -2.2597
25945SOL    HW279449   5.749   5.417   4.046 -0.4229  0.0259 -0.4902
25946SOL     OW79450   5.490   4.399   7.733  0.0735 -0.2157 -0.3893
25946SOL    HW179451   5.424   4.460   7.699 -1.4499 -0.9841  1.0694
25946SOL    HW279452   5.470   4.391   7.826  1.3767 -1.5746 -0.1832
25947SOL     OW79453   2.786   8.327   6.202 -0.1004 -0.2230 -0.9522
25947SOL    HW179454   2.870   8.294   6.232 -1.1097 -1.2138  0.9840
25947SOL    HW279455   2.804   8.366   6.116  2.6985  1.5015  0.2954
25948SOL     OW79456   2.112   7.862   4.449  0.5861 -0.1241  0.0881
25948SOL    HW179457   2.152   7.802   4.511  1.1144  0.6397  0.5044
25948SOL    HW279458   2.144   7.833   4.363 -1.1673 -1.9937 -0.0263
25949SOL     OW79459   0.948   0.556   1.740 -0.3532 -0.4342  0.0194
25949SOL    HW179460   0.874   0.579   1.797 -0.5644  0.8159 -0.7356
25949SOL    HW279461   0.955   0.629   1.678  1.5529 -0.4975  0.0971
25950SOL     OW79462   9.147   2.030   7.039 -0.0800  0.0528  0.2636
25950SOL    HW179463   9.191   2.114   7.049 -2.0318  1.0374  1.1724
25950SOL    HW279464   9.121   2.028   6.946 -0.8904  0.9470  0.4522
25951SOL     OW79465   9.459   4.434   6.782  0.5030  0.0854 -0.3859
25951SOL    HW179466   9.435   4.485   6.860  0.6997 -0.3914 -0.0081
25951SOL    HW279467   9.542   4.472   6.754 -0.2027  1.1096 -1.1351
25952SOL     OW79468   8.732   6.142   0.909  0.2944 -0.5673  0.4836
25952SOL    HW179469   8.648   6.148   0.953  1.4587 -0.5191  2.8408
25952SOL    HW279470   8.739   6.050   0.883 -0.2756 -0.6681  0.6722
25953SOL     OW79471   8.315   8.586   4.369 -0.0450  0.3911  0.0753
25953SOL    HW179472   8.250   8.643   4.327  0.1557 -1.2008 -2.5889
25953SOL    HW279473   8.281   8.498   4.357  0.8719 -0.2678  1.9178
25954SOL     OW79474   7.723   9.578   4.352  0.3433 -0.1850 -0.2918
25954SOL    HW179475   7.732   9.533   4.436 -1.6616  1.4454  0.8939
25954SOL    HW279476   7.641   9.545   4.315  0.5213  0.1108 -0.9700
25955SOL     OW79477   8.035   6.342   1.140 -0.1403  0.5675 -0.4059
25955SOL    HW179478   8.042   6.404   1.213  0.3804  0.0522 -0.0007
25955SOL    HW279479   7.953   6.364   1.096 -0.6032  0.7001  0.5117
25956SOL     OW79480   7.417   6.209   0.237  0.1609 -0.2657  0.0123
25956SOL    HW179481   7.373   6.125   0.247  0.7122 -0.4676  0.9517
25956SOL    HW279482   7.390   6.241   0.151  1.2821 -2.2010 -1.1415
25957SOL     OW79483   9.401   7.428   4.815 -0.4780 -0.4088 -0.6953
25957SOL    HW179484   9.395   7.431   4.720 -0.6762 -0.7430 -0.6949
25957SOL    HW279485   9.358   7.509   4.844 -0.2332 -0.2049 -0.8936
25958SOL     OW79486   1.771   7.250   1.166 -0.2231 -0.3890  0.2607
25958SOL    HW179487   1.728   7.272   1.249  0.6770  0.8699  0.4305
25958SOL    HW279488   1.860   7.285   1.176  1.0847 -3.3274  0.1389
25959SOL     OW79489   3.477   8.533   5.696 -0.6047 -0.0576  0.3365
25959SOL    HW179490   3.571   8.519   5.680 -0.7836  0.0372 -0.8641
25959SOL    HW279491   3.475   8.586   5.776  0.4114  0.6502 -0.0717
25960SOL     OW79492   2.644   9.685   7.498 -0.1500  0.3040 -0.6385
25960SOL    HW179493   2.566   9.636   7.524 -0.7817  0.8064 -1.5338
25960SOL    HW279494   2.623   9.776   7.516  0.3109  0.4225 -0.6888
25961SOL     OW79495   3.676   2.681   9.017 -0.2523  0.7358 -0.2866
25961SOL    HW179496   3.749   2.665   8.957 -0.2563 -0.8132  0.0825
25961SOL    HW279497   3.606   2.715   8.961  0.5210  1.5851 -0.7533
25962SOL     OW79498   3.128   4.353   7.513 -0.1380 -0.3513  0.7247
25962SOL    HW179499   3.161   4.327   7.426  0.9336  0.8702  0.7297
25962SOL    HW279500   3.036   4.328   7.512  0.2154 -1.7136 -0.2134
25963SOL     OW79501   4.577   4.450   1.505  0.3113  0.6495  0.0717
25963SOL    HW179502   4.584   4.529   1.451 -0.7275 -1.2287 -3.0519
25963SOL    HW279503   4.667   4.432   1.532  0.5868  2.7997  0.8098
25964SOL     OW79504   5.033   6.707   2.004  0.3547 -0.0911  0.9549
25964SOL    HW179505   5.033   6.727   2.097  0.4986 -1.3648  1.2604
25964SOL    HW279506   4.972   6.634   1.995 -0.8417  0.9973 -0.2115
25965SOL     OW79507   6.905   0.232   4.978  0.9375 -0.6089 -0.2232
25965SOL    HW179508   6.943   0.319   4.969  1.8268 -0.9156  0.4254
25965SOL    HW279509   6.955   0.178   4.917 -0.5256 -0.4218 -1.6747
25966SOL     OW79510   8.382   5.854   8.236 -0.3170  0.2943 -0.4370
25966SOL    HW179511   8.366   5.786   8.169 -2.8704 -0.2114  0.5545
25966SOL    HW279512   8.429   5.808   8.305 -1.0130 -0.1782 -0.2690
25967SOL     OW79513   0.606   4.577   5.823  0.2027 -0.3802 -0.1376
25967SOL    HW179514   0.670   4.510   5.847 -1.0635 -0.8310  2.2996
25967SOL    HW279515   0.521   4.538   5.844 -0.7774  0.8557 -1.6040
25968SOL     OW79516   1.451   8.005   7.567 -0.2499 -0.3153 -0.1944
25968SOL    HW179517   1.512   7.994   7.640  1.3986 -1.0483 -1.6325
25968SOL    HW279518   1.438   7.917   7.533  0.2525  0.1819 -1.7556
25969SOL     OW79519   9.375   4.039   6.020 -0.9899 -0.7499 -0.4633
25969SOL    HW179520   9.420   4.123   6.030 -2.4010 -0.1539  1.3406
25969SOL    HW279521   9.338   4.042   5.932  0.5025 -0.2936 -1.1155
25970SOL     OW79522   7.288   9.548   7.000  0.5694 -0.1596 -0.0969
25970SOL    HW179523   7.357   9.497   6.956 -0.9698 -0.8758 -1.7890
25970SOL    HW279524   7.218   9.485   7.015 -0.4203  0.9378 -0.0251
25971SOL     OW79525   7.322   4.635   8.675 -0.4208  0.4573 -0.4544
25971SOL    HW179526   7.303   4.726   8.654 -0.4651  0.4319 -0.5229
25971SOL    HW279527   7.361   4.639   8.762  0.0456  0.5908 -0.6688
25972SOL     OW79528   7.439   4.709   0.648 -0.0747 -0.1422  0.1942
25972SOL    HW179529   7.516   4.654   0.664  0.4847 -0.2709 -2.4573
25972SOL    HW279530   7.474   4.785   0.602 -1.2853  0.8577  0.8891
25973SOL     OW79531   6.135   6.657   3.303  0.3150  0.1120  0.0499
25973SOL    HW179532   6.109   6.749   3.306  0.7058  0.2050  0.7276
25973SOL    HW279533   6.205   6.654   3.238  0.6647  0.3957  0.4043
25974SOL     OW79534   4.067   7.922   9.469 -0.2407  0.0203  0.3700
25974SOL    HW179535   4.011   7.938   9.545 -0.0843 -0.4056  0.5733
25974SOL    HW279536   4.074   8.008   9.426 -1.0901  0.0680  0.3131
25975SOL     OW79537   5.302   8.680   7.188  0.0648 -0.5684 -0.2890
25975SOL    HW179538   5.257   8.762   7.170  0.5035 -0.3069 -0.1968
25975SOL    HW279539   5.266   8.618   7.125 -2.5595 -1.1438  1.5875
25976SOL     OW79540   4.123   0.185   9.843 -0.1067  1.3974  0.6198
25976SOL    HW179541   4.195   0.151   9.896 -0.9184  0.1536  0.9784
25976SOL    HW279542   4.166   0.232   9.772  1.1146 -0.2392  0.2028
25977SOL     OW79543   2.154   2.150   9.321  0.2290 -0.4909 -0.2424
25977SOL    HW179544   2.114   2.074   9.363  0.4546 -0.5049 -0.0532
25977SOL    HW279545   2.081   2.211   9.308 -0.0684 -0.9922 -0.9729
25978SOL     OW79546   9.211   2.301   7.121 -0.1042  0.2704  0.3912
25978SOL    HW179547   9.292   2.276   7.165 -0.5812 -0.1651  1.0361
25978SOL    HW279548   9.200   2.393   7.143 -0.3400  0.0556  1.2005
25979SOL     OW79549   0.176   3.261   2.272  0.3675 -0.2933 -0.0463
25979SOL    HW179550   0.102   3.319   2.288  0.7072  0.5855 -1.4452
25979SOL    HW279551   0.236   3.277   2.345 -0.4798 -0.4934  0.7169
25980SOL     OW79552   5.893   1.249   5.970 -0.1999 -0.1190  0.7354
25980SOL    HW179553   5.905   1.242   5.876 -2.2464 -2.4142  0.5415
25980SOL    HW279554   5.821   1.310   5.981 -1.1152 -1.1373  0.6387
25981SOL     OW79555   0.042   8.944   2.546 -0.1966 -0.4620  0.3721
25981SOL    HW179556   0.079   9.029   2.569  1.3720 -1.8134  3.6536
25981SOL    HW279557  -0.043   8.964   2.507  0.8237  2.5900 -0.5619
25982SOL     OW79558   6.184   4.614   3.648  0.3259  0.4871 -0.2370
25982SOL    HW179559   6.206   4.704   3.674 -0.1428  0.8234 -0.9780
25982SOL    HW279560   6.267   4.576   3.619  0.0897  1.6034 -2.5900
25983SOL     OW79561   1.131   5.449   9.659 -0.3488 -0.0400  0.0621
25983SOL    HW179562   1.194   5.418   9.723 -0.7731 -0.2665  0.3788
25983SOL    HW279563   1.139   5.388   9.585 -1.1154 -0.8759  0.6441
25984SOL     OW79564   7.394   5.660   3.598  0.0079  0.0114  0.1545
25984SOL    HW179565   7.393   5.593   3.530 -0.8899  2.2780 -2.2283
25984SOL    HW279566   7.477   5.705   3.587 -0.7799  1.3460 -0.4672
25985SOL     OW79567   4.758   3.739   0.219 -0.6591  0.7812  0.3960
25985SOL    HW179568   4.669   3.773   0.209 -0.7158  0.3881 -0.5675
25985SOL    HW279569   4.814   3.816   0.218 -0.8612  0.9242 -0.7572
25986SOL     OW79570   0.492   5.021   2.187 -1.0007  0.5043 -0.3183
25986SOL    HW179571   0.581   5.046   2.210 -0.9699 -1.1658  1.7254
25986SOL    HW279572   0.500   4.970   2.107 -0.1295  0.3431 -0.1325
25987SOL     OW79573   0.499   7.849   0.186 -0.0860  0.6751  0.3979
25987SOL    HW179574   0.575   7.900   0.158  0.8889 -0.8616  0.0889
25987SOL    HW279575   0.507   7.844   0.282  0.8787 -0.4073  0.2899
25988SOL     OW79576   0.229   3.635   4.207  0.4779 -0.1208  0.3328
25988SOL    HW179577   0.231   3.654   4.113  0.8857  0.7567  0.5080
25988SOL    HW279578   0.159   3.571   4.217  0.4620 -0.2590 -0.5776
25989SOL     OW79579   4.282   6.421   4.252  0.3380  0.0493 -0.0087
25989SOL    HW179580   4.352   6.487   4.248  0.6207 -0.0326  2.2915
25989SOL    HW279581   4.315   6.348   4.200  0.6072  1.1662 -1.4758
25990SOL     OW79582   1.993   8.202   4.288  0.2566 -0.0845 -0.0648
25990SOL    HW179583   1.956   8.118   4.316  2.1088 -0.2663  2.1189
25990SOL    HW279584   1.942   8.268   4.335 -1.9226  0.2000 -2.6047
25991SOL     OW79585   5.774   1.065   6.769 -0.1556  0.0532  0.5452
25991SOL    HW179586   5.813   1.127   6.708  0.9502 -1.7250 -0.6445
25991SOL    HW279587   5.815   1.085   6.853  1.9216 -0.5045 -0.2909
25992SOL     OW79588   4.557   4.449   3.964 -0.0138  0.2899  0.3257
25992SOL    HW179589   4.489   4.389   3.931 -0.5283 -0.4349  2.5251
25992SOL    HW279590   4.511   4.532   3.976 -0.3699 -0.0285  1.2162
25993SOL     OW79591   2.957   4.339   2.182 -0.3549  0.3379 -0.1850
25993SOL    HW179592   2.945   4.270   2.117 -0.0352  0.1576 -0.0517
25993SOL    HW279593   2.937   4.420   2.134 -1.1366  0.1252 -0.2338
25994SOL     OW79594   7.549   8.352   4.131 -0.1609  0.3549  0.0315
25994SOL    HW179595   7.527   8.389   4.045  0.1285  3.0690  1.0469
25994SOL    HW279596   7.642   8.374   4.143  0.4020 -1.8820  0.1990
25995SOL     OW79597   0.363   4.215   9.664 -0.2673  0.4223  0.2616
25995SOL    HW179598   0.419   4.259   9.600  0.3430 -0.8110 -0.0797
25995SOL    HW279599   0.406   4.231   9.748  0.2458  0.0452  0.0790
25996SOL     OW79600   3.311   6.783   4.236  0.9035 -0.1361 -0.1213
25996SOL    HW179601   3.355   6.756   4.316  0.5512  0.3113  0.2338
25996SOL    HW279602   3.286   6.701   4.194  0.9167 -0.3781  0.3290
25997SOL     OW79603   3.742   2.712   6.933  0.3586 -0.6208 -0.0635
25997SOL    HW179604   3.746   2.699   6.838 -0.2668  0.9589 -0.3338
25997SOL    HW279605   3.697   2.634   6.966 -1.6792 -0.0747 -1.3723
25998SOL     OW79606   1.020   6.401   3.236 -0.6163 -0.0491  0.0255
25998SOL    HW179607   0.938   6.448   3.217 -0.5484 -0.3293 -1.0518
25998SOL    HW279608   1.004   6.358   3.319 -1.0842  0.9824  0.4895
25999SOL     OW79609   6.659   7.882   3.856  0.0563 -0.6195  0.0704
25999SOL    HW179610   6.660   7.943   3.782 -0.7530 -1.9788 -1.1080
25999SOL    HW279611   6.632   7.935   3.931 -1.3028  0.3374 -1.0577
26000SOL     OW79612   0.427   9.590   4.470  0.1955 -0.5072 -0.4098
26000SOL    HW179613   0.416   9.521   4.405 -0.8791 -0.0841 -0.7022
26000SOL    HW279614   0.512   9.629   4.450 -0.6019  0.3813 -2.3209
26001SOL     OW79615   6.310   4.205   2.064 -0.2531 -0.3929 -0.0324
26001SOL    HW179616   6.324   4.112   2.051 -0.0811 -0.7620  2.3787
26001SOL    HW279617   6.398   4.242   2.074 -0.3891 -0.3115  0.9371
26002SOL     OW79618   8.083   6.832   2.799  0.1914 -0.3722 -0.0245
26002SOL    HW179619   8.107   6.899   2.736  0.3097 -2.2326 -2.0938
26002SOL    HW279620   8.165   6.808   2.843  0.5228 -0.5883 -0.7534
26003SOL     OW79621   9.175   8.781   7.811 -0.7522 -0.7443 -0.0410
26003SOL    HW179622   9.238   8.732   7.758  1.6274  0.0779  1.8345
26003SOL    HW279623   9.176   8.869   7.775  0.5206 -0.3017  1.0022
26004SOL     OW79624   3.113   1.781   3.045  0.1204  0.3264  0.2717
26004SOL    HW179625   3.169   1.853   3.017 -2.3110  1.5513 -1.9303
26004SOL    HW279626   3.050   1.821   3.104  0.5951 -0.7016  1.5093
26005SOL     OW79627   0.302   4.196   4.344 -0.6410  0.2041  0.1110
26005SOL    HW179628   0.312   4.229   4.255 -0.7745  0.5387  0.2181
26005SOL    HW279629   0.366   4.126   4.352  2.1756  2.6434  0.9899
26006SOL     OW79630   0.026   6.991   8.563  0.0015  0.1911  0.8699
26006SOL    HW179631   0.046   6.958   8.476  0.8491  0.8199  0.8054
26006SOL    HW279632  -0.069   6.985   8.571 -0.1847  0.9920 -0.4610
26007SOL     OW79633   8.925   5.959   0.683 -0.3705 -0.3385 -0.3151
26007SOL    HW179634   8.958   6.031   0.736 -2.7399  1.0764 -0.5819
26007SOL    HW279635   8.866   5.911   0.741  1.5505 -2.4502  0.0059
26008SOL     OW79636   5.824   8.392   9.666 -0.1178 -0.5610 -0.0104
26008SOL    HW179637   5.913   8.389   9.700 -0.8761 -1.7376  2.0351
26008SOL    HW279638   5.787   8.305   9.684 -1.9101  0.1224 -0.1179
26009SOL     OW79639   6.258   2.126   6.265 -0.0013 -0.2501 -0.3545
26009SOL    HW179640   6.303   2.210   6.254  2.1114 -0.8973  2.3685
26009SOL    HW279641   6.193   2.143   6.332  0.4934 -0.7714  0.2679
26010SOL     OW79642   1.518   8.877   3.405  0.7374 -0.4648 -0.0770
26010SOL    HW179643   1.469   8.889   3.323  0.4857 -0.9989 -0.0062
26010SOL    HW279644   1.457   8.832   3.463  0.6961  0.4736  0.6280
26011SOL     OW79645   4.450   8.660   7.979  0.5599  0.6668  0.3952
26011SOL    HW179646   4.475   8.751   7.961 -2.3544  1.8314  1.5604
26011SOL    HW279647   4.438   8.621   7.893  0.0192  2.0092 -0.1696
26012SOL     OW79648   7.619   3.268   6.203 -0.2971 -0.3915 -0.1285
26012SOL    HW179649   7.678   3.216   6.147  2.5993  1.3884  1.0292
26012SOL    HW279650   7.569   3.321   6.141  2.0495  0.7466 -1.1860
26013SOL     OW79651   3.201   7.548   4.572 -0.4494 -0.6966  0.4775
26013SOL    HW179652   3.189   7.628   4.521 -1.3343  0.2034  2.0347
26013SOL    HW279653   3.117   7.502   4.566  0.4069 -2.1406 -1.3650
26014SOL     OW79654   6.975   2.056   6.360  0.5809  0.4748 -0.2008
26014SOL    HW179655   6.954   2.105   6.439  0.3607  0.8104 -0.4690
26014SOL    HW279656   7.070   2.044   6.364  0.8036  1.9153 -0.7081
26015SOL     OW79657   2.770   6.206   5.497  0.0177  0.3999 -0.2553
26015SOL    HW179658   2.817   6.225   5.578 -0.1573  0.0372 -0.0638
26015SOL    HW279659   2.831   6.156   5.444  0.2582  0.9432 -0.5003
26016SOL     OW79660   1.022   1.341   7.818 -0.1868 -0.1947  0.4411
26016SOL    HW179661   0.971   1.290   7.881  1.4295 -2.3521  0.1202
26016SOL    HW279662   0.981   1.322   7.734  0.0626 -0.5049  0.3891
26017SOL     OW79663   9.670   8.652   5.913  0.1872 -0.7223 -0.1521
26017SOL    HW179664   9.682   8.585   5.980  0.3607  1.1104  1.7441
26017SOL    HW279665   9.575   8.660   5.905  0.1253  0.2167  1.1763
26018SOL     OW79666   7.065   0.839   0.903  0.0753  0.5205  0.1883
26018SOL    HW179667   7.051   0.810   0.993 -0.3311 -0.3138 -0.1341
26018SOL    HW279668   7.024   0.772   0.849 -0.9871  1.7379 -0.5931
26019SOL     OW79669   7.307   5.303   1.563  0.1007 -0.5826  0.2238
26019SOL    HW179670   7.320   5.323   1.470  1.9082 -0.2717  0.5010
26019SOL    HW279671   7.380   5.345   1.607 -0.7414 -0.7009  1.8141
26020SOL     OW79672   1.965   3.832   7.090 -0.1816 -0.2096 -0.0359
26020SOL    HW179673   1.980   3.922   7.119  1.2167 -0.2860 -0.4265
26020SOL    HW279674   2.042   3.784   7.122 -0.2178 -0.9622 -1.0454
26021SOL     OW79675   6.519   4.428   4.362  0.1851  0.5642  0.1736
26021SOL    HW179676   6.549   4.340   4.382 -1.2942 -0.1659 -0.7132
26021SOL    HW279677   6.563   4.450   4.280  0.0864  0.4123  0.0802
26022SOL     OW79678   6.749   8.609   8.997  0.2219 -0.0613  0.0527
26022SOL    HW179679   6.694   8.562   8.934  1.4827  0.0808 -1.2369
26022SOL    HW279680   6.839   8.585   8.971  0.7947  0.3915  1.5265
26023SOL     OW79681   0.837   2.467   8.963  0.3060 -0.2138  0.3310
26023SOL    HW179682   0.913   2.522   8.980  0.0077 -0.1476  1.4961
26023SOL    HW279683   0.772   2.527   8.926 -0.3406  0.4695  2.4293
26024SOL     OW79684   8.027   6.538   6.501  0.2145 -0.3587  0.0100
26024SOL    HW179685   7.937   6.507   6.505 -0.3154  0.7590 -2.0981
26024SOL    HW279686   8.037   6.574   6.413  2.2592  0.9312  0.6843
26025SOL     OW79687   9.800   1.312   8.291 -0.3393  0.0013  0.3792
26025SOL    HW179688   9.807   1.401   8.257  1.7890  0.1953  1.1843
26025SOL    HW279689   9.762   1.262   8.219 -0.4827  1.3238 -0.4997
26026SOL     OW79690   7.362   6.682   2.569  0.0805 -0.1513  0.8433
26026SOL    HW179691   7.270   6.693   2.592 -0.7000 -1.9927 -1.0055
26026SOL    HW279692   7.390   6.606   2.619 -0.0355 -0.7996 -0.0335
26027SOL     OW79693   8.458   1.055   4.670 -0.0943 -0.8363 -0.2891
26027SOL    HW179694   8.391   0.989   4.650  0.4608 -1.0174 -1.6578
26027SOL    HW279695   8.541   1.011   4.650  0.2889  0.1737 -0.9771
26028SOL     OW79696   2.191   6.502   8.221  0.2495  0.6620  0.0384
26028SOL    HW179697   2.234   6.445   8.286 -1.1838 -1.4098 -0.7032
26028SOL    HW279698   2.102   6.512   8.254  0.1387  1.4973 -0.4869
26029SOL     OW79699   8.279   9.291   7.087 -0.0657 -0.5510  0.2223
26029SOL    HW179700   8.211   9.356   7.107  2.0172  2.1868 -0.8709
26029SOL    HW279701   8.231   9.216   7.052 -2.5930  0.8577  0.4295
26030SOL     OW79702   8.113   7.870   6.880  0.3532  0.0691  0.0377
26030SOL    HW179703   8.067   7.787   6.892  0.0800  0.5196  2.7305
26030SOL    HW279704   8.201   7.845   6.850  0.4437 -1.2582  1.3030
26031SOL     OW79705   0.832   1.025   8.702 -0.1517 -0.4050  0.6103
26031SOL    HW179706   0.826   1.025   8.606  0.3385  2.6472  0.4716
26031SOL    HW279707   0.899   1.091   8.721 -0.8051 -0.3884  3.0777
26032SOL     OW79708   1.731   9.412   1.736  0.0519 -0.0685  0.1396
26032SOL    HW179709   1.655   9.407   1.794 -1.3935  0.9844 -1.5653
26032SOL    HW279710   1.752   9.321   1.716  1.1703 -0.5264  2.9273
26033SOL     OW79711   4.746   8.771   5.298  0.1616 -0.4433 -0.6512
26033SOL    HW179712   4.716   8.692   5.342 -1.2355  0.2535 -0.2941
26033SOL    HW279713   4.839   8.755   5.281  0.5323 -1.1152  1.6980
26034SOL     OW79714   6.839   1.597   4.745 -0.0378  0.2161  0.3060
26034SOL    HW179715   6.843   1.536   4.672 -0.1608  0.1269  0.3735
26034SOL    HW279716   6.928   1.597   4.781 -0.0059  0.1741  0.2272
26035SOL     OW79717   8.866   9.740   5.359 -0.3166  0.0577 -0.1984
26035SOL    HW179718   8.854   9.817   5.305  1.4342 -0.7442 -1.8247
26035SOL    HW279719   8.865   9.773   5.449  0.4582  1.9698 -0.8586
26036SOL     OW79720   8.132   2.476   0.671 -0.3857  0.4945 -0.7145
26036SOL    HW179721   8.200   2.524   0.718  1.3921 -0.8881 -1.7377
26036SOL    HW279722   8.139   2.387   0.704 -2.1086  0.4165 -0.4687
26037SOL     OW79723   7.384   1.439   7.383  0.0548  0.2123 -0.3721
26037SOL    HW179724   7.454   1.375   7.378  0.0476  0.1703 -0.0175
26037SOL    HW279725   7.306   1.388   7.406  0.3706  0.5186  1.6269
26038SOL     OW79726   6.300   5.578   0.516 -0.1575  0.2077  0.0112
26038SOL    HW179727   6.216   5.584   0.470 -0.9146 -0.0223  1.2991
26038SOL    HW279728   6.306   5.487   0.544 -1.1938  0.9167  2.9195
26039SOL     OW79729   8.942   9.551   2.586  0.1785 -0.1741 -0.0365
26039SOL    HW179730   8.881   9.573   2.657 -0.1732  3.6437 -1.3236
26039SOL    HW279731   9.027   9.585   2.616  1.0053 -2.2789  0.2102
26040SOL     OW79732   4.063   5.708   1.545  0.0085 -0.9911  0.1573
26040SOL    HW179733   3.979   5.736   1.581  0.9297  0.7680  1.0746
26040SOL    HW279734   4.071   5.758   1.464  0.5571 -0.4496  0.5367
26041SOL     OW79735   0.886   5.249   5.221  0.3231 -0.1588  0.3001
26041SOL    HW179736   0.963   5.285   5.265  0.6855 -1.2025  0.5519
26041SOL    HW279737   0.858   5.176   5.276 -0.6589 -0.0060  0.0376
26042SOL     OW79738   5.875   7.818   3.440 -0.1882 -0.5010  0.1562
26042SOL    HW179739   5.781   7.806   3.457 -0.0577 -0.4272  0.9644
26042SOL    HW279740   5.916   7.816   3.527  0.6700 -1.4549 -0.2483
26043SOL     OW79741   0.151   1.177   7.934 -0.4900  0.0354  0.4050
26043SOL    HW179742   0.069   1.220   7.960 -0.5300  0.3457 -0.2230
26043SOL    HW279743   0.159   1.104   7.995 -0.8990  0.3840  0.8961
26044SOL     OW79744   0.784   8.918   5.205 -0.2274  0.0010 -0.2924
26044SOL    HW179745   0.847   8.941   5.274 -2.2822  1.0010  1.3740
26044SOL    HW279746   0.721   8.859   5.248 -1.0663 -0.0877 -1.5756
26045SOL     OW79747   7.271   4.828   3.780  0.2341  0.0440  0.1668
26045SOL    HW179748   7.187   4.808   3.821 -1.5046  1.5762 -2.3531
26045SOL    HW279749   7.294   4.747   3.734  0.4102 -0.5479  1.2758
26046SOL     OW79750   2.642   8.819   0.724  0.6615 -0.1205  0.0043
26046SOL    HW179751   2.563   8.836   0.775 -0.3059  0.0671 -1.5185
26046SOL    HW279752   2.616   8.834   0.633  1.9795 -1.7184 -0.6805
26047SOL     OW79753   7.883   5.182   5.497 -0.2025  0.1729 -0.0424
26047SOL    HW179754   7.794   5.179   5.533  0.4037  0.5370  1.5555
26047SOL    HW279755   7.906   5.090   5.484  0.0078 -0.0541  1.7119
26048SOL     OW79756   7.472   7.751   6.006  0.4306  0.6815  0.4872
26048SOL    HW179757   7.504   7.738   5.916 -0.7093 -0.6181  0.2432
26048SOL    HW279758   7.383   7.718   6.005  1.0044 -1.2088  2.5613
26049SOL     OW79759   7.931   7.396   4.958 -0.0609 -0.6563  0.1935
26049SOL    HW179760   7.902   7.385   4.867 -0.3893  0.3044  0.1755
26049SOL    HW279761   8.026   7.396   4.952 -0.0549 -1.6048 -0.0165
26050SOL     OW79762   3.377   6.270   2.357  0.3274  0.2124  0.3323
26050SOL    HW179763   3.295   6.282   2.309  2.0319  1.1986 -2.6555
26050SOL    HW279764   3.358   6.300   2.446 -2.8411 -0.8555  0.1122
26051SOL     OW79765   1.402   3.817   7.713  0.2770 -0.2982 -0.1553
26051SOL    HW179766   1.324   3.827   7.659 -0.6782 -2.4603  0.7171
26051SOL    HW279767   1.407   3.898   7.764  0.3844  1.1701 -2.3433
26052SOL     OW79768   4.066   6.523   2.019 -0.2916  0.3917 -0.3835
26052SOL    HW179769   4.138   6.463   1.998 -0.0401  0.0107  1.4678
26052SOL    HW279770   3.987   6.476   1.994  0.0156  0.4528 -1.5742
26053SOL     OW79771   8.162   3.495   6.801 -0.0069  0.2309 -0.0641
26053SOL    HW179772   8.211   3.557   6.746 -1.8973  2.1611  0.2642
26053SOL    HW279773   8.083   3.476   6.750 -0.8926  0.5692  1.1514
26054SOL     OW79774   0.192   4.460   2.081 -0.0225  0.6167 -0.7888
26054SOL    HW179775   0.188   4.551   2.112 -0.2182  0.7165 -1.1045
26054SOL    HW279776   0.285   4.443   2.070  0.0971  0.3577  0.5031
26055SOL     OW79777   5.335   1.078   8.808 -0.1645  0.5887 -0.2606
26055SOL    HW179778   5.330   0.988   8.840  0.2677  0.8452  0.5449
26055SOL    HW279779   5.329   1.069   8.712  0.6849 -0.3641 -0.2428
26056SOL     OW79780   2.512   6.630   6.563 -0.4868  0.6484 -0.3464
26056SOL    HW179781   2.555   6.687   6.626 -0.7016  0.1324  0.2698
26056SOL    HW279782   2.436   6.681   6.533  0.3550  1.4359 -1.2165
26057SOL     OW79783   4.932   2.180   5.847 -0.1816  0.0536 -0.7335
26057SOL    HW179784   4.856   2.222   5.807 -0.6616 -0.0156  0.0939
26057SOL    HW279785   4.966   2.122   5.778 -0.4557  0.6001 -1.3392
26058SOL     OW79786   6.464   2.504   1.854 -0.6349 -0.2790  0.1002
26058SOL    HW179787   6.377   2.477   1.883 -0.4785 -1.0773 -0.1656
26058SOL    HW279788   6.453   2.521   1.760 -0.5326 -0.2472  0.0943
26059SOL     OW79789   5.929   8.451   6.474  0.3472 -0.2876  0.3336
26059SOL    HW179790   5.890   8.364   6.461 -0.0355  0.0740 -1.1884
26059SOL    HW279791   5.993   8.438   6.544 -1.1802 -1.3192  1.6210
26060SOL     OW79792   5.203   8.424   1.280 -0.0291  0.1522 -0.0384
26060SOL    HW179793   5.213   8.384   1.194  1.2593  2.4619 -1.0618
26060SOL    HW279794   5.192   8.517   1.262  0.7181  0.7602  2.3080
26061SOL     OW79795   0.866   8.751   7.084 -0.0266  0.1248  0.0885
26061SOL    HW179796   0.802   8.782   7.020 -1.7925 -0.8634  1.2828
26061SOL    HW279797   0.895   8.666   7.050 -0.2202  0.0492  0.1118
26062SOL     OW79798   0.232   5.704   8.876  0.4067  0.2651 -0.8521
26062SOL    HW179799   0.266   5.644   8.810 -1.1334 -0.1754 -1.2766
26062SOL    HW279800   0.265   5.790   8.851 -0.2531  0.1284 -2.2944
26063SOL     OW79801   0.997   3.531   3.540  0.2126  0.1862  0.3069
26063SOL    HW179802   0.978   3.624   3.523 -1.4634  0.3958  2.8070
26063SOL    HW279803   0.916   3.486   3.518  0.8197 -0.6437 -0.2831
26064SOL     OW79804   0.036   3.594   2.721 -0.2236  0.6160  0.0418
26064SOL    HW179805   0.128   3.599   2.695 -0.0300  0.1645  0.6166
26064SOL    HW279806  -0.013   3.615   2.642  0.3303 -1.7350 -0.9962
26065SOL     OW79807   0.866   5.967   9.054 -0.1628 -0.5277  0.6647
26065SOL    HW179808   0.955   5.998   9.069  0.2508 -0.3639 -1.7521
26065SOL    HW279809   0.813   6.015   9.117  1.2128  0.7971  0.8709
26066SOL     OW79810   5.887   3.215   4.016  0.2567 -0.2896  0.2684
26066SOL    HW179811   5.843   3.300   4.023 -1.8656 -1.1277 -1.6656
26066SOL    HW279812   5.927   3.216   3.929  2.9510 -0.1513  1.4054
26067SOL     OW79813   4.710   8.408   4.796 -0.2722 -0.2115  0.1964
26067SOL    HW179814   4.786   8.416   4.737 -0.1554 -0.1378  0.3582
26067SOL    HW279815   4.642   8.461   4.754 -0.6527 -1.2931 -0.6290
26068SOL     OW79816   4.029   8.433   8.646 -0.0613  0.3501 -0.4306
26068SOL    HW179817   3.957   8.400   8.699 -0.4556  1.6541 -0.1058
26068SOL    HW279818   4.040   8.369   8.576 -1.3413 -0.0026 -0.3214
26069SOL     OW79819   8.412   5.336   2.938  0.1751 -0.2234 -0.3051
26069SOL    HW179820   8.456   5.316   2.855 -0.2022 -2.2249 -0.0731
26069SOL    HW279821   8.471   5.300   3.004 -0.4735 -0.4093  0.1750
26070SOL     OW79822   1.845   3.395   4.403  0.0118 -0.0504 -0.1160
26070SOL    HW179823   1.929   3.376   4.444  0.8929  0.7665 -1.5014
26070SOL    HW279824   1.835   3.330   4.335  0.6111  1.1985 -1.4457
26071SOL     OW79825   2.910   8.413   4.792 -0.1320  0.0859  0.0328
26071SOL    HW179826   2.903   8.507   4.812 -0.0554  0.5354 -1.8850
26071SOL    HW279827   2.827   8.392   4.748 -0.5999 -1.0236  1.3789
26072SOL     OW79828   7.213   3.337   7.099 -0.6113  0.3096 -0.0814
26072SOL    HW179829   7.153   3.347   7.173 -1.4219  0.7656 -0.7794
26072SOL    HW279830   7.155   3.315   7.025  0.2755 -1.2463 -0.3600
26073SOL     OW79831   2.585   8.671   7.450  0.5369  0.2932  0.4544
26073SOL    HW179832   2.680   8.672   7.454  0.6642  0.5003 -1.6513
26073SOL    HW279833   2.564   8.676   7.357 -1.5291 -0.6014  0.7970
26074SOL     OW79834   8.709   9.232   3.352 -0.4290  0.0978  0.0868
26074SOL    HW179835   8.643   9.188   3.298  1.9192 -1.4190 -1.7870
26074SOL    HW279836   8.747   9.162   3.405 -2.2165  1.4533  3.4309
26075SOL     OW79837   6.275   5.731   5.771 -0.1758 -0.7461 -0.9099
26075SOL    HW179838   6.205   5.772   5.720 -0.6426 -2.3908 -1.6559
26075SOL    HW279839   6.245   5.739   5.862 -1.3891 -1.4837 -1.2203
26076SOL     OW79840   2.405   5.251   2.491  0.0746  0.2334  0.0278
26076SOL    HW179841   2.463   5.177   2.505 -1.0953 -0.6699  0.2840
26076SOL    HW279842   2.335   5.216   2.435 -0.2049  1.3000 -0.3206
26077SOL     OW79843   8.298   4.228   1.014  0.0426 -0.7677 -0.4613
26077SOL    HW179844   8.217   4.242   0.966 -0.2205  0.1265  0.2026
26077SOL    HW279845   8.362   4.201   0.947 -0.6431 -0.8726 -1.0805
26078SOL     OW79846   4.357   6.613   4.705  0.1617 -0.2103  0.0829
26078SOL    HW179847   4.321   6.697   4.675  0.0768  0.0008  0.7679
26078SOL    HW279848   4.409   6.635   4.782  2.3208 -0.4216 -1.2492
26079SOL     OW79849   0.841   7.304   7.305 -0.4527 -0.7033 -0.6538
26079SOL    HW179850   0.826   7.394   7.335 -0.7852 -1.2350  0.8646
26079SOL    HW279851   0.788   7.297   7.225  0.7520  0.8834 -1.6624
26080SOL     OW79852   7.702   3.586   6.665  0.3619  0.4856 -0.4128
26080SOL    HW179853   7.650   3.572   6.587 -0.8034  3.2868 -0.2266
26080SOL    HW279854   7.638   3.590   6.736  1.1092  1.1240  0.2373
26081SOL     OW79855   1.237   9.728   3.931  0.3765 -0.4627 -0.1983
26081SOL    HW179856   1.238   9.783   3.852 -0.1135  0.0745  0.1662
26081SOL    HW279857   1.250   9.789   4.003 -0.8076 -0.7232  0.2617
26082SOL     OW79858   9.803   6.703   0.495 -0.1247  0.2283  0.4710
26082SOL    HW179859   9.789   6.619   0.538 -1.9992  0.1783 -0.1488
26082SOL    HW279860   9.728   6.756   0.521  0.8641  1.5986  0.5800
26083SOL     OW79861   9.821   5.999   3.919 -0.0199 -0.5216 -0.3781
26083SOL    HW179862   9.864   6.020   3.836  1.8364 -1.9507  0.1349
26083SOL    HW279863   9.891   5.960   3.973 -1.5484 -1.1631  1.2529
26084SOL     OW79864   6.849   5.041   7.197 -0.4244  0.2561 -0.6864
26084SOL    HW179865   6.807   5.096   7.263  0.2844 -1.6947  1.5435
26084SOL    HW279866   6.778   5.017   7.138 -1.0080  2.4029 -0.9553
26085SOL     OW79867   1.520   9.549   1.159 -0.9637 -0.1451 -0.2595
26085SOL    HW179868   1.508   9.637   1.194 -1.2933 -0.3435  0.1304
26085SOL    HW279869   1.601   9.518   1.198  1.9744  1.7822 -4.0754
26086SOL     OW79870   0.988   0.976   6.912 -0.2653 -0.8149  0.1017
26086SOL    HW179871   1.069   0.930   6.933  0.8407  0.4711 -1.1274
26086SOL    HW279872   0.987   1.051   6.972 -0.9204 -1.1847  0.5747
26087SOL     OW79873   3.421   6.533   2.893 -0.5512  0.4140 -0.2383
26087SOL    HW179874   3.484   6.591   2.936  1.5600 -1.3708 -0.7121
26087SOL    HW279875   3.392   6.474   2.962  1.2185 -1.1124 -0.7324
26088SOL     OW79876   0.118   0.097   6.034 -0.5625  0.0443  0.6307
26088SOL    HW179877   0.130   0.034   5.963 -0.6778  3.1320 -2.4139
26088SOL    HW279878   0.034   0.139   6.015 -0.0479  1.7753  1.8990
26089SOL     OW79879   9.568   1.149   8.360 -0.0589 -0.0832 -0.4255
26089SOL    HW179880   9.476   1.121   8.363  0.1185 -0.5978  0.5481
26089SOL    HW279881   9.578   1.188   8.273 -1.8820  2.3697  0.3455
26090SOL     OW79882   7.488   1.284   7.776 -0.1898 -0.1025  0.3559
26090SOL    HW179883   7.578   1.252   7.785  0.3588  1.3596  0.2598
26090SOL    HW279884   7.497   1.378   7.762 -1.7019 -0.0606 -0.5349
26091SOL     OW79885   9.104   2.255   3.961  0.3750 -0.5304  0.4001
26091SOL    HW179886   9.148   2.181   3.920  2.0432 -1.1505  3.0991
26091SOL    HW279887   9.164   2.285   4.029 -0.7782  2.5723  0.2169
26092SOL     OW79888   9.745   3.347   1.105 -0.8464  0.1908  0.0366
26092SOL    HW179889   9.790   3.420   1.149 -0.1257  0.9209 -1.8398
26092SOL    HW279890   9.730   3.377   1.016 -1.6530 -1.5111 -0.4479
26093SOL     OW79891   6.186   2.727   4.971 -0.4633 -0.0013  0.5570
26093SOL    HW179892   6.128   2.654   4.992 -0.4584  0.3747  1.9962
26093SOL    HW279893   6.128   2.799   4.947 -0.4848 -0.3262 -0.3992
26094SOL     OW79894   0.605   0.289   6.126 -0.2504  0.0556  0.4597
26094SOL    HW179895   0.608   0.204   6.171  1.2561 -1.0038 -1.4615
26094SOL    HW279896   0.523   0.287   6.077 -1.2441  0.6514  2.0270
26095SOL     OW79897   2.539   4.443   9.473  0.6603  0.4687 -0.0602
26095SOL    HW179898   2.500   4.531   9.472  0.0882  0.2370  0.6544
26095SOL    HW279899   2.629   4.456   9.444  0.3440  1.1697 -0.7757
26096SOL     OW79900   8.354   0.110   7.212  0.1883 -0.8369 -0.0640
26096SOL    HW179901   8.283   0.161   7.174 -0.9045 -0.8723  1.8009
26096SOL    HW279902   8.405   0.173   7.262  2.5196 -0.4997 -2.6719
26097SOL     OW79903   5.609   0.253   0.114  0.2991  0.2681  0.0447
26097SOL    HW179904   5.666   0.294   0.049  2.3151 -0.3387  1.3260
26097SOL    HW279905   5.540   0.318   0.129  1.0943  1.4047 -0.9806
26098SOL     OW79906   8.931   3.245   7.044  0.0108 -0.2003  0.6169
26098SOL    HW179907   8.857   3.305   7.051 -0.8422 -1.2280  0.7040
26098SOL    HW279908   9.000   3.285   7.097 -0.0808  1.3234 -0.3476
26099SOL     OW79909   2.559   2.923   2.789 -0.3881  0.0838 -0.4632
26099SOL    HW179910   2.481   2.883   2.828  0.5729  0.4199  1.9718
26099SOL    HW279911   2.536   3.015   2.780 -0.3586  0.1500  0.0842
26100SOL     OW79912   1.693   9.421   8.626  0.1450 -0.1451  1.0194
26100SOL    HW179913   1.745   9.429   8.706  0.0547 -3.3928  1.5133
26100SOL    HW279914   1.609   9.462   8.648 -0.4809 -2.4156  3.2531
26101SOL     OW79915   4.122   9.013   9.843  0.5302  0.0776 -0.2815
26101SOL    HW179916   4.211   9.041   9.864  0.3897 -0.0595  0.5478
26101SOL    HW279917   4.134   8.938   9.784  1.0948 -1.9817  2.2559
26102SOL     OW79918   5.753   1.454   5.768 -0.1612 -0.0892  0.1757
26102SOL    HW179919   5.735   1.474   5.676 -0.1477 -0.6948  0.0368
26102SOL    HW279920   5.682   1.497   5.816 -0.8836 -0.8111 -0.2185
26103SOL     OW79921   7.296   2.515   5.539  0.1910  0.0285 -0.0134
26103SOL    HW179922   7.271   2.599   5.501 -0.4834  0.0803  0.5326
26103SOL    HW279923   7.372   2.487   5.487  0.3992  0.9513 -0.2166
26104SOL     OW79924   6.098   2.138   0.621 -0.4808  0.8287 -0.3527
26104SOL    HW179925   6.189   2.129   0.593 -0.5649  0.7897 -0.6145
26104SOL    HW279926   6.092   2.087   0.702  0.1934  2.3303  0.6884
26105SOL     OW79927   9.528   2.763   4.654  0.2941 -0.2556 -0.1095
26105SOL    HW179928   9.515   2.829   4.587 -0.7933  0.8557  1.1276
26105SOL    HW279929   9.540   2.681   4.606 -2.3261  0.1504 -1.6722
26106SOL     OW79930   9.199   5.887   1.765  0.0687 -0.5347  0.3180
26106SOL    HW179931   9.263   5.932   1.820  0.0279  1.2730 -1.0349
26106SOL    HW279932   9.121   5.880   1.821 -0.3657  2.3195  0.2101
26107SOL     OW79933   9.041   4.976   3.421 -0.1795  0.4936 -0.3242
26107SOL    HW179934   8.966   4.986   3.479 -1.0243 -0.7452 -1.1383
26107SOL    HW279935   9.035   4.885   3.390  1.6488  0.3681 -0.4312
26108SOL     OW79936   5.972   2.829   1.893  0.2911  0.0351 -0.4584
26108SOL    HW179937   5.927   2.875   1.822  0.2872  1.5648  0.5066
26108SOL    HW279938   5.902   2.785   1.941  0.1084  0.4104 -0.3852
26109SOL     OW79939   1.821   9.403   1.166  0.1084 -0.0324 -0.2149
26109SOL    HW179940   1.900   9.456   1.174  0.7550 -0.8778 -0.8046
26109SOL    HW279941   1.827   9.339   1.237 -1.1774  1.2613  1.1427
26110SOL     OW79942   7.385   6.115   2.986  0.0164  1.1267 -0.3078
26110SOL    HW179943   7.449   6.185   2.983  2.6380 -1.1036 -2.4844
26110SOL    HW279944   7.377   6.086   2.895 -0.9579 -1.3628  0.4755
26111SOL     OW79945   8.014   8.288   9.801  0.1139 -0.5002  0.2193
26111SOL    HW179946   7.958   8.270   9.725 -0.0734 -1.6097  0.6010
26111SOL    HW279947   8.018   8.383   9.805 -1.4712 -0.3849 -0.0418
26112SOL     OW79948   4.690   1.462   7.625 -0.1297  0.3276  0.8113
26112SOL    HW179949   4.775   1.493   7.592  0.3051 -0.6235  0.9989
26112SOL    HW279950   4.679   1.376   7.584 -1.5829  0.9437 -0.1529
26113SOL     OW79951   0.216   6.731   6.564  0.6806  0.0665  0.7843
26113SOL    HW179952   0.169   6.650   6.585  0.0740  0.2486  0.1439
26113SOL    HW279953   0.158   6.801   6.595 -1.1225  0.4441 -2.9435
26114SOL     OW79954   6.550   0.682   2.003 -0.4953 -0.0482  0.0155
26114SOL    HW179955   6.630   0.675   2.056  0.2288  0.8821 -0.8926
26114SOL    HW279956   6.481   0.700   2.066 -0.0312 -1.0612  0.8438
26115SOL     OW79957   7.634   4.165   9.187 -0.6031  0.4420 -0.7225
26115SOL    HW179958   7.620   4.073   9.207  0.5319 -0.1434 -2.3733
26115SOL    HW279959   7.677   4.165   9.101 -2.4821  2.5906 -1.7901
26116SOL     OW79960   8.444   3.962   7.131 -0.4158  0.3519 -0.5573
26116SOL    HW179961   8.480   3.878   7.104  0.0384  0.9961 -2.0158
26116SOL    HW279962   8.419   3.949   7.223  1.8758 -0.6549 -0.0106
26117SOL     OW79963   0.313   6.036   1.605 -0.3312 -0.0341 -0.0543
26117SOL    HW179964   0.346   5.951   1.636 -1.0365 -0.2574  0.0918
26117SOL    HW279965   0.230   6.048   1.651 -1.4070 -0.3671 -1.7965
26118SOL     OW79966   6.755   7.938   5.437 -0.3282 -0.1630  0.0630
26118SOL    HW179967   6.686   7.891   5.484 -0.7487 -0.3738 -0.7407
26118SOL    HW279968   6.709   7.980   5.364  0.4589 -0.6959 -0.7510
26119SOL     OW79969   5.055   8.879   1.760  0.2809  0.5081 -0.1831
26119SOL    HW179970   4.967   8.844   1.775  0.1688  0.7069 -0.3676
26119SOL    HW279971   5.041   8.973   1.747  0.3155  0.3133 -1.9234
26120SOL     OW79972   4.136   6.233   1.928  0.3201 -0.5999  0.1090
26120SOL    HW179973   4.041   6.234   1.939  0.3947 -0.7045  0.8042
26120SOL    HW279974   4.152   6.169   1.860 -0.1165 -0.5185 -0.0697
26121SOL     OW79975   5.984   7.574   6.776 -0.1034  0.5226  0.5963
26121SOL    HW179976   5.929   7.644   6.741  0.6043  1.5581  1.5037
26121SOL    HW279977   6.032   7.615   6.848  2.3938 -0.1216 -0.5957
26122SOL     OW79978   6.105   9.610   5.801 -0.1170 -0.3282 -0.0003
26122SOL    HW179979   6.017   9.579   5.824 -0.0948 -0.5421 -0.1949
26122SOL    HW279980   6.153   9.609   5.884 -0.1298 -0.7846  0.0064
26123SOL     OW79981   0.287   7.443   2.214  0.2806 -0.4417 -0.0113
26123SOL    HW179982   0.220   7.395   2.165  0.0969 -1.2321  0.9937
26123SOL    HW279983   0.334   7.376   2.264  0.5618  0.3301  0.7923
26124SOL     OW79984   2.031   4.152   5.302  0.3276  0.0292 -0.0249
26124SOL    HW179985   2.076   4.093   5.362 -0.7151 -1.8489 -0.9981
26124SOL    HW279986   2.093   4.163   5.229 -0.7243 -2.7916 -1.5036
26125SOL     OW79987   5.555   4.244   7.499 -0.5088  0.7061 -0.9874
26125SOL    HW179988   5.548   4.328   7.453  2.7409  1.0598 -1.0731
26125SOL    HW279989   5.537   4.265   7.590  0.7092  1.6366 -0.9356
26126SOL     OW79990   7.387   7.320   0.414 -0.8248 -0.7762 -0.0468
26126SOL    HW179991   7.352   7.264   0.483 -0.8862 -0.2018  0.3967
26126SOL    HW279992   7.344   7.405   0.427  0.3062 -0.2134  0.1685
26127SOL     OW79993   5.652   7.042   0.177 -0.2595  0.0769  0.5038
26127SOL    HW179994   5.664   7.090   0.095  0.9418  0.4517  0.8858
26127SOL    HW279995   5.557   7.032   0.185 -0.4303  0.7617 -0.5144
26128SOL     OW79996   6.432   7.037   0.296 -0.4345 -0.2696 -0.6977
26128SOL    HW179997   6.434   7.132   0.293  0.3556 -0.1702  1.4706
26128SOL    HW279998   6.501   7.009   0.237  0.8283  0.5955  0.3290
26129SOL     OW79999   1.495   8.839   6.984 -0.5570  0.4563  0.1000
26129SOL    HW180000   1.421   8.814   6.928  1.2297 -1.7419 -1.4704
26129SOL    HW280001   1.455   8.856   7.069 -2.8196 -1.6421 -0.3994
26130SOL     OW80002   6.436   6.397   4.469 -0.1600  0.2551  0.2597
26130SOL    HW180003   6.455   6.331   4.535 -0.2633  0.6489  0.6905
26130SOL    HW280004   6.340   6.405   4.469 -0.5420 -2.4458 -2.6004
26131SOL     OW80005   4.515   6.898   4.904 -0.0282 -0.7056 -0.5946
26131SOL    HW180006   4.438   6.914   4.849 -0.9679  1.3720  1.1687
26131SOL    HW280007   4.507   6.806   4.929 -1.2908 -0.8527 -1.4003
26132SOL     OW80008   2.770   6.030   9.473 -0.3229 -0.3348  0.7944
26132SOL    HW180009   2.714   6.106   9.490  0.0629 -0.2757  1.9021
26132SOL    HW280010   2.709   5.959   9.456 -0.6989  0.5207 -1.9452
26133SOL     OW80011   2.805   7.997   1.177 -0.1085  0.4195 -0.1168
26133SOL    HW180012   2.752   8.038   1.108  0.3388 -0.0570 -0.7628
26133SOL    HW280013   2.742   7.944   1.226 -0.0905 -1.1309 -1.6402
26134SOL     OW80014   9.739   2.769   7.752  0.1985 -0.0787  0.0555
26134SOL    HW180015   9.724   2.830   7.680 -0.7545 -1.2849 -0.8037
26134SOL    HW280016   9.825   2.793   7.785  0.4018  0.8969 -1.0869
26135SOL     OW80017   5.043   8.563   8.067 -0.2121  0.4293 -0.5108
26135SOL    HW180018   5.085   8.489   8.023 -0.1579 -0.1528  0.4805
26135SOL    HW280019   5.115   8.620   8.093 -0.2882  1.1208 -1.7467
26136SOL     OW80020   3.313   2.801   6.690 -0.0934  0.3630 -0.5824
26136SOL    HW180021   3.290   2.868   6.755 -0.4216 -0.1670 -0.1471
26136SOL    HW280022   3.302   2.718   6.736  1.3319  0.0344 -0.7913
26137SOL     OW80023   5.697   6.518   0.811 -0.1037  0.1523 -0.5405
26137SOL    HW180024   5.742   6.586   0.861  1.1470 -0.7789 -0.3639
26137SOL    HW280025   5.636   6.478   0.873 -1.2597  1.4400 -0.7920
26138SOL     OW80026   1.410   5.022   8.458  0.0179  0.3551 -0.2394
26138SOL    HW180027   1.501   5.051   8.455 -0.2416  1.1737 -0.3730
26138SOL    HW280028   1.367   5.068   8.386 -0.8853  1.4021  0.9071
26139SOL     OW80029   5.474   2.292   4.972 -0.3392 -0.2861  0.2001
26139SOL    HW180030   5.445   2.377   4.938 -1.8801 -0.8419  0.0715
26139SOL    HW280031   5.558   2.311   5.014 -0.9427  1.4338  0.7207
26140SOL     OW80032   1.289   4.774   2.457  0.1521 -0.3299  0.2723
26140SOL    HW180033   1.356   4.776   2.525  0.8431  0.1599 -0.4047
26140SOL    HW280034   1.236   4.851   2.474 -1.4870 -1.7333  1.9888
26141SOL     OW80035   8.028   4.698   3.356  0.2917 -0.1471 -0.3662
26141SOL    HW180036   8.055   4.661   3.272 -0.0038  1.2129 -1.0857
26141SOL    HW280037   7.934   4.714   3.347  0.4241  0.8640 -0.1355
26142SOL     OW80038   6.398   8.236   2.702 -0.5205 -0.0510 -0.5366
26142SOL    HW180039   6.315   8.234   2.653  0.2002  2.3781 -2.0520
26142SOL    HW280040   6.423   8.144   2.710 -2.3119 -0.7300 -1.9366
26143SOL     OW80041   0.808   2.844   2.984 -0.0572  0.2263  0.1498
26143SOL    HW180042   0.903   2.853   2.993 -0.0692  3.1212 -1.3946
26143SOL    HW280043   0.792   2.751   2.995  2.7157 -0.1478  2.2596
26144SOL     OW80044   5.058   4.893   9.282  0.2618  0.5916 -0.2864
26144SOL    HW180045   5.126   4.855   9.337 -1.2365 -1.6541  0.1578
26144SOL    HW280046   5.073   4.855   9.196 -1.2376 -1.1700  0.1564
26145SOL     OW80047   9.802   2.664   4.372  0.5932  0.0715 -0.1785
26145SOL    HW180048   9.763   2.664   4.459 -0.1736  0.5414 -0.5123
26145SOL    HW280049   9.789   2.574   4.340 -1.4378  0.5336 -0.7972
26146SOL     OW80050   1.552   6.162   9.327 -0.3902 -0.3759  0.2605
26146SOL    HW180051   1.518   6.090   9.379  0.7052 -1.0606  0.0602
26146SOL    HW280052   1.543   6.132   9.236 -1.6397  0.5166  0.0692
26147SOL     OW80053   1.479   0.111   3.806  0.1043 -0.3134  0.3387
26147SOL    HW180054   1.555   0.098   3.863  0.1449 -0.6605  0.2091
26147SOL    HW280055   1.479   0.034   3.748 -2.0409 -1.8737  2.2329
26148SOL     OW80056   4.903   7.506   2.933  0.1777  0.5957  0.1907
26148SOL    HW180057   4.953   7.510   2.851 -0.3020  1.6499 -0.0662
26148SOL    HW280058   4.872   7.416   2.938  0.9755  0.2781 -0.3199
26149SOL     OW80059   9.235   6.780   1.551  0.9494 -0.1875 -0.4724
26149SOL    HW180060   9.246   6.874   1.563  0.0300 -0.1981  0.6451
26149SOL    HW280061   9.172   6.754   1.618  2.2220 -1.8372  0.1662
26150SOL     OW80062   9.030   9.671   9.282 -0.1732  0.3658 -0.3094
26150SOL    HW180063   9.079   9.716   9.213  1.2672  1.3781  1.3112
26150SOL    HW280064   8.955   9.728   9.299  1.0311  1.6454  0.9310
26151SOL     OW80065   8.527   9.680   3.913 -0.3737  0.0719 -0.0362
26151SOL    HW180066   8.520   9.626   3.992 -1.4500 -0.1375 -0.2529
26151SOL    HW280067   8.618   9.672   3.886 -0.1174 -0.2607  0.9038
26152SOL     OW80068   1.864   9.193   1.352  0.4677 -0.6683 -0.1358
26152SOL    HW180069   1.916   9.185   1.433 -0.4296  0.5089  0.5859
26152SOL    HW280070   1.820   9.108   1.344 -1.1742 -0.0836  1.8776
26153SOL     OW80071   2.983   4.721   5.825  0.0682  0.2510  0.0251
26153SOL    HW180072   3.029   4.755   5.748  0.0568  0.2853  0.0329
26153SOL    HW280073   2.892   4.714   5.797  0.3521 -1.4568 -0.5429
26154SOL     OW80074   4.129   5.900   3.879  0.0809  0.0332 -0.7309
26154SOL    HW180075   4.207   5.943   3.914  0.2578 -0.1447 -0.9126
26154SOL    HW280076   4.137   5.908   3.784  0.0088 -0.2200 -0.7591
26155SOL     OW80077   3.373   8.532   1.488 -0.2606 -0.4242  0.4814
26155SOL    HW180078   3.393   8.551   1.580  0.2426  0.6612  0.1666
26155SOL    HW280079   3.439   8.468   1.462 -0.4534 -0.7981  0.8934
26156SOL     OW80080   0.016   7.289   8.187 -0.0709 -0.4344  0.4109
26156SOL    HW180081   0.033   7.354   8.255  0.6780  0.1354 -0.2971
26156SOL    HW280082   0.081   7.221   8.202  1.1972  0.4720 -0.6837
26157SOL     OW80083   8.453   9.539   6.044  0.1287  0.5254  0.2859
26157SOL    HW180084   8.531   9.507   5.998 -1.2707 -1.0496 -1.1210
26157SOL    HW280085   8.444   9.480   6.120 -0.7587 -0.5769 -0.6439
26158SOL     OW80086   0.369   2.823   7.716 -0.3109  0.3804  0.0394
26158SOL    HW180087   0.455   2.864   7.726 -0.7300  1.3407 -0.2734
26158SOL    HW280088   0.389   2.735   7.682  0.4546  1.4519 -2.5024
26159SOL     OW80089   9.543   8.854   4.945 -0.0756  0.4873  0.5607
26159SOL    HW180090   9.534   8.783   5.008  1.3794 -1.9459 -1.7632
26159SOL    HW280091   9.635   8.881   4.952  0.5964 -1.0204 -1.5886
26160SOL     OW80092   5.795   7.526   1.000  0.2778  0.0199 -0.4378
26160SOL    HW180093   5.727   7.466   1.031  0.5495 -0.1828 -0.2292
26160SOL    HW280094   5.748   7.606   0.978 -0.4109 -0.9572 -2.7849
26161SOL     OW80095   9.181   7.146   3.546 -0.1683  0.2312 -0.2052
26161SOL    HW180096   9.251   7.155   3.481  1.1199  0.4457  1.1773
26161SOL    HW280097   9.126   7.076   3.512  1.0074 -0.3057 -1.0679
26162SOL     OW80098   2.624   8.770   8.052  0.1949 -0.3188 -0.1168
26162SOL    HW180099   2.628   8.816   8.136 -0.5758  0.2017 -0.3533
26162SOL    HW280100   2.623   8.839   7.986  1.3268 -0.7349 -0.5946
26163SOL     OW80101   1.529   2.665   4.704 -0.3066 -0.0459  0.2235
26163SOL    HW180102   1.542   2.646   4.611 -0.2851  0.4716  0.1162
26163SOL    HW280103   1.440   2.701   4.709 -0.0887  0.4881  0.3126
26164SOL     OW80104   6.012   6.834   0.685 -0.3328  0.3056  0.1896
26164SOL    HW180105   5.943   6.865   0.743  1.6061  1.1719  2.1864
26164SOL    HW280106   6.054   6.763   0.733 -1.2872 -1.9045 -2.0448
26165SOL     OW80107   9.840   5.329   3.761  0.9898  0.0843 -0.5266
26165SOL    HW180108   9.758   5.289   3.788  1.6296 -1.1631 -0.3476
26165SOL    HW280109   9.820   5.422   3.751  0.1832  0.2764  2.1564
26166SOL     OW80110   8.836   6.644   7.023  0.1453 -0.1538 -0.3816
26166SOL    HW180111   8.882   6.727   7.014  0.0048 -0.1515 -1.1285
26166SOL    HW280112   8.868   6.608   7.106  3.0310 -1.0836 -1.7417
26167SOL     OW80113   2.371   1.992   1.946  0.2770 -0.2113 -0.3499
26167SOL    HW180114   2.374   1.939   2.026 -1.8681  0.6097  0.3791
26167SOL    HW280115   2.462   2.015   1.929  0.8275 -0.4885  1.8394
26168SOL     OW80116   5.596   6.920   5.091  0.2183 -0.2763 -0.0067
26168SOL    HW180117   5.660   6.884   5.029  1.1371 -1.7431  1.6898
26168SOL    HW280118   5.540   6.845   5.113 -0.0719  0.2029  0.9435
26169SOL     OW80119   3.402   8.100   2.745 -0.4150  0.0723 -0.3096
26169SOL    HW180120   3.427   8.056   2.826  0.3814  1.4092  0.2123
26169SOL    HW280121   3.310   8.078   2.732 -0.1579 -1.3989  0.1126
26170SOL     OW80122   3.259   0.645   4.947  0.4123 -0.1386  0.4822
26170SOL    HW180123   3.355   0.647   4.946  0.4742 -0.3203  2.5737
26170SOL    HW280124   3.233   0.726   4.989 -0.2999 -0.5324  0.8242
26171SOL     OW80125   6.769   9.280   5.309  0.1160 -0.7416 -0.1860
26171SOL    HW180126   6.840   9.344   5.306 -0.8194  0.5046  1.7393
26171SOL    HW280127   6.809   9.199   5.278  1.9862  0.2232 -0.4926
26172SOL     OW80128   4.739   2.450   4.340  0.1730  0.2124 -0.0583
26172SOL    HW180129   4.734   2.545   4.328  0.0257  0.2827  0.5552
26172SOL    HW280130   4.648   2.420   4.338  0.2759 -0.1271 -1.7967
26173SOL     OW80131   9.721   6.808   0.223  0.3433 -0.4250 -0.3539
26173SOL    HW180132   9.689   6.898   0.222 -1.2231 -0.9509 -1.2178
26173SOL    HW280133   9.717   6.782   0.315 -1.1922 -0.2587 -0.3451
26174SOL     OW80134   8.036   1.500   8.764  0.8442  0.0560 -0.2082
26174SOL    HW180135   8.013   1.548   8.684  0.3176 -0.2259 -0.2333
26174SOL    HW280136   8.094   1.430   8.734 -1.4649 -1.7440 -0.8077
26175SOL     OW80137   4.397   5.911   3.990  0.5226  0.2007  0.3817
26175SOL    HW180138   4.370   5.864   4.069  1.3898 -1.0455 -0.0276
26175SOL    HW280139   4.465   5.971   4.020 -0.3083  0.9278  0.8456
26176SOL     OW80140   9.520   9.340   5.271 -0.0941 -0.2525 -0.1588
26176SOL    HW180141   9.562   9.403   5.329 -0.9772  0.1274  0.0830
26176SOL    HW280142   9.584   9.269   5.263  0.4252  0.1227  0.5162
26177SOL     OW80143   9.841   8.764   1.451 -0.2604  0.2959  0.4946
26177SOL    HW180144   9.864   8.825   1.521 -0.4314  1.0935 -0.1223
26177SOL    HW280145   9.805   8.820   1.382 -1.4440 -0.6189  0.3415
26178SOL     OW80146   6.307   1.343   2.339 -0.2844 -0.4747 -0.4637
26178SOL    HW180147   6.326   1.252   2.360 -0.6811 -0.5468 -0.4113
26178SOL    HW280148   6.390   1.388   2.350  0.0632 -0.9408 -1.0923
26179SOL     OW80149   3.729   5.735   2.584 -0.1791  0.0515  0.0455
26179SOL    HW180150   3.710   5.829   2.584 -0.2521  0.0414  0.7295
26179SOL    HW280151   3.812   5.728   2.537  0.3178  0.5654  0.8342
26180SOL     OW80152   4.706   4.492   9.252  0.1812  0.1538  0.2709
26180SOL    HW180153   4.715   4.450   9.167 -1.3251 -1.0714  0.6629
26180SOL    HW280154   4.648   4.434   9.302 -0.6624  1.8643  1.4130
26181SOL     OW80155   6.630   3.389   8.191  0.7125 -0.3096 -0.0765
26181SOL    HW180156   6.664   3.310   8.149  1.8237 -0.1432  0.4686
26181SOL    HW280157   6.695   3.457   8.172 -0.4784  0.6276 -0.9877
26182SOL     OW80158   8.283   0.536   3.124 -0.3130  0.3063  0.3944
26182SOL    HW180159   8.290   0.445   3.151 -0.0477  0.6262  1.4664
26182SOL    HW280160   8.276   0.533   3.028  0.0972 -0.8105  0.3889
26183SOL     OW80161   5.630   4.701   1.091 -0.5026 -0.1330 -0.0583
26183SOL    HW180162   5.564   4.769   1.105 -0.4448 -0.1067  0.0888
26183SOL    HW280163   5.631   4.688   0.996  0.6460  1.2367 -0.2738
26184SOL     OW80164   4.420   9.190   4.273  0.2840 -0.4462 -0.6857
26184SOL    HW180165   4.381   9.104   4.279  0.2565 -0.3667  0.5374
26184SOL    HW280166   4.349   9.248   4.244  0.3007 -0.8108 -1.4874
26185SOL     OW80167   1.496   1.813   3.587 -0.2159  0.2836  0.7414
26185SOL    HW180168   1.485   1.886   3.647 -0.4584  0.0017  1.0422
26185SOL    HW280169   1.414   1.811   3.536  0.3560  1.0964 -0.2418
26186SOL     OW80170   3.614   7.199   1.653 -0.3934  0.5265  0.4381
26186SOL    HW180171   3.575   7.256   1.719  0.7821  1.4445  0.3776
26186SOL    HW280172   3.542   7.180   1.593 -0.8726  1.8006  0.5642
26187SOL     OW80173   2.204   6.125   7.441  0.3939 -0.2555 -0.1921
26187SOL    HW180174   2.147   6.048   7.435 -0.7114  0.4265  0.9438
26187SOL    HW280175   2.200   6.150   7.534  0.6839  1.1882 -0.5442
26188SOL     OW80176   6.483   4.920   7.214 -0.3300  0.2913  0.1138
26188SOL    HW180177   6.456   4.847   7.159 -0.4941  1.2003 -1.0534
26188SOL    HW280178   6.518   4.985   7.153  2.7162 -0.0014  1.3579
26189SOL     OW80179   6.789   6.309   0.459 -0.2144  0.0325 -0.3275
26189SOL    HW180180   6.696   6.325   0.470 -0.4426 -1.9519  1.1971
26189SOL    HW280181   6.794   6.245   0.389  0.1630  1.2946 -1.4982
26190SOL     OW80182   9.725   1.121   0.120  0.1710  0.1388  0.0635
26190SOL    HW180183   9.662   1.193   0.120 -0.6907 -0.5636 -1.5186
26190SOL    HW280184   9.687   1.055   0.179 -0.2465  0.0078 -0.3445
26191SOL     OW80185   6.342   2.922   8.892 -0.3513  0.1943  0.5300
26191SOL    HW180186   6.291   2.892   8.967 -0.8902 -0.2496 -0.0094
26191SOL    HW280187   6.303   2.878   8.817 -0.0240  0.8852 -0.0567
26192SOL     OW80188   9.418   1.328   4.758  0.2306 -0.0641 -0.2991
26192SOL    HW180189   9.491   1.385   4.782  0.5652 -0.3021 -0.7354
26192SOL    HW280190   9.380   1.369   4.681 -1.3066  1.1086  1.0313
26193SOL     OW80191   8.242   7.413   8.404  0.3129  0.1125 -0.3446
26193SOL    HW180192   8.239   7.327   8.362  0.9261 -0.5805  0.9727
26193SOL    HW280193   8.151   7.431   8.427  0.2050 -0.2678 -0.4560
26194SOL     OW80194   6.587   6.175   6.158 -0.4109 -0.2910  0.0654
26194SOL    HW180195   6.678   6.149   6.147 -0.4943 -0.0385 -1.4219
26194SOL    HW280196   6.560   6.206   6.071 -1.2611  1.7473  1.0031
26195SOL     OW80197   5.607   4.035   6.150 -0.0542  0.2406  0.0201
26195SOL    HW180198   5.660   4.061   6.225  0.3840  0.0606 -0.2232
26195SOL    HW280199   5.630   3.943   6.135 -0.0242  0.3182 -0.4221
26196SOL     OW80200   4.655   5.601   7.932  0.4603  0.1658 -0.8567
26196SOL    HW180201   4.638   5.638   7.845  0.9423  0.3844 -0.8622
26196SOL    HW280202   4.726   5.654   7.967  0.3150  0.0331 -0.3538
26197SOL     OW80203   7.129   9.064   3.947  0.0898 -0.3093 -0.5803
26197SOL    HW180204   7.207   9.023   3.909 -0.6368 -0.0972 -2.4296
26197SOL    HW280205   7.056   9.013   3.910 -0.7851  1.8303 -1.9632
26198SOL     OW80206   8.255   7.750   4.019  0.2347  0.1411 -0.4853
26198SOL    HW180207   8.215   7.836   4.003  1.3987  1.0360  1.1013
26198SOL    HW280208   8.297   7.727   3.936  1.6811  2.1134 -0.3841
26199SOL     OW80209   1.498   2.891   3.123  0.1049  0.0276 -0.2528
26199SOL    HW180210   1.439   2.858   3.055  2.2746 -1.5336 -1.5045
26199SOL    HW280211   1.493   2.826   3.193 -0.2554  0.3341  0.0123
26200SOL     OW80212   6.525   8.996   0.665 -0.0284 -0.6358 -0.2527
26200SOL    HW180213   6.518   9.043   0.581  0.3533  0.8787  0.5213
26200SOL    HW280214   6.618   8.980   0.676 -0.1599 -1.6504 -0.5259
26201SOL     OW80215   1.618   4.819   8.203 -0.0748  0.1816 -0.4049
26201SOL    HW180216   1.661   4.813   8.289 -0.9528  0.6292  0.0773
26201SOL    HW280217   1.665   4.755   8.149  1.5548  1.0355 -0.0675
26202SOL     OW80218   5.264   2.262   8.277  0.1357  0.2804 -0.3569
26202SOL    HW180219   5.171   2.281   8.285 -0.4107 -1.9474 -0.7719
26202SOL    HW280220   5.268   2.167   8.266  2.5347  0.1901  0.7243
26203SOL     OW80221   2.432   3.569   1.822 -0.6586 -0.1885 -0.0232
26203SOL    HW180222   2.514   3.562   1.773 -0.8197  1.8457 -0.6828
26203SOL    HW280223   2.430   3.490   1.876  1.7398 -0.2851  0.0511
26204SOL     OW80224   5.040   0.364   9.030 -0.0497  0.4628 -0.3148
26204SOL    HW180225   5.009   0.274   9.041  2.8032 -0.4383  1.2115
26204SOL    HW280226   4.999   0.412   9.102  0.0279 -0.0902  0.1027
26205SOL     OW80227   0.645   6.028   9.198 -0.4045 -0.1070  0.1162
26205SOL    HW180228   0.583   6.077   9.143 -0.7331 -0.2837  0.3264
26205SOL    HW280229   0.640   6.071   9.284 -0.4062 -0.2675  0.1974
26206SOL     OW80230   7.213   7.170   6.331  0.2413  0.7366 -0.1095
26206SOL    HW180231   7.290   7.207   6.374 -0.1428 -0.6939  1.9905
26206SOL    HW280232   7.246   7.093   6.286 -0.0589 -0.6570  1.9000
26207SOL     OW80233   1.667   5.484   7.072 -0.3771 -0.6632 -0.1137
26207SOL    HW180234   1.633   5.458   6.986  1.9684  1.9015 -1.9737
26207SOL    HW280235   1.621   5.565   7.093 -0.6895 -1.0948  0.9746
26208SOL     OW80236   7.549   5.977   3.175  0.4706 -0.3650 -0.3749
26208SOL    HW180237   7.494   6.047   3.141  0.2475 -1.2792 -1.9713
26208SOL    HW280238   7.612   5.959   3.105 -0.0225 -2.3371 -0.3727
26209SOL     OW80239   5.187   4.285   2.072  0.2399 -0.8011 -0.5154
26209SOL    HW180240   5.093   4.269   2.072  0.0691 -0.5140  3.1312
26209SOL    HW280241   5.226   4.199   2.054 -0.7400 -1.5362  0.7460
26210SOL     OW80242   0.287   4.994   6.621  0.6428 -0.3005  0.5472
26210SOL    HW180243   0.381   5.000   6.641  0.4755  4.7138  1.1468
26210SOL    HW280244   0.280   5.027   6.531 -0.5530  0.2209  0.8114
26211SOL     OW80245   5.841   5.743   1.162 -0.7264  0.2417 -0.1381
26211SOL    HW180246   5.755   5.752   1.202 -1.0543  1.4703 -1.0523
26211SOL    HW280247   5.837   5.661   1.114 -0.7379 -0.6391  1.2867
26212SOL     OW80248   6.564   3.700   6.112 -0.2260  0.2855 -0.1051
26212SOL    HW180249   6.617   3.657   6.179  0.0580  0.6723 -0.0786
26212SOL    HW280250   6.547   3.788   6.147 -1.6671 -0.1277  0.3110
26213SOL     OW80251   2.281   7.994   9.783 -0.3830  0.1701  0.6228
26213SOL    HW180252   2.293   8.087   9.763  0.5672 -0.4270 -1.9531
26213SOL    HW280253   2.216   7.993   9.853 -0.5642  2.7555  0.5930
26214SOL     OW80254   3.902   0.267   2.679 -0.4373  0.1025  0.3587
26214SOL    HW180255   3.926   0.354   2.648 -0.2026  0.4264  1.3950
26214SOL    HW280256   3.807   0.261   2.666 -0.2318 -0.1304 -1.2180
26215SOL     OW80257   3.821   5.834   1.621  0.2497 -0.0069  0.0551
26215SOL    HW180258   3.735   5.797   1.639 -0.1492  0.9317  0.1578
26215SOL    HW280259   3.803   5.912   1.568  1.1315 -0.5093 -1.0122
26216SOL     OW80260   2.071   2.443   2.037 -0.0322 -0.0718 -0.2110
26216SOL    HW180261   2.123   2.368   2.008 -0.3057  0.4588 -2.2191
26216SOL    HW280262   2.126   2.520   2.018 -0.8788  0.3972 -0.8258
26217SOL     OW80263   6.121   5.033   0.191 -0.0306  0.0634  0.2734
26217SOL    HW180264   6.183   5.040   0.264 -0.9127 -2.3328  1.3858
26217SOL    HW280265   6.036   5.055   0.229 -0.3495 -0.0785 -0.3368
26218SOL     OW80266   0.524   6.216   6.712 -0.0463 -0.0540  1.1739
26218SOL    HW180267   0.540   6.222   6.806 -0.7757  0.6269  1.2713
26218SOL    HW280268   0.506   6.124   6.696 -1.2282  0.0290  1.9367
26219SOL     OW80269   1.094   7.117   0.302  0.3199 -0.0329  0.7574
26219SOL    HW180270   1.045   7.106   0.383 -0.6168 -1.8396  0.0010
26219SOL    HW280271   1.033   7.163   0.243 -0.1692 -1.4533  0.1165
26220SOL     OW80272   6.083   9.449   4.070 -0.2528 -0.1465 -0.3848
26220SOL    HW180273   6.057   9.404   4.150  0.8035 -0.7321 -0.3486
26220SOL    HW280274   6.172   9.480   4.089 -0.6714  1.3150 -0.6802
26221SOL     OW80275   7.849   3.620   1.775  0.3394 -0.3005 -0.2832
26221SOL    HW180276   7.846   3.677   1.698 -0.6433 -0.2442 -0.2079
26221SOL    HW280277   7.768   3.569   1.771 -0.0060  0.1153  1.0361
26222SOL     OW80278   2.381   7.784   6.058 -0.3200  0.3567  0.1124
26222SOL    HW180279   2.424   7.726   5.996 -0.2191  1.0594 -0.5023
26222SOL    HW280280   2.395   7.744   6.143 -2.4099 -1.8804 -0.4757
26223SOL     OW80281   3.011   7.087   2.598  0.0445 -0.2057  0.0132
26223SOL    HW180282   2.987   7.038   2.677  1.5569 -0.5260  0.3150
26223SOL    HW280283   3.100   7.118   2.616  0.1834  0.2219 -1.3320
26224SOL     OW80284   3.459   1.575   9.676  0.3045  0.2110  0.2825
26224SOL    HW180285   3.483   1.540   9.591  3.3333  2.0714  0.2133
26224SOL    HW280286   3.383   1.632   9.659 -0.2737 -0.8562 -0.7942
26225SOL     OW80287   3.136   1.668   7.833  0.2612 -0.1867 -0.3275
26225SOL    HW180288   3.041   1.682   7.823  0.4102  0.5108 -0.8745
26225SOL    HW280289   3.165   1.741   7.889  0.4566 -0.4676 -0.0603
26226SOL     OW80290   5.138   1.551   0.009  0.0198 -0.3776 -0.1548
26226SOL    HW180291   5.204   1.554   0.078 -0.8798 -0.6908  0.7457
26226SOL    HW280292   5.083   1.627   0.027  0.7931  0.5655 -1.6028
26227SOL     OW80293   9.574   3.696   0.671  0.2038 -1.0239 -0.3155
26227SOL    HW180294   9.564   3.771   0.612  0.1821 -0.5735  0.2469
26227SOL    HW280295   9.538   3.727   0.754 -0.2892 -1.8455 -0.2181
26228SOL     OW80296   8.236   0.644   7.445 -0.3813  0.2127 -0.2996
26228SOL    HW180297   8.205   0.681   7.362  0.4184  0.9555 -0.2832
26228SOL    HW280298   8.331   0.654   7.442 -0.3089 -0.1778  0.5051
26229SOL     OW80299   2.505   6.088   2.849  0.0781  0.5100  0.0429
26229SOL    HW180300   2.550   6.113   2.768  0.1670 -0.3450 -0.1858
26229SOL    HW280301   2.558   6.016   2.884  0.5111  1.4060  1.3094
26230SOL     OW80302   3.252   7.533   6.337  0.4678 -0.7697 -0.3935
26230SOL    HW180303   3.342   7.563   6.348  0.4504  0.1389 -2.3702
26230SOL    HW280304   3.258   7.460   6.275 -0.1532 -0.7430 -0.4907
26231SOL     OW80305   7.451   2.685   6.057 -0.1025 -0.1100 -0.1964
26231SOL    HW180306   7.473   2.775   6.033  0.4886 -0.2198 -0.0847
26231SOL    HW280307   7.405   2.694   6.140  0.6968  0.0385  0.2459
26232SOL     OW80308   2.985   8.679   2.706 -0.3913  0.1896  0.0921
26232SOL    HW180309   3.056   8.615   2.704 -0.4868  0.0793  0.2257
26232SOL    HW280310   2.949   8.673   2.794  0.1262  1.0130  0.3659
26233SOL     OW80311   5.184   0.235   6.931  0.3411 -0.4915 -0.4994
26233SOL    HW180312   5.095   0.259   6.907  0.1922 -1.0682 -0.5440
26233SOL    HW280313   5.238   0.306   6.896 -0.2402  0.7038  0.9610
26234SOL     OW80314   7.595   3.957   6.057 -0.0407  0.3260 -0.1653
26234SOL    HW180315   7.637   3.988   6.137 -0.7300  0.4861  0.1424
26234SOL    HW280316   7.646   3.880   6.032 -1.3011 -1.2663  1.8458
26235SOL     OW80317   5.401   7.120   3.373 -0.2307 -0.1671  0.0232
26235SOL    HW180318   5.407   7.215   3.362 -2.0359 -0.2290 -2.2448
26235SOL    HW280319   5.335   7.108   3.441  1.0666  0.1422  1.4061
26236SOL     OW80320   7.003   2.179   1.663 -0.0032 -0.0412 -0.2743
26236SOL    HW180321   7.033   2.178   1.572 -1.1631 -0.7872 -0.6764
26236SOL    HW280322   6.978   2.088   1.681 -2.8756  0.6289 -0.3340
26237SOL     OW80323   2.438   8.049   6.025  0.1962 -0.0724 -0.1580
26237SOL    HW180324   2.412   7.958   6.035 -0.8956  0.2020 -0.3276
26237SOL    HW280325   2.533   8.049   6.036  0.1179 -1.1125  0.6124
26238SOL     OW80326   2.048   5.672   7.636  0.2149  0.5702  0.3642
26238SOL    HW180327   2.040   5.585   7.598  2.0549  0.5757 -0.1066
26238SOL    HW280328   1.964   5.686   7.680  0.5647 -2.2688  2.2325
26239SOL     OW80329   1.270   2.048   8.901  0.3845 -0.2028 -0.3085
26239SOL    HW180330   1.201   2.005   8.952  0.0550  1.1964  0.4662
26239SOL    HW280331   1.223   2.097   8.834  0.6843  0.0735 -0.3155
26240SOL     OW80332   2.683   0.982   7.425  0.7838  0.6028  0.3405
26240SOL    HW180333   2.774   0.982   7.456  1.0593  0.3531 -0.4203
26240SOL    HW280334   2.691   0.969   7.330  0.0114  2.1676  0.0397
26241SOL     OW80335   4.295   9.582   2.752  0.2659  0.0413 -0.6121
26241SOL    HW180336   4.305   9.676   2.765 -0.9432 -0.0063  0.9564
26241SOL    HW280337   4.210   9.561   2.791  0.6641 -1.7570 -0.6144
26242SOL     OW80338   9.371   5.501   4.365 -0.5410  0.2484  0.5875
26242SOL    HW180339   9.298   5.442   4.383  0.0812 -0.3077  1.3514
26242SOL    HW280340   9.447   5.460   4.407  0.8136 -0.5843 -2.3674
26243SOL     OW80341   4.579   1.641   3.349 -0.2705  0.2863  0.2551
26243SOL    HW180342   4.549   1.555   3.321  0.1502  0.4357 -0.6934
26243SOL    HW280343   4.625   1.626   3.431  2.2780 -0.8400 -1.2864
26244SOL     OW80344   6.261   5.130   9.539  0.4028  0.2932 -0.3634
26244SOL    HW180345   6.352   5.113   9.563  1.1831  1.5490 -2.2111
26244SOL    HW280346   6.263   5.146   9.444 -1.7177  0.4675 -0.4344
26245SOL     OW80347   2.031   3.804   5.089  0.5088 -0.5782 -0.3815
26245SOL    HW180348   1.959   3.855   5.127  0.8157 -1.1187  0.9762
26245SOL    HW280349   1.989   3.725   5.055  0.0884  0.3547 -2.1405
26246SOL     OW80350   3.041   3.199   6.287  0.0596 -0.1371 -0.0321
26246SOL    HW180351   3.135   3.209   6.273  0.1561  1.0809  1.2604
26246SOL    HW280352   3.016   3.125   6.232  1.5842  0.1353 -1.1368
26247SOL     OW80353   1.348   6.020   5.744 -0.1231  0.4142  0.4107
26247SOL    HW180354   1.432   6.055   5.714 -0.9308  2.2163  0.1117
26247SOL    HW280355   1.359   5.925   5.742  0.9071  0.5199 -2.4902
26248SOL     OW80356   3.253   0.127   0.942 -0.4268  0.3734 -0.5583
26248SOL    HW180357   3.308   0.197   0.907 -0.7253 -0.3213 -2.5212
26248SOL    HW280358   3.312   0.075   0.996 -0.0238  1.6519  0.2826
26249SOL     OW80359   3.897   1.920   4.078 -0.4622 -0.4761  0.2315
26249SOL    HW180360   3.962   1.960   4.136 -0.9494  0.6097  0.0424
26249SOL    HW280361   3.942   1.912   3.994 -1.3089  2.7231 -0.6615
26250SOL     OW80362   8.025   2.625   6.213 -0.3532  0.5894 -0.0148
26250SOL    HW180363   8.101   2.596   6.264  0.1458 -0.7070 -1.4073
26250SOL    HW280364   8.061   2.682   6.145 -1.0267  2.4208  1.1033
26251SOL     OW80365   7.562   3.296   6.596 -0.1452 -0.5391 -0.0073
26251SOL    HW180366   7.574   3.372   6.539 -0.2007 -0.2972  0.3074
26251SOL    HW280367   7.564   3.221   6.536 -1.3684 -0.2135 -0.4929
26252SOL     OW80368   6.166   3.532   6.105 -0.3993 -0.1403  0.1083
26252SOL    HW180369   6.206   3.477   6.173 -1.7225 -0.8506  0.3566
26252SOL    HW280370   6.206   3.501   6.023  0.5265  0.0856  0.4675
26253SOL     OW80371   5.431   3.894   1.520  0.4297 -0.1546 -0.3778
26253SOL    HW180372   5.483   3.921   1.445  0.2626 -1.5035 -1.0087
26253SOL    HW280373   5.490   3.838   1.571 -0.4477 -2.0014 -1.2884
26254SOL     OW80374   2.059   8.823   3.641  0.1121 -0.1151  0.5198
26254SOL    HW180375   2.104   8.840   3.558  1.1673  1.7320  1.3847
26254SOL    HW280376   1.978   8.873   3.635  1.7052  2.9082  1.7769
26255SOL     OW80377   1.411   8.625   3.532  0.2107  0.4004  0.2057
26255SOL    HW180378   1.385   8.616   3.624  0.5081  0.8955  0.3390
26255SOL    HW280379   1.421   8.535   3.502 -1.7081  0.1786  0.1305
26256SOL     OW80380   4.925   4.998   3.933 -0.0161  0.0710 -0.2123
26256SOL    HW180381   4.929   5.075   3.877  0.2579  1.1857  1.2615
26256SOL    HW280382   4.833   4.973   3.934 -0.0802  0.2760 -0.8483
26257SOL     OW80383   3.987   7.891   9.728 -0.0059  0.0363 -0.4969
26257SOL    HW180384   4.028   7.806   9.709 -0.0468  0.3305 -2.0610
26257SOL    HW280385   3.921   7.872   9.794  1.0380 -0.8661  0.3151
26258SOL     OW80386   6.065   3.218   7.485  0.2160  0.3528 -0.1477
26258SOL    HW180387   5.988   3.234   7.430  0.2760  1.8220  0.1832
26258SOL    HW280388   6.135   3.268   7.443  0.5800  0.4093  0.5198
26259SOL     OW80389   2.013   7.056   8.758 -0.3230  0.0297  0.3940
26259SOL    HW180390   2.073   7.126   8.730  1.7442 -0.8014  2.3376
26259SOL    HW280391   1.998   7.004   8.680  1.8969  0.0534 -0.1208
26260SOL     OW80392   4.570   0.214   0.429 -0.2723  0.0105 -0.1080
26260SOL    HW180393   4.528   0.135   0.396  1.0621 -0.4237 -0.8276
26260SOL    HW280394   4.566   0.275   0.355 -0.0075  0.1112 -0.0402
26261SOL     OW80395   9.551   2.368   7.885 -0.3458 -0.3194 -0.5450
26261SOL    HW180396   9.486   2.436   7.871 -2.1840 -2.1537 -1.3885
26261SOL    HW280397   9.513   2.312   7.952 -0.5866 -2.4851 -2.3851
26262SOL     OW80398   5.251   2.499   6.435  0.4096 -0.4452  0.0721
26262SOL    HW180399   5.183   2.502   6.367  0.0897  0.6049  0.4111
26262SOL    HW280400   5.235   2.416   6.480  0.0397 -0.7219 -0.5475
26263SOL     OW80401   6.847   6.381   6.017  0.1251  0.3377 -0.3612
26263SOL    HW180402   6.780   6.440   6.051 -2.6355 -2.8880  0.2919
26263SOL    HW280403   6.811   6.348   5.934  2.3362  0.7097 -1.5636
26264SOL     OW80404   6.450   2.643   3.126 -0.3126 -0.4785  0.2448
26264SOL    HW180405   6.466   2.724   3.175 -1.8120 -0.3558  0.5728
26264SOL    HW280406   6.476   2.663   3.037  0.1842  0.0704  0.5064
26265SOL     OW80407   8.453   7.734   7.696 -0.0476  0.3105 -0.0408
26265SOL    HW180408   8.493   7.801   7.751  2.8204 -0.0960 -1.4540
26265SOL    HW280409   8.417   7.783   7.622 -0.0017  0.4679  0.0409
26266SOL     OW80410   1.229   2.606   7.893  0.3601 -0.4802 -0.3295
26266SOL    HW180411   1.161   2.637   7.834 -0.5618 -0.6894  0.5888
26266SOL    HW280412   1.278   2.542   7.842  1.9192  1.9490 -2.0700
26267SOL     OW80413   9.497   0.695   1.904 -0.1777 -0.2047  0.0036
26267SOL    HW180414   9.463   0.710   1.815  1.8884  0.7892 -0.6918
26267SOL    HW280415   9.567   0.631   1.892 -0.2176 -0.4384  0.9867
26268SOL     OW80416   6.310   6.937   5.044 -0.2664  0.0505 -0.1941
26268SOL    HW180417   6.274   6.885   5.116 -0.2525 -0.1843 -0.3563
26268SOL    HW280418   6.267   7.022   5.052 -0.7350 -0.1722 -0.2861
26269SOL     OW80419   0.267   2.158   3.980 -0.1015 -0.7858  0.0016
26269SOL    HW180420   0.294   2.160   4.072 -0.1764  2.2517  0.0656
26269SOL    HW280421   0.326   2.094   3.939  0.3725 -1.7185  1.9949
26270SOL     OW80422   4.751   5.588   1.742 -0.0419  0.1540  0.3067
26270SOL    HW180423   4.660   5.560   1.755  1.0270 -2.7323  2.8386
26270SOL    HW280424   4.758   5.669   1.792 -0.7861 -0.7079  1.8877
26271SOL     OW80425   9.118   9.768   8.640  0.1565  0.2170  0.5978
26271SOL    HW180426   9.065   9.696   8.674 -0.1163 -0.4741 -1.1694
26271SOL    HW280427   9.194   9.725   8.601  0.1598  0.9175 -0.1820
26272SOL     OW80428   6.891   9.620   4.839 -0.0185  0.2930  0.4734
26272SOL    HW180429   6.905   9.625   4.934 -0.0845  2.7143  0.4093
26272SOL    HW280430   6.978   9.600   4.803  0.2650  0.5619  0.9899
26273SOL     OW80431   7.926   0.612   0.172 -0.0383 -0.6202 -0.1431
26273SOL    HW180432   7.932   0.518   0.192  0.3090 -0.1229  2.4628
26273SOL    HW280433   7.908   0.653   0.256 -3.7081  1.4278 -1.6969
26274SOL     OW80434   1.666   4.930   6.348  0.4319  0.3522 -0.0362
26274SOL    HW180435   1.706   5.014   6.374  3.3283 -0.9313  0.0979
26274SOL    HW280436   1.722   4.898   6.278 -1.1084 -1.1159 -0.6449
26275SOL     OW80437   7.898   8.635   0.148  0.4946 -0.1729  0.6178
26275SOL    HW180438   7.964   8.612   0.082 -0.4227 -1.5097  0.1281
26275SOL    HW280439   7.826   8.574   0.132 -1.3228  1.8944  0.4543
26276SOL     OW80440   6.733   3.656   6.349  0.2639 -0.2134 -0.3723
26276SOL    HW180441   6.819   3.616   6.350  0.9020  1.0021 -1.8772
26276SOL    HW280442   6.743   3.736   6.401  0.4413  0.6088 -1.6301
26277SOL     OW80443   2.199   9.827   9.484 -0.1349  0.4401 -0.2542
26277SOL    HW180444   2.257   9.896   9.517  0.3252 -0.4720  0.9376
26277SOL    HW280445   2.191   9.845   9.390  0.3527  1.8275 -0.0523
26278SOL     OW80446   4.856   0.281   7.904 -0.2269  0.2803 -0.0332
26278SOL    HW180447   4.820   0.340   7.838  1.7810  2.3504  0.5989
26278SOL    HW280448   4.796   0.286   7.978 -1.0814  0.0099 -0.6931
26279SOL     OW80449   4.253   8.846   5.385 -0.0853  0.5133 -0.2126
26279SOL    HW180450   4.342   8.850   5.420 -0.7279  1.5915  1.4546
26279SOL    HW280451   4.263   8.807   5.299  1.9263  0.0584  0.1627
26280SOL     OW80452   9.228   5.036   2.318 -0.2488 -0.4511 -0.1427
26280SOL    HW180453   9.293   5.072   2.378 -0.3322  0.7939 -0.7686
26280SOL    HW280454   9.273   4.964   2.274  0.6830  0.3087 -0.4771
26281SOL     OW80455   6.554   4.183   5.695  0.0745  0.2317 -0.2432
26281SOL    HW180456   6.497   4.128   5.641  0.0901 -1.0310  0.9793
26281SOL    HW280457   6.643   4.159   5.668  0.0802 -0.3167  0.2516
26282SOL     OW80458   2.460   1.596   7.632 -0.1119  0.3037 -0.1742
26282SOL    HW180459   2.370   1.592   7.663 -0.4303 -0.5059 -1.1898
26282SOL    HW280460   2.510   1.623   7.709 -1.2341  0.9765  0.3467
26283SOL     OW80461   8.299   8.709   9.705  0.4959  0.6051 -0.1062
26283SOL    HW180462   8.357   8.731   9.777  0.8205  0.5170 -0.3402
26283SOL    HW280463   8.333   8.758   9.630  1.8619 -1.4303 -0.9045
26284SOL     OW80464   8.229   6.053   3.835  0.1115 -0.1693  0.0993
26284SOL    HW180465   8.290   6.015   3.898  0.9049  0.5937 -0.1827
26284SOL    HW280466   8.144   6.016   3.858 -0.0063  1.5909  2.9179
26285SOL     OW80467   4.935   7.211   3.225  0.2700  0.9728 -0.2347
26285SOL    HW180468   4.968   7.238   3.139  0.4336  0.3854 -0.3609
26285SOL    HW280469   4.956   7.284   3.283  0.0417  1.4326 -0.7198
26286SOL     OW80470   9.382   0.987   9.004  0.4109  0.3250 -0.2551
26286SOL    HW180471   9.460   0.933   9.017  0.1782  0.4304  2.1401
26286SOL    HW280472   9.404   1.071   9.044 -0.0213  1.2805 -1.9474
26287SOL     OW80473   7.561   1.634   6.391  0.1216 -0.1175  0.4611
26287SOL    HW180474   7.499   1.566   6.365  0.2982 -0.3659  0.6909
26287SOL    HW280475   7.535   1.657   6.480 -1.6584  2.0387 -0.5041
26288SOL     OW80476   0.170   0.084   8.539 -0.1760 -0.2412 -0.0862
26288SOL    HW180477   0.133   0.150   8.480 -1.3679 -1.5502 -0.8771
26288SOL    HW280478   0.265   0.096   8.533 -0.3741  1.8120  0.3287
26289SOL     OW80479   8.458   8.035   4.843 -0.3246  0.2682  0.8991
26289SOL    HW180480   8.413   8.077   4.769  0.7163  0.2594  0.2452
26289SOL    HW280481   8.483   8.108   4.900  0.4824  0.4482  0.3262
26290SOL     OW80482   3.043   6.220   3.316 -0.0458 -0.0873  0.2016
26290SOL    HW180483   3.062   6.247   3.406  1.1742 -0.9376  0.2287
26290SOL    HW280484   3.032   6.302   3.268  1.8924  0.4835  0.6128
26291SOL     OW80485   2.837   3.858   0.713  0.1354 -0.3859  0.1227
26291SOL    HW180486   2.866   3.859   0.804  2.4669 -0.5738 -0.5333
26291SOL    HW280487   2.918   3.849   0.662 -1.2377 -3.5214 -1.8808
26292SOL     OW80488   4.597   9.475   3.582 -0.0030  0.0995 -0.1049
26292SOL    HW180489   4.642   9.486   3.498 -1.9882  0.9231 -1.1290
26292SOL    HW280490   4.584   9.564   3.614 -1.5615 -0.0391 -0.2578
26293SOL     OW80491   7.639   0.893   6.099  0.3780  0.0776  0.5673
26293SOL    HW180492   7.602   0.901   6.187  0.4102  0.2563  0.5646
26293SOL    HW280493   7.713   0.833   6.109  0.8809  0.7253  0.8142
26294SOL     OW80494   5.576   2.096   6.050 -0.1450 -0.5468 -0.6125
26294SOL    HW180495   5.547   2.019   6.100  2.4775 -0.1559  1.7976
26294SOL    HW280496   5.661   2.071   6.015 -0.8648  0.0806 -2.9720
26295SOL     OW80497   5.141   0.055   7.118  0.0489 -0.0271 -0.0413
26295SOL    HW180498   5.224   0.008   7.123  1.4648  2.3743  0.7033
26295SOL    HW280499   5.158   0.127   7.057 -0.5764  2.1212  2.1720
26296SOL     OW80500   9.371   3.873   0.899 -0.0033  0.1784  0.2325
26296SOL    HW180501   9.372   3.831   0.985  0.9089  0.4578  0.3678
26296SOL    HW280502   9.389   3.965   0.917  0.2252  0.2312 -0.2612
26297SOL     OW80503   3.476   7.686   4.609  0.1602 -0.5160 -0.5910
26297SOL    HW180504   3.388   7.669   4.643  0.5063 -1.6005 -0.1751
26297SOL    HW280505   3.463   7.744   4.534 -0.8876 -0.5058 -0.4119
26298SOL     OW80506   7.942   6.596   0.294 -0.2617  0.4459  0.1472
26298SOL    HW180507   7.992   6.596   0.376 -0.1637  0.7598  0.0881
26298SOL    HW280508   7.882   6.521   0.303  0.0805  0.1860  0.3019
26299SOL     OW80509   1.497   1.713   0.404 -0.4006  0.1932 -0.2140
26299SOL    HW180510   1.490   1.776   0.332 -0.1264 -1.2739 -1.6001
26299SOL    HW280511   1.527   1.765   0.479 -0.1385  1.6835 -1.2959
26300SOL     OW80512   2.054   4.784   3.503 -0.2721 -0.0921 -0.9045
26300SOL    HW180513   2.062   4.738   3.420  2.2205  0.8902 -1.3083
26300SOL    HW280514   2.114   4.738   3.562  0.5601  1.2202 -0.6725
26301SOL     OW80515   4.388   7.245   7.339  0.1774  0.1821 -0.2544
26301SOL    HW180516   4.358   7.281   7.256  0.2131 -0.3402 -0.5005
26301SOL    HW280517   4.432   7.318   7.383  0.3725  0.4007 -0.8025
26302SOL     OW80518   8.345   4.398   1.718 -0.4153 -0.4746  0.0221
26302SOL    HW180519   8.391   4.431   1.795 -2.3046  0.9393  0.6160
26302SOL    HW280520   8.286   4.469   1.692 -1.1185 -1.5927 -1.6481
26303SOL     OW80521   7.622   1.469   8.157  0.1159 -0.3335  0.2838
26303SOL    HW180522   7.680   1.408   8.110 -0.6080 -0.6734 -0.2018
26303SOL    HW280523   7.569   1.509   8.088 -0.7431 -0.5943  0.7808
26304SOL     OW80524   9.219   4.452   6.679 -0.3641  0.3842  0.2148
26304SOL    HW180525   9.197   4.362   6.658 -1.1232  0.4472  0.6936
26304SOL    HW280526   9.308   4.448   6.713  0.0405 -0.0182 -0.8459
26305SOL     OW80527   8.099   1.959   1.945 -0.1270  0.1513  0.1648
26305SOL    HW180528   8.091   1.884   2.004 -1.5135  0.7725  0.8103
26305SOL    HW280529   8.067   2.033   1.997 -0.3220  0.9054 -1.0043
26306SOL     OW80530   5.339   6.806   4.517 -0.1830  0.1482  0.2070
26306SOL    HW180531   5.391   6.732   4.549  0.3261  0.6617  0.5827
26306SOL    HW280532   5.390   6.883   4.541  0.2243  0.5846 -1.8038
26307SOL     OW80533   8.952   9.484   5.323  0.6097 -0.0228 -0.1405
26307SOL    HW180534   9.034   9.500   5.276  0.0775 -1.6445 -1.7283
26307SOL    HW280535   8.918   9.571   5.342  1.3315  0.7058 -1.9675
26308SOL     OW80536   5.000   8.796   0.485 -0.2798 -0.3056 -0.3852
26308SOL    HW180537   4.995   8.738   0.409  2.4587 -1.4998  0.2327
26308SOL    HW280538   5.073   8.854   0.466 -0.1910  0.0383  0.9246
26309SOL     OW80539   2.721   9.243   9.735  0.1552 -0.6429 -0.4760
26309SOL    HW180540   2.759   9.206   9.655 -0.8574 -1.3074 -0.6574
26309SOL    HW280541   2.761   9.193   9.806 -0.2317 -1.2111 -0.6557
26310SOL     OW80542   3.801   0.657   8.085  0.2576  0.1578  0.6871
26310SOL    HW180543   3.852   0.720   8.033  0.1216 -0.3678 -0.0980
26310SOL    HW280544   3.808   0.575   8.037 -0.3118 -0.2174  1.2306
26311SOL     OW80545   1.096   0.545   3.944  0.2833 -0.2076  0.2415
26311SOL    HW180546   1.056   0.578   3.863 -0.5133  0.9312  1.0844
26311SOL    HW280547   1.163   0.484   3.913 -1.6222 -1.6664 -1.2266
26312SOL     OW80548   7.733   2.558   7.412 -0.5156  0.4301  0.5457
26312SOL    HW180549   7.778   2.515   7.339  1.7879  0.0328  2.0884
26312SOL    HW280550   7.704   2.642   7.377  1.4101  0.6637 -0.5850
26313SOL     OW80551   5.462   9.235   0.236 -0.4997  0.6036  0.4442
26313SOL    HW180552   5.434   9.169   0.172  0.5673  0.8714 -0.3169
26313SOL    HW280553   5.381   9.280   0.261 -0.7081  1.9285 -2.3215
26314SOL     OW80554   7.912   9.321   7.427 -0.1032  0.1826  0.2926
26314SOL    HW180555   7.838   9.297   7.483 -1.7508  2.4928 -0.7505
26314SOL    HW280556   7.989   9.315   7.485 -1.0367 -2.2135  1.4175
26315SOL     OW80557   9.528   4.765   4.309 -0.3464  0.2572 -0.0756
26315SOL    HW180558   9.546   4.839   4.250 -0.4405  0.5082  0.2088
26315SOL    HW280559   9.535   4.802   4.397  1.6648 -0.5266  0.1468
26316SOL     OW80560   1.312   8.163   2.710  0.0944 -0.4333  0.6217
26316SOL    HW180561   1.381   8.177   2.644 -1.0711 -1.1573 -0.8023
26316SOL    HW280562   1.325   8.234   2.773  1.0673  0.4885 -0.5551
26317SOL     OW80563   9.080   7.415   1.871 -0.5333  0.3306 -0.3742
26317SOL    HW180564   9.050   7.503   1.893 -1.2990 -0.1444  0.5594
26317SOL    HW280565   9.000   7.363   1.867 -0.1793 -0.1553 -1.8038
26318SOL     OW80566   7.079   5.393   3.311  0.2447  0.1138 -0.0805
26318SOL    HW180567   7.002   5.430   3.269 -0.0111  2.3417  2.1212
26318SOL    HW280568   7.100   5.315   3.258 -2.9306 -0.0862 -1.2818
26319SOL     OW80569   8.003   0.452   0.602  0.1004  0.1100  0.1363
26319SOL    HW180570   7.961   0.432   0.519  0.5139  0.7496 -0.2376
26319SOL    HW280571   8.044   0.370   0.629 -1.1470 -0.4595  0.3806
26320SOL     OW80572   3.484   4.683   0.084 -0.1094  0.1811  0.0430
26320SOL    HW180573   3.454   4.773   0.088 -1.0413 -0.1596  2.3677
26320SOL    HW280574   3.409   4.631   0.113  1.3563 -1.0242  1.9670
26321SOL     OW80575   9.267   0.696   3.892  0.0329  0.0385  0.1967
26321SOL    HW180576   9.324   0.748   3.835 -1.4135 -0.5261 -1.8694
26321SOL    HW280577   9.211   0.760   3.935  0.8469  0.4467  0.6623
26322SOL     OW80578   1.982   0.914   5.442  0.3196  0.3739 -0.1614
26322SOL    HW180579   1.977   0.819   5.449 -0.7607  0.5108  1.9557
26322SOL    HW280580   2.068   0.936   5.479  0.1918  0.2480  0.2235
26323SOL     OW80581   5.366   7.343   8.506 -0.1710  0.2220  0.2692
26323SOL    HW180582   5.433   7.370   8.443 -2.6029  0.9085 -2.2600
26323SOL    HW280583   5.394   7.381   8.589  2.4497  0.5681 -0.6663
26324SOL     OW80584   6.084   2.665   7.196  0.5837  0.0020 -0.2103
26324SOL    HW180585   6.110   2.655   7.288 -0.7898 -2.4511 -0.0006
26324SOL    HW280586   5.989   2.678   7.200  0.7979  2.4351 -1.2332
26325SOL     OW80587   4.769   3.832   7.756  0.1421 -0.2489 -0.3330
26325SOL    HW180588   4.684   3.802   7.724  0.5606 -2.4469  0.5014
26325SOL    HW280589   4.832   3.773   7.716  1.2959  1.1855 -0.7206
26326SOL     OW80590   7.486   4.971   5.264  0.2855  0.0269 -0.5034
26326SOL    HW180591   7.527   4.966   5.177 -0.2941 -0.4114 -0.7584
26326SOL    HW280592   7.556   4.947   5.325  1.3627  2.5691 -0.6318
26327SOL     OW80593   7.495   2.840   4.872  0.1731 -0.3836  0.1718
26327SOL    HW180594   7.454   2.775   4.929 -1.2035  0.3604  0.0736
26327SOL    HW280595   7.426   2.866   4.811  0.5965  1.3437  0.3713
26328SOL     OW80596   2.259   6.782   2.051 -0.3810  0.1495  0.5034
26328SOL    HW180597   2.265   6.687   2.035  2.4190  0.3600 -0.2949
26328SOL    HW280598   2.312   6.796   2.129 -0.6743  1.0874  0.5397
26329SOL     OW80599   2.508   1.680   9.583 -0.2291  0.2295  0.6664
26329SOL    HW180600   2.454   1.756   9.609  0.6771  0.6573  1.3536
26329SOL    HW280601   2.469   1.650   9.501 -1.1887  0.8567  0.8726
26330SOL     OW80602   1.421   7.776   0.879 -0.0337 -0.5363 -0.1947
26330SOL    HW180603   1.428   7.753   0.786  0.7814 -1.2614  0.0369
26330SOL    HW280604   1.393   7.696   0.922 -2.7248  0.3672 -0.0698
26331SOL     OW80605   7.208   6.910   4.325 -0.3241  0.3197  0.3390
26331SOL    HW180606   7.229   6.832   4.274 -0.2910  0.1527  0.6062
26331SOL    HW280607   7.245   6.893   4.411  1.6123  1.5707 -0.1975
26332SOL     OW80608   8.860   9.201   5.665 -0.5593 -0.0914 -0.4764
26332SOL    HW180609   8.771   9.180   5.639 -0.2691  0.1884 -1.7274
26332SOL    HW280610   8.914   9.136   5.621 -0.0421  0.4749 -0.6829
26333SOL     OW80611   8.820   2.042   8.454 -0.3234 -0.2221 -0.3495
26333SOL    HW180612   8.744   2.062   8.508 -0.0750 -0.7165  0.1843
26333SOL    HW280613   8.788   1.978   8.390 -0.1612 -1.0406  0.3825
26334SOL     OW80614   7.226   8.131   9.454  0.1287 -0.6400  0.1166
26334SOL    HW180615   7.136   8.144   9.484  0.4320  0.7187  0.4989
26334SOL    HW280616   7.224   8.158   9.362 -0.0599 -1.5867 -0.1702
26335SOL     OW80617   4.345   6.516   1.969  0.3386 -0.0098  0.2656
26335SOL    HW180618   4.303   6.602   1.974 -1.0393 -0.5661 -1.0684
26335SOL    HW280619   4.355   6.500   1.875  1.3005 -0.9935  0.5129
26336SOL     OW80620   4.353   8.348   4.545  0.0413 -0.0845  0.1428
26336SOL    HW180621   4.269   8.310   4.570  0.5041 -1.2947 -0.0714
26336SOL    HW280622   4.358   8.333   4.450  0.2007  0.5938  0.0404
26337SOL     OW80623   8.716   6.768   3.309  0.1964 -0.0053  0.5197
26337SOL    HW180624   8.734   6.799   3.398  0.0282  3.5694 -0.5323
26337SOL    HW280625   8.624   6.742   3.311  0.7847 -2.2513  1.8667
26338SOL     OW80626   7.729   5.687   7.557 -0.5007  0.0287 -0.3007
26338SOL    HW180627   7.797   5.750   7.579 -0.8863  1.1740 -2.1985
26338SOL    HW280628   7.658   5.704   7.619 -0.6494  1.6036 -0.8549
26339SOL     OW80629   8.347   3.381   1.598 -0.2447  0.4789 -0.1713
26339SOL    HW180630   8.419   3.412   1.653  0.0475 -0.1102 -0.2181
26339SOL    HW280631   8.268   3.413   1.642  0.0137  0.5499  0.2481
26340SOL     OW80632   9.566   2.463   4.904  0.0653  0.1257 -0.5412
26340SOL    HW180633   9.639   2.417   4.864 -0.6762 -1.4444 -0.1905
26340SOL    HW280634   9.512   2.393   4.941 -0.9685  1.3202  0.2805
26341SOL     OW80635   7.828   2.535   4.918  0.6079  0.0520  0.0278
26341SOL    HW180636   7.815   2.629   4.904 -0.2471 -0.2294 -1.2463
26341SOL    HW280637   7.786   2.517   5.002 -1.6114  0.3588 -0.9542
26342SOL     OW80638   0.430   1.941   2.242  0.4027  0.1360  0.4186
26342SOL    HW180639   0.522   1.917   2.233  0.4128  0.0590  0.7252
26342SOL    HW280640   0.387   1.860   2.270 -0.0239 -0.2616 -1.2449
26343SOL     OW80641   8.176   4.301   8.851 -0.0059 -0.1820  0.1242
26343SOL    HW180642   8.202   4.310   8.943  0.4254  0.5758 -0.0630
26343SOL    HW280643   8.246   4.345   8.802  0.6012 -1.9392 -0.6748
26344SOL     OW80644   4.055   6.068   6.463 -0.0232  0.7596 -0.1348
26344SOL    HW180645   3.962   6.051   6.449  0.4010  0.0266 -2.4612
26344SOL    HW280646   4.071   6.152   6.419  0.2419  1.3843  1.1172
26345SOL     OW80647   4.047   6.191   2.219  0.3679  0.6449 -0.0146
26345SOL    HW180648   4.028   6.109   2.173  0.8305  1.4407 -1.6692
26345SOL    HW280649   3.961   6.229   2.235  0.2465  1.0016 -1.4462
26346SOL     OW80650   9.013   2.411   4.784  0.0263 -0.0216 -0.4196
26346SOL    HW180651   9.102   2.378   4.776 -0.1779 -0.2992 -1.9240
26346SOL    HW280652   8.959   2.342   4.745 -1.0478 -0.6205  1.9340
26347SOL     OW80653   4.690   3.017   0.793  0.2559 -0.5729  0.2042
26347SOL    HW180654   4.770   3.008   0.846 -0.1692  3.6054  1.9739
26347SOL    HW280655   4.635   3.077   0.844 -2.5621 -0.5951 -2.5577
26348SOL     OW80656   3.101   7.868   9.607 -0.3110  0.2145  0.4994
26348SOL    HW180657   3.018   7.903   9.638 -0.1816  1.4456 -0.4807
26348SOL    HW280658   3.131   7.931   9.541  0.9313 -0.7032  0.1486
26349SOL     OW80659   8.343   0.301   1.888 -0.2287 -0.2088 -0.1540
26349SOL    HW180660   8.251   0.301   1.861  0.0550  1.3010 -1.2643
26349SOL    HW280661   8.387   0.359   1.825  1.8731 -2.4139 -0.9119
26350SOL     OW80662   1.687   0.540   2.116 -0.3612  0.8514  0.2520
26350SOL    HW180663   1.713   0.629   2.141 -0.6668  0.3707  2.4561
26350SOL    HW280664   1.646   0.551   2.030  1.1068  2.5762 -0.3167
26351SOL     OW80665   8.696   5.868   0.826 -0.0234  0.0352  0.4887
26351SOL    HW180666   8.763   5.828   0.882  1.1375  0.8951 -0.2499
26351SOL    HW280667   8.613   5.843   0.867  0.7021 -1.7186  0.9874
26352SOL     OW80668   2.141   5.804   3.293 -0.0910  0.7809 -0.4504
26352SOL    HW180669   2.226   5.761   3.288  0.1794  1.2572  0.0227
26352SOL    HW280670   2.080   5.739   3.257  0.2230 -0.2662  0.8227
26353SOL     OW80671   0.182   4.439   0.316  0.3144 -0.3479 -0.0150
26353SOL    HW180672   0.088   4.426   0.324  0.4110 -0.9639  0.1874
26353SOL    HW280673   0.206   4.394   0.235  0.1956  1.1860 -0.9438
26354SOL     OW80674   4.486   7.452   1.377  0.0029 -0.1902  0.4274
26354SOL    HW180675   4.472   7.461   1.283 -0.4602 -1.7891  0.3187
26354SOL    HW280676   4.558   7.511   1.396  0.4601 -0.2437 -1.0315
26355SOL     OW80677   3.178   4.462   0.641  0.2173  0.1894 -0.5066
26355SOL    HW180678   3.085   4.471   0.622 -0.1844 -0.8850  0.8372
26355SOL    HW280679   3.212   4.408   0.569 -0.5698 -0.9078 -0.0780
26356SOL     OW80680   1.529   9.044   1.623  0.1147 -0.1968 -0.4263
26356SOL    HW180681   1.484   9.125   1.599  1.7106  1.4965  1.8334
26356SOL    HW280682   1.483   9.014   1.702  0.5408 -0.5992 -0.3296
26357SOL     OW80683   9.571   8.106   0.226 -0.1402  0.4260 -0.1522
26357SOL    HW180684   9.580   8.018   0.263  1.1309  0.0987 -1.1253
26357SOL    HW280685   9.623   8.162   0.283 -0.4310  0.4242  0.1120
26358SOL     OW80686   1.009   9.214   4.229  0.1678  0.6287  0.0065
26358SOL    HW180687   0.963   9.291   4.196 -1.2544 -0.1165  0.1719
26358SOL    HW280688   0.983   9.208   4.321 -1.4151 -1.1625 -0.4794
26359SOL     OW80689   3.054   5.881   6.220  0.3003  0.1830 -0.5508
26359SOL    HW180690   3.090   5.926   6.296  2.2004 -0.5225 -0.9644
26359SOL    HW280691   3.037   5.950   6.156  1.0266  0.5561 -0.3547
26360SOL     OW80692   3.883   7.186   4.888  0.6371  0.0259 -0.0898
26360SOL    HW180693   3.874   7.250   4.959 -0.4836  0.2712 -0.4335
26360SOL    HW280694   3.794   7.173   4.856  0.8158 -1.7620  0.0114
26361SOL     OW80695   8.896   2.412   7.662  0.1529  0.0589 -0.4229
26361SOL    HW180696   8.835   2.467   7.710 -1.2211 -0.0854 -1.9040
26361SOL    HW280697   8.861   2.323   7.672 -1.0804  0.1898 -2.8591
26362SOL     OW80698   0.722   8.904   3.477  0.0472 -0.0476  0.1553
26362SOL    HW180699   0.781   8.918   3.403  0.7585 -1.7057  0.3523
26362SOL    HW280700   0.659   8.976   3.472  0.4195  0.2013 -1.7160
26363SOL     OW80701   0.441   8.645   2.312 -0.6590 -0.0046 -0.0389
26363SOL    HW180702   0.403   8.718   2.264 -1.0955 -0.3136 -0.1740
26363SOL    HW280703   0.449   8.575   2.247 -0.3058 -0.1001  0.1039
26364SOL     OW80704   2.352   4.718   0.143 -0.9488  0.1591 -0.1231
26364SOL    HW180705   2.411   4.654   0.102 -0.9180  0.1020  0.0087
26364SOL    HW280706   2.366   4.706   0.237 -2.7411 -1.3623  0.0178
26365SOL     OW80707   2.646   5.089   8.860 -0.1409 -0.7251  0.5496
26365SOL    HW180708   2.633   5.104   8.767  3.3693  0.3346  0.1160
26365SOL    HW280709   2.618   4.999   8.874 -0.0718 -1.1376 -1.6719
26366SOL     OW80710   6.999   2.906   6.096  0.2593 -0.7224 -0.0177
26366SOL    HW180711   6.932   2.838   6.082 -0.6070  0.2438 -0.7561
26366SOL    HW280712   7.044   2.912   6.012 -0.0463 -0.0109 -0.1376
26367SOL     OW80713   3.046   8.722   4.698 -0.2785  0.1646 -0.0514
26367SOL    HW180714   3.140   8.710   4.712 -0.4198 -0.3081  0.5434
26367SOL    HW280715   3.010   8.731   4.785 -0.9200 -0.7370 -0.2156
26368SOL     OW80716   6.466   9.754   7.703 -0.4269  0.1320 -0.1654
26368SOL    HW180717   6.531   9.736   7.772 -0.2688 -0.5359 -0.4891
26368SOL    HW280718   6.518   9.780   7.627 -0.5848  0.4076 -0.1836
26369SOL     OW80719   9.021   1.091   1.383 -0.6163 -0.3349 -0.0566
26369SOL    HW180720   9.012   1.087   1.478  1.9164  1.0299  0.3375
26369SOL    HW280721   8.992   1.179   1.360 -1.8041 -0.8678 -0.6686
26370SOL     OW80722   6.875   5.636   2.137  0.0958  0.6150 -0.1505
26370SOL    HW180723   6.862   5.565   2.074 -0.6105  1.1638 -0.6416
26370SOL    HW280724   6.880   5.592   2.222 -0.6758 -0.0038 -0.4114
26371SOL     OW80725   1.140   9.618   6.844 -0.6066  0.0461  0.1794
26371SOL    HW180726   1.226   9.597   6.806 -0.3861  0.2677  0.5474
26371SOL    HW280727   1.077   9.575   6.786 -0.1799 -1.6010  0.8816
26372SOL     OW80728   1.297   4.390   4.708  0.6022 -0.9571 -0.4470
26372SOL    HW180729   1.220   4.361   4.659 -1.1573  1.3765  0.7296
26372SOL    HW280730   1.282   4.359   4.797  0.3268  0.6047  0.0805
26373SOL     OW80731   3.250   8.887   7.144 -0.2185 -0.1297 -0.1706
26373SOL    HW180732   3.254   8.839   7.226  1.1189 -0.3865 -0.3627
26373SOL    HW280733   3.162   8.870   7.111  0.0280 -2.0476  0.0158
26374SOL     OW80734   9.482   6.506   1.389 -0.7511 -0.0005  0.2076
26374SOL    HW180735   9.559   6.558   1.412  0.2799 -1.3371 -0.0589
26374SOL    HW280736   9.423   6.567   1.346 -0.8818  1.5879  2.4883
26375SOL     OW80737   8.479   7.500   1.150  0.5620 -0.3758  0.3227
26375SOL    HW180738   8.532   7.571   1.112  0.7260 -0.2646  0.7580
26375SOL    HW280739   8.525   7.420   1.123  0.0015 -0.3607 -0.7513
26376SOL     OW80740   2.346   4.197   8.397  0.8585 -0.0924 -0.0257
26376SOL    HW180741   2.417   4.261   8.395  0.0585  0.9773  2.5107
26376SOL    HW280742   2.353   4.155   8.482 -1.6389  0.1830  0.4020
26377SOL     OW80743   3.730   4.897   2.689 -0.2617  0.4960  0.8463
26377SOL    HW180744   3.738   4.983   2.730 -0.9587  0.2493  1.5189
26377SOL    HW280745   3.681   4.914   2.608  0.3369  0.8509  0.5547
26378SOL     OW80746   7.537   3.538   9.511  0.1343  0.1871 -0.1773
26378SOL    HW180747   7.490   3.565   9.433  0.2699 -1.5933 -0.9187
26378SOL    HW280748   7.530   3.442   9.512 -0.9163  0.1974  2.6618
26379SOL     OW80749   8.280   2.255   3.358  0.1109 -0.0554 -0.2790
26379SOL    HW180750   8.218   2.183   3.349 -0.8391  0.9300 -2.3590
26379SOL    HW280751   8.228   2.334   3.342  1.4877  0.9702  0.0463
26380SOL     OW80752   7.467   1.229   5.072 -0.2566  0.1922  0.5499
26380SOL    HW180753   7.394   1.263   5.123 -0.5073  1.6657 -0.7497
26380SOL    HW280754   7.538   1.291   5.088 -0.2050  0.4171 -0.5285
26381SOL     OW80755   7.298   1.537   2.817  0.0060  0.0676  0.1053
26381SOL    HW180756   7.387   1.516   2.790 -0.0959 -0.0929 -0.1061
26381SOL    HW280757   7.254   1.563   2.736 -0.5860 -1.4012 -0.0803
26382SOL     OW80758   7.985   6.272   3.980 -0.0745 -0.1755  0.3724
26382SOL    HW180759   7.959   6.194   3.931  2.0130 -0.1737 -0.8561
26382SOL    HW280760   7.903   6.319   3.996 -1.3457 -2.4655  0.9318
26383SOL     OW80761   4.427   4.738   5.562  0.1589  0.1647  0.0479
26383SOL    HW180762   4.518   4.733   5.592  0.2282 -0.7254 -0.2710
26383SOL    HW280763   4.434   4.770   5.472  0.1315  0.4248  0.1380
26384SOL     OW80764   3.069   8.732   2.300 -0.2480 -0.4316 -0.5199
26384SOL    HW180765   3.028   8.648   2.321 -0.0642 -0.3755  0.0895
26384SOL    HW280766   3.039   8.792   2.369  0.8437 -0.3959 -0.0475
26385SOL     OW80767   9.062   4.848   1.146  0.2062  0.1370  0.4459
26385SOL    HW180768   9.039   4.854   1.238  0.1799  0.1776  0.4369
26385SOL    HW280769   8.979   4.863   1.100  0.3146  0.6308  0.4071
26386SOL     OW80770   0.084   2.865   3.107  0.1647 -0.4822 -0.0071
26386SOL    HW180771   0.169   2.850   3.148 -0.6627 -0.5149  1.7563
26386SOL    HW280772   0.028   2.796   3.142 -1.1476  0.8038  0.5259
26387SOL     OW80773   5.766   5.843   7.458 -0.2957  0.1776  0.5138
26387SOL    HW180774   5.856   5.824   7.431 -0.7276 -1.2710  0.0389
26387SOL    HW280775   5.770   5.933   7.490  1.4432 -0.0440  1.0401
26388SOL     OW80776   8.296   3.001   3.733  0.6245 -0.1544 -0.5153
26388SOL    HW180777   8.207   2.978   3.760  1.0243 -1.2711 -0.1071
26388SOL    HW280778   8.284   3.070   3.667 -0.5641 -0.7157 -0.9103
26389SOL     OW80779   3.823   5.905   9.605  0.0196 -0.3810 -0.6168
26389SOL    HW180780   3.830   5.921   9.510  0.4969  0.1430 -0.4965
26389SOL    HW280781   3.910   5.877   9.631 -0.1681 -0.7308 -0.3674
26390SOL     OW80782   5.168   4.932   3.621 -0.2057 -0.5365 -0.4251
26390SOL    HW180783   5.172   4.864   3.554  1.6451 -1.1023  0.2032
26390SOL    HW280784   5.130   4.888   3.697 -1.7649 -0.0475 -0.8893
26391SOL     OW80785   0.947   0.781   3.053 -0.0159  0.0595 -0.5512
26391SOL    HW180786   0.921   0.843   3.122  0.5261  0.7580 -0.9556
26391SOL    HW280787   0.875   0.718   3.049 -0.0378 -0.0009  0.6633
26392SOL     OW80788   1.837   6.815   5.917 -0.1930  0.2502  0.3344
26392SOL    HW180789   1.754   6.856   5.940 -0.6059 -1.9068  3.4455
26392SOL    HW280790   1.885   6.882   5.868 -2.7749  2.4488  0.5854
26393SOL     OW80791   7.676   4.357   2.320 -0.2191 -0.8335 -0.0993
26393SOL    HW180792   7.687   4.313   2.404 -1.8560 -0.9106  0.1007
26393SOL    HW280793   7.650   4.287   2.260  0.2783 -0.6624 -0.5200
26394SOL     OW80794   3.308   2.189   0.675 -0.2554 -0.6044 -0.0062
26394SOL    HW180795   3.294   2.253   0.746 -0.0478  0.1976 -0.6676
26394SOL    HW280796   3.400   2.164   0.684 -0.1057 -0.1650 -0.2480
26395SOL     OW80797   5.961   3.235   8.202 -0.6379 -0.0785 -0.3370
26395SOL    HW180798   5.939   3.193   8.119 -1.0403 -0.8516  0.1424
26395SOL    HW280799   5.981   3.326   8.179  0.7914 -0.6421 -1.4965
26396SOL     OW80800   0.574   9.121   1.968 -0.0616 -0.0050 -0.1197
26396SOL    HW180801   0.611   9.033   1.956  1.0352  0.6058 -1.4398
26396SOL    HW280802   0.485   9.104   2.001 -0.2477 -1.6648 -1.2970
26397SOL     OW80803   9.028   6.430   0.334 -0.4299  0.2044 -0.2707
26397SOL    HW180804   8.934   6.410   0.327 -0.2448 -0.1323 -3.0133
26397SOL    HW280805   9.061   6.420   0.244  2.1275  0.9136  0.5124
26398SOL     OW80806   1.578   2.663   0.009  0.1983 -0.6048 -0.1793
26398SOL    HW180807   1.599   2.601   0.079  0.6542 -1.8396 -1.3701
26398SOL    HW280808   1.544   2.609  -0.062 -0.4252  0.6369 -0.8555
26399SOL     OW80809   8.799   2.975   1.174  0.0851 -0.3989  0.0558
26399SOL    HW180810   8.804   3.068   1.153  1.6476  0.1217  2.3187
26399SOL    HW280811   8.757   2.935   1.098 -1.0753  2.2001 -0.7744
26400SOL     OW80812   4.703   4.642   2.469 -0.2701  0.2949  0.0206
26400SOL    HW180813   4.646   4.675   2.400  1.9094  0.1561 -1.9430
26400SOL    HW280814   4.681   4.549   2.477 -0.3348  0.2403 -0.7323
26401SOL     OW80815   2.174   0.292   9.519  0.0045 -0.1965  0.1665
26401SOL    HW180816   2.264   0.261   9.526  0.2156  0.4099  0.1512
26401SOL    HW280817   2.156   0.295   9.425  0.1781  0.2669  0.1445
26402SOL     OW80818   7.121   6.171   9.572 -0.1651  0.1402  0.2389
26402SOL    HW180819   7.136   6.157   9.665  0.1507  0.8040  0.2996
26402SOL    HW280820   7.174   6.248   9.551 -1.0087  0.5942 -0.2728
26403SOL     OW80821   8.184   4.039   9.541  0.0524  0.0065  0.1815
26403SOL    HW180822   8.170   4.004   9.629  2.3047  0.5610  0.8380
26403SOL    HW280823   8.177   4.134   9.552  1.2255  0.1285 -0.0308
26404SOL     OW80824   0.972   0.915   6.463  0.2265 -0.3174 -0.4241
26404SOL    HW180825   1.041   0.976   6.438 -0.2727  0.0652 -0.8761
26404SOL    HW280826   0.948   0.870   6.382 -0.7355  0.2568 -0.4723
26405SOL     OW80827   1.024   3.098   9.210  0.0447 -0.8549 -0.3143
26405SOL    HW180828   1.013   3.186   9.246 -0.0613  0.2353 -2.8112
26405SOL    HW280829   1.118   3.090   9.195 -0.1719 -0.1326 -2.3570
26406SOL     OW80830   9.052   2.926   3.334 -0.0670  0.1907 -0.0161
26406SOL    HW180831   9.029   2.844   3.290  1.6684  0.4084 -1.4284
26406SOL    HW280832   9.145   2.938   3.316 -0.0309  1.9207  1.0979
26407SOL     OW80833   9.022   1.538   3.041 -0.0969  0.1607  0.1459
26407SOL    HW180834   9.104   1.488   3.044 -0.8018 -1.1357 -1.1985
26407SOL    HW280835   9.047   1.625   3.073  2.2854  0.4040 -2.0025
26408SOL     OW80836   5.040   7.622   9.812  0.4013  0.2635  0.0392
26408SOL    HW180837   5.125   7.639   9.852  0.9890  0.3862 -1.2175
26408SOL    HW280838   5.048   7.534   9.774  0.5834  0.9221 -1.5473
26409SOL     OW80839   3.504   9.787   2.110 -0.6660  0.5240  0.6492
26409SOL    HW180840   3.564   9.761   2.180 -1.2485 -0.2352  0.8799
26409SOL    HW280841   3.419   9.798   2.154 -1.3083 -1.1157 -0.1054
26410SOL     OW80842   0.319   9.765   9.054  0.4129  0.4820 -0.5018
26410SOL    HW180843   0.380   9.740   9.124  0.3482 -2.8056 -1.4185
26410SOL    HW280844   0.376   9.785   8.980  0.4677 -0.7164 -0.8091
26411SOL     OW80845   5.630   7.813   9.675  0.2341  0.1167  0.0499
26411SOL    HW180846   5.537   7.790   9.670 -0.7973  3.4962  0.9827
26411SOL    HW280847   5.661   7.772   9.755 -1.3580  1.4571  1.4158
26412SOL     OW80848   1.501   2.785   9.147  0.3785 -0.3777 -0.1737
26412SOL    HW180849   1.457   2.868   9.133 -1.1134 -0.9357  0.8620
26412SOL    HW280850   1.494   2.739   9.063  0.8046  0.3435 -0.6103
26413SOL     OW80851   7.380   9.215   4.259 -0.0927 -0.0117 -0.0100
26413SOL    HW180852   7.388   9.129   4.218 -3.9011  0.0962 -1.3918
26413SOL    HW280853   7.286   9.231   4.262  0.2361  2.4385  3.9179
26414SOL     OW80854   5.909   8.390   7.335  0.0712  0.1326 -0.0617
26414SOL    HW180855   5.891   8.458   7.270  1.7778  0.7077  0.0198
26414SOL    HW280856   5.922   8.310   7.284 -1.5660 -0.1094 -0.1794
26415SOL     OW80857   0.806   0.677   8.274  0.1795 -0.1024  0.2225
26415SOL    HW180858   0.878   0.704   8.331  0.1603  0.0825  0.1608
26415SOL    HW280859   0.780   0.591   8.307  0.1645  0.0074  0.4969
26416SOL     OW80860   6.986   2.209   5.529  0.1291 -0.1291 -0.1913
26416SOL    HW180861   7.058   2.170   5.479 -0.0028  0.2291 -0.6603
26416SOL    HW280862   6.913   2.149   5.518  0.2118 -0.2444 -0.1136
26417SOL     OW80863   1.512   4.353   9.724 -0.3848  0.4699  0.4168
26417SOL    HW180864   1.498   4.377   9.633  1.7181  0.3570  0.0162
26417SOL    HW280865   1.579   4.414   9.755 -0.8099  0.2801  1.7836
26418SOL     OW80866   4.204   8.298   8.861  1.0959  0.1755  0.2946
26418SOL    HW180867   4.274   8.314   8.798  0.9430 -2.0838 -0.5486
26418SOL    HW280868   4.123   8.304   8.810  0.7197  1.4532  0.9853
26419SOL     OW80869   7.735   7.463   1.336 -0.3043  0.2523  0.7521
26419SOL    HW180870   7.810   7.516   1.364 -0.4830  0.8652  0.1154
26419SOL    HW280871   7.774   7.390   1.288 -0.0326 -0.4547  2.0121
26420SOL     OW80872   7.598   6.974   9.606 -0.4232 -0.2355 -0.1463
26420SOL    HW180873   7.557   7.036   9.547  0.7370 -0.9880 -1.8115
26420SOL    HW280874   7.686   7.009   9.621  0.3058 -1.5116 -1.2434
26421SOL     OW80875   2.777   2.053   3.205  1.2774 -0.2861 -0.6240
26421SOL    HW180876   2.706   2.063   3.141  1.7887 -1.5877 -1.4143
26421SOL    HW280877   2.769   2.131   3.261 -0.4301 -0.1286 -1.0239
26422SOL     OW80878   3.756   6.687   7.263 -0.3801  0.0342 -0.5620
26422SOL    HW180879   3.799   6.738   7.194  1.2802  0.6207  0.8459
26422SOL    HW280880   3.797   6.600   7.257 -0.4583 -0.0075 -0.4962
26423SOL     OW80881   1.797   7.475   8.188  0.3695 -0.4035 -0.1898
26423SOL    HW180882   1.819   7.557   8.233  1.3647  0.8004 -2.6720
26423SOL    HW280883   1.703   7.481   8.171 -0.1853 -1.2142  2.2083
26424SOL     OW80884   7.985   2.170   2.044  0.2385  0.0531 -0.2925
26424SOL    HW180885   8.033   2.217   2.112  0.1973  0.4657 -0.5434
26424SOL    HW280886   7.927   2.236   2.006  1.7796  0.3898 -2.1882
26425SOL     OW80887   4.740   3.558   8.155 -0.1408  0.5641 -0.2632
26425SOL    HW180888   4.691   3.628   8.196  0.2355 -0.1397  1.4493
26425SOL    HW280889   4.686   3.532   8.080 -0.4626  2.3803 -0.7045
26426SOL     OW80890   5.887   6.900   8.673 -0.2717  0.0903  0.1136
26426SOL    HW180891   5.808   6.845   8.679 -1.0511  1.2042  0.3666
26426SOL    HW280892   5.892   6.944   8.758  1.0075 -0.4464  0.3388
26427SOL     OW80893   0.146   4.796   5.867  0.0787  0.6893  0.6943
26427SOL    HW180894   0.229   4.840   5.886  0.3334  0.2904  0.5203
26427SOL    HW280895   0.104   4.786   5.953  1.9682 -2.6071  1.4091
26428SOL     OW80896   5.018   9.578   1.566 -0.1822  0.2495 -0.1995
26428SOL    HW180897   4.941   9.559   1.512 -0.0355  1.0191 -0.6955
26428SOL    HW280898   4.992   9.653   1.619 -0.2349 -0.3384  0.6426
26429SOL     OW80899   6.269   6.136   4.234  0.5150 -0.3005 -0.1653
26429SOL    HW180900   6.189   6.185   4.254  0.4836  1.3840 -3.6224
26429SOL    HW280901   6.302   6.177   4.154  4.3065 -1.6357  0.5390
26430SOL     OW80902   2.579   8.101   2.955 -0.0045 -0.2113  0.0907
26430SOL    HW180903   2.525   8.175   2.984  0.6300  0.2525  0.1315
26430SOL    HW280904   2.602   8.123   2.865  1.1009  0.2008  0.4582
26431SOL     OW80905   8.822   0.935   8.493 -0.4182 -0.0332 -0.1989
26431SOL    HW180906   8.789   0.922   8.404 -0.4892 -1.2934 -0.0095
26431SOL    HW280907   8.874   0.856   8.510  2.1269  1.5273 -0.2262
26432SOL     OW80908   9.205   2.410   1.291  0.1590 -0.1932 -0.0915
26432SOL    HW180909   9.201   2.418   1.196  0.3532 -2.3298 -0.3189
26432SOL    HW280910   9.216   2.317   1.307  0.6161  0.1717  2.0251
26433SOL     OW80911   3.750   7.236   5.755  0.6107  0.2863 -0.3541
26433SOL    HW180912   3.716   7.150   5.779  0.5114  0.1294 -1.0442
26433SOL    HW280913   3.828   7.247   5.810 -0.6910  0.7898  1.4946
26434SOL     OW80914   1.814   9.561   5.516  0.0887  0.1014  0.5076
26434SOL    HW180915   1.899   9.521   5.495  0.1481 -0.8623  2.3961
26434SOL    HW280916   1.819   9.648   5.476  2.4680  0.5337  1.5350
26435SOL     OW80917   0.782   7.219   6.894 -0.3791  0.1161 -0.1642
26435SOL    HW180918   0.749   7.294   6.943 -0.2645  0.0944 -0.0525
26435SOL    HW280919   0.873   7.210   6.922 -0.6216 -0.5635  0.4375
26436SOL     OW80920   2.294   0.739   1.561 -0.6020 -0.1223  0.0170
26436SOL    HW180921   2.368   0.799   1.564  0.0586 -0.8810 -0.7369
26436SOL    HW280922   2.302   0.688   1.642 -0.3212 -0.1866 -0.0516
26437SOL     OW80923   5.366   0.830   0.305  0.3815  0.7604 -0.0112
26437SOL    HW180924   5.380   0.925   0.300 -1.7100  1.0647 -1.6084
26437SOL    HW280925   5.416   0.795   0.231  0.6284  0.6855  0.1898
26438SOL     OW80926   6.020   5.817   9.507  0.1054 -0.1633 -0.1080
26438SOL    HW180927   6.077   5.893   9.495  2.3756 -1.8129 -0.3475
26438SOL    HW280928   6.014   5.807   9.602 -0.8981  0.7523 -0.0494
26439SOL     OW80929   6.674   6.460   7.919 -0.7466  0.5907 -0.2376
26439SOL    HW180930   6.609   6.456   7.989 -0.5345  1.1673 -0.0013
26439SOL    HW280931   6.756   6.433   7.960 -0.8383 -0.1696 -0.5431
26440SOL     OW80932   5.241   3.155   8.439  0.1216  0.3963  0.1227
26440SOL    HW180933   5.167   3.109   8.400  0.4968 -0.1463  0.0394
26440SOL    HW280934   5.231   3.142   8.533  0.9630 -1.0361  0.0435
26441SOL     OW80935   6.007   5.151   8.579  0.4718  0.2628 -0.0817
26441SOL    HW180936   6.006   5.073   8.524  3.8109  0.4628 -0.6199
26441SOL    HW280937   6.034   5.120   8.665  0.8777  0.6576 -0.0569
26442SOL     OW80938   3.770   8.485   6.590 -0.4776 -0.1962  0.2233
26442SOL    HW180939   3.859   8.507   6.564 -0.8006  0.7765 -0.1103
26442SOL    HW280940   3.728   8.456   6.509 -0.8865  0.8324  0.0414
26443SOL     OW80941   5.304   8.013   1.843 -0.6589 -0.7564  0.2980
26443SOL    HW180942   5.309   7.929   1.797  0.6559 -0.1881 -0.6462
26443SOL    HW280943   5.395   8.043   1.850 -1.2091  1.4405 -1.0081
26444SOL     OW80944   5.121   3.791   3.650 -0.9030 -0.4025  0.0892
26444SOL    HW180945   5.140   3.700   3.627 -0.1773 -0.2944  0.2343
26444SOL    HW280946   5.204   3.824   3.686 -1.5037 -0.0518  1.1899
26445SOL     OW80947   4.857   5.574   9.795 -1.0590  0.2300 -0.2184
26445SOL    HW180948   4.801   5.517   9.847 -0.4180 -1.1492 -0.9712
26445SOL    HW280949   4.942   5.570   9.838 -0.9334  0.3735 -0.4467
26446SOL     OW80950   0.285   5.225   0.914  0.7325  0.1035  0.1750
26446SOL    HW180951   0.262   5.315   0.892  0.9912  0.0982 -0.1355
26446SOL    HW280952   0.350   5.233   0.984  1.0422  0.1725 -0.1184
26447SOL     OW80953   9.053   6.186   8.980  0.4931  0.0524 -0.1992
26447SOL    HW180954   9.052   6.278   9.006 -1.0067 -0.3735  1.4262
26447SOL    HW280955   9.146   6.164   8.975  1.0048  2.2648 -3.1461
26448SOL     OW80956   6.512   8.888   5.302 -0.6121  0.1107 -0.5899
26448SOL    HW180957   6.513   8.922   5.213 -0.4472  0.4786 -0.4507
26448SOL    HW280958   6.482   8.798   5.294 -1.0644  0.2951 -0.9659
26449SOL     OW80959   7.483   1.223   9.437  0.5199 -0.3171 -0.2331
26449SOL    HW180960   7.489   1.130   9.458  1.1708 -0.3556 -0.5787
26449SOL    HW280961   7.550   1.264   9.492  1.0385 -0.2045 -0.9423
26450SOL     OW80962   6.031   4.926   8.441 -0.0967  0.3614 -0.2287
26450SOL    HW180963   6.020   4.836   8.469 -0.5635  0.9180  1.5033
26450SOL    HW280964   5.964   4.939   8.374 -1.0656 -0.1461  0.6174
26451SOL     OW80965   5.655   8.733   4.365  0.0616 -0.4865  0.0773
26451SOL    HW180966   5.615   8.662   4.314  0.5613 -0.9612  0.3357
26451SOL    HW280967   5.740   8.748   4.323 -0.6594  1.0124 -0.9138
26452SOL     OW80968   4.139   9.254   7.122 -0.1967 -0.1338 -0.3370
26452SOL    HW180969   4.215   9.196   7.115  0.0945  0.2587 -0.4823
26452SOL    HW280970   4.177   9.342   7.132 -0.6125 -0.1654  2.1089
26453SOL     OW80971   0.029   8.310   2.822 -0.3955  0.3133  0.3304
26453SOL    HW180972   0.069   8.249   2.760  0.0981 -0.5086  1.4264
26453SOL    HW280973  -0.065   8.293   2.815 -0.3503  0.2714 -0.2244
26454SOL     OW80974   4.746   6.577   6.304 -0.5343 -0.0493 -0.3244
26454SOL    HW180975   4.721   6.486   6.318  0.4368 -0.4511 -1.1157
26454SOL    HW280976   4.781   6.605   6.389 -0.2425 -0.6080 -0.2576
26455SOL     OW80977   7.884   8.947   9.127  0.3052  0.2300  0.4072
26455SOL    HW180978   7.969   8.987   9.147 -0.9195  4.3522 -1.4849
26455SOL    HW280979   7.827   8.973   9.200 -0.2078  0.8553 -0.2011
26456SOL     OW80980   7.729   0.227   3.426  0.6622 -0.0931 -0.4928
26456SOL    HW180981   7.780   0.149   3.402  2.3407  0.5162  0.8743
26456SOL    HW280982   7.745   0.289   3.355 -1.2293 -1.1435 -1.9428
26457SOL     OW80983   4.992   6.473   0.334 -0.2504 -0.1771  0.2541
26457SOL    HW180984   5.028   6.384   0.335 -0.0209 -0.1983 -2.2567
26457SOL    HW280985   4.899   6.462   0.316 -0.5687  0.0729  1.6144
26458SOL     OW80986   6.149   4.953   4.563 -0.7205  0.1871  0.6766
26458SOL    HW180987   6.243   4.944   4.577 -0.7301 -0.4858  0.3240
26458SOL    HW280988   6.142   5.021   4.496 -0.5013  0.4827  0.9516
26459SOL     OW80989   3.638   2.602   7.769  0.0821  0.3840  0.1589
26459SOL    HW180990   3.556   2.627   7.727 -0.6961 -2.3680 -0.1454
26459SOL    HW280991   3.700   2.669   7.743 -1.7169  1.7541 -0.7926
26460SOL     OW80992   3.878   6.944   4.721 -0.0707 -0.1899  0.2669
26460SOL    HW180993   3.961   6.991   4.724 -0.9302  1.3584  2.7276
26460SOL    HW280994   3.836   6.973   4.640  0.9798  0.4369 -0.0666
26461SOL     OW80995   2.167   4.238   5.105  0.2375  0.3472  0.3619
26461SOL    HW180996   2.175   4.185   5.026 -0.3643 -0.6045  0.9227
26461SOL    HW280997   2.199   4.324   5.079 -2.5738  0.9067 -1.7860
26462SOL     OW80998   3.214   3.477   4.505  0.3460 -0.1698  0.0574
26462SOL    HW180999   3.149   3.407   4.514  0.4806 -0.1737  1.1630
26462SOL    HW281000   3.174   3.540   4.446 -0.6194 -0.2258  0.6310
26463SOL     OW81001   1.025   8.163   7.481 -0.8203 -0.0098  0.2397
26463SOL    HW181002   1.013   8.230   7.548 -2.4884 -0.3176  0.2977
26463SOL    HW281003   0.997   8.082   7.523 -1.5619 -0.2638 -0.7040
26464SOL     OW81004   7.290   6.804   2.266  0.0806  0.1828 -0.2598
26464SOL    HW181005   7.350   6.742   2.227  0.5679 -1.1725  2.4180
26464SOL    HW281006   7.248   6.756   2.338 -0.9613  2.3751  0.7121
26465SOL     OW81007   9.332   8.639   7.627 -0.4753 -0.4683 -0.0488
26465SOL    HW181008   9.290   8.672   7.548  0.2659  0.6882  0.0180
26465SOL    HW281009   9.421   8.674   7.624 -0.4774 -0.2574  1.3557
26466SOL     OW81010   0.495   1.248   3.498 -0.5256  0.2108  0.0396
26466SOL    HW181011   0.495   1.341   3.519  2.5625  0.3645 -0.1705
26466SOL    HW281012   0.504   1.205   3.583 -0.6614  0.1762  0.0364
26467SOL     OW81013   2.815   4.503   2.893 -0.0414 -0.0674 -0.2764
26467SOL    HW181014   2.894   4.476   2.940  0.6235  0.8334 -0.8406
26467SOL    HW281015   2.746   4.446   2.927  1.0515 -1.6235 -0.5503
26468SOL     OW81016   4.179   8.108   3.132 -0.2842  0.6638 -0.3749
26468SOL    HW181017   4.188   8.130   3.225 -0.8117 -1.2829  0.1849
26468SOL    HW281018   4.092   8.139   3.109 -1.4182 -1.5079  0.6640
26469SOL     OW81019   3.975   5.470   4.417  0.4140  0.1918 -0.3714
26469SOL    HW181020   4.070   5.478   4.422  0.4619 -0.2539 -0.5211
26469SOL    HW281021   3.960   5.384   4.379 -0.0704 -0.1134  0.4926
26470SOL     OW81022   8.439   1.683   5.383 -0.5825  0.1098 -0.0203
26470SOL    HW181023   8.420   1.756   5.324 -1.8534  0.2234  0.4970
26470SOL    HW281024   8.459   1.725   5.466  0.0578 -0.0904 -0.0717
26471SOL     OW81025   3.283   1.512   3.363  0.6064  0.1845 -0.2885
26471SOL    HW181026   3.273   1.607   3.353  1.6310  0.1783 -1.7449
26471SOL    HW281027   3.333   1.485   3.286  0.9769 -1.4407  0.4758
26472SOL     OW81028   4.965   7.540   4.984  0.5627  0.2559 -0.1213
26472SOL    HW181029   5.026   7.566   4.915  2.0383 -0.6940  0.7770
26472SOL    HW281030   4.994   7.453   5.012 -0.9107 -0.0215  0.6806
26473SOL     OW81031   4.765   5.346   5.829  0.1482  0.6772 -0.7327
26473SOL    HW181032   4.815   5.428   5.829 -0.0175  0.8216  0.9620
26473SOL    HW281033   4.800   5.297   5.903 -0.6522 -0.2141 -0.9300
26474SOL     OW81034   7.533   0.047   0.053 -0.0300 -0.1661 -0.3771
26474SOL    HW181035   7.568   0.121   0.004 -0.8048  0.1784 -0.4170
26474SOL    HW281036   7.475   0.003  -0.008 -2.0372  1.0278  0.5876
26475SOL     OW81037   1.226   5.532   2.435 -0.0917  0.4534  0.7127
26475SOL    HW181038   1.162   5.592   2.396 -0.2843 -0.4818 -0.4725
26475SOL    HW281039   1.173   5.473   2.490 -0.0151  0.7670  1.1315
26476SOL     OW81040   7.557   7.495   6.763  0.1629 -0.1027  0.4351
26476SOL    HW181041   7.592   7.406   6.757 -0.8291 -0.4703 -0.0683
26476SOL    HW281042   7.629   7.546   6.798  1.9709 -0.4160 -2.4677
26477SOL     OW81043   5.051   1.034   1.894 -0.6068 -0.6062  0.1094
26477SOL    HW181044   5.044   0.957   1.950 -0.8359  0.1071  1.0751
26477SOL    HW281045   5.001   1.010   1.815 -0.4552 -1.5316  0.2784
26478SOL     OW81046   9.072   3.374   9.441  0.1036 -0.4358 -0.6686
26478SOL    HW181047   8.997   3.388   9.382  0.7603 -1.6693 -1.8348
26478SOL    HW281048   9.144   3.420   9.399  0.0478  0.7373  0.4494
26479SOL     OW81049   5.349   5.447   6.389  0.2843 -0.3655 -0.8518
26479SOL    HW181050   5.290   5.508   6.345 -1.0836  1.7693  3.4220
26479SOL    HW281051   5.292   5.392   6.442  1.9053 -0.0848  1.3102
26480SOL     OW81052   7.336   8.685   9.769  0.4937 -0.1859 -0.5530
26480SOL    HW181053   7.394   8.708   9.841 -0.8895  1.7522  0.0183
26480SOL    HW281054   7.364   8.742   9.697  0.6460 -0.7630 -0.9577
26481SOL     OW81055   3.674   6.832   6.286  0.3873 -0.4204 -0.4223
26481SOL    HW181056   3.762   6.814   6.253  1.8095  3.7190  0.4505
26481SOL    HW281057   3.626   6.866   6.210  0.4780  0.0132 -0.2848
26482SOL     OW81058   1.877   8.654   2.928 -0.3712 -0.6237 -0.1244
26482SOL    HW181059   1.892   8.703   2.847  0.4610 -1.3459 -0.4246
26482SOL    HW281060   1.957   8.668   2.979 -0.0999 -1.7103 -0.2415
26483SOL     OW81061   5.225   2.877   6.018  0.0709 -0.6106  0.1514
26483SOL    HW181062   5.247   2.807   5.957  0.4111 -0.1038 -0.3161
26483SOL    HW281063   5.141   2.911   5.986 -0.6656 -1.5254  1.0314
26484SOL     OW81064   3.018   6.049   2.703  0.0470  0.2479 -0.9003
26484SOL    HW181065   2.986   5.966   2.738 -1.2180  1.6924  1.6219
26484SOL    HW281066   3.112   6.049   2.722 -0.4720  0.6569  2.0298
26485SOL     OW81067   4.987   6.947   5.510 -0.0408 -0.1241 -0.3080
26485SOL    HW181068   4.986   7.043   5.508 -0.8510 -0.1006  0.4349
26485SOL    HW281069   5.054   6.922   5.446  0.1451  0.9327 -0.5461
26486SOL     OW81070   2.788   7.052   7.913 -0.3005 -0.1463  0.3562
26486SOL    HW181071   2.811   6.974   7.862  0.3890  0.8040 -0.8471
26486SOL    HW281072   2.871   7.089   7.941 -0.6232  0.1501  0.9496
26487SOL     OW81073   5.875   2.962   4.350 -0.0743  0.1621  0.0331
26487SOL    HW181074   5.895   2.877   4.389  2.7153  1.1160  0.8678
26487SOL    HW281075   5.831   2.941   4.268 -0.4893 -2.0300  0.7546
26488SOL     OW81076   6.620   8.976   0.034  0.0638  0.0425 -0.1742
26488SOL    HW181077   6.663   9.024   0.105  0.7683 -0.4087 -0.2787
26488SOL    HW281078   6.545   9.030   0.010  0.4934  0.7835  0.1156
26489SOL     OW81079   8.228   0.702   5.252 -0.1835  0.1357 -0.0144
26489SOL    HW181080   8.157   0.745   5.204 -0.6861 -0.5506  0.1002
26489SOL    HW281081   8.286   0.774   5.278  1.7484  0.3711 -4.1612
26490SOL     OW81082   8.058   5.888   5.942  0.3552  0.1583  0.1992
26490SOL    HW181083   8.143   5.932   5.944 -0.4003  1.6630  0.2396
26490SOL    HW281084   8.067   5.823   5.873  0.9886  1.5284 -1.0693
26491SOL     OW81085   6.866   8.364   0.474 -0.3988  0.2401  0.1910
26491SOL    HW181086   6.878   8.459   0.477  1.1329  0.0554  2.1784
26491SOL    HW281087   6.910   8.336   0.394 -2.2889  1.3103 -1.3053
26492SOL     OW81088   6.104   9.128   5.183 -0.3139 -0.0042 -0.1792
26492SOL    HW181089   6.075   9.219   5.189 -1.2975 -0.3268  0.2675
26492SOL    HW281090   6.192   9.133   5.145  0.7391  1.2972  2.2493
26493SOL     OW81091   3.659   6.286   2.710 -0.1784  0.3410 -0.0130
26493SOL    HW181092   3.653   6.382   2.708 -0.7971  0.2966 -0.7341
26493SOL    HW281093   3.751   6.268   2.692  0.2957  0.8244  1.6844
26494SOL     OW81094   0.096   0.470   2.683 -0.1861 -0.2446  0.7169
26494SOL    HW181095   0.032   0.408   2.648 -0.6445  1.7053 -2.2667
26494SOL    HW281096   0.167   0.470   2.620  0.2338  1.5299  1.1168
26495SOL     OW81097   4.520   3.400   1.211  0.1380  0.4801  0.4978
26495SOL    HW181098   4.557   3.484   1.237  1.3950  0.4601 -1.0284
26495SOL    HW281099   4.456   3.421   1.144 -0.0759  0.2732  0.6368
26496SOL     OW81100   8.074   9.154   1.302 -0.0012  0.0842 -0.0654
26496SOL    HW181101   8.040   9.140   1.390 -2.9436 -0.9988 -1.2743
26496SOL    HW281102   8.064   9.070   1.258 -1.4509  1.3264 -2.2914
26497SOL     OW81103   2.939   2.181   5.863 -0.4278 -0.4016  0.2548
26497SOL    HW181104   2.985   2.147   5.939 -1.6905 -1.1038  0.7219
26497SOL    HW281105   3.001   2.169   5.790 -0.7297 -3.6647  0.3794
26498SOL     OW81106   5.746   1.999   8.511 -0.3839 -0.2760 -0.2290
26498SOL    HW181107   5.663   1.953   8.526 -0.4470 -0.1283 -0.1176
26498SOL    HW281108   5.728   2.057   8.437 -0.7031  0.5416  0.4739
26499SOL     OW81109   8.573   9.761   5.952 -0.6475  0.0397 -0.2242
26499SOL    HW181110   8.512   9.689   5.971  1.5912 -2.4726 -1.9008
26499SOL    HW281111   8.577   9.811   6.034 -0.1992 -3.4249  2.0653
26500SOL     OW81112   0.511   8.538   8.761  0.5700 -0.0162 -0.4879
26500SOL    HW181113   0.496   8.627   8.793 -0.0961 -0.5510  0.7589
26500SOL    HW281114   0.502   8.544   8.666  0.6315  1.2534 -0.4228
26501SOL     OW81115   2.043   7.591   0.023 -0.1382  0.0083  0.2696
26501SOL    HW181116   1.972   7.560  -0.033  0.8024  1.4845 -1.8561
26501SOL    HW281117   2.004   7.663   0.073  0.0096  1.4668 -1.5902
26502SOL     OW81118   9.571   8.563   3.748  0.1554  0.1371 -0.4436
26502SOL    HW181119   9.547   8.620   3.821  0.5768 -0.0691 -0.1444
26502SOL    HW281120   9.532   8.605   3.671 -0.3976  0.2865 -0.0874
26503SOL     OW81121   0.732   1.211   2.041 -0.2755 -0.4523 -0.4163
26503SOL    HW181122   0.703   1.166   2.121 -1.3239 -0.6208 -0.8735
26503SOL    HW281123   0.827   1.200   2.041 -0.1037  0.6026  1.4323
26504SOL     OW81124   3.084   6.198   9.085  0.1932  0.2664  0.4962
26504SOL    HW181125   3.106   6.241   9.002 -0.5734  1.1459  0.7484
26504SOL    HW281126   3.112   6.107   9.072 -0.4032  0.2613 -0.9283
26505SOL     OW81127   1.250   2.477   4.906 -0.1315 -0.4018 -0.0957
26505SOL    HW181128   1.295   2.554   4.943 -1.8292  0.2019  0.8399
26505SOL    HW281129   1.319   2.429   4.861  1.5106  0.3320  1.4732
26506SOL     OW81130   9.613   6.032   5.578  0.1481 -0.0856  0.4844
26506SOL    HW181131   9.568   6.017   5.495  0.3693 -1.3944  0.5770
26506SOL    HW281132   9.701   6.062   5.553  1.0897 -2.8554  0.1054
26507SOL     OW81133   8.943   0.033   9.650  0.0819  0.0412  0.5204
26507SOL    HW181134   9.030   0.009   9.618 -0.1501 -3.6789  2.1920
26507SOL    HW281135   8.960   0.079   9.732  0.5149 -0.3311  0.6477
26508SOL     OW81136   4.238   1.567   8.095  0.0869  0.3432  0.1013
26508SOL    HW181137   4.303   1.631   8.125 -0.6262  0.5090  1.3806
26508SOL    HW281138   4.176   1.618   8.043  0.5437  0.3364 -0.4495
26509SOL     OW81139   4.916   6.803   1.755  0.4871  0.6702 -0.5147
26509SOL    HW181140   4.856   6.829   1.825  0.7008  1.0444 -0.4724
26509SOL    HW281141   4.970   6.734   1.795  0.0230  0.2549 -0.5853
26510SOL     OW81142   1.643   7.533   1.823  0.2909  0.1982  0.0112
26510SOL    HW181143   1.678   7.588   1.893  2.4579  0.7042 -1.3641
26510SOL    HW281144   1.619   7.451   1.866  2.3894  0.1697  1.2470
26511SOL     OW81145   4.808   5.536   8.367 -0.5180  0.2491  0.5262
26511SOL    HW181146   4.873   5.498   8.426  0.2950  0.4826 -0.1951
26511SOL    HW281147   4.766   5.460   8.326 -1.0717  0.0873  1.3703
26512SOL     OW81148   0.583   0.451   1.660 -0.7165 -0.1962  0.0085
26512SOL    HW181149   0.534   0.369   1.662 -1.2575  0.1251  0.1603
26512SOL    HW281150   0.670   0.426   1.628 -1.4186 -0.5588 -1.7451
26513SOL     OW81151   6.938   6.625   4.287 -0.7963 -0.1548  0.0670
26513SOL    HW181152   6.925   6.704   4.235  2.1639  0.0721 -0.4867
26513SOL    HW281153   6.914   6.652   4.376 -2.1290  0.6156 -0.4929
26514SOL     OW81154   3.991   4.141   0.888 -0.0021  0.2765 -0.0620
26514SOL    HW181155   3.898   4.121   0.894  0.1499 -0.1215  4.1472
26514SOL    HW281156   3.994   4.233   0.861 -1.6921  0.5651  0.5819
26515SOL     OW81157   3.923   6.047   3.082  0.3657  0.4050  0.2929
26515SOL    HW181158   3.979   5.972   3.101 -1.8883 -1.0806  1.5266
26515SOL    HW281159   3.968   6.093   3.011  2.2317 -1.6461  0.0321
26516SOL     OW81160   9.683   5.650   1.644 -0.4371 -0.2202 -0.0031
26516SOL    HW181161   9.678   5.656   1.549 -2.8258  2.2180  0.1579
26516SOL    HW281162   9.638   5.568   1.665 -0.2422 -0.5835 -0.9426
26517SOL     OW81163   0.805   1.876   1.269  0.0049 -0.1616 -0.3695
26517SOL    HW181164   0.806   1.972   1.264 -0.7259 -0.1126  0.2443
26517SOL    HW281165   0.873   1.855   1.333 -2.6316  0.2348  2.8356
26518SOL     OW81166   8.083   7.558   6.470  0.0591  0.5114  0.2949
26518SOL    HW181167   7.993   7.583   6.448 -0.6272 -0.7207  1.5451
26518SOL    HW281168   8.121   7.638   6.507 -0.8414  0.7994  0.6462
26519SOL     OW81169   5.957   0.070   1.864  0.1672 -0.3210  0.1388
26519SOL    HW181170   6.030   0.009   1.875  1.7999  1.2925 -1.0401
26519SOL    HW281171   5.915   0.073   1.950  1.2220 -1.6483  0.7257
26520SOL     OW81172   9.476   7.822   2.988 -0.6204  0.2192 -0.1764
26520SOL    HW181173   9.533   7.810   2.913  0.5810  1.1007  0.5598
26520SOL    HW281174   9.472   7.736   3.030  1.2827  0.4066  0.5004
26521SOL     OW81175   9.168   3.047   5.418 -0.3608 -0.0769  0.5505
26521SOL    HW181176   9.195   2.966   5.462  0.7806  0.6973  1.3199
26521SOL    HW281177   9.224   3.052   5.340  0.8262  0.8338  1.4264
26522SOL     OW81178   9.088   0.529   3.710  0.2655 -0.1661 -0.2395
26522SOL    HW181179   9.129   0.610   3.680  3.0564 -1.5329 -0.5065
26522SOL    HW281180   9.101   0.529   3.805 -1.0376  0.3302 -0.0470
26523SOL     OW81181   4.650   2.686   2.298 -0.0845 -0.4342 -0.6494
26523SOL    HW181182   4.626   2.650   2.213  0.7090  0.9439 -1.5064
26523SOL    HW281183   4.692   2.770   2.277  0.1368 -0.0687  1.1031
26524SOL     OW81184   8.911   5.239   8.047  0.2593  0.5221 -0.5929
26524SOL    HW181185   8.901   5.334   8.048 -1.9495  0.3522 -1.0073
26524SOL    HW281186   8.862   5.209   8.123 -0.9583 -0.3823 -1.6879
26525SOL     OW81187   0.036   1.580   4.855  0.0284  0.2537  0.2695
26525SOL    HW181188  -0.059   1.577   4.867  0.0305 -1.5356  0.0129
26525SOL    HW281189   0.050   1.556   4.764  0.7625 -0.3646  0.5290
26526SOL     OW81190   9.363   1.360   8.894  0.1847 -0.2559 -0.6364
26526SOL    HW181191   9.377   1.371   8.988 -1.2155  0.9032 -0.5413
26526SOL    HW281192   9.385   1.268   8.877 -0.9599 -0.8921  1.1008
26527SOL     OW81193   3.901   9.595   5.716  0.3877 -0.8011  0.3868
26527SOL    HW181194   3.967   9.664   5.721  0.3043 -0.2300 -3.4931
26527SOL    HW281195   3.945   9.525   5.666 -0.9641 -1.6696  0.3787
26528SOL     OW81196   3.097   7.393   3.957 -0.3549 -0.5112  0.0583
26528SOL    HW181197   3.191   7.386   3.940 -0.5679 -1.4214 -0.8088
26528SOL    HW281198   3.078   7.486   3.945  0.3816 -0.3621 -0.0187
26529SOL     OW81199   3.804   8.764   2.069 -0.0503 -0.0642  0.9208
26529SOL    HW181200   3.729   8.723   2.026  0.1302 -0.8136  1.2917
26529SOL    HW281201   3.800   8.732   2.159 -0.5066  1.5969  1.5179
26530SOL     OW81202   8.386   0.684   6.258 -0.0627 -0.1210  0.0949
26530SOL    HW181203   8.456   0.628   6.224  0.8212  0.5619  0.7101
26530SOL    HW281204   8.424   0.722   6.338 -1.3487 -0.1651  0.7518
26531SOL     OW81205   2.380   6.886   6.866  0.3377 -0.5073  0.0982
26531SOL    HW181206   2.428   6.941   6.927  1.3468 -1.6394  0.3698
26531SOL    HW281207   2.291   6.922   6.865  0.6413  0.3104  1.2315
26532SOL     OW81208   8.474   3.929   1.264 -0.4760  0.0456 -0.0167
26532SOL    HW181209   8.444   4.020   1.264  1.6895  0.8285  0.2853
26532SOL    HW281210   8.506   3.915   1.353  1.3693 -0.1943 -0.6817
26533SOL     OW81211   6.342   4.182   4.130  0.3455 -0.4112  0.3703
26533SOL    HW181212   6.346   4.268   4.090 -0.1153 -0.2567  0.6505
26533SOL    HW281213   6.282   4.192   4.203 -0.9972 -1.3547 -0.5558
26534SOL     OW81214   5.164   3.322   1.884 -0.4883 -0.1317 -0.3240
26534SOL    HW181215   5.206   3.405   1.906 -1.6793 -0.2999  3.2326
26534SOL    HW281216   5.071   3.342   1.879 -0.8423 -1.2279  1.0238
26535SOL     OW81217   0.560   1.389   0.870 -0.2724 -0.4627 -0.0566
26535SOL    HW181218   0.474   1.407   0.832 -0.4443 -0.7642  0.1875
26535SOL    HW281219   0.621   1.400   0.798 -0.2194  2.2923  0.3113
26536SOL     OW81220   9.512   6.131   6.072 -0.2029 -0.2279  0.3199
26536SOL    HW181221   9.532   6.049   6.027 -1.9761 -0.7552  0.3986
26536SOL    HW281222   9.511   6.197   6.002 -2.2635 -0.9265 -0.4030
26537SOL     OW81223   2.802   2.618   8.800 -0.3259  0.6021 -0.7013
26537SOL    HW181224   2.825   2.641   8.710 -2.1912  0.2002 -1.3367
26537SOL    HW281225   2.870   2.557   8.828 -0.3172 -0.1422 -2.2481
26538SOL     OW81226   1.052   1.939   7.361  0.1808 -0.7093  0.2843
26538SOL    HW181227   1.080   1.868   7.304 -0.7683 -2.2392  1.6378
26538SOL    HW281228   1.023   1.896   7.441 -1.6828  1.0871  0.6704
26539SOL     OW81229   3.814   0.793   0.882  0.1762 -0.2767 -0.2139
26539SOL    HW181230   3.898   0.772   0.922 -0.0278  0.6149  0.7294
26539SOL    HW281231   3.831   0.793   0.788  1.4014  0.6248 -0.0076
26540SOL     OW81232   1.106   6.634   0.624 -0.5801  0.2768 -0.0509
26540SOL    HW181233   1.036   6.681   0.670 -1.2725 -0.3783 -0.4296
26540SOL    HW281234   1.186   6.663   0.668 -1.0296  1.4375  0.0408
26541SOL     OW81235   5.999   7.498   1.195 -0.1668  0.1741 -0.0807
26541SOL    HW181236   6.008   7.406   1.220 -1.2557 -0.2949 -1.3070
26541SOL    HW281237   5.921   7.500   1.140  0.2066  1.7328 -0.5909
26542SOL     OW81238   9.438   0.304   8.843 -0.0466 -0.0047  0.1167
26542SOL    HW181239   9.448   0.378   8.783 -2.1165 -0.2531 -0.6005
26542SOL    HW281240   9.398   0.235   8.790  0.8621 -1.2923  1.0497
26543SOL     OW81241   7.078   0.262   3.071  0.2330 -0.4141 -0.3795
26543SOL    HW181242   7.145   0.236   3.009  0.3699 -0.3125 -0.2736
26543SOL    HW281243   7.050   0.349   3.041  0.0940 -0.4890 -0.4691
26544SOL     OW81244   3.833   5.133   2.805 -0.3590 -0.2691 -0.1053
26544SOL    HW181245   3.891   5.153   2.732 -0.3585 -1.3014 -0.4048
26544SOL    HW281246   3.781   5.212   2.818  0.5334  0.3680 -0.3798
26545SOL     OW81247   7.231   4.029   2.529  0.2451  0.0745 -0.2846
26545SOL    HW181248   7.291   3.968   2.573 -0.8767  0.6932  2.3162
26545SOL    HW281249   7.287   4.103   2.503  1.1343 -0.7940 -0.8943
26546SOL     OW81250   0.053   1.997   5.878 -0.2216  0.1366  0.5183
26546SOL    HW181251   0.049   2.081   5.925 -1.1957  0.3949 -0.0087
26546SOL    HW281252  -0.017   2.003   5.812  0.7982 -0.4172 -0.6459
26547SOL     OW81253   3.873   2.501   7.352 -0.0967  0.5734  0.2758
26547SOL    HW181254   3.851   2.587   7.388  1.1771  1.7552 -1.5963
26547SOL    HW281255   3.911   2.454   7.425 -1.5087  1.2926  1.5432
26548SOL     OW81256   0.642   5.903   8.243  0.3300 -0.9298 -0.1253
26548SOL    HW181257   0.557   5.870   8.214 -0.6602  0.7270  0.7686
26548SOL    HW281258   0.646   5.879   8.335 -0.1549  0.8592  0.3895
26549SOL     OW81259   7.919   1.212   1.587 -0.2360  0.3134 -0.0729
26549SOL    HW181260   7.859   1.211   1.513 -0.4710  0.2795  0.1186
26549SOL    HW281261   7.996   1.259   1.554  0.1808 -0.7948 -0.7361
26550SOL     OW81262   4.845   7.022   4.696  0.4892 -0.1081  0.2302
26550SOL    HW181263   4.840   7.005   4.790  1.8580 -0.7899  0.2124
26550SOL    HW281264   4.908   7.094   4.688  3.0787 -2.2542 -0.2869
26551SOL     OW81265   6.455   6.430   0.109  0.1880  0.1448  0.3456
26551SOL    HW181266   6.407   6.426   0.191  1.0258  0.9242  0.9022
26551SOL    HW281267   6.392   6.464   0.046  0.2620  2.2708  1.3068
26552SOL     OW81268   9.149   8.832   5.537  0.6310  0.2205 -0.7188
26552SOL    HW181269   9.236   8.870   5.545  0.7407 -0.2289  0.5013
26552SOL    HW281270   9.096   8.900   5.496  0.8107  1.7274  1.3815
26553SOL     OW81271   1.987   0.787   2.156  0.4189 -0.2895  0.2746
26553SOL    HW181272   2.049   0.805   2.086  1.0535  0.2580  0.9607
26553SOL    HW281273   2.020   0.837   2.231 -1.7238  1.3642  0.2373
26554SOL     OW81274   2.522   4.988   4.797 -0.2945 -1.1234 -0.2765
26554SOL    HW181275   2.607   4.948   4.813 -0.5611 -1.4081  0.4862
26554SOL    HW281276   2.458   4.919   4.818 -0.7106 -1.1155 -1.4275
26555SOL     OW81277   4.319   4.224   9.232 -0.2973  0.5268  0.7542
26555SOL    HW181278   4.279   4.139   9.215  0.5394  0.4634 -1.1487
26555SOL    HW281279   4.268   4.286   9.178  2.2707  0.3679 -2.1410
26556SOL     OW81280   2.979   9.807   0.848  0.2350  0.7964 -0.1899
26556SOL    HW181281   2.904   9.862   0.825  0.8122  1.3881 -0.6809
26556SOL    HW281282   3.043   9.868   0.885  1.2983  0.6304 -1.6946
26557SOL     OW81283   5.255   4.415   6.931  0.3947  0.4125  0.6764
26557SOL    HW181284   5.295   4.328   6.938 -0.3921 -0.0761 -0.5824
26557SOL    HW281285   5.223   4.434   7.019 -1.4169 -1.5737  0.5231
26558SOL     OW81286   4.436   3.578   0.690  0.7374 -0.6599  0.1048
26558SOL    HW181287   4.427   3.525   0.611  1.1193 -1.3871  0.5436
26558SOL    HW281288   4.429   3.669   0.659  0.4291 -0.9523 -0.6955
26559SOL     OW81289   8.030   5.708   2.311  0.1408 -0.0524 -0.3724
26559SOL    HW181290   7.995   5.740   2.394  3.5110  1.4633  0.6432
26559SOL    HW281291   8.027   5.784   2.253 -0.3697 -0.5577 -1.0203
26560SOL     OW81292   8.131   3.402   5.858 -0.0447  0.5285 -0.7668
26560SOL    HW181293   8.061   3.411   5.922  0.9832  0.1364  0.4715
26560SOL    HW281294   8.089   3.362   5.782 -1.0670 -0.1272  0.1128
26561SOL     OW81295   1.353   7.075   8.818 -0.5956 -0.1272  0.3596
26561SOL    HW181296   1.288   7.012   8.786 -1.3067  0.1370  1.2613
26561SOL    HW281297   1.302   7.139   8.867  0.3337  0.1979  0.9149
26562SOL     OW81298   8.956   8.118   8.942  0.3609 -0.9024 -0.0603
26562SOL    HW181299   8.974   8.188   9.005  1.1814 -0.1530 -1.1146
26562SOL    HW281300   9.039   8.101   8.899 -0.5180 -0.1580 -2.2015
26563SOL     OW81301   1.494   8.294   0.298 -0.0781  0.0802 -0.0593
26563SOL    HW181302   1.407   8.260   0.278  0.6898 -2.2598  0.3474
26563SOL    HW281303   1.550   8.259   0.229  1.0017 -0.7046  1.1728
26564SOL     OW81304   4.511   4.370   7.646 -0.0859  0.2994 -0.1515
26564SOL    HW181305   4.528   4.461   7.620 -2.5659  0.8123 -0.2904
26564SOL    HW281306   4.419   4.356   7.622  0.4466 -2.5137 -0.8090
26565SOL     OW81307   7.146   4.316   6.737 -0.1605  0.2911  0.4428
26565SOL    HW181308   7.218   4.350   6.789 -0.5568  1.5820  0.1824
26565SOL    HW281309   7.129   4.384   6.672  0.0683 -1.1028 -1.1595
26566SOL     OW81310   1.405   4.022   9.522 -0.2665  0.0219  0.0666
26566SOL    HW181311   1.469   3.967   9.477  0.3767  1.5004 -0.8991
26566SOL    HW281312   1.420   4.004   9.615  3.1573  1.9169  0.0359
26567SOL     OW81313   3.923   3.192   1.612 -0.1154 -0.4237  0.4727
26567SOL    HW181314   3.891   3.105   1.635  1.4898 -1.4379 -0.8740
26567SOL    HW281315   3.909   3.199   1.517  3.4781 -1.0185 -0.2784
26568SOL     OW81316   8.942   4.011   5.230 -0.6104 -0.3049  0.5613
26568SOL    HW181317   8.849   4.032   5.232 -0.3546  0.8755  1.0579
26568SOL    HW281318   8.975   4.053   5.151 -0.6398 -1.4292 -0.0692
26569SOL     OW81319   2.745   8.810   6.290  0.1420 -0.1167  0.4587
26569SOL    HW181320   2.716   8.733   6.242  1.5582 -1.2585  1.3373
26569SOL    HW281321   2.839   8.817   6.270  0.3716  0.4236  1.6086
26570SOL     OW81322   5.297   9.590   0.151  0.4268  0.1066 -0.4945
26570SOL    HW181323   5.251   9.526   0.206  0.3605  0.2945 -0.3314
26570SOL    HW281324   5.336   9.537   0.081 -0.4571 -0.0002 -0.9172
26571SOL     OW81325   5.234   0.354   5.334 -0.3516  0.2979 -0.5190
26571SOL    HW181326   5.309   0.326   5.387 -1.3782 -0.9537  0.3203
26571SOL    HW281327   5.274   0.395   5.257  1.1836  0.8487  0.5227
26572SOL     OW81328   3.218   0.305   6.579  0.6815 -0.7935  0.0536
26572SOL    HW181329   3.294   0.311   6.522 -0.4582  0.2791 -1.4487
26572SOL    HW281330   3.180   0.219   6.559  0.1381 -0.3157 -1.0506
26573SOL     OW81331   8.021   8.153   1.200  0.0317 -0.3800 -0.1871
26573SOL    HW181332   8.044   8.244   1.221 -0.9627  0.1370 -1.2635
26573SOL    HW281333   8.010   8.152   1.105 -0.1935 -1.5849 -0.1643
26574SOL     OW81334   8.964   6.754   9.081  0.5147 -0.2095  0.5525
26574SOL    HW181335   8.926   6.840   9.062  0.4088 -0.4698 -0.4820
26574SOL    HW281336   8.908   6.717   9.149  1.6954  1.3157  2.4535
26575SOL     OW81337   4.535   9.323   6.130  0.2582 -0.1106  0.0253
26575SOL    HW181338   4.513   9.244   6.178  0.9825 -0.4519 -0.1985
26575SOL    HW281339   4.526   9.298   6.038  0.5393  0.0486 -0.0468
26576SOL     OW81340   2.707   6.440   6.516  0.0766 -0.2360 -0.5582
26576SOL    HW181341   2.636   6.496   6.545  0.9217  0.3829  0.3860
26576SOL    HW281342   2.699   6.360   6.568 -0.1166 -0.3004 -0.6870
26577SOL     OW81343   0.165   7.396   6.740  0.4600  0.2587 -0.0587
26577SOL    HW181344   0.205   7.443   6.668  1.6572  1.7231  1.4857
26577SOL    HW281345   0.088   7.449   6.763  0.8162  0.5250  0.5500
26578SOL     OW81346   4.031   4.707   0.788 -0.8838  0.1069  0.2628
26578SOL    HW181347   4.072   4.668   0.865 -0.9386 -1.8979 -0.6820
26578SOL    HW281348   4.055   4.800   0.793 -0.5463 -0.0452  2.4502
26579SOL     OW81349   7.194   0.726   8.185  0.3760 -0.1055  0.3521
26579SOL    HW181350   7.186   0.656   8.121  3.1769 -0.9507  0.8140
26579SOL    HW281351   7.210   0.805   8.133  1.4547 -0.5788 -0.0610
26580SOL     OW81352   4.767   7.801   8.679  0.5936  0.4096 -0.1142
26580SOL    HW181353   4.700   7.735   8.659  1.0405 -0.4870  1.2109
26580SOL    HW281354   4.841   7.777   8.624  0.3763  0.4663 -0.4354
26581SOL     OW81355   7.327   7.857   7.222  0.1470  0.6112 -0.1759
26581SOL    HW181356   7.376   7.939   7.209  0.0983  0.9332  1.5262
26581SOL    HW281357   7.299   7.859   7.313 -0.7837 -0.8218 -0.3928
26582SOL     OW81358   9.784   2.709   5.254  0.4474  0.4411  0.2077
26582SOL    HW181359   9.697   2.709   5.295  0.3923  0.3713  0.0931
26582SOL    HW281360   9.803   2.617   5.238  1.2669  0.3249  1.7250
26583SOL     OW81361   5.044   6.196   2.968 -0.2586 -0.2645  0.5329
26583SOL    HW181362   5.051   6.213   2.874  1.2237 -0.2856  0.6053
26583SOL    HW281363   5.014   6.105   2.974  1.5855 -0.9566  0.0169
26584SOL     OW81364   1.377   0.067   3.438  0.3273 -0.1503  0.3247
26584SOL    HW181365   1.389   0.081   3.344 -0.3850 -0.0740  0.2374
26584SOL    HW281366   1.441  -0.000   3.460  0.4126 -0.2634 -0.2419
26585SOL     OW81367   7.716   6.042   6.718  0.7683  0.2448 -0.0259
26585SOL    HW181368   7.676   6.128   6.732 -1.0598 -0.7280  0.9642
26585SOL    HW281369   7.789   6.060   6.658  0.0039  2.3696 -0.4157
26586SOL     OW81370   1.912   4.135   2.991  0.7252  0.0639  0.1841
26586SOL    HW181371   1.996   4.174   2.966  0.0849  2.3620  1.3590
26586SOL    HW281372   1.935   4.069   3.057  1.6773  0.2036  0.0037
26587SOL     OW81373   8.727   3.634   6.305 -0.3088 -0.0032  0.0204
26587SOL    HW181374   8.815   3.603   6.327 -0.2779  0.3595  0.4194
26587SOL    HW281375   8.673   3.555   6.308 -0.0687 -0.1650  0.1652
26588SOL     OW81376   6.685   7.970   7.349  0.2794  0.2545  0.1897
26588SOL    HW181377   6.710   7.937   7.263  0.1006 -1.1255  0.6332
26588SOL    HW281378   6.688   7.893   7.406 -0.2015  1.0148  1.2876
26589SOL     OW81379   7.510   4.493   0.187  0.3523 -0.0541 -0.9227
26589SOL    HW181380   7.599   4.468   0.161  0.3733  0.9767 -1.9538
26589SOL    HW281381   7.478   4.420   0.240  1.7972 -0.4559 -0.5719
26590SOL     OW81382   1.247   8.465   5.372  0.3527 -0.3097 -0.1169
26590SOL    HW181383   1.168   8.493   5.325  1.2397  0.4573 -1.2151
26590SOL    HW281384   1.307   8.437   5.302  1.0103 -1.0155  0.7085
26591SOL     OW81385   0.326   9.485   7.057 -0.2790 -0.5019 -0.9739
26591SOL    HW181386   0.378   9.519   7.129  1.8106 -0.4002 -2.4518
26591SOL    HW281387   0.248   9.540   7.055  0.0900  0.1140  0.5663
26592SOL     OW81388   2.079   2.253   6.833  0.4098 -0.3979 -0.2529
26592SOL    HW181389   2.158   2.199   6.826  1.2984  0.8311 -0.2438
26592SOL    HW281390   2.086   2.314   6.759 -0.1121  0.2309  0.2009
26593SOL     OW81391   8.737   4.912   7.954  0.4109  0.0601 -0.3667
26593SOL    HW181392   8.678   4.987   7.961  1.3310  0.8660 -0.9538
26593SOL    HW281393   8.820   4.944   7.989  0.3134 -1.3189  1.2533
26594SOL     OW81394   3.863   4.344   5.026 -0.2930 -0.4374 -0.5571
26594SOL    HW181395   3.825   4.357   4.939 -0.5621 -0.0154 -0.3749
26594SOL    HW281396   3.953   4.376   5.018 -0.7472  0.9584 -0.2899
26595SOL     OW81397   0.234   2.745   5.049  0.1723  0.1051 -0.3375
26595SOL    HW181398   0.247   2.760   5.142  1.0427 -0.0449 -0.4242
26595SOL    HW281399   0.154   2.793   5.027 -0.0629  0.0980  0.4911
26596SOL     OW81400   5.314   0.301   1.677  0.0635  0.1080  0.4648
26596SOL    HW181401   5.342   0.392   1.669 -3.0799  1.0884 -0.7464
26596SOL    HW281402   5.308   0.270   1.586 -0.8234 -0.6635  0.7726
26597SOL     OW81403   4.112   2.358   2.077  0.3334  0.3158  0.4014
26597SOL    HW181404   4.172   2.290   2.045  0.3996  0.3203  0.5151
26597SOL    HW281405   4.138   2.372   2.168  0.2664  0.4369  0.4018
26598SOL     OW81406   1.494   1.602   0.035 -0.0381  0.2656 -0.9555
26598SOL    HW181407   1.401   1.616   0.015 -1.5917 -0.8044  4.1076
26598SOL    HW281408   1.503   1.506   0.037  0.9822  0.3665 -0.6027
26599SOL     OW81409   2.692   6.447   7.483  0.1107 -0.5840 -0.0567
26599SOL    HW181410   2.705   6.369   7.537  1.1521 -0.8815 -0.7102
26599SOL    HW281411   2.619   6.493   7.525  0.4548 -1.1438  1.1977
26600SOL     OW81412   0.068   9.697   8.760  0.1341  0.9082 -0.4131
26600SOL    HW181413  -0.016   9.667   8.795  0.4142  2.0484  1.3531
26600SOL    HW281414   0.080   9.784   8.798  3.0000  0.0273  1.0098
26601SOL     OW81415   6.916   0.413   8.325  0.1073 -0.2590  0.4816
26601SOL    HW181416   6.887   0.403   8.416  1.8475  1.0015  1.2243
26601SOL    HW281417   6.974   0.339   8.310  0.4357 -0.0407  0.6656
26602SOL     OW81418   7.572   4.349   8.910 -0.1934  0.5350 -0.1289
26602SOL    HW181419   7.498   4.295   8.938  0.6019 -0.8796 -0.6508
26602SOL    HW281420   7.542   4.393   8.831 -0.0984 -1.0301 -1.0785
26603SOL     OW81421   7.011   2.995   2.805 -0.0837 -0.1328 -0.0411
26603SOL    HW181422   7.005   2.904   2.835  0.8210 -0.2591 -0.2265
26603SOL    HW281423   6.994   2.991   2.711 -1.1268  0.0376  0.1276
26604SOL     OW81424   2.339   7.098   5.198 -0.0080  0.3656  0.0799
26604SOL    HW181425   2.334   7.139   5.112 -0.2661  0.1190 -0.0208
26604SOL    HW281426   2.289   7.017   5.190  1.4909 -0.5907 -0.0699
26605SOL     OW81427   2.918   2.111   4.944 -0.0139  0.9635  0.2763
26605SOL    HW181428   2.932   2.168   5.020  0.8266 -0.6418  1.3813
26605SOL    HW281429   3.005   2.100   4.905 -0.5240  2.2873 -1.3665
26606SOL     OW81430   9.645   6.228   7.257 -0.6109  0.3587 -0.5739
26606SOL    HW181431   9.560   6.270   7.245 -0.6732 -0.0423 -1.6093
26606SOL    HW281432   9.656   6.173   7.179  0.1999 -0.2753 -0.0282
26607SOL     OW81433   9.386   3.701   1.130  0.0053  0.3605 -0.1783
26607SOL    HW181434   9.379   3.611   1.097 -2.1864  1.0208 -1.7253
26607SOL    HW281435   9.355   3.697   1.220 -2.1805 -0.1266 -0.9065
26608SOL     OW81436   6.579   8.026   4.948 -0.3687 -0.0813 -0.3214
26608SOL    HW181437   6.494   7.994   4.920  0.3136 -1.4765 -0.9159
26608SOL    HW281438   6.636   7.949   4.945  1.0605  0.9341 -0.5851
26609SOL     OW81439   8.155   8.574   8.142  0.1904  0.5518 -0.5657
26609SOL    HW181440   8.084   8.509   8.141 -0.1505  0.9136 -0.1655
26609SOL    HW281441   8.123   8.644   8.198  1.1649  0.3878  0.2259
26610SOL     OW81442   5.648   5.253   9.243 -0.3690 -0.0515 -0.1988
26610SOL    HW181443   5.627   5.283   9.332 -2.0337 -1.9506  0.1254
26610SOL    HW281444   5.569   5.206   9.214  0.3264  0.0602 -2.4903
26611SOL     OW81445   4.207   5.379   6.505  0.1748 -0.2204 -0.1459
26611SOL    HW181446   4.184   5.311   6.569 -1.5016  0.1871 -0.2788
26611SOL    HW281447   4.168   5.459   6.540  0.1628  0.2137 -1.1405
26612SOL     OW81448   7.521   4.926   5.865  0.3548 -0.0000  0.7599
26612SOL    HW181449   7.540   4.947   5.956 -0.8577  0.0790  1.0094
26612SOL    HW281450   7.472   5.001   5.833 -1.3631 -1.0768  0.7713
26613SOL     OW81451   3.377   0.885   9.621 -0.2039  0.0083  0.3426
26613SOL    HW181452   3.453   0.942   9.633 -1.1493  1.5563 -0.7697
26613SOL    HW281453   3.319   0.908   9.694 -0.3673  0.0869  0.1868
26614SOL     OW81454   3.536   6.099   5.107  0.3149  0.6659  0.4738
26614SOL    HW181455   3.473   6.132   5.044 -0.6982  0.4737  1.3496
26614SOL    HW281456   3.604   6.058   5.054 -0.5973  0.3495 -0.4837
26615SOL     OW81457   7.620   3.187   2.269  0.1462 -0.5358 -0.1362
26615SOL    HW181458   7.531   3.215   2.252  0.7968  2.6062  1.0195
26615SOL    HW281459   7.660   3.180   2.183 -1.1775 -2.1093 -0.6717
26616SOL     OW81460   6.839   2.349   9.233 -0.2906  0.2926  0.0868
26616SOL    HW181461   6.920   2.322   9.276 -0.7610 -1.1073  0.1442
26616SOL    HW281462   6.794   2.404   9.297 -0.9676 -1.7234  1.4372
26617SOL     OW81463   5.439   4.735   8.100  0.3882 -0.5621 -0.1336
26617SOL    HW181464   5.518   4.693   8.135 -0.1696 -1.4941  0.0403
26617SOL    HW281465   5.398   4.668   8.046  1.2627  0.8337 -2.7353
26618SOL     OW81466   7.452   5.977   6.179  0.0370 -0.0818 -0.2487
26618SOL    HW181467   7.414   5.889   6.182 -0.4315  0.1184  1.6991
26618SOL    HW281468   7.415   6.020   6.256  2.2689  0.9696  0.3098
26619SOL     OW81469   2.715   0.435   7.319  0.0922 -0.5097  0.2378
26619SOL    HW181470   2.786   0.491   7.286 -0.1473 -0.1093  0.3945
26619SOL    HW281471   2.747   0.346   7.307  1.1332 -0.3218  1.3954
26620SOL     OW81472   5.068   8.828   5.955 -0.4601  0.6364  0.7373
26620SOL    HW181473   5.121   8.802   6.031 -0.2301  1.0796  0.7299
26620SOL    HW281474   5.111   8.785   5.881 -1.4883 -0.9507  1.0028
26621SOL     OW81475   2.786   9.720   3.855  0.0731 -0.0420  0.0340
26621SOL    HW181476   2.712   9.743   3.910  0.3012  1.6565 -0.2921
26621SOL    HW281477   2.856   9.779   3.885  0.8443 -0.6223 -0.6069
26622SOL     OW81478   0.825   7.335   7.691  0.1076  0.4133  0.5695
26622SOL    HW181479   0.910   7.319   7.650  0.4170 -0.6097  1.5552
26622SOL    HW281480   0.776   7.387   7.626  1.0728  0.0536 -0.4764
26623SOL     OW81481   7.412   1.552   6.095  0.2087 -0.5741  0.1893
26623SOL    HW181482   7.459   1.563   6.012 -1.6457  0.4569 -0.7877
26623SOL    HW281483   7.376   1.638   6.114  2.2471 -0.2482  3.2084
26624SOL     OW81484   7.291   4.439   1.921 -0.3438 -0.3930  0.4659
26624SOL    HW181485   7.382   4.413   1.905 -0.0178  1.0000 -0.0748
26624SOL    HW281486   7.250   4.436   1.835  0.9714  5.4419 -0.8074
26625SOL     OW81487   8.053   9.058   4.022 -0.2850  0.4167 -0.5138
26625SOL    HW181488   7.986   8.990   4.014  0.2986 -0.0854 -1.3007
26625SOL    HW281489   8.090   9.044   4.109 -1.4572  0.9593  0.0955
26626SOL     OW81490   2.753   5.277   4.926  0.2822  0.3799 -0.8947
26626SOL    HW181491   2.844   5.306   4.928  0.5045 -0.1832  2.2498
26626SOL    HW281492   2.734   5.263   4.833  2.9381  1.8360 -1.7529
26627SOL     OW81493   1.071   6.040   4.200  0.3610 -0.0673  0.3094
26627SOL    HW181494   1.041   6.111   4.257  0.2166  2.5963 -2.8179
26627SOL    HW281495   1.159   6.020   4.231  0.6448  1.9387  0.9146
26628SOL     OW81496   1.022   5.296   3.065  0.0105 -0.0530 -0.1704
26628SOL    HW181497   0.994   5.273   3.154  2.1356  0.8422  0.8080
26628SOL    HW281498   1.077   5.223   3.037  0.8334  0.4636  0.0324
26629SOL     OW81499   6.163   1.115   2.644 -0.2043 -0.3021 -0.0880
26629SOL    HW181500   6.126   1.197   2.610  0.8270  0.2281  0.0336
26629SOL    HW281501   6.104   1.090   2.714  0.0601  0.9341  0.6100
26630SOL     OW81502   7.861   3.356   3.893  0.2229  0.1073 -0.0414
26630SOL    HW181503   7.782   3.304   3.882  1.0902 -1.0017 -1.3728
26630SOL    HW281504   7.834   3.430   3.948 -1.5993 -0.4943 -0.0673
26631SOL     OW81505   6.798   9.619   0.200  0.0505  0.1665  0.1051
26631SOL    HW181506   6.852   9.641   0.276  0.5550 -0.2311 -0.1352
26631SOL    HW281507   6.726   9.683   0.202  1.1716  1.4914 -0.2476
26632SOL     OW81508   8.237   0.565   2.612  0.2756  0.3050  0.1867
26632SOL    HW181509   8.267   0.475   2.599 -0.7131 -0.2399  1.5141
26632SOL    HW281510   8.287   0.616   2.548 -0.2320 -1.3756 -1.6499
26633SOL     OW81511   7.961   2.282   9.526 -0.3677  0.0388 -0.6096
26633SOL    HW181512   8.055   2.296   9.516 -0.3227  1.3394  1.1663
26633SOL    HW281513   7.920   2.346   9.468 -0.1350  1.3202  0.6039
26634SOL     OW81514   6.753   5.040   6.622  0.1153 -0.2219  0.2149
26634SOL    HW181515   6.812   5.055   6.548  0.6372  0.7862  0.8117
26634SOL    HW281516   6.796   5.083   6.696 -1.3737  0.5912  0.6641
26635SOL     OW81517   9.537   6.766   3.325  0.4602  0.3775 -0.1172
26635SOL    HW181518   9.616   6.713   3.335  0.5585  0.6422  0.5542
26635SOL    HW281519   9.555   6.820   3.247  0.1727 -0.8704 -1.0804
26636SOL     OW81520   2.431   1.762   2.155  0.2077 -0.7014  0.3066
26636SOL    HW181521   2.525   1.776   2.160  0.3409 -1.9048  3.0581
26636SOL    HW281522   2.421   1.669   2.135 -0.4002 -0.6552  0.3709
26637SOL     OW81523   5.243   8.739   8.168 -0.0212 -0.1886  0.2088
26637SOL    HW181524   5.272   8.740   8.259  0.1489  1.9714  0.1805
26637SOL    HW281525   5.324   8.739   8.117 -0.1189 -0.2951  0.0513
26638SOL     OW81526   9.621   4.541   2.093  0.3232 -0.4706  0.9104
26638SOL    HW181527   9.676   4.534   2.171  0.0182 -0.6153  1.1154
26638SOL    HW281528   9.542   4.586   2.123  0.9706  1.1500  0.2723
26639SOL     OW81529   5.390   0.102   4.369  0.4367  0.0175 -0.4043
26639SOL    HW181530   5.425   0.167   4.307  0.0211  0.2075 -0.4392
26639SOL    HW281531   5.304   0.136   4.394  0.9656  0.4098  0.9848
26640SOL     OW81532   0.471   1.842   8.911 -0.2239  0.1918  0.5343
26640SOL    HW181533   0.529   1.913   8.885  0.8787 -0.3315  1.4845
26640SOL    HW281534   0.488   1.772   8.848 -0.4287  0.3313  0.3222
26641SOL     OW81535   7.714   9.077   3.595 -0.1254  0.0202  0.2798
26641SOL    HW181536   7.651   9.008   3.574 -0.7347 -1.1256  4.7569
26641SOL    HW281537   7.799   9.033   3.596  0.0757  0.3489 -0.6499
26642SOL     OW81538   2.690   7.306   6.631  0.0908  0.2263  0.1281
26642SOL    HW181539   2.646   7.330   6.712 -1.2703 -1.6754  0.0090
26642SOL    HW281540   2.633   7.242   6.590  1.3200  0.2578 -1.7803
26643SOL     OW81541   2.610   5.433   8.939 -0.1988  0.6383 -0.2974
26643SOL    HW181542   2.688   5.398   8.982 -0.0825  0.3628 -0.7268
26643SOL    HW281543   2.598   5.520   8.979 -0.5326  0.0978  0.8159
26644SOL     OW81544   1.847   5.621   8.631 -0.0852  0.0618  0.7838
26644SOL    HW181545   1.903   5.632   8.554  0.4455 -1.4097  0.9253
26644SOL    HW281546   1.907   5.605   8.703 -0.6269  0.3760  1.3195
26645SOL     OW81547   4.668   6.807   3.496 -0.0184 -0.1223 -0.2478
26645SOL    HW181548   4.586   6.765   3.521 -0.6423  1.4806  0.5640
26645SOL    HW281549   4.736   6.755   3.538 -0.9124  1.2636  3.2542
26646SOL     OW81550   1.206   0.347   9.540  0.1778 -0.3035 -0.4921
26646SOL    HW181551   1.279   0.332   9.600 -0.2326 -0.7259 -0.0866
26646SOL    HW281552   1.244   0.338   9.452  0.8275  0.5373 -0.3125
26647SOL     OW81553   2.501   3.533   4.031 -0.6245 -0.6510  0.0286
26647SOL    HW181554   2.461   3.588   3.964  0.1924  1.4765  1.1757
26647SOL    HW281555   2.549   3.466   3.982 -1.9954 -0.6382 -1.4163
26648SOL     OW81556   9.367   0.703   5.614 -0.1312 -0.1695 -0.9476
26648SOL    HW181557   9.438   0.700   5.551  0.4134 -0.0345 -0.3497
26648SOL    HW281558   9.392   0.639   5.681 -0.2363  0.3675 -0.3903
26649SOL     OW81559   2.695   4.592   8.949  0.2390 -0.2342 -0.0973
26649SOL    HW181560   2.618   4.537   8.968 -0.3234  1.1652  1.9219
26649SOL    HW281561   2.685   4.614   8.856 -2.5226  0.8615  0.3406
26650SOL     OW81562   2.111   1.179   6.933 -0.1899  0.1220 -0.0059
26650SOL    HW181563   2.058   1.214   7.004 -1.7793  1.9646 -1.9771
26650SOL    HW281564   2.113   1.249   6.868  1.2595 -1.4634 -1.7724
26651SOL     OW81565   4.170   0.268   6.781 -0.4163 -0.1557  0.5775
26651SOL    HW181566   4.228   0.310   6.845 -0.7446 -0.6305  1.1977
26651SOL    HW281567   4.141   0.339   6.725  0.0942  0.2284  0.7900
26652SOL     OW81568   5.935   5.102   1.370  0.0443 -0.7632  0.5021
26652SOL    HW181569   5.931   5.022   1.423 -0.4738 -1.2833 -0.2847
26652SOL    HW281570   5.843   5.124   1.354  0.1826 -0.0063  0.7009
26653SOL     OW81571   2.965   5.827   8.163  0.0764  0.1136 -0.3993
26653SOL    HW181572   2.875   5.804   8.140  0.0985  0.0780 -0.4492
26653SOL    HW281573   2.962   5.921   8.182 -0.2164 -0.1066  0.7517
26654SOL     OW81574   2.071   8.115   7.434  0.5996  0.3653 -0.3583
26654SOL    HW181575   2.000   8.101   7.497  1.0007  0.7131  0.1867
26654SOL    HW281576   2.118   8.032   7.432 -0.6430 -0.3449 -1.7981
26655SOL     OW81577   7.082   8.401   5.133  0.3138  0.1177 -0.2784
26655SOL    HW181578   7.143   8.343   5.087  0.3974 -0.8361  0.9891
26655SOL    HW281579   7.008   8.345   5.155 -1.0061  1.2147 -1.6406
26656SOL     OW81580   1.145   0.176   0.151 -0.3446  0.2720  0.2881
26656SOL    HW181581   1.109   0.132   0.229  0.8504 -2.0466 -0.3715
26656SOL    HW281582   1.230   0.209   0.179  0.1854 -0.7607 -0.0407
26657SOL     OW81583   2.404   7.561   8.307  0.2094  0.5832  0.0900
26657SOL    HW181584   2.405   7.584   8.400  1.6703  0.5157  0.1115
26657SOL    HW281585   2.451   7.632   8.264 -0.3434  0.5485 -0.5878
26658SOL     OW81586   5.640   9.683   3.255  0.3790  0.2329 -0.3412
26658SOL    HW181587   5.681   9.715   3.335 -1.7916  0.9947  0.5500
26658SOL    HW281588   5.673   9.593   3.246  0.3758 -0.0214  1.6455
26659SOL     OW81589   1.655   4.433   4.907  0.3023 -0.0953 -1.0018
26659SOL    HW181590   1.651   4.502   4.973  0.6808  0.9972 -2.0895
26659SOL    HW281591   1.720   4.371   4.941 -0.4245 -0.1969  0.2329
26660SOL     OW81592   5.470   3.687   4.820  0.0054 -0.0909 -0.1718
26660SOL    HW181593   5.401   3.621   4.824  0.9686 -1.1765 -0.8509
26660SOL    HW281594   5.508   3.686   4.908 -0.5647  0.2139  0.0826
26661SOL     OW81595   0.971   0.821   0.685 -0.7519 -0.7864 -0.0465
26661SOL    HW181596   0.876   0.814   0.688 -1.1066  2.6958  0.1530
26661SOL    HW281597   1.000   0.806   0.775 -1.2418 -0.5951  0.1425
26662SOL     OW81598   9.613   7.913   6.753  0.1151 -0.5705  0.0302
26662SOL    HW181599   9.536   7.939   6.703  1.0377  1.8173 -0.2617
26662SOL    HW281600   9.601   7.955   6.839  0.6941 -0.8901  0.2718
26663SOL     OW81601   9.353   2.004   0.685  0.1008 -0.6560 -0.1892
26663SOL    HW181602   9.264   2.012   0.652 -0.1549 -1.9571  0.1659
26663SOL    HW281603   9.350   2.045   0.772 -0.0280 -0.2967 -0.3581
26664SOL     OW81604   7.960   2.631   6.974 -0.1527  0.6710  0.0434
26664SOL    HW181605   7.933   2.665   6.889  0.9530  2.5769  0.3785
26664SOL    HW281606   8.017   2.557   6.954 -2.7838 -1.2683 -0.7274
26665SOL     OW81607   5.913   4.134   9.039  0.5589 -0.0570  0.4810
26665SOL    HW181608   5.852   4.133   9.113  0.8152 -0.9658  0.6884
26665SOL    HW281609   5.990   4.087   9.071  0.3070 -1.2881 -0.6643
26666SOL     OW81610   5.983   8.149   2.232 -0.2608  0.4245 -0.1895
26666SOL    HW181611   5.960   8.151   2.325 -2.6784  0.9873 -0.7362
26666SOL    HW281612   5.911   8.194   2.189  0.7779  0.1115 -2.3716
26667SOL     OW81613   7.915   0.006   6.967  0.1131 -0.5018  0.2540
26667SOL    HW181614   7.926   0.082   6.910 -1.5672 -1.0626 -0.9157
26667SOL    HW281615   7.838   0.026   7.020  1.2093 -0.3179  1.8229
26668SOL     OW81616   0.245   8.977   8.268  0.2224  0.3105 -0.3334
26668SOL    HW181617   0.297   9.030   8.328  0.2538 -2.5004  2.3738
26668SOL    HW281618   0.159   8.972   8.308 -0.2183 -0.4426 -1.3254
26669SOL     OW81619   4.026   1.069   9.019 -0.1137 -0.3987  0.5565
26669SOL    HW181620   4.110   1.040   9.055  0.7018  2.3490  1.1083
26669SOL    HW281621   3.973   0.989   9.015  2.4406 -2.2113  0.2928
26670SOL     OW81622   5.842   1.835   2.930  0.1731  0.3279  0.1096
26670SOL    HW181623   5.836   1.898   2.858 -1.5548 -0.5153 -0.5302
26670SOL    HW281624   5.807   1.883   3.005 -0.9563  0.2064 -0.3307
26671SOL     OW81625   9.430   6.494   2.127  0.2306 -0.6831 -0.2109
26671SOL    HW181626   9.463   6.404   2.127 -0.9756 -1.1408  0.0523
26671SOL    HW281627   9.504   6.546   2.097  0.7112 -1.8547 -1.1471
26672SOL     OW81628   9.695   6.922   8.032 -0.6106 -0.4091  0.5653
26672SOL    HW181629   9.682   7.005   8.078 -0.5497 -0.6423  1.0076
26672SOL    HW281630   9.697   6.946   7.939 -1.1101  0.0188  0.6610
26673SOL     OW81631   4.465   5.581   0.038  0.3465  0.0709 -0.5446
26673SOL    HW181632   4.419   5.527  -0.026  2.2719 -1.5515 -0.6333
26673SOL    HW281633   4.466   5.669  -0.001 -3.1023  0.3710 -0.2676
26674SOL     OW81634   6.934   3.725   5.668 -0.1196 -0.5228 -0.5387
26674SOL    HW181635   6.952   3.806   5.620 -0.1444 -0.4615 -0.4441
26674SOL    HW281636   6.864   3.749   5.730  0.1537 -0.5126 -0.2306
26675SOL     OW81637   3.441   7.225   1.387  0.6350 -0.2759 -0.3113
26675SOL    HW181638   3.485   7.152   1.343  0.2732  0.0363 -1.2110
26675SOL    HW281639   3.360   7.187   1.422  0.5001 -0.3345 -0.6840
26676SOL     OW81640   9.599   0.924   5.425  0.4237 -0.3318 -0.0531
26676SOL    HW181641   9.540   0.952   5.495 -2.3044 -1.0489 -1.8898
26676SOL    HW281642   9.603   0.829   5.434  2.1680 -0.2302  0.6096
26677SOL     OW81643   7.530   4.937   4.709 -0.3395  0.4276  0.2548
26677SOL    HW181644   7.577   4.952   4.627  2.0606 -0.7275  1.2899
26677SOL    HW281645   7.522   4.841   4.714 -1.1172  0.5253  1.0193
26678SOL     OW81646   8.490   6.556   5.148  0.4639 -0.4069 -0.2440
26678SOL    HW181647   8.553   6.598   5.207  0.6233 -1.6242  0.4896
26678SOL    HW281648   8.542   6.493   5.098 -0.0524 -1.0061 -0.0466
26679SOL     OW81649   1.981   8.591   7.569  0.1088 -0.4583  0.0088
26679SOL    HW181650   2.024   8.572   7.652  0.0878  1.6514  0.5628
26679SOL    HW281651   1.888   8.584   7.588  0.0990  0.2399  0.2257
26680SOL     OW81652   4.235   3.367   3.272  0.2156 -0.1197  0.1821
26680SOL    HW181653   4.217   3.273   3.274  1.2157 -0.3578  3.6039
26680SOL    HW281654   4.177   3.404   3.339 -0.7039  1.8932 -1.5973
26681SOL     OW81655   4.638   0.864   4.439 -0.1986  0.2122 -0.1021
26681SOL    HW181656   4.666   0.775   4.422 -0.2732 -0.2670  1.9802
26681SOL    HW281657   4.711   0.918   4.409 -0.4316 -0.4547 -2.0036
26682SOL     OW81658   8.933   2.513   9.145 -1.1634  0.0397  0.4383
26682SOL    HW181659   9.000   2.451   9.174  0.2709  1.7853  1.0708
26682SOL    HW281660   8.904   2.479   9.061 -0.9258 -1.8368  1.0666
26683SOL     OW81661   9.009   4.395   2.823  0.6371  0.5060  0.1698
26683SOL    HW181662   8.965   4.478   2.841 -2.2031 -0.6608 -0.8517
26683SOL    HW281663   8.963   4.359   2.747  2.1764 -1.7408  0.2033
26684SOL     OW81664   2.832   9.530   0.377 -0.4881 -0.5457  0.2459
26684SOL    HW181665   2.876   9.598   0.428 -1.0380 -0.2105  0.2779
26684SOL    HW281666   2.893   9.509   0.307  0.0559 -0.6383  0.7320
26685SOL     OW81667   2.096   7.042   3.944  0.2429 -0.0955 -0.9124
26685SOL    HW181668   2.188   7.038   3.917  0.0262 -1.4060 -1.5494
26685SOL    HW281669   2.098   7.025   4.038  0.5565 -1.9184 -1.2103
26686SOL     OW81670   8.442   9.467   9.472 -0.4509 -0.2038 -0.3283
26686SOL    HW181671   8.455   9.407   9.545 -1.4829  1.7179  1.5339
26686SOL    HW281672   8.477   9.420   9.396  0.4583 -2.3724  1.3265
26687SOL     OW81673   9.254   5.951   5.741  0.2401  0.0212  0.1880
26687SOL    HW181674   9.202   5.959   5.821  0.9076 -2.2966  0.9197
26687SOL    HW281675   9.195   5.907   5.679  0.5914 -0.6325  0.3095
26688SOL     OW81676   5.316   3.783   5.409  0.6826 -0.1342  0.2326
26688SOL    HW181677   5.248   3.768   5.475  0.9858  0.5535  0.7014
26688SOL    HW281678   5.340   3.695   5.380  0.7902 -0.4677  1.2828
26689SOL     OW81679   6.521   5.080   8.792  0.1756  0.1745  0.1015
26689SOL    HW181680   6.573   5.160   8.792  1.9395 -0.9179 -0.3163
26689SOL    HW281681   6.547   5.035   8.712 -2.3798  0.1323 -0.7880
26690SOL     OW81682   4.664   3.528   1.469  0.4056 -0.2998  0.1486
26690SOL    HW181683   4.743   3.570   1.437  1.2151  0.2708  2.6830
26690SOL    HW281684   4.689   3.437   1.484 -0.2410 -0.8072 -1.6151
26691SOL     OW81685   9.356   1.318   5.240 -0.0159  0.2281  0.1149
26691SOL    HW181686   9.294   1.319   5.167 -1.3097 -0.4554  1.1665
26691SOL    HW281687   9.393   1.230   5.239 -1.7096 -0.5729  1.5797
26692SOL     OW81688   7.184   9.494   0.295 -0.0840  0.0399  0.2301
26692SOL    HW181689   7.261   9.439   0.282 -0.6075 -0.3942 -1.2555
26692SOL    HW281690   7.117   9.455   0.240 -0.6028  1.8856 -0.5432
26693SOL     OW81691   0.660   4.908   2.025  0.0899  1.1033 -0.0113
26693SOL    HW181692   0.669   4.868   1.938  0.4471 -0.1043  0.5601
26693SOL    HW281693   0.734   4.968   2.031 -0.5288  2.0038 -0.9328
26694SOL     OW81694   1.145   6.440   6.957 -0.7637  0.0073 -0.4861
26694SOL    HW181695   1.095   6.367   6.992 -0.7334  0.9620  1.6525
26694SOL    HW281696   1.151   6.503   7.028 -0.2048  1.8311 -2.0424
26695SOL     OW81697   5.253   5.469   8.584 -0.4893  0.2331 -0.0876
26695SOL    HW181698   5.217   5.381   8.591 -1.6011  0.7534  1.5630
26695SOL    HW281699   5.315   5.475   8.656 -0.6392  0.8692  0.0008
26696SOL     OW81700   3.999   8.441   5.819  0.7405 -0.7793 -0.0710
26696SOL    HW181701   3.924   8.493   5.789  0.7615 -1.0139 -0.5328
26696SOL    HW281702   3.990   8.439   5.915  0.5318 -0.2395 -0.0769
26697SOL     OW81703   9.020   8.370   6.262 -0.5310 -0.1617  0.5336
26697SOL    HW181704   8.994   8.289   6.307 -1.0242  0.1287  0.7807
26697SOL    HW281705   8.956   8.381   6.192 -1.1536  0.6009  1.1955
26698SOL     OW81706   5.593   4.439   3.443 -0.2902 -0.4649 -0.4927
26698SOL    HW181707   5.684   4.456   3.420 -0.3007 -0.1920 -0.3474
26698SOL    HW281708   5.573   4.354   3.405 -0.1235 -0.2999 -0.9511
26699SOL     OW81709   7.513   5.695   7.720  0.2598  0.2931 -0.2528
26699SOL    HW181710   7.418   5.702   7.711  0.3039 -0.4363 -1.4159
26699SOL    HW281711   7.526   5.634   7.792 -0.1341  1.2675  0.6755
26700SOL     OW81712   4.779   2.402   9.601  0.2188  0.3109  0.0712
26700SOL    HW181713   4.859   2.364   9.638  0.4117  1.1068  0.4821
26700SOL    HW281714   4.795   2.406   9.507  0.5456  0.1939  0.1213
26701SOL     OW81715   9.626   4.769   0.595  0.0653 -0.2731 -0.2589
26701SOL    HW181716   9.592   4.846   0.549  1.7133  0.1563 -0.8283
26701SOL    HW281717   9.573   4.764   0.674 -0.0860  1.4658 -0.2050
26702SOL     OW81718   4.755   7.339   7.399  0.1019 -0.5419  0.0697
26702SOL    HW181719   4.727   7.261   7.352  0.6165  0.3526 -1.7982
26702SOL    HW281720   4.673   7.378   7.430 -0.0907 -2.6972  2.6526
26703SOL     OW81721   1.768   9.340   9.604  0.5848 -0.3876  0.1229
26703SOL    HW181722   1.848   9.389   9.622  0.9923 -0.8816 -0.2908
26703SOL    HW281723   1.706   9.406   9.572  0.1943  0.3205  2.2203
26704SOL     OW81724   3.649   8.681   5.414 -0.5674 -0.1206  0.4805
26704SOL    HW181725   3.598   8.757   5.445  0.5169  0.3880  1.0891
26704SOL    HW281726   3.738   8.714   5.406 -0.3798 -0.9093 -0.9021
26705SOL     OW81727   0.926   5.370   0.234  0.4008 -0.1981 -0.6688
26705SOL    HW181728   0.908   5.399   0.144  0.9811 -0.1548 -0.7742
26705SOL    HW281729   0.967   5.284   0.223 -0.1050 -0.4749 -0.4137
26706SOL     OW81730   4.984   3.083   1.818  0.2747 -0.3022 -0.4463
26706SOL    HW181731   5.024   3.170   1.821  1.5423 -0.8755  0.8398
26706SOL    HW281732   5.055   3.024   1.844 -1.1788 -1.4758  1.0392
26707SOL     OW81733   6.218   5.778   2.333  0.1902 -0.1149  0.0939
26707SOL    HW181734   6.222   5.719   2.408 -1.4834 -0.7045 -0.2464
26707SOL    HW281735   6.134   5.822   2.341 -0.1739 -0.4175 -1.5816
26708SOL     OW81736   6.412   3.186   5.076 -0.3772 -0.5172  0.4649
26708SOL    HW181737   6.459   3.139   5.144 -0.7512 -0.8282  0.5177
26708SOL    HW281738   6.330   3.137   5.065 -0.6003 -0.1068  0.2385
26709SOL     OW81739   5.705   1.199   1.077 -0.4147 -0.8576  0.0275
26709SOL    HW181740   5.760   1.123   1.062 -1.0092 -1.8148  2.1594
26709SOL    HW281741   5.765   1.273   1.083  0.4369 -1.5604  0.2853
26710SOL     OW81742   3.149   6.977   0.609 -0.7971  0.4254  0.0230
26710SOL    HW181743   3.170   6.885   0.628 -0.7582  0.5855  0.7745
26710SOL    HW281744   3.065   6.973   0.563  1.3114 -0.3598 -4.3992
26711SOL     OW81745   0.255   5.085   3.100  0.1762 -0.1953  0.4830
26711SOL    HW181746   0.318   5.142   3.144  0.9946 -0.6524 -0.0601
26711SOL    HW281747   0.309   5.027   3.046 -0.7883  1.1615 -2.1241
26712SOL     OW81748   7.631   8.372   1.396  0.1791  0.3707 -0.1587
26712SOL    HW181749   7.540   8.386   1.367 -0.4480  0.6406  1.7826
26712SOL    HW281750   7.641   8.430   1.471  1.4664 -0.8020  0.6201
26713SOL     OW81751   3.277   8.583   2.977 -0.9575  0.0126 -0.4176
26713SOL    HW181752   3.258   8.554   2.888 -0.0913 -0.1487 -0.5660
26713SOL    HW281753   3.259   8.507   3.032  0.9117 -0.7388 -0.7586
26714SOL     OW81754   6.473   3.448   1.493 -0.1167 -0.1429 -0.5558
26714SOL    HW181755   6.393   3.414   1.453  0.0147 -0.6290 -0.4158
26714SOL    HW281756   6.445   3.526   1.541 -0.4104 -0.0075 -0.9406
26715SOL     OW81757   3.047   1.354   7.909 -0.5962 -0.2369 -0.1489
26715SOL    HW181758   3.032   1.400   7.826 -0.3213  0.8066  0.3562
26715SOL    HW281759   3.039   1.262   7.887  0.0408 -0.0050 -1.4589
26716SOL     OW81760   7.493   8.047   9.498  0.1515  0.5809 -0.0090
26716SOL    HW181761   7.488   8.016   9.589 -2.4975  1.7733  0.3468
26716SOL    HW281762   7.405   8.082   9.480  1.4839  3.2570 -1.9955
26717SOL     OW81763   2.325   9.651   1.871  0.7063  0.0788  0.1240
26717SOL    HW181764   2.377   9.633   1.949 -0.4920 -1.3072  0.6451
26717SOL    HW281765   2.274   9.729   1.893  1.8570  0.8942 -0.0504
26718SOL     OW81766   5.922   3.825   7.669  0.1499 -1.0524 -0.1398
26718SOL    HW181767   5.918   3.734   7.640 -1.6808 -1.9868  2.5888
26718SOL    HW281768   5.830   3.852   7.676  0.6609  1.1860 -1.2793
26719SOL     OW81769   3.451   7.488   3.347 -0.0686  0.4583  0.1887
26719SOL    HW181770   3.424   7.575   3.376  1.8131  1.1445  0.0135
26719SOL    HW281771   3.531   7.470   3.396 -0.3202 -1.1049  0.0752
26720SOL     OW81772   8.223   4.503   3.485  0.1698 -0.3322 -0.7723
26720SOL    HW181773   8.179   4.528   3.566  0.6992 -1.5198 -0.0897
26720SOL    HW281774   8.193   4.568   3.421 -1.0848  0.0011  0.1032
26721SOL     OW81775   1.048   8.357   6.674 -0.1099  0.2459  0.5135
26721SOL    HW181776   1.066   8.278   6.623 -1.1941 -0.4307  1.1512
26721SOL    HW281777   1.004   8.416   6.614 -1.7634 -0.7095  0.7360
26722SOL     OW81778   5.585   1.591   9.366 -0.0141  0.0425 -0.0935
26722SOL    HW181779   5.502   1.639   9.356  0.3178  0.3191 -2.0817
26722SOL    HW281780   5.649   1.659   9.387  0.0226  0.1087 -0.4134
26723SOL     OW81781   5.550   7.903   7.873  0.3327  0.2206 -0.1366
26723SOL    HW181782   5.458   7.926   7.859  0.6420  2.1946  0.7268
26723SOL    HW281783   5.582   7.968   7.936  1.7297 -1.8254  1.3982
26724SOL     OW81784   2.723   7.636   1.153  0.1578  0.2472  0.9068
26724SOL    HW181785   2.818   7.631   1.141 -0.0534 -0.3739 -0.9125
26724SOL    HW281786   2.711   7.688   1.232  1.9829  2.8194 -0.3714
26725SOL     OW81787   8.737   3.349   2.854 -0.0167 -0.0735 -0.0958
26725SOL    HW181788   8.696   3.425   2.811 -1.2459 -1.3099 -1.2051
26725SOL    HW281789   8.663   3.293   2.879  0.8821 -1.1546  0.2267
26726SOL     OW81790   2.777   6.281   7.030 -0.3009 -0.1790  0.2689
26726SOL    HW181791   2.847   6.300   6.967 -0.9581 -1.4584 -0.8938
26726SOL    HW281792   2.809   6.317   7.113  0.8630  0.9973 -0.6506
26727SOL     OW81793   4.448   4.465   3.207 -0.0094  0.3473 -0.4971
26727SOL    HW181794   4.478   4.432   3.122  1.3396  1.2118 -0.3918
26727SOL    HW281795   4.434   4.387   3.260 -0.1629 -0.1718 -1.2893
26728SOL     OW81796   4.672   8.485   1.885  0.1669 -0.3590 -0.2112
26728SOL    HW181797   4.722   8.403   1.891  1.0567  0.2447  1.0187
26728SOL    HW281798   4.669   8.518   1.975  0.5884  1.4049 -0.8066
26729SOL     OW81799   7.051   3.793   2.380  0.4961  0.1519 -0.2251
26729SOL    HW181800   7.000   3.779   2.300  1.6536  1.1002 -1.1585
26729SOL    HW281801   7.055   3.888   2.389  0.5627  0.0581  0.8587
26730SOL     OW81802   4.929   4.920   0.816 -0.0015  0.3365  0.4079
26730SOL    HW181803   4.905   4.955   0.730 -0.6396 -1.0580 -0.0068
26730SOL    HW281804   4.849   4.926   0.867 -0.4787 -1.5620 -0.0446
26731SOL     OW81805   8.765   1.818   8.885  0.1281  0.6772 -0.4691
26731SOL    HW181806   8.827   1.878   8.844  0.3654  1.1568  0.5650
26731SOL    HW281807   8.780   1.734   8.841  0.6410  1.0827 -1.0841
26732SOL     OW81808   2.391   8.347   0.872  0.8321  0.0145 -0.5635
26732SOL    HW181809   2.335   8.400   0.929  0.9944 -0.8493  0.4165
26732SOL    HW281810   2.331   8.294   0.820  0.6629  1.2009 -1.6276
26733SOL     OW81811   8.255   6.016   0.999 -0.7705  0.3191  0.4382
26733SOL    HW181812   8.191   6.008   1.069 -1.4667  2.1103  0.0745
26733SOL    HW281813   8.220   6.086   0.943  0.2188 -0.4254 -1.1966
26734SOL     OW81814   4.385   2.939   9.352  0.0940 -0.4168 -0.8016
26734SOL    HW181815   4.409   2.850   9.374 -0.8519 -1.0619 -2.2140
26734SOL    HW281816   4.461   2.973   9.304  0.0118 -0.8470 -1.2389
26735SOL     OW81817   8.384   7.954   7.573  0.9900  0.8990 -0.1987
26735SOL    HW181818   8.413   8.022   7.512 -0.5748  1.2471 -0.5938
26735SOL    HW281819   8.290   7.966   7.579  0.8465 -0.4679  0.6943
26736SOL     OW81820   5.652   8.578   9.752  0.2650 -0.0705  0.7718
26736SOL    HW181821   5.707   8.656   9.744 -0.2725  0.2729  0.2571
26736SOL    HW281822   5.710   8.505   9.732  0.4996  0.3008  0.0686
26737SOL     OW81823   6.323   5.554   0.149  0.0812  0.4147  0.0070
26737SOL    HW181824   6.257   5.615   0.182 -1.8627 -1.6080  0.0840
26737SOL    HW281825   6.287   5.522   0.066  1.5841  0.1656 -0.5957
26738SOL     OW81826   3.946   6.047   5.135  0.4036  0.8017 -0.3114
26738SOL    HW181827   4.009   5.975   5.149 -0.8455  0.0272  1.8498
26738SOL    HW281828   3.994   6.125   5.162  1.1933  0.5453 -0.9283
26739SOL     OW81829   5.130   2.803   7.253 -0.4775  0.5264 -0.0862
26739SOL    HW181830   5.173   2.886   7.276  0.8471 -0.2366  0.3503
26739SOL    HW281831   5.049   2.803   7.304 -1.2061  2.1566 -1.1738
26740SOL     OW81832   5.784   9.016   7.751 -0.3925  0.6305  0.1061
26740SOL    HW181833   5.690   9.011   7.772 -0.3791 -0.3279 -0.0097
26740SOL    HW281834   5.825   8.954   7.812  0.3232  1.8812  0.9483
26741SOL     OW81835   1.651   8.202   2.696  0.2690  0.2790 -0.1580
26741SOL    HW181836   1.647   8.250   2.779  2.8917 -3.0262  2.1905
26741SOL    HW281837   1.736   8.224   2.659  0.2688 -0.3310 -0.5340
26742SOL     OW81838   6.013   6.740   7.374  0.0856  0.0773 -0.3225
26742SOL    HW181839   6.012   6.830   7.343  0.4122  0.0966 -0.2740
26742SOL    HW281840   6.057   6.691   7.305  1.7937  0.2924  0.5739
26743SOL     OW81841   3.793   2.405   0.888 -0.0893 -0.4402  0.1862
26743SOL    HW181842   3.792   2.364   0.975  0.8305 -1.3298 -0.2101
26743SOL    HW281843   3.725   2.358   0.839  0.3834 -0.9220 -0.0106
26744SOL     OW81844   7.065   2.099   9.684  0.1775  0.8025  0.3976
26744SOL    HW181845   7.007   2.176   9.689  0.6793  1.1740  0.5595
26744SOL    HW281846   7.151   2.135   9.662  0.1785  0.1681 -0.6778
26745SOL     OW81847   0.542   2.351   7.675  0.2472 -0.5251  0.1225
26745SOL    HW181848   0.608   2.412   7.707  1.5531 -0.7272 -2.0285
26745SOL    HW281849   0.468   2.406   7.651  0.4866 -0.0577  0.4340
26746SOL     OW81850   4.348   6.181   7.676  0.0960  0.0221 -0.4460
26746SOL    HW181851   4.263   6.196   7.635 -0.4319 -0.6069  0.3781
26746SOL    HW281852   4.331   6.113   7.741  1.1407  0.2057  0.0326
26747SOL     OW81853   7.650   1.989   9.418 -0.4673  0.1990  0.3976
26747SOL    HW181854   7.628   2.080   9.397 -2.6928 -0.4800 -0.5106
26747SOL    HW281855   7.566   1.944   9.419  0.6692 -2.1055 -0.4168
26748SOL     OW81856   4.222   3.694   6.004 -0.0648  0.0690  0.0107
26748SOL    HW181857   4.153   3.644   5.960  0.2499 -0.3755  0.0154
26748SOL    HW281858   4.301   3.676   5.952  0.0808  0.4387  0.1047
26749SOL     OW81859   3.006   1.895   8.915 -0.5236 -0.1581  0.1574
26749SOL    HW181860   2.976   1.805   8.910 -0.9930  0.0435 -1.1230
26749SOL    HW281861   2.927   1.947   8.898 -0.0031  0.4479 -0.4530
26750SOL     OW81862   2.054   8.354   3.141 -0.3528  0.6635 -0.1782
26750SOL    HW181863   2.012   8.347   3.227  1.3206  0.0475  0.6134
26750SOL    HW281864   2.043   8.268   3.101 -0.5093  0.7398 -0.3046
26751SOL     OW81865   0.980   0.687   5.930 -0.2054  0.3871  0.1959
26751SOL    HW181866   1.065   0.647   5.909 -1.1587 -0.6646 -1.9891
26751SOL    HW281867   0.920   0.612   5.936 -0.8460  1.0100  2.8204
26752SOL     OW81868   3.483   7.652   8.836  0.1544  0.2145 -0.0002
26752SOL    HW181869   3.546   7.704   8.886 -0.7878  0.7459  0.6584
26752SOL    HW281870   3.536   7.582   8.797  1.4044  1.4871 -0.6913
26753SOL     OW81871   2.748   3.399   2.038 -0.3861  0.1633  0.0619
26753SOL    HW181872   2.713   3.351   1.963 -0.7392 -0.7821  0.8122
26753SOL    HW281873   2.671   3.440   2.078 -0.3976 -0.4331  0.6693
26754SOL     OW81874   7.195   0.257   7.694 -0.0415  0.0154  0.2050
26754SOL    HW181875   7.177   0.335   7.642  1.5359  0.1228 -0.2306
26754SOL    HW281876   7.224   0.291   7.779 -0.4941 -0.1264  0.4212
26755SOL     OW81877   8.100   3.975   2.920 -0.3752 -0.2633  0.2402
26755SOL    HW181878   8.144   3.901   2.961 -0.4273 -0.7319 -0.5138
26755SOL    HW281879   8.080   3.944   2.831 -1.8783  0.0711  0.4422
26756SOL     OW81880   6.268   9.659   1.584  0.2415  0.3229 -0.3286
26756SOL    HW181881   6.217   9.738   1.602  0.7509  0.6667 -0.3465
26756SOL    HW281882   6.359   9.690   1.580  0.5808 -0.4446  0.8267
26757SOL     OW81883   1.583   3.696   4.922  0.4576 -0.3779 -0.0039
26757SOL    HW181884   1.648   3.762   4.941 -0.3102  0.8051 -1.3566
26757SOL    HW281885   1.499   3.741   4.932 -0.0618 -0.8525 -1.9158
26758SOL     OW81886   8.714   2.890   4.406  0.1969 -0.6276  0.1296
26758SOL    HW181887   8.795   2.865   4.362 -0.0071 -1.1677  0.0474
26758SOL    HW281888   8.713   2.985   4.404  1.2019 -0.5919  0.8197
26759SOL     OW81889   8.247   4.528   0.419  0.1147 -0.2182 -0.0825
26759SOL    HW181890   8.306   4.503   0.348  0.8602  0.5478  0.2454
26759SOL    HW281891   8.243   4.624   0.414 -2.5564 -0.3026 -1.2504
26760SOL     OW81892   2.955   7.265   9.783  0.4687  0.8159 -0.1202
26760SOL    HW181893   2.937   7.358   9.794  0.5738  0.7008  1.2302
26760SOL    HW281894   3.001   7.240   9.864 -1.9274 -0.9717  0.8162
26761SOL     OW81895   8.347   9.802   2.475  0.0250  1.0071  0.4509
26761SOL    HW181896   8.326   9.830   2.386 -0.9632 -1.1491 -0.0559
26761SOL    HW281897   8.273   9.833   2.528 -0.3314  0.6349  0.1735
26762SOL     OW81898   8.603   7.497   4.157 -0.4943  0.1989 -0.0592
26762SOL    HW181899   8.518   7.455   4.149  0.0951 -0.9326 -0.6166
26762SOL    HW281900   8.660   7.430   4.195  0.7148  0.0893 -1.9133
26763SOL     OW81901   0.250   8.772   6.221 -0.1654  0.7173  0.4000
26763SOL    HW181902   0.176   8.797   6.276 -0.0358 -1.5450  1.7013
26763SOL    HW281903   0.235   8.680   6.200  0.1722  1.2541 -2.8414
26764SOL     OW81904   6.028   6.225   2.542  0.5977 -0.0930  0.1417
26764SOL    HW181905   5.965   6.270   2.598  0.4864  0.9928 -0.8245
26764SOL    HW281906   6.026   6.134   2.572 -1.1631 -0.0107  0.3617
26765SOL     OW81907   9.269   5.535   0.778  0.1469  0.1131 -0.2559
26765SOL    HW181908   9.280   5.524   0.684 -1.6716  1.6177 -0.7004
26765SOL    HW281909   9.217   5.615   0.787 -0.8128 -0.6841  1.9673
26766SOL     OW81910   0.792   0.434   4.536  0.4836 -0.1395  0.4093
26766SOL    HW181911   0.835   0.482   4.607 -0.7519  1.0898  0.3551
26766SOL    HW281912   0.734   0.372   4.580  0.6534 -0.2562  0.4705
26767SOL     OW81913   9.618   2.440   5.635  0.6924  0.2104  0.5749
26767SOL    HW181914   9.544   2.498   5.653  0.5185  0.0112  0.5021
26767SOL    HW281915   9.665   2.435   5.718  0.8887  0.7091  0.5000
26768SOL     OW81916   6.072   1.048   8.219 -0.0297 -0.2961  0.2223
26768SOL    HW181917   6.055   0.972   8.163  0.2075 -0.8678  0.9158
26768SOL    HW281918   6.057   1.016   8.308  1.0238  0.2025  0.5929
26769SOL     OW81919   8.235   5.625   6.434  0.0708  0.5125 -0.1881
26769SOL    HW181920   8.316   5.588   6.470  0.1451  0.5405 -0.3244
26769SOL    HW281921   8.171   5.615   6.504 -0.2836 -1.1791 -0.7016
26770SOL     OW81922   3.621   1.519   0.504  0.0475  0.1773 -0.4966
26770SOL    HW181923   3.676   1.505   0.427 -0.1781  1.9741 -1.0362
26770SOL    HW281924   3.673   1.576   0.560 -0.2233 -0.2562  0.2091
26771SOL     OW81925   3.870   7.797   3.648  0.5660 -0.0998  0.8088
26771SOL    HW181926   3.858   7.820   3.556 -0.6031 -0.6467  0.8105
26771SOL    HW281927   3.844   7.876   3.696  1.5688  0.3259  0.6715
26772SOL     OW81928   4.759   5.661   7.620  0.7779  0.1366 -0.2693
26772SOL    HW181929   4.848   5.689   7.602  0.9428 -1.0334 -1.3735
26772SOL    HW281930   4.708   5.692   7.545  0.4990 -0.3015 -0.2650
26773SOL     OW81931   5.199   6.300   2.182  0.7677 -0.3294  0.3515
26773SOL    HW181932   5.168   6.228   2.238  0.2811 -0.0364  0.4604
26773SOL    HW281933   5.268   6.260   2.128  1.0474 -0.6858  0.9604
26774SOL     OW81934   3.267   8.696   4.878 -0.1856 -0.1747  0.3576
26774SOL    HW181935   3.261   8.790   4.898 -0.9784 -0.1254 -0.0615
26774SOL    HW281936   3.241   8.653   4.959  0.3767 -0.0403  0.6144
26775SOL     OW81937   9.563   1.337   4.426 -0.2154 -0.5304  0.5050
26775SOL    HW181938   9.646   1.385   4.423  0.4369 -1.5802  1.0287
26775SOL    HW281939   9.510   1.383   4.492  0.7561 -1.0441  1.6891
26776SOL     OW81940   8.905   8.331   1.460  0.5088 -0.4733  0.1931
26776SOL    HW181941   8.854   8.254   1.437  1.0176 -0.7558 -0.0086
26776SOL    HW281942   8.861   8.403   1.416  0.6666 -0.8084 -0.5291
26777SOL     OW81943   6.139   2.715   6.773  0.5644  0.0262 -0.2590
26777SOL    HW181944   6.119   2.780   6.841 -4.4021 -0.2354 -1.1346
26777SOL    HW281945   6.137   2.765   6.692  1.3162 -0.5431 -0.6397
26778SOL     OW81946   8.982   0.680   3.294 -0.0000  0.0028  0.1687
26778SOL    HW181947   9.002   0.773   3.279  2.2363 -0.1612  1.5194
26778SOL    HW281948   8.924   0.655   3.222 -0.5103  2.3917 -0.3296
26779SOL     OW81949   6.670   9.445   3.123  0.3464 -0.1220  0.0767
26779SOL    HW181950   6.737   9.513   3.133  2.8116 -2.3640 -0.2289
26779SOL    HW281951   6.668   9.426   3.029 -0.1571 -0.6421  0.1872
26780SOL     OW81952   0.070   6.549   8.157  0.1300 -0.3517 -0.4845
26780SOL    HW181953  -0.001   6.567   8.095 -0.1980  0.1881  0.0377
26780SOL    HW281954   0.135   6.618   8.140 -0.5611  0.6257  0.6590
26781SOL     OW81955   4.991   9.611   0.926 -0.0583 -0.6400 -0.0198
26781SOL    HW181956   4.956   9.529   0.961  1.6479 -1.7622 -0.8036
26781SOL    HW281957   5.070   9.627   0.977 -0.7719  0.9834  0.6531
26782SOL     OW81958   9.399   1.889   1.746 -0.6334  0.6337 -0.1603
26782SOL    HW181959   9.445   1.826   1.801 -2.1625  1.8797  2.7140
26782SOL    HW281960   9.386   1.842   1.663  3.4960 -0.6224 -0.3480
26783SOL     OW81961   1.253   9.254   7.772  0.0449 -0.0834  0.4375
26783SOL    HW181962   1.310   9.225   7.700  1.7631 -1.0007  2.0879
26783SOL    HW281963   1.303   9.323   7.815 -0.8672  0.2957  0.9078
26784SOL     OW81964   4.547   8.186   9.502 -0.6651  0.1960  0.6065
26784SOL    HW181965   4.497   8.210   9.580 -2.3036 -0.1720 -0.2675
26784SOL    HW281966   4.499   8.228   9.430  1.1288  0.9989 -0.1754
26785SOL     OW81967   9.497   7.414   8.474  0.3407  0.0346 -0.0371
26785SOL    HW181968   9.562   7.465   8.427 -0.2954 -0.2549 -1.2656
26785SOL    HW281969   9.414   7.432   8.429  0.2594 -2.8904 -1.2864
26786SOL     OW81970   4.219   0.398   0.980  0.0440 -0.1040 -0.1488
26786SOL    HW181971   4.276   0.321   0.985 -1.4593 -1.2630 -0.1563
26786SOL    HW281972   4.249   0.445   0.903  1.0198 -0.6441 -0.1218
26787SOL     OW81973   5.825   1.906   6.978 -0.4446  0.0715  0.5512
26787SOL    HW181974   5.767   1.841   7.018 -0.8861  1.3648  2.1026
26787SOL    HW281975   5.828   1.881   6.885 -0.0940 -2.5076  1.1827
26788SOL     OW81976   0.061   4.086   2.770 -0.0548  0.0676 -0.3201
26788SOL    HW181977   0.078   4.014   2.831  1.8579  1.1428  0.5120
26788SOL    HW281978   0.144   4.099   2.725 -0.8377  0.7108 -1.6170
26789SOL     OW81979   1.816   0.802   6.845 -0.0567  0.1116  0.5843
26789SOL    HW181980   1.872   0.725   6.859 -0.0756  0.2810  1.7766
26789SOL    HW281981   1.826   0.852   6.926 -0.9097  0.8111  0.2657
26790SOL     OW81982   6.619   3.383   3.796  0.3015 -0.5105  0.3088
26790SOL    HW181983   6.696   3.418   3.752 -0.6027 -1.2315 -1.9957
26790SOL    HW281984   6.644   3.380   3.889  3.1213 -0.9898 -0.3745
26791SOL     OW81985   4.905   6.238   0.052 -0.7564  0.5384  0.1620
26791SOL    HW181986   4.846   6.312   0.062  0.2977  1.2870  1.0932
26791SOL    HW281987   4.921   6.208   0.142  0.0779  0.1899 -0.0930
26792SOL     OW81988   6.062   6.509   6.144 -0.0663 -0.4660 -0.4273
26792SOL    HW181989   6.027   6.484   6.058 -0.3328 -0.5232 -0.3052
26792SOL    HW281990   6.084   6.425   6.186 -2.2171 -0.6368  0.5113
26793SOL     OW81991   0.612   4.264   2.878 -0.0401 -0.3061 -0.4419
26793SOL    HW181992   0.560   4.333   2.836 -0.7233 -0.9521 -0.6662
26793SOL    HW281993   0.548   4.199   2.906  0.7473 -1.9053 -2.1460
26794SOL     OW81994   7.447   0.002   4.061  0.2161 -0.5228 -0.2661
26794SOL    HW181995   7.504   0.048   4.000  0.3079  0.4242  0.4972
26794SOL    HW281996   7.489   0.014   4.146 -0.5911 -0.6695  0.1653
26795SOL     OW81997   4.417   1.713   0.183  0.2472  0.5611 -0.5619
26795SOL    HW181998   4.450   1.643   0.126 -1.3974 -0.1760 -0.6776
26795SOL    HW281999   4.411   1.789   0.126 -0.8049 -0.0132 -1.2592
26796SOL     OW82000   2.185   3.710   3.121 -0.2558  0.0016 -0.5694
26796SOL    HW182001   2.093   3.686   3.106 -0.3564  0.4975 -0.7580
26796SOL    HW282002   2.191   3.721   3.216 -0.3227 -0.3077 -0.5284
26797SOL     OW82003   5.595   9.761   1.764 -0.3855 -0.4822  0.3903
26797SOL    HW182004   5.520   9.769   1.704  0.0842 -0.3456 -0.1851
26797SOL    HW282005   5.655   9.702   1.718 -0.5639 -1.3982  1.2888
26798SOL     OW82006   6.949   3.234   0.930 -0.4593 -0.8051 -0.0922
26798SOL    HW182007   6.914   3.303   0.873  1.3591 -1.3471 -1.9913
26798SOL    HW282008   6.958   3.276   1.015 -1.0718  0.7609 -0.7567
26799SOL     OW82009   2.145   8.809   0.462 -0.5345  0.6825 -0.5920
26799SOL    HW182010   2.215   8.755   0.426  0.6486  1.5526  0.3256
26799SOL    HW282011   2.120   8.765   0.543  0.1825  1.2886 -0.0271
26800SOL     OW82012   2.466   4.567   2.909 -0.1232  0.2707  0.0174
26800SOL    HW182013   2.532   4.502   2.934 -0.9374  0.0078  1.6441
26800SOL    HW282014   2.388   4.543   2.961 -1.1331  1.2424 -0.9953
26801SOL     OW82015   5.741   6.091   1.855  0.1198 -0.4751 -0.4334
26801SOL    HW182016   5.775   6.130   1.775 -2.3552 -1.4111 -2.0654
26801SOL    HW282017   5.783   6.005   1.859  0.5045 -0.2958 -0.5027
26802SOL     OW82018   2.829   1.204   4.641  0.1818  0.1126  0.3536
26802SOL    HW182019   2.750   1.248   4.674  0.2581  0.9206 -0.4971
26802SOL    HW282020   2.803   1.170   4.555  0.0884 -1.6613  1.0270
26803SOL     OW82021   8.075   9.139   2.763  0.4309  0.1350  0.2736
26803SOL    HW182022   8.113   9.226   2.774  0.7579  0.0253  0.0140
26803SOL    HW282023   7.982   9.151   2.785  0.5137  0.5043  0.4366
26804SOL     OW82024   2.020   7.908   7.789 -0.2743  0.0547  0.7798
26804SOL    HW182025   2.012   7.898   7.884 -0.8756 -0.5800  0.6731
26804SOL    HW282026   2.036   7.819   7.757 -1.6301 -0.0009  0.1535
26805SOL     OW82027   2.721   3.644   4.233 -0.1625  0.2501  0.3086
26805SOL    HW182028   2.697   3.623   4.323  0.5696 -1.2770  0.1789
26805SOL    HW282029   2.669   3.585   4.179  1.3644 -0.7607 -0.1198
26806SOL     OW82030   4.237   9.438   7.527  0.2049 -0.2474 -0.2520
26806SOL    HW182031   4.177   9.414   7.597  1.3406 -0.2155  0.7727
26806SOL    HW282032   4.285   9.357   7.508  0.9560  0.1127  0.0841
26807SOL     OW82033   5.896   2.375   4.782  0.1001 -0.1480 -0.0434
26807SOL    HW182034   5.918   2.399   4.872 -1.5451 -1.1273  0.6723
26807SOL    HW282035   5.890   2.459   4.736 -0.5120  0.4901  1.1446
26808SOL     OW82036   4.600   6.122   1.717  0.2026  0.2388  0.0328
26808SOL    HW182037   4.586   6.053   1.653 -0.3653  1.0007 -0.6915
26808SOL    HW282038   4.522   6.178   1.710  0.6095  0.9058  0.6502
26809SOL     OW82039   7.322   8.048   4.524 -0.1280  0.1850 -0.3576
26809SOL    HW182040   7.322   8.111   4.452  1.0274 -0.3698 -0.8832
26809SOL    HW282041   7.379   8.088   4.590 -0.7513  0.4465  0.0271
26810SOL     OW82042   8.391   2.236   3.920 -0.0379  0.2413 -0.2972
26810SOL    HW182043   8.472   2.270   3.958 -0.4152  2.6872 -1.4947
26810SOL    HW282044   8.415   2.212   3.831  0.2015 -2.8590  0.4848
26811SOL     OW82045   2.304   2.971   2.524 -0.2728  0.8743  0.3687
26811SOL    HW182046   2.297   3.065   2.509  0.1003  0.9170  0.4725
26811SOL    HW282047   2.397   2.951   2.513 -0.3478  0.5198  0.3619
26812SOL     OW82048   1.119   2.625   7.462 -0.1496  0.2648  0.1486
26812SOL    HW182049   1.209   2.645   7.435  0.7879 -1.5445  1.6246
26812SOL    HW282050   1.069   2.625   7.381  0.6795  3.3976 -0.4907
26813SOL     OW82051   2.638   6.275   9.018  0.3768  0.3168  0.3062
26813SOL    HW182052   2.587   6.332   8.961 -0.3653 -0.4657  0.1785
26813SOL    HW282053   2.673   6.208   8.960  0.9101  0.4002  0.5245
26814SOL     OW82054   4.638   1.640   0.020  0.2362  0.1144  0.4449
26814SOL    HW182055   4.668   1.698  -0.050 -0.4858  0.7514  0.6408
26814SOL    HW282056   4.567   1.590  -0.019  0.2725 -0.0035  0.5308
26815SOL     OW82057   8.147   6.050   4.746 -0.3076 -0.5194  0.6374
26815SOL    HW182058   8.052   6.058   4.747 -0.2107  0.9550  0.0332
26815SOL    HW282059   8.174   6.076   4.834 -0.4011  0.0798  0.4918
26816SOL     OW82060   3.090   9.284   9.513 -0.0454 -0.1259  0.0198
26816SOL    HW182061   3.162   9.303   9.573  2.6373 -1.0442 -2.6646
26816SOL    HW282062   3.113   9.328   9.432 -2.0227 -1.2774 -1.2715
26817SOL     OW82063   8.021   5.177   6.495 -0.2289  0.1260  0.2599
26817SOL    HW182064   8.036   5.257   6.445 -0.9826  0.9917  1.3557
26817SOL    HW282065   8.108   5.147   6.519  0.0987  0.1995 -0.7880
26818SOL     OW82066   2.531   3.123   4.113 -0.2450 -0.1009  0.6328
26818SOL    HW182067   2.572   3.197   4.067 -1.6073  0.4647  0.2839
26818SOL    HW282068   2.523   3.153   4.203 -0.7996  0.1919  0.4909
26819SOL     OW82069   0.145   6.705   7.185  0.0955  0.1634 -0.5890
26819SOL    HW182070   0.164   6.701   7.092  0.5763 -1.7026 -0.4590
26819SOL    HW282071   0.067   6.650   7.196 -0.0702  0.5168  0.0873
26820SOL     OW82072   2.844   5.517   2.291  0.1331  0.6607  0.0612
26820SOL    HW182073   2.758   5.516   2.334 -0.8396  0.5265 -1.7697
26820SOL    HW282074   2.904   5.551   2.357 -0.8450 -1.5092  2.2248
26821SOL     OW82075   5.582   6.679   9.720  0.1413 -0.1849 -0.1711
26821SOL    HW182076   5.536   6.613   9.773 -2.1684  0.6719 -0.9892
26821SOL    HW282077   5.545   6.668   9.632  0.6174  1.3743 -0.5854
26822SOL     OW82078   9.531   6.622   5.977  0.1108  0.1294 -0.4013
26822SOL    HW182079   9.541   6.646   5.885  0.9458  0.4018 -0.2486
26822SOL    HW282080   9.542   6.704   6.025 -2.4303  0.3935 -0.1355
26823SOL     OW82081   3.989   5.546   6.051  0.3726  0.0037 -0.2349
26823SOL    HW182082   3.929   5.529   6.123 -0.4290  3.3085  0.0437
26823SOL    HW282083   4.070   5.573   6.093  0.5827 -0.0432 -0.6071
26824SOL     OW82084   4.416   6.379   7.439  0.5568 -0.5493  0.3225
26824SOL    HW182085   4.441   6.333   7.359 -0.8041 -0.0592 -0.4236
26824SOL    HW282086   4.321   6.368   7.444  0.2291  1.7724  0.3528
26825SOL     OW82087   8.862   2.265   2.572 -0.1556 -0.1534 -0.3014
26825SOL    HW182088   8.855   2.311   2.655  0.3280 -0.1222 -0.2770
26825SOL    HW282089   8.839   2.331   2.506  2.6202  0.7895 -0.4409
26826SOL     OW82090   4.920   1.508   7.873 -0.0170 -0.0833 -0.0265
26826SOL    HW182091   4.831   1.475   7.890 -0.2107 -0.3116 -1.3991
26826SOL    HW282092   4.974   1.465   7.940 -0.7131 -1.0424 -0.0600
26827SOL     OW82093   1.636   5.695   2.928 -0.2971 -0.0557 -0.5795
26827SOL    HW182094   1.542   5.695   2.946 -0.4318  1.1402 -1.1402
26827SOL    HW282095   1.643   5.737   2.842  0.8447  1.2876  0.1371
26828SOL     OW82096   7.751   5.797   3.889 -0.1974  0.4653  0.0869
26828SOL    HW182097   7.753   5.762   3.978  0.2503  0.7863  0.2055
26828SOL    HW282098   7.786   5.726   3.835  0.4253  0.6097  0.2894
26829SOL     OW82099   0.351   7.506   8.123 -0.3004  0.3532 -0.1324
26829SOL    HW182100   0.323   7.528   8.212  1.4175 -2.4164  1.2051
26829SOL    HW282101   0.437   7.547   8.114 -0.0589 -0.1688 -0.1792
26830SOL     OW82102   3.460   5.275   4.036 -1.1322  0.4208 -0.3078
26830SOL    HW182103   3.505   5.231   3.964 -0.0078  0.4732  0.3266
26830SOL    HW282104   3.419   5.351   3.996 -1.2494 -0.0198 -1.0401
26831SOL     OW82105   6.419   2.766   4.811  0.1215  0.3648 -0.0501
26831SOL    HW182106   6.346   2.778   4.871  2.7403 -0.1124  3.5949
26831SOL    HW282107   6.450   2.855   4.793 -0.5022  0.4950 -0.5363
26832SOL     OW82108   3.311   2.815   3.263  0.3112 -0.0710  0.3224
26832SOL    HW182109   3.277   2.736   3.222  0.1014  0.0514  0.2605
26832SOL    HW282110   3.238   2.847   3.317  0.8577 -0.7050  1.4709
26833SOL     OW82111   9.580   9.078   8.962 -0.0087 -0.1522  0.3242
26833SOL    HW182112   9.583   9.173   8.976  0.8156 -0.3519  1.6258
26833SOL    HW282113   9.660   9.058   8.914 -1.7255  0.2049 -2.9409
26834SOL     OW82114   6.689   4.527   9.596 -0.2399  0.1542  0.2914
26834SOL    HW182115   6.710   4.440   9.629  2.3488 -0.1499 -1.8330
26834SOL    HW282116   6.610   4.515   9.543  1.5427 -1.6037 -2.1988
26835SOL     OW82117   5.668   4.621   3.129  0.1497 -0.7176 -0.2792
26835SOL    HW182118   5.732   4.573   3.076 -1.4427 -0.8413 -2.1772
26835SOL    HW282119   5.591   4.564   3.132 -0.6603  0.3716  0.0907
26836SOL     OW82120   2.532   6.432   4.412 -0.1365  0.8173 -0.6515
26836SOL    HW182121   2.532   6.388   4.327 -0.0875 -3.0859  1.1375
26836SOL    HW282122   2.621   6.419   4.445 -0.5410  0.9595  0.5453
26837SOL     OW82123   4.116   6.623   5.193  0.0410 -0.1581 -0.0380
26837SOL    HW182124   4.037   6.572   5.210  0.9520 -1.2929  0.9993
26837SOL    HW282125   4.104   6.658   5.105 -1.8874  0.2482  0.3476
26838SOL     OW82126   0.575   3.304   2.702 -0.0560 -0.0773 -0.0031
26838SOL    HW182127   0.600   3.371   2.766 -1.1514  1.5202 -1.1756
26838SOL    HW282128   0.650   3.245   2.699  0.3375  0.2285  2.1580
26839SOL     OW82129   4.662   2.630   5.032 -0.4724  0.0182 -0.2410
26839SOL    HW182130   4.624   2.543   5.030 -1.9322  0.6174  0.3464
26839SOL    HW282131   4.686   2.644   5.124 -2.1504  0.9906  0.0904
26840SOL     OW82132   0.002   3.951   9.326  0.1245 -0.0408 -0.4841
26840SOL    HW182133  -0.005   4.027   9.268  1.5437 -0.5444 -1.3656
26840SOL    HW282134   0.055   3.982   9.400  0.9845 -0.2289 -1.0012
26841SOL     OW82135   1.049   6.770   9.830  0.0987  0.3380  0.5349
26841SOL    HW182136   1.138   6.802   9.840 -0.1760  0.8447  1.6123
26841SOL    HW282137   1.036   6.761   9.736  1.5954 -0.6725  0.3954
26842SOL     OW82138   7.653   7.553   4.192 -0.3903 -0.1191 -0.5044
26842SOL    HW182139   7.673   7.580   4.102 -1.3037  1.5884 -0.2289
26842SOL    HW282140   7.587   7.484   4.182  1.8318 -2.2906 -1.2092
26843SOL     OW82141   5.138   5.555   2.739  0.1168 -0.4270  0.4297
26843SOL    HW182142   5.200   5.607   2.791 -1.7455  0.2512  2.1407
26843SOL    HW282143   5.056   5.605   2.744 -0.6236 -1.3545 -1.6212
26844SOL     OW82144   9.165   9.175   2.602 -0.1547 -0.7522 -0.0753
26844SOL    HW182145   9.110   9.101   2.579  1.6677 -1.9643 -0.7217
26844SOL    HW282146   9.186   9.162   2.695  3.0175 -3.1567 -0.9416
26845SOL     OW82147   2.645   3.605   1.631  0.0879  0.1051  0.0701
26845SOL    HW182148   2.716   3.580   1.571 -1.0403 -1.2992 -0.7653
26845SOL    HW282149   2.633   3.699   1.617  0.8049  0.0697 -0.8827
26846SOL     OW82150   3.326   5.071   8.010  0.3123  0.2629  0.1347
26846SOL    HW182151   3.389   5.058   8.081  0.9494 -0.6261 -0.5683
26846SOL    HW282152   3.379   5.070   7.930  0.0205  4.0480 -0.2659
26847SOL     OW82153   1.595   7.559   1.297 -0.0428  0.2650  0.0853
26847SOL    HW182154   1.603   7.534   1.389 -0.7348 -2.4578 -0.5172
26847SOL    HW282155   1.673   7.611   1.280  0.0484  0.9242  2.2173
26848SOL     OW82156   0.274   3.267   6.701 -0.2521  0.1802 -0.0412
26848SOL    HW182157   0.323   3.216   6.766  0.5453  0.4646 -0.4124
26848SOL    HW282158   0.255   3.204   6.631  0.1597  0.2269 -0.1981
26849SOL     OW82159   6.562   3.729   3.559  0.2168  0.9487  0.5836
26849SOL    HW182160   6.466   3.736   3.560 -0.0708 -1.5718 -0.9113
26849SOL    HW282161   6.586   3.752   3.469  1.0982  1.9552  1.0538
26850SOL     OW82162   6.179   8.769   8.620 -0.1176  0.2351 -0.2943
26850SOL    HW182163   6.167   8.696   8.559 -2.1678 -0.2787  0.6414
26850SOL    HW282164   6.233   8.734   8.690  0.7930  0.3215 -0.9298
26851SOL     OW82165   5.661   3.795   0.235 -0.3091 -0.3163  0.0331
26851SOL    HW182166   5.587   3.842   0.273 -0.4979 -1.1619  0.7423
26851SOL    HW282167   5.660   3.709   0.278  0.6248 -0.6127 -0.5014
26852SOL     OW82168   5.367   2.220   4.496  0.7956  0.1402 -0.2331
26852SOL    HW182169   5.449   2.205   4.544 -0.0779  0.0791  1.3137
26852SOL    HW282170   5.334   2.304   4.530 -0.3687 -0.4177  0.0821
26853SOL     OW82171   1.033   9.551   0.304  0.0313 -0.2315 -0.3010
26853SOL    HW182172   0.960   9.523   0.247 -0.1459  1.1219 -0.7832
26853SOL    HW282173   1.099   9.483   0.292 -0.3644 -0.4524 -1.4401
26854SOL     OW82174   3.934   1.103   0.448 -0.0964  0.0972  0.7115
26854SOL    HW182175   3.978   1.103   0.533  1.5810 -2.0113 -0.0576
26854SOL    HW282176   3.847   1.137   0.467  0.7888  1.4074  2.9175
26855SOL     OW82177   0.896   8.161   4.910 -0.7352 -0.9263 -0.1103
26855SOL    HW182178   0.879   8.136   5.001  1.0910 -2.4088 -0.1411
26855SOL    HW282179   0.987   8.188   4.908 -1.0923  0.3303 -1.2783
26856SOL     OW82180   4.613   0.504   3.590 -0.3683  0.4120 -0.0467
26856SOL    HW182181   4.702   0.494   3.624 -1.2471  0.0710  2.2714
26856SOL    HW282182   4.591   0.418   3.554  0.6383  0.8323 -1.7963
26857SOL     OW82183   3.441   7.692   9.745 -0.1961 -0.2305 -0.1376
26857SOL    HW182184   3.406   7.620   9.797 -0.9373  1.0959  1.2639
26857SOL    HW282185   3.533   7.669   9.731 -0.1649 -0.9608  1.1327
26858SOL     OW82186   5.190   1.193   9.126  0.2529 -0.0412  0.4873
26858SOL    HW182187   5.188   1.258   9.196  1.9690  0.2925  0.2760
26858SOL    HW282188   5.253   1.228   9.062 -2.7018  0.6762 -2.2865
26859SOL     OW82189   2.681   0.538   4.152 -0.2292 -0.1773  0.2104
26859SOL    HW182190   2.644   0.455   4.121  0.6108  0.1641 -1.8733
26859SOL    HW282191   2.773   0.535   4.124  0.1927  0.8516  1.4032
26860SOL     OW82192   1.251   0.232   5.039 -0.0226 -0.4599  0.2938
26860SOL    HW182193   1.287   0.236   4.950  0.2688  0.6067  0.4446
26860SOL    HW282194   1.289   0.308   5.083 -1.6753  0.1118  0.7668
26861SOL     OW82195   4.079   0.798   3.643  0.0522  0.0238  0.3352
26861SOL    HW182196   4.127   0.783   3.725  1.0789  0.2886 -0.1929
26861SOL    HW282197   4.112   0.730   3.584  1.1698  1.3268 -0.5986
26862SOL     OW82198   6.982   1.670   9.232 -0.0416 -0.1012  0.0350
26862SOL    HW182199   7.041   1.601   9.262 -1.0489 -0.1305  2.1591
26862SOL    HW282200   6.994   1.673   9.137 -1.2132 -4.5050 -0.4832
26863SOL     OW82201   1.788   8.566   4.831  0.4843  0.3706  0.0105
26863SOL    HW182202   1.835   8.639   4.871 -0.3932 -0.2402  2.3198
26863SOL    HW282203   1.832   8.552   4.747  2.7586  1.4345  0.9424
26864SOL     OW82204   6.540   2.641   6.665  0.2806  0.2813 -0.4978
26864SOL    HW182205   6.600   2.575   6.631  0.9091  0.1250  0.8329
26864SOL    HW282206   6.457   2.594   6.676 -0.6657  0.8886 -3.8756
26865SOL     OW82207   1.926   4.506   5.594  0.6509 -0.2520 -0.0734
26865SOL    HW182208   1.946   4.486   5.502 -3.3545 -1.6599 -0.8315
26865SOL    HW282209   1.949   4.426   5.642  0.0384 -0.6165 -0.3748
26866SOL     OW82210   4.342   5.376   3.067  0.6183 -0.4130 -0.3070
26866SOL    HW182211   4.298   5.302   3.025 -0.9601  0.0339  0.4728
26866SOL    HW282212   4.368   5.432   2.993 -1.0051 -0.2396 -0.7967
26867SOL     OW82213   6.771   7.167   1.579 -0.1006 -0.0500  0.1831
26867SOL    HW182214   6.790   7.235   1.515 -0.5323 -1.1187 -1.1164
26867SOL    HW282215   6.681   7.141   1.562 -0.2789 -0.2575  1.3340
26868SOL     OW82216   0.164   8.767   2.308  0.3598 -0.0086 -0.6724
26868SOL    HW182217   0.080   8.812   2.307  0.9928  1.2585 -2.6847
26868SOL    HW282218   0.144   8.677   2.284 -0.2956  0.6619 -2.8617
26869SOL     OW82219   1.159   4.497   4.179 -0.0105  0.4914  0.1535
26869SOL    HW182220   1.218   4.526   4.110  1.0596 -0.0918  0.7839
26869SOL    HW282221   1.152   4.572   4.238  0.4090  0.4509  0.2628
26870SOL     OW82222   8.001   6.459   2.985 -0.1772  0.0029  0.0482
26870SOL    HW182223   8.004   6.411   3.067  2.2999 -0.3329 -0.1645
26870SOL    HW282224   8.013   6.551   3.010  0.0002 -0.0390  0.1208
26871SOL     OW82225   5.335   5.120   0.832 -0.4960 -0.1334  0.0973
26871SOL    HW182226   5.290   5.142   0.751  1.7335 -0.7454 -1.4057
26871SOL    HW282227   5.402   5.187   0.842  0.8487 -1.4133  0.0561
26872SOL     OW82228   3.862   5.417   0.950 -1.0127  0.0446  0.6316
26872SOL    HW182229   3.803   5.484   0.914  0.8801  1.3652 -0.2201
26872SOL    HW282230   3.943   5.465   0.969 -0.5017 -1.4915  2.6979
26873SOL     OW82231   6.322   5.644   3.943  0.2691  0.3562 -0.3982
26873SOL    HW182232   6.271   5.720   3.971 -0.3914  0.1140 -0.9149
26873SOL    HW282233   6.300   5.633   3.851  1.8252  0.6794 -0.8383
26874SOL     OW82234   7.101   0.039   5.176  0.1509  0.2454  0.3107
26874SOL    HW182235   7.078   0.115   5.123 -0.0674 -0.1230 -0.1338
26874SOL    HW282236   7.162   0.072   5.241 -0.9028  1.0623  0.9235
26875SOL     OW82237   5.547   4.662   0.838 -0.7022  0.3961 -0.3250
26875SOL    HW182238   5.490   4.586   0.839  1.0544 -1.0627  2.7314
26875SOL    HW282239   5.489   4.736   0.853 -2.0801 -0.7739  0.3195
26876SOL     OW82240   1.212   5.013   1.433  0.3890 -0.1664  0.6353
26876SOL    HW182241   1.195   5.090   1.380 -0.0003  0.0247  1.0257
26876SOL    HW282242   1.126   4.991   1.471  0.6687 -0.2651  1.2219
26877SOL     OW82243   1.804   8.189   3.629  0.3475  0.5958  0.7226
26877SOL    HW182244   1.786   8.232   3.712 -1.3133 -2.1205  1.9399
26877SOL    HW282245   1.725   8.201   3.578 -0.0865 -0.7413  1.0256
26878SOL     OW82246   6.280   7.334   0.290  0.2258 -0.4531  0.4516
26878SOL    HW182247   6.196   7.289   0.282 -1.1265  1.9124  0.5814
26878SOL    HW282248   6.294   7.375   0.204  1.5313 -1.2296  0.2641
26879SOL     OW82249   7.665   2.969   8.263  0.4369 -0.4555  0.1522
26879SOL    HW182250   7.641   3.052   8.303 -0.1765 -1.1892  1.3665
26879SOL    HW282251   7.733   2.933   8.320 -0.1119 -1.3044  0.2982
26880SOL     OW82252   4.158   9.299   4.429  0.5838 -0.2830  0.5512
26880SOL    HW182253   4.088   9.318   4.492 -0.3876  1.3739 -0.9508
26880SOL    HW282254   4.233   9.275   4.484  0.1057  2.1681  2.4609
26881SOL     OW82255   0.489   0.466   2.153  0.1060  0.2610 -0.0623
26881SOL    HW182256   0.502   0.427   2.067  0.4543 -1.1976  0.6236
26881SOL    HW282257   0.410   0.519   2.144 -0.5302 -0.8104 -0.9767
26882SOL     OW82258   6.165   4.007   8.116 -0.0444  0.1275  0.4578
26882SOL    HW182259   6.091   4.067   8.126 -1.8405 -1.5444 -1.8052
26882SOL    HW282260   6.202   4.028   8.031  0.8323 -0.3938  0.6955
26883SOL     OW82261   6.349   7.972   1.216  0.3460  0.1590 -0.1912
26883SOL    HW182262   6.255   7.952   1.215 -0.0364  1.8132 -0.1478
26883SOL    HW282263   6.353   8.068   1.218  2.0423  0.1942 -2.0610
26884SOL     OW82264   3.466   1.158   7.271  0.0053  0.3044  0.2025
26884SOL    HW182265   3.522   1.220   7.319 -0.1831  0.0945  0.7070
26884SOL    HW282266   3.527   1.101   7.225  0.2018  0.2980  0.4668
26885SOL     OW82267   4.499   2.584   2.530 -0.4896 -0.1422 -0.4077
26885SOL    HW182268   4.465   2.636   2.457  0.4681 -1.1442 -1.6267
26885SOL    HW282269   4.456   2.499   2.521 -1.9122  0.3322  1.4602
26886SOL     OW82270   8.456   8.637   6.272  0.2457  0.3484  0.3040
26886SOL    HW182271   8.493   8.668   6.189 -0.5096 -2.0054 -1.0103
26886SOL    HW282272   8.531   8.601   6.320  0.3156 -0.8165 -0.6268
26887SOL     OW82273   2.430   0.758   2.049  0.0948 -0.0995 -0.4379
26887SOL    HW182274   2.406   0.679   2.098  1.9148 -0.8323 -0.6438
26887SOL    HW282275   2.348   0.805   2.037 -0.4493  0.4217  3.7485
26888SOL     OW82276   6.793   5.022   3.927  0.1124 -0.7494 -0.0754
26888SOL    HW182277   6.783   5.087   3.858  2.5677 -0.9004 -0.6459
26888SOL    HW282278   6.826   5.070   4.002 -0.0291 -1.0250  0.1699
26889SOL     OW82279   6.621   3.235   8.449  0.1368  0.1204  0.0712
26889SOL    HW182280   6.627   3.286   8.529  0.8606 -1.3182  0.9800
26889SOL    HW282281   6.608   3.300   8.380 -0.8291  1.3640  1.3673
26890SOL     OW82282   6.591   1.803   9.608  0.5391 -1.0093 -0.0044
26890SOL    HW182283   6.513   1.836   9.562 -0.6758 -2.0975  1.2000
26890SOL    HW282284   6.656   1.791   9.539  0.1143  1.1864 -0.8615
26891SOL     OW82285   6.791   7.124   7.129 -0.0030 -0.1993 -0.2923
26891SOL    HW182286   6.820   7.051   7.075  0.3714 -1.3308  1.3622
26891SOL    HW282287   6.872   7.166   7.159 -0.2002  0.2899 -0.4252
26892SOL     OW82288   5.783   4.806   5.882 -0.1362  0.2997  0.2505
26892SOL    HW182289   5.751   4.852   5.960 -1.7428 -1.6137  0.8171
26892SOL    HW282290   5.707   4.802   5.824  0.0447 -1.2460  0.0756
26893SOL     OW82291   4.241   5.800   5.912 -0.4926  0.2245 -0.0041
26893SOL    HW182292   4.188   5.838   5.982 -0.7792 -0.4004  0.1250
26893SOL    HW282293   4.329   5.797   5.948 -0.4215  0.9385 -0.0907
26894SOL     OW82294   4.212   5.904   9.436  0.0515  0.1430 -0.4926
26894SOL    HW182295   4.175   5.897   9.524  0.5446 -2.4898 -0.4386
26894SOL    HW282296   4.144   5.949   9.385 -0.8842  0.3240  0.8645
26895SOL     OW82297   9.391   4.854   7.870 -0.1665  0.3721 -0.1934
26895SOL    HW182298   9.385   4.761   7.846 -1.9081 -0.2833  2.3751
26895SOL    HW282299   9.313   4.893   7.833  0.1530  0.6429 -0.5835
26896SOL     OW82300   6.605   0.393   1.428  0.3047 -0.2728 -0.2297
26896SOL    HW182301   6.524   0.385   1.377 -0.7207 -0.1519  1.3180
26896SOL    HW282302   6.603   0.481   1.465 -0.1254 -1.0746  1.8068
26897SOL     OW82303   6.785   2.476   5.109  0.3926  0.1538 -0.2672
26897SOL    HW182304   6.861   2.517   5.149 -0.5323  2.0530 -0.3474
26897SOL    HW282305   6.718   2.478   5.178  0.6076 -2.3431  0.1246
26898SOL     OW82306   2.953   5.507   5.025  0.3838 -0.5290 -0.3515
26898SOL    HW182307   2.987   5.426   4.988  0.0562 -2.1761  2.6289
26898SOL    HW282308   3.016   5.574   4.998  0.0611 -1.4250 -3.8660
26899SOL     OW82309   4.256   4.493   4.646 -0.6257 -0.2325  0.0825
26899SOL    HW182310   4.217   4.578   4.664 -0.2120 -0.0025 -0.0916
26899SOL    HW282311   4.193   4.450   4.588 -0.2898  0.4307 -0.8052
26900SOL     OW82312   3.721   4.968   3.942 -0.2026  0.4289 -0.3702
26900SOL    HW182313   3.707   4.890   3.996 -0.2257 -0.2955 -1.4034
26900SOL    HW282314   3.654   4.963   3.873 -1.5413  2.4176  0.6568
26901SOL     OW82315   7.330   2.976   9.215 -0.5174 -0.0444 -0.2300
26901SOL    HW182316   7.332   3.070   9.232 -0.9421 -0.2103  0.7354
26901SOL    HW282317   7.278   2.967   9.135 -0.9927  0.4856  0.0183
26902SOL     OW82318   2.314   0.354   0.896 -0.3368  0.5432 -0.5034
26902SOL    HW182319   2.226   0.368   0.861 -0.4955 -1.0184 -0.8093
26902SOL    HW282320   2.303   0.284   0.960  0.3017  1.9689  1.2275
26903SOL     OW82321   5.459   0.132   6.417  0.2070 -0.4352 -0.1979
26903SOL    HW182322   5.422   0.094   6.497 -0.6430 -0.6141 -0.6707
26903SOL    HW282323   5.547   0.161   6.444 -0.9719  1.8436  1.4880
26904SOL     OW82324   7.007   7.061   7.955 -0.1691  0.1222 -0.2317
26904SOL    HW182325   7.102   7.053   7.944 -0.1963  0.5140 -0.7711
26904SOL    HW282326   6.971   7.036   7.871 -0.5292  0.3438 -0.1458
26905SOL     OW82327   4.191   8.418   3.979 -0.6056 -0.3589 -0.1262
26905SOL    HW182328   4.205   8.435   4.072  0.6157 -2.2595  0.1000
26905SOL    HW282329   4.099   8.441   3.963 -0.4550  1.3277  1.1895
26906SOL     OW82330   5.756   5.060   0.485 -0.0245  0.3518 -0.2183
26906SOL    HW182331   5.699   4.996   0.441  1.0012  1.0123 -2.6522
26906SOL    HW282332   5.701   5.137   0.498  0.0077  0.6551 -1.7108
26907SOL     OW82333   4.413   6.470   6.427  0.1503 -0.1940  0.1236
26907SOL    HW182334   4.493   6.445   6.381 -1.5168 -0.9504 -2.5843
26907SOL    HW282335   4.432   6.558   6.462  2.0420 -0.2557 -0.6075
26908SOL     OW82336   7.756   4.505   7.823  0.4411  0.6538  0.2921
26908SOL    HW182337   7.761   4.410   7.836  0.0193  0.4162 -1.0886
26908SOL    HW282338   7.663   4.522   7.806  0.5391  1.3027  0.3694
26909SOL     OW82339   3.968   5.135   2.529 -0.2231 -0.5301 -0.3576
26909SOL    HW182340   4.020   5.204   2.489 -1.0921  1.0392  1.0977
26909SOL    HW282341   3.881   5.145   2.489 -0.8435  0.4472  1.1471
26910SOL     OW82342   4.485   7.707   1.995 -0.0624  0.6412  0.5192
26910SOL    HW182343   4.476   7.625   1.947  0.8847 -1.0895  3.0912
26910SOL    HW282344   4.401   7.717   2.041  0.3129  0.3034  1.3099
26911SOL     OW82345   6.688   5.636   4.544 -0.0838  0.1548 -0.3213
26911SOL    HW182346   6.721   5.664   4.630 -1.0968 -0.5233  0.3143
26911SOL    HW282347   6.645   5.714   4.508  0.0410  0.3452 -0.0645
26912SOL     OW82348   1.903   7.966   9.828 -0.4120  0.5517  0.2477
26912SOL    HW182349   1.978   7.998   9.878  1.1398 -1.4347 -0.6521
26912SOL    HW282350   1.888   7.877   9.861  0.3406 -0.6415 -2.2842
26913SOL     OW82351   3.005   4.902   0.653 -0.4303 -0.1554 -0.1945
26913SOL    HW182352   3.091   4.863   0.665  0.6675  1.9375 -0.7960
26913SOL    HW282353   2.986   4.889   0.560 -1.3884 -1.7218  0.1804
26914SOL     OW82354   7.582   3.527   7.281 -0.4690  0.1589  0.1484
26914SOL    HW182355   7.624   3.474   7.214  2.1060  0.3871  1.4866
26914SOL    HW282356   7.575   3.615   7.242 -3.2469 -0.6396 -1.4456
26915SOL     OW82357   0.752   4.525   1.724 -0.1443 -0.1308  0.1625
26915SOL    HW182358   0.707   4.538   1.640  0.0808 -0.9635 -0.1006
26915SOL    HW282359   0.699   4.461   1.770  0.5425 -0.8406  0.0041
26916SOL     OW82360   9.277   8.526   5.551  1.0532  0.5862  0.7327
26916SOL    HW182361   9.217   8.578   5.603  1.3352  1.5463  0.1193
26916SOL    HW282362   9.305   8.455   5.609 -0.1189  0.5322  1.2430
26917SOL     OW82363   7.059   1.405   9.823  0.3651 -0.0427  0.3426
26917SOL    HW182364   7.085   1.366   9.739 -0.4028 -1.4890  0.7474
26917SOL    HW282365   7.053   1.331   9.883 -1.4765  0.6435  1.0750
26918SOL     OW82366   2.382   8.251   9.762  0.0934 -0.1230 -0.1740
26918SOL    HW182367   2.296   8.282   9.790  0.0262 -0.2565 -0.2330
26918SOL    HW282368   2.414   8.319   9.703  0.2211  0.1431  0.1965
26919SOL     OW82369   5.553   2.250   7.851 -0.1529 -0.2380 -0.2001
26919SOL    HW182370   5.461   2.221   7.853 -0.6730  1.3732  1.1538
26919SOL    HW282371   5.548   2.342   7.828  0.8664  0.6242  2.6863
26920SOL     OW82372   2.832   1.170   9.128 -0.3899 -0.0881 -0.2549
26920SOL    HW182373   2.794   1.150   9.041 -1.1532 -0.5008  0.1556
26920SOL    HW282374   2.838   1.084   9.170 -0.9639  0.2144  0.4624
26921SOL     OW82375   1.187   2.169   8.186  0.3029 -0.6063 -0.5464
26921SOL    HW182376   1.235   2.181   8.268 -0.6694 -0.4823  0.0084
26921SOL    HW282377   1.224   2.235   8.127 -0.0690  0.3597  0.2775
26922SOL     OW82378   5.916   5.542   2.384 -0.3762 -0.2754  0.6575
26922SOL    HW182379   5.885   5.499   2.305  0.4242  0.1535  0.0873
26922SOL    HW282380   5.878   5.492   2.456 -0.5450 -1.1056  0.0070
26923SOL     OW82381   8.478   5.464   0.369 -0.0783  0.3658 -0.0984
26923SOL    HW182382   8.486   5.544   0.421 -0.7816  2.7545 -3.3781
26923SOL    HW282383   8.387   5.438   0.378 -0.5967  1.6743 -1.2523
26924SOL     OW82384   4.877   4.451   9.458 -0.3337  0.5194 -0.1507
26924SOL    HW182385   4.827   4.453   9.376  0.5699  1.0804 -0.7027
26924SOL    HW282386   4.962   4.489   9.436  0.4846 -0.7492  0.6834
26925SOL     OW82387   3.972   1.040   2.108  0.4044  0.0996 -0.3669
26925SOL    HW182388   4.000   1.109   2.048  1.1203  0.8111  0.7413
26925SOL    HW282389   4.053   0.992   2.129  0.3589  0.4941  0.7837
26926SOL     OW82390   5.264   4.762   1.500  0.1443  0.0068 -0.1502
26926SOL    HW182391   5.173   4.754   1.469  0.6090 -0.5538 -1.4458
26926SOL    HW282392   5.271   4.854   1.527 -0.6224  0.2352 -0.6663
26927SOL     OW82393   7.473   8.515   5.818  0.9847 -0.1888 -1.1517
26927SOL    HW182394   7.523   8.579   5.868  0.5843 -1.4285  0.9877
26927SOL    HW282395   7.382   8.542   5.828  0.8034 -1.0649 -0.1476
26928SOL     OW82396   3.946   2.712   4.064  0.4922 -0.2615 -0.0353
26928SOL    HW182397   4.011   2.668   4.009  0.3936 -1.3130  0.6592
26928SOL    HW282398   3.945   2.802   4.032  0.8375 -0.7062 -1.3775
26929SOL     OW82399   1.996   7.568   4.229  0.6514  0.1864 -0.3179
26929SOL    HW182400   2.028   7.553   4.318 -1.3983  1.5860  0.7320
26929SOL    HW282401   2.054   7.516   4.173  2.0811 -0.6129  1.8059
26930SOL     OW82402   4.154   7.454   0.759  0.1580 -0.2470 -0.0196
26930SOL    HW182403   4.150   7.546   0.733 -2.0438  0.1145  1.3449
26930SOL    HW282404   4.219   7.452   0.829 -1.1179  0.6792  1.2433
26931SOL     OW82405   0.085   9.166   3.381 -0.4375 -0.1758  0.6044
26931SOL    HW182406   0.093   9.183   3.475 -2.4467  0.1575  0.7654
26931SOL    HW282407   0.080   9.070   3.375 -0.7466 -0.1802  0.8912
26932SOL     OW82408   4.571   1.123   1.169 -0.2437 -0.7172 -0.3128
26932SOL    HW182409   4.540   1.181   1.238 -2.2357 -0.4902 -1.3446
26932SOL    HW282410   4.510   1.050   1.168  1.1192 -1.9192 -0.3284
26933SOL     OW82411   8.778   9.294   7.211 -0.1327 -0.1489 -0.3358
26933SOL    HW182412   8.704   9.245   7.246 -0.3803  0.7450  0.4282
26933SOL    HW282413   8.740   9.379   7.186  0.4024 -0.1187 -1.0783
26934SOL     OW82414   6.662   1.149   7.668  0.1996 -0.2689  0.4849
26934SOL    HW182415   6.568   1.133   7.671  0.3254 -2.0068 -1.8901
26934SOL    HW282416   6.671   1.237   7.631 -0.4711 -0.0150  0.9108
26935SOL     OW82417   1.703   1.052   4.493 -0.1574  0.1606 -0.2233
26935SOL    HW182418   1.685   1.136   4.535  1.0795  0.0616  0.5436
26935SOL    HW282419   1.726   1.074   4.403 -1.5226  0.4844 -0.5081
26936SOL     OW82420   3.226   2.979   4.921  0.5767 -0.0395  0.9006
26936SOL    HW182421   3.316   3.001   4.894  0.8929 -2.7465 -0.5781
26936SOL    HW282422   3.223   2.884   4.917 -3.0844 -0.0055 -1.6977
26937SOL     OW82423   3.895   8.107   4.637 -0.4297  0.5539  0.3024
26937SOL    HW182424   3.832   8.131   4.705 -1.1302 -1.4316  0.4200
26937SOL    HW282425   3.961   8.054   4.682 -0.3729  0.0255 -0.3808
26938SOL     OW82426   1.570   7.182   8.689 -0.3381  0.7831  0.4020
26938SOL    HW182427   1.554   7.257   8.632 -1.6553  0.6532  0.5765
26938SOL    HW282428   1.488   7.168   8.735  0.8666  1.2584  2.8389
26939SOL     OW82429   6.828   5.495   1.168  0.3576 -0.0155  0.1593
26939SOL    HW182430   6.789   5.427   1.223  0.9511 -0.6494 -0.1949
26939SOL    HW282431   6.761   5.513   1.101 -0.0394  0.1805  0.6056
26940SOL     OW82432   7.530   1.237   3.214  0.5479  0.1698  0.1088
26940SOL    HW182433   7.570   1.224   3.300  2.3479  3.3306 -0.0938
26940SOL    HW282434   7.454   1.292   3.231 -0.0237 -0.5034 -0.2025
26941SOL     OW82435   8.765   4.822   9.115 -0.4597  0.3056 -0.0921
26941SOL    HW182436   8.781   4.729   9.101 -0.4980  0.2372  0.3109
26941SOL    HW282437   8.852   4.862   9.114 -0.2066 -0.0636  2.0720
26942SOL     OW82438   3.402   9.780   3.753 -0.6103  0.2286 -0.5606
26942SOL    HW182439   3.361   9.818   3.676 -0.0597 -0.6240 -1.2906
26942SOL    HW282440   3.389   9.845   3.822 -1.1665  0.9705 -1.3534
26943SOL     OW82441   2.323   9.020   2.352 -0.6327 -0.2534 -0.4465
26943SOL    HW182442   2.326   9.075   2.273  0.3664 -0.2877 -0.4425
26943SOL    HW282443   2.335   9.081   2.424  0.4647 -0.4640 -0.4412
26944SOL     OW82444   8.649   3.047   6.019  0.2267 -0.0305 -0.5557
26944SOL    HW182445   8.580   3.064   5.955  1.2105 -0.5837 -1.8245
26944SOL    HW282446   8.729   3.077   5.976  0.8660 -0.0085  0.6089
26945SOL     OW82447   4.778   2.844   8.786 -0.7985 -0.0401  0.3995
26945SOL    HW182448   4.825   2.812   8.710  1.2894  0.3267  1.4739
26945SOL    HW282449   4.694   2.798   8.784 -0.2314 -1.0631 -1.3264
26946SOL     OW82450   3.975   1.016   6.709 -0.4621  0.0044  0.6041
26946SOL    HW182451   3.903   0.970   6.754 -0.0508  0.3265  1.6188
26946SOL    HW282452   3.952   1.011   6.617 -0.7229 -1.7461  0.7232
26947SOL     OW82453   0.904   2.310   7.557 -0.0710 -0.0445 -0.6301
26947SOL    HW182454   0.961   2.233   7.551 -1.3050 -1.0017 -0.6682
26947SOL    HW282455   0.876   2.325   7.467  1.4447  1.5106 -0.8911
26948SOL     OW82456   4.687   4.387   2.716  0.0587 -0.1674 -0.1593
26948SOL    HW182457   4.779   4.368   2.699  0.9104  3.0505  0.1592
26948SOL    HW282458   4.641   4.360   2.637  0.9971 -3.0571  0.1803
26949SOL     OW82459   7.430   9.509   2.468  0.4554  0.8318 -0.1724
26949SOL    HW182460   7.448   9.601   2.450 -0.4361  1.3047  1.2402
26949SOL    HW282461   7.483   9.462   2.404  0.0998  2.3292 -1.6295
26950SOL     OW82462   3.504   4.986   9.646 -0.8292 -0.1440 -0.2835
26950SOL    HW182463   3.460   5.001   9.730  0.1801 -0.5298  0.3448
26950SOL    HW282464   3.472   4.901   9.617 -1.3148  0.0688 -0.3786
26951SOL     OW82465   7.608   4.767   3.010 -0.1551 -0.1661  0.5568
26951SOL    HW182466   7.614   4.679   3.048  0.2662  0.7531  2.7780
26951SOL    HW282467   7.624   4.826   3.084 -2.2722  1.8372 -0.4572
26952SOL     OW82468   7.953   4.902   6.077  0.2077 -0.4237 -0.2160
26952SOL    HW182469   8.011   4.827   6.089 -1.4109 -1.5728  0.8573
26952SOL    HW282470   7.871   4.876   6.118 -0.3864  2.0020  0.3182
26953SOL     OW82471   4.453   7.661   3.921  0.1324 -0.6498  0.4374
26953SOL    HW182472   4.434   7.754   3.910  0.5788 -0.4047  1.5665
26953SOL    HW282473   4.547   7.654   3.902  0.6388 -0.4281  2.5345
26954SOL     OW82474   9.283   5.663   7.153 -0.4283  0.2007  0.0178
26954SOL    HW182475   9.299   5.721   7.228 -1.5232 -0.1238  0.5367
26954SOL    HW282476   9.349   5.687   7.089  0.0782  0.9927  0.8107
26955SOL     OW82477   1.946   5.929   4.810 -0.3166 -0.2968 -0.0547
26955SOL    HW182478   1.924   5.843   4.773 -1.4136  0.5088 -1.4003
26955SOL    HW282479   2.035   5.946   4.778  0.3142 -1.3189  1.0470
26956SOL     OW82480   7.485   6.413   8.823 -0.3386  0.3338  0.3217
26956SOL    HW182481   7.567   6.385   8.865 -0.6430  0.0520  0.7370
26956SOL    HW282482   7.445   6.332   8.793 -0.6319  0.4358  0.4342
26957SOL     OW82483   2.639   0.507   0.085 -0.0629 -0.5134 -0.6800
26957SOL    HW182484   2.682   0.581   0.041  0.3818  0.0993  0.7319
26957SOL    HW282485   2.626   0.537   0.175 -1.2649 -1.6042 -0.4658
26958SOL     OW82486   3.034   6.761   9.679 -0.0845 -0.6071  0.6353
26958SOL    HW182487   3.084   6.716   9.611 -1.2518 -1.6099  0.3967
26958SOL    HW282488   2.942   6.743   9.657 -0.6284  1.9589  0.5035
26959SOL     OW82489   5.903   9.199   4.095  0.3704  0.3202 -0.3269
26959SOL    HW182490   5.904   9.156   4.010  1.9331 -2.0244  0.7628
26959SOL    HW282491   5.813   9.230   4.105 -0.4048 -1.1851 -1.9797
26960SOL     OW82492   2.894   9.253   5.696 -0.8800 -0.3576 -0.1753
26960SOL    HW182493   2.946   9.260   5.776 -0.2028 -1.7663 -0.4650
26960SOL    HW282494   2.959   9.246   5.626 -1.3384 -3.5599 -0.4292
26961SOL     OW82495   4.975   6.416   7.548  0.1171  0.4565  0.0914
26961SOL    HW182496   5.001   6.324   7.550 -0.0263  0.4241  0.8958
26961SOL    HW282497   4.894   6.417   7.497  0.3932  0.2157 -0.3619
26962SOL     OW82498   9.143   2.103   1.268  0.3992 -0.4730 -0.4071
26962SOL    HW182499   9.170   2.104   1.176 -0.0399 -0.2259 -0.5362
26962SOL    HW282500   9.054   2.067   1.267  0.4908 -0.7249 -0.0478
26963SOL     OW82501   9.502   4.835   2.345  0.0934 -0.2716 -0.4304
26963SOL    HW182502   9.509   4.921   2.386  1.9215 -1.0633  1.0774
26963SOL    HW282503   9.480   4.853   2.254  0.1236  1.7660 -0.0773
26964SOL     OW82504   0.375   2.126   7.666 -0.2964  0.0133  0.2042
26964SOL    HW182505   0.297   2.141   7.720 -0.0842 -1.2992  0.9421
26964SOL    HW282506   0.444   2.176   7.710 -0.4689  0.2040  0.2579
26965SOL     OW82507   5.512   8.822   5.699 -0.0978 -0.0007 -0.0574
26965SOL    HW182508   5.505   8.817   5.603  1.0898 -0.9397 -0.1186
26965SOL    HW282509   5.516   8.916   5.718  1.9369  0.1937 -1.1469
26966SOL     OW82510   3.347   5.884   3.939 -0.0597  0.0884  0.1155
26966SOL    HW182511   3.367   5.858   4.029  1.0514  1.9258  0.4610
26966SOL    HW282512   3.251   5.886   3.935 -0.1303  0.5522  1.4644
26967SOL     OW82513   9.297   0.485   8.127 -0.6724  0.1130  0.3794
26967SOL    HW182514   9.348   0.503   8.206  0.2711 -2.8480  0.5613
26967SOL    HW282515   9.293   0.390   8.122 -1.5028  0.2022 -2.6679
26968SOL     OW82516   3.856   6.884   0.761  0.0574 -0.0510 -0.1733
26968SOL    HW182517   3.925   6.877   0.695 -0.7184  1.2291 -1.1861
26968SOL    HW282518   3.838   6.794   0.788  2.1770 -0.4137  0.2150
26969SOL     OW82519   7.998   6.395   3.519  0.5816  0.3002 -0.1602
26969SOL    HW182520   7.959   6.466   3.571 -0.7941 -1.8284  1.9705
26969SOL    HW282521   8.081   6.376   3.563  0.0675 -0.5823  0.4762
26970SOL     OW82522   4.203   6.617   9.733  0.5044 -0.1915  0.0700
26970SOL    HW182523   4.119   6.610   9.777 -0.6141  0.7043 -1.8171
26970SOL    HW282524   4.186   6.589   9.643  1.9667  0.9596 -0.6233
26971SOL     OW82525   6.974   6.872   8.267 -0.8060  0.3029 -0.1169
26971SOL    HW182526   6.973   6.965   8.242 -0.0719  0.2345 -0.4334
26971SOL    HW282527   7.059   6.861   8.311  0.3552 -0.8052 -2.4575
26972SOL     OW82528   0.956   5.644   2.811 -0.6096 -0.0907 -0.1236
26972SOL    HW182529   0.935   5.734   2.787 -0.9635 -0.1187  0.0686
26972SOL    HW282530   0.985   5.649   2.902 -1.9126 -0.3346  0.3287
26973SOL     OW82531   2.018   8.541   0.187 -0.9541  0.6814 -0.8202
26973SOL    HW182532   2.005   8.623   0.139  1.1317  2.4821  1.4121
26973SOL    HW282533   1.946   8.539   0.250  0.7444  2.7515  1.4086
26974SOL     OW82534   4.507   0.352   0.116  0.3057 -0.3394 -0.5478
26974SOL    HW182535   4.584   0.403   0.142  0.6375 -1.4791  0.8036
26974SOL    HW282536   4.542   0.279   0.065  0.0669 -0.5385 -0.4296
26975SOL     OW82537   2.744   4.512   6.484 -0.1147 -0.3641  0.2872
26975SOL    HW182538   2.760   4.418   6.478  1.0844 -0.1198 -1.0244
26975SOL    HW282539   2.829   4.549   6.510  0.6596  0.6669 -3.1720
26976SOL     OW82540   3.543   2.953   2.615  0.5333 -0.2908 -0.0829
26976SOL    HW182541   3.532   3.017   2.544 -1.4776 -0.8653 -0.3478
26976SOL    HW282542   3.571   2.873   2.570 -1.0015 -0.7313 -0.3123
26977SOL     OW82543   0.290   0.564   3.152  0.3334 -0.1957  0.3676
26977SOL    HW182544   0.346   0.612   3.091  0.8712 -0.5955  0.5415
26977SOL    HW282545   0.218   0.530   3.098  0.2630  0.3124  0.1430
26978SOL     OW82546   3.786   9.671   3.879 -0.4230 -0.7172 -0.2415
26978SOL    HW182547   3.717   9.630   3.827 -0.6316 -0.2989 -0.2941
26978SOL    HW282548   3.748   9.678   3.967 -0.1950 -1.1122 -0.1083
26979SOL     OW82549   6.352   5.740   5.191  0.1650 -0.7235 -0.2437
26979SOL    HW182550   6.334   5.678   5.121  0.9694  1.4807 -2.5831
26979SOL    HW282551   6.443   5.724   5.216  0.3388 -0.5594 -0.7711
26980SOL     OW82552   4.011   0.271   8.961  0.5291 -0.1648 -0.7250
26980SOL    HW182553   4.103   0.272   8.935  0.8045  0.2579  0.2405
26980SOL    HW282554   3.970   0.340   8.908  0.9740  0.3333 -0.4204
26981SOL     OW82555   4.602   5.032   4.083 -0.3502  0.3655 -0.6481
26981SOL    HW182556   4.638   5.119   4.099  0.1786 -0.0023  0.3004
26981SOL    HW282557   4.510   5.040   4.107  0.4878 -0.2904  3.7356
26982SOL     OW82558   8.746   6.853   3.972  0.2496 -0.7131  0.2568
26982SOL    HW182559   8.673   6.794   3.991 -0.8473  0.9832  1.6077
26982SOL    HW282560   8.802   6.804   3.911 -2.0779 -2.0196 -0.9655
26983SOL     OW82561   2.958   2.416   8.901  0.4107 -0.1437  0.5700
26983SOL    HW182562   2.973   2.324   8.879  1.1967 -0.0288  0.5773
26983SOL    HW282563   3.030   2.438   8.961  0.2230  0.4697  0.5765
26984SOL     OW82564   5.460   4.765   6.315  0.4089  0.2190  0.1956
26984SOL    HW182565   5.532   4.713   6.351  0.0681 -0.4286 -0.0493
26984SOL    HW282566   5.381   4.723   6.350  0.1429  0.8098  0.3083
26985SOL     OW82567   1.159   9.078   8.414  0.0533 -0.2807 -0.1151
26985SOL    HW182568   1.074   9.037   8.423 -0.2090  0.2086 -0.3271
26985SOL    HW282569   1.140   9.172   8.405  0.5509 -0.2582 -1.1181
26986SOL     OW82570   7.694   2.970   1.915 -0.9073  0.3166  0.0732
26986SOL    HW182571   7.606   2.952   1.883 -0.8070 -0.6370  0.2989
26986SOL    HW282572   7.744   2.992   1.836 -1.7943  3.0088  0.1447
26987SOL     OW82573   2.310   4.839   4.668  0.1642 -0.4861 -0.1930
26987SOL    HW182574   2.308   4.929   4.636 -0.8761 -0.4270 -0.0066
26987SOL    HW282575   2.218   4.811   4.666  0.6584 -2.2506 -2.2410
26988SOL     OW82576   7.487   7.897   5.552 -0.1068 -0.5100  0.2145
26988SOL    HW182577   7.414   7.959   5.554 -0.6293 -1.1189  0.1044
26988SOL    HW282578   7.459   7.823   5.606  1.0067 -0.1390  1.3627
26989SOL     OW82579   1.824   4.470   8.884 -0.0000  0.6213 -0.1431
26989SOL    HW182580   1.807   4.444   8.793  1.1672  0.3787 -0.3035
26989SOL    HW282581   1.908   4.516   8.881  1.8025 -2.2398  1.2511
26990SOL     OW82582   8.502   8.447   4.516  0.0464 -0.4704 -0.0029
26990SOL    HW182583   8.436   8.479   4.455  0.4176  0.3937  0.0319
26990SOL    HW282584   8.473   8.478   4.601  1.1476  1.0637 -0.1423
26991SOL     OW82585   3.211   0.745   7.297  0.8854 -0.3326  0.4743
26991SOL    HW182586   3.302   0.762   7.320  0.3437  0.2308  2.3644
26991SOL    HW282587   3.190   0.812   7.231  2.1083 -1.1559 -0.8079
26992SOL     OW82588   4.952   8.465   4.036 -0.0331  0.4876 -0.2331
26992SOL    HW182589   4.992   8.489   3.952 -0.3835  1.1175 -0.2258
26992SOL    HW282590   4.892   8.394   4.016  0.3129  0.2464 -0.4183
26993SOL     OW82591   7.871   6.748   8.337  0.3519  0.5919  0.5047
26993SOL    HW182592   7.952   6.797   8.328  0.4822  0.2400 -0.2421
26993SOL    HW282593   7.899   6.657   8.346  0.1029  0.6159  1.7135
26994SOL     OW82594   4.867   9.690   8.930 -0.2916 -0.2013 -0.2238
26994SOL    HW182595   4.834   9.607   8.897  0.5317 -0.4430 -0.4445
26994SOL    HW282596   4.891   9.740   8.852 -2.5722  1.0458 -0.2328
26995SOL     OW82597   4.859   0.293   3.236  0.3083  0.1392  0.7102
26995SOL    HW182598   4.895   0.287   3.325  1.7697  3.0828  0.4517
26995SOL    HW282599   4.843   0.387   3.224 -1.3110 -0.3707 -1.6277
26996SOL     OW82600   9.111   3.828   4.628 -0.5645 -0.1992 -0.0427
26996SOL    HW182601   9.150   3.788   4.706 -0.3720  1.3708  0.6965
26996SOL    HW282602   9.138   3.920   4.632 -3.0332  0.5988 -0.3612
26997SOL     OW82603   5.729   0.252   1.923  0.0542  0.1146 -1.0040
26997SOL    HW182604   5.644   0.208   1.913 -0.8892  2.1451 -2.6475
26997SOL    HW282605   5.793   0.183   1.907 -1.0634 -2.1591  2.9001
26998SOL     OW82606   8.653   3.882   5.836  0.8797  0.4391  0.7350
26998SOL    HW182607   8.725   3.926   5.790  0.8968 -0.4394 -0.1112
26998SOL    HW282608   8.697   3.813   5.887  0.6065 -0.4128 -0.1643
26999SOL     OW82609   2.035   1.226   5.899  0.5022 -0.2836 -0.2660
26999SOL    HW182610   2.120   1.201   5.862  0.6362 -3.3338  1.6621
26999SOL    HW282611   1.980   1.244   5.823  1.9560 -1.7057 -1.7515
27000SOL     OW82612   4.026   0.732   5.044  0.3903 -0.0863  0.2819
27000SOL    HW182613   3.993   0.816   5.014 -1.4250 -0.9352 -0.2503
27000SOL    HW282614   3.986   0.668   4.985  1.5323 -1.3472  0.8197
27001SOL     OW82615   1.318   5.002   1.694  0.0049  0.1500  0.2068
27001SOL    HW182616   1.313   5.038   1.606  2.7309 -2.0484 -1.0434
27001SOL    HW282617   1.290   4.911   1.684  2.1866 -0.6927  1.1092
27002SOL     OW82618   6.848   5.712   9.462 -0.5986  0.2772  0.3414
27002SOL    HW182619   6.849   5.798   9.420  2.5610  0.0559 -0.3492
27002SOL    HW282620   6.764   5.707   9.506 -2.9704  1.7458 -3.5207
27003SOL     OW82621   6.749   3.637   7.429  0.3029  0.7324  0.2636
27003SOL    HW182622   6.799   3.712   7.398 -1.6710  1.9014 -0.2818
27003SOL    HW282623   6.670   3.636   7.374 -2.3754  1.6409  3.7350
27004SOL     OW82624   5.598   4.296   1.967 -0.1870 -0.0506 -0.2015
27004SOL    HW182625   5.588   4.369   2.028 -1.6103 -1.3146  1.1692
27004SOL    HW282626   5.599   4.337   1.881 -1.5199  1.5669  0.4925
27005SOL     OW82627   1.214   8.535   6.798  0.6091 -0.1863 -0.2759
27005SOL    HW182628   1.257   8.468   6.851  2.1687  0.0117 -1.2334
27005SOL    HW282629   1.150   8.486   6.746 -0.4512 -0.4745  1.2370
27006SOL     OW82630   2.021   1.539   4.046  0.2598 -0.2680  0.5706
27006SOL    HW182631   2.052   1.594   3.974  1.1501  0.2114  1.2931
27006SOL    HW282632   1.961   1.595   4.095  0.7578 -0.1020  1.0037
27007SOL     OW82633   4.205   7.402   2.281 -0.6067  0.2579 -0.2496
27007SOL    HW182634   4.165   7.327   2.236  0.3439 -0.4873  0.1127
27007SOL    HW282635   4.131   7.449   2.319 -1.1152 -1.9316  1.7293
27008SOL     OW82636   7.100   3.131   5.877 -0.2354 -0.1289  0.0878
27008SOL    HW182637   7.024   3.167   5.830 -1.5112 -1.3604  1.1205
27008SOL    HW282638   7.098   3.037   5.856  1.4271 -0.0799 -0.4002
27009SOL     OW82639   8.161   9.594   9.434  0.0922  0.6544  0.1972
27009SOL    HW182640   8.096   9.618   9.500 -0.1444  0.2009  0.1376
27009SOL    HW282641   8.212   9.524   9.476  1.9135  2.4010  1.0430
27010SOL     OW82642   6.443   4.471   9.011  0.3103  0.2119  0.8662
27010SOL    HW182643   6.514   4.467   9.075  1.3519 -3.0796 -0.2562
27010SOL    HW282644   6.368   4.431   9.055  0.5546 -0.5655  0.5963
27011SOL     OW82645   8.875   3.105   3.180 -0.1267 -0.1627 -0.2133
27011SOL    HW182646   8.970   3.112   3.192 -0.4685  2.5817  1.9660
27011SOL    HW282647   8.852   3.022   3.221  1.2898 -0.8167 -0.6663
27012SOL     OW82648   8.088   9.245   5.911 -0.5118 -0.2691 -0.6856
27012SOL    HW182649   8.088   9.204   5.998 -0.6610 -0.6980 -0.8849
27012SOL    HW282650   8.112   9.336   5.928 -2.7576  0.2610  0.0870
27013SOL     OW82651   2.661   7.829   7.095  0.2648 -0.1534  0.1435
27013SOL    HW182652   2.624   7.744   7.118  0.5725 -0.4263 -0.3550
27013SOL    HW282653   2.749   7.809   7.064 -0.1173  0.1982 -1.2318
27014SOL     OW82654   1.488   1.261   8.134 -0.9105 -0.2975  0.0569
27014SOL    HW182655   1.498   1.234   8.225  1.2989  1.6200  0.4554
27014SOL    HW282656   1.397   1.239   8.113 -2.0202  0.6801  3.2450
27015SOL     OW82657   0.585   1.415   0.165 -0.8867  0.3675 -0.2641
27015SOL    HW182658   0.611   1.370   0.084 -1.0301  1.7969 -1.1367
27015SOL    HW282659   0.511   1.363   0.198 -0.5396 -0.4886 -0.7949
27016SOL     OW82660   6.310   9.432   3.431  0.1056 -0.5621  0.3337
27016SOL    HW182661   6.266   9.504   3.477 -0.4898 -0.0304 -1.0237
27016SOL    HW282662   6.340   9.471   3.349  1.4111 -1.4232  0.3668
27017SOL     OW82663   3.145   2.089   7.959 -0.0439 -0.4656 -0.2310
27017SOL    HW182664   3.108   2.005   7.985 -1.7692  0.3204  0.0014
27017SOL    HW282665   3.069   2.147   7.949  1.0223  0.8225 -1.2951
27018SOL     OW82666   0.554   0.551   9.455  0.1017  0.2940  0.1501
27018SOL    HW182667   0.520   0.582   9.539  1.8029  1.4752  0.4502
27018SOL    HW282668   0.621   0.487   9.478 -0.7293 -0.8026 -0.3852
27019SOL     OW82669   4.723   5.214   5.540 -0.2164  0.3492  0.2900
27019SOL    HW182670   4.673   5.287   5.577  0.0676 -0.4322  2.3613
27019SOL    HW282671   4.778   5.254   5.472 -1.0241  1.8282  0.4770
27020SOL     OW82672   5.283   8.779   0.048  0.1301 -0.2025 -0.1206
27020SOL    HW182673   5.194   8.782   0.083  0.6709 -1.6953  1.5000
27020SOL    HW282674   5.297   8.687   0.027  1.6979 -0.1776  0.7338
27021SOL     OW82675   7.162   5.819   4.381  0.0674 -0.5963  0.1387
27021SOL    HW182676   7.157   5.804   4.475  2.5174  0.2121  0.4880
27021SOL    HW282677   7.138   5.911   4.370 -1.1559 -0.9448 -0.1623
27022SOL     OW82678   1.831   8.314   6.215  0.5234  0.0390 -0.4448
27022SOL    HW182679   1.852   8.228   6.252  1.4101  0.2908 -0.3506
27022SOL    HW282680   1.915   8.349   6.186 -0.0154  0.3063 -1.7306
27023SOL     OW82681   1.376   7.015   5.014 -0.1895  0.0325  0.3029
27023SOL    HW182682   1.428   6.937   4.993  0.8490  0.6665  0.4213
27023SOL    HW282683   1.373   7.016   5.110  0.4119  0.5056  0.3259
27024SOL     OW82684   2.156   5.035   3.683  0.2370  0.5247  0.3844
27024SOL    HW182685   2.232   4.991   3.645  0.8014  1.2565  0.6462
27024SOL    HW282686   2.121   4.973   3.746 -1.2133 -1.0938 -1.8326
27025SOL     OW82687   5.549   7.045   8.711 -0.0269 -0.6431 -0.5175
27025SOL    HW182688   5.454   7.040   8.723 -0.2350 -0.2662 -1.9042
27025SOL    HW282689   5.583   6.965   8.753 -0.7741  0.0349  1.4893
27026SOL     OW82690   2.557   8.187   5.779  0.4328  0.2469 -0.6290
27026SOL    HW182691   2.571   8.281   5.777 -0.6199  0.4633  0.4678
27026SOL    HW282692   2.466   8.177   5.808  0.6527 -1.1045 -0.3082
27027SOL     OW82693   9.819   8.515   4.723 -0.0576 -0.2726 -0.1058
27027SOL    HW182694   9.756   8.442   4.727  0.1985 -0.4825  0.1027
27027SOL    HW282695   9.856   8.509   4.635  0.9995 -1.2739  0.3898
27028SOL     OW82696   0.459   2.184   5.977 -0.8365  0.3307  0.2469
27028SOL    HW182697   0.443   2.132   6.056 -0.7271  0.3814  0.3029
27028SOL    HW282698   0.382   2.169   5.922 -0.8833  0.2449  0.3364
27029SOL     OW82699   5.278   9.093   5.835 -0.4700  0.0548  0.1795
27029SOL    HW182700   5.362   9.125   5.805 -1.2491  0.6692 -1.4816
27029SOL    HW282701   5.233   9.170   5.870 -0.1011 -0.4000  1.7121
27030SOL     OW82702   5.382   1.625   4.699 -0.3030  0.4996  0.0629
27030SOL    HW182703   5.405   1.532   4.706 -1.4249  0.2756  1.2658
27030SOL    HW282704   5.465   1.671   4.716  0.5373 -0.2454 -1.7525
27031SOL     OW82705   4.111   6.327   8.305  0.1286  0.1620  0.2263
27031SOL    HW182706   4.168   6.276   8.248  1.3344  2.8572 -1.1030
27031SOL    HW282707   4.024   6.320   8.265 -0.0543 -1.8557  0.8413
27032SOL     OW82708   1.779   7.062   6.315  1.0899  0.7644  0.3693
27032SOL    HW182709   1.735   7.051   6.399  0.3779 -0.2075 -0.1223
27032SOL    HW282710   1.745   7.145   6.281 -1.4907 -0.5861 -0.6269
27033SOL     OW82711   8.742   2.677   7.345  0.0762  0.7189  0.0827
27033SOL    HW182712   8.679   2.621   7.390  0.0363 -0.1193 -0.9899
27033SOL    HW282713   8.768   2.628   7.268 -0.1261  2.2614 -1.0224
27034SOL     OW82714   1.323   7.612   4.117  0.8410 -0.4906 -0.2315
27034SOL    HW182715   1.331   7.706   4.128  0.4337 -0.4099 -0.5734
27034SOL    HW282716   1.311   7.578   4.206 -0.7111 -0.0332 -0.2387
27035SOL     OW82717   0.746   2.489   6.430  0.1712 -0.4841  0.5316
27035SOL    HW182718   0.674   2.427   6.411  0.7754 -1.1109  0.2488
27035SOL    HW282719   0.824   2.434   6.431  0.8367  0.4191 -0.5708
27036SOL     OW82720   2.073   8.799   8.205  0.0631 -0.3340 -0.0958
27036SOL    HW182721   2.036   8.856   8.137  1.8734  0.7979 -0.1947
27036SOL    HW282722   2.166   8.794   8.183  0.2289 -2.0262  0.8772
27037SOL     OW82723   6.952   6.743   4.519 -0.0798 -0.0194 -0.2019
27037SOL    HW182724   7.044   6.768   4.529 -0.7277  1.7559  2.0978
27037SOL    HW282725   6.914   6.755   4.606 -2.5982 -0.3789 -1.1586
27038SOL     OW82726   5.118   9.230   8.553  0.2602  0.0780  0.7002
27038SOL    HW182727   5.194   9.263   8.505 -0.7639  0.3047 -0.8072
27038SOL    HW282728   5.088   9.305   8.604 -0.4290  0.7416 -0.6283
27039SOL     OW82729   1.636   7.009   4.135  0.1220  0.0553  0.2325
27039SOL    HW182730   1.657   7.103   4.131 -0.0369  0.0512 -0.7380
27039SOL    HW282731   1.674   6.981   4.219 -0.4234  1.1249  0.8730
27040SOL     OW82732   4.740   9.119   2.600  0.2329 -0.2558 -0.2440
27040SOL    HW182733   4.807   9.157   2.657  0.3428  0.2677 -0.7102
27040SOL    HW282734   4.778   9.037   2.570  1.1979  0.6029 -1.4769
27041SOL     OW82735   1.669   5.547   4.010  0.3861 -0.0435 -0.3194
27041SOL    HW182736   1.676   5.459   3.975  0.0481  0.9723 -3.2118
27041SOL    HW282737   1.758   5.583   4.002  0.9239 -0.5190  2.3494
27042SOL     OW82738   2.622   0.551   5.679 -0.2344 -0.3372 -0.4579
27042SOL    HW182739   2.547   0.610   5.681 -1.7329 -2.1495  0.8185
27042SOL    HW282740   2.676   0.583   5.607  0.7589  4.4438  1.9990
27043SOL     OW82741   6.383   9.524   3.170 -0.3758  0.3490 -0.4585
27043SOL    HW182742   6.475   9.497   3.164  0.1939  1.9323  0.2774
27043SOL    HW282743   6.345   9.501   3.085  0.7965 -0.0532 -0.8925
27044SOL     OW82744   0.189   0.609   3.925 -0.4927  0.0438 -0.0363
27044SOL    HW182745   0.098   0.584   3.908 -0.8614  0.9515  0.5746
27044SOL    HW282746   0.238   0.567   3.855 -1.4044 -0.2913 -0.4926
27045SOL     OW82747   0.256   7.453   8.954 -0.0969  0.3542 -0.2753
27045SOL    HW182748   0.268   7.492   8.868 -0.2331 -1.6025 -1.2399
27045SOL    HW282749   0.257   7.359   8.938  1.9971 -0.1392  2.1477
27046SOL     OW82750   3.563   1.810   1.732  0.4007 -0.2065  0.4031
27046SOL    HW182751   3.604   1.872   1.793  0.5814 -1.5177  1.6590
27046SOL    HW282752   3.636   1.764   1.691  0.2602 -1.3186  1.3456
27047SOL     OW82753   6.534   0.002   4.049  0.1330 -0.1228 -0.3409
27047SOL    HW182754   6.466  -0.043   3.999  0.9848 -2.0880  0.1834
27047SOL    HW282755   6.602   0.022   3.985 -0.3924  0.7539 -0.6381
27048SOL     OW82756   1.236   5.068   7.856 -0.4095  0.1104 -0.0164
27048SOL    HW182757   1.259   5.002   7.922  0.8622  0.8672  0.3248
27048SOL    HW282758   1.273   5.149   7.889 -0.9827  0.7852 -0.9849
27049SOL     OW82759   6.654   0.185   7.016  0.1610  0.2161 -0.2620
27049SOL    HW182760   6.672   0.130   6.940  0.3648 -2.4621  1.5848
27049SOL    HW282761   6.559   0.200   7.013  0.0737 -0.3829 -0.7314
27050SOL     OW82762   9.037   6.736   2.623  0.4847  0.5003 -0.5231
27050SOL    HW182763   9.070   6.713   2.536 -1.2721 -0.7551 -0.9263
27050SOL    HW282764   9.017   6.829   2.617  2.3184  0.9162 -0.7632
27051SOL     OW82765   5.722   8.437   1.491 -0.6940  0.2900  0.4210
27051SOL    HW182766   5.646   8.437   1.549  0.6917 -0.2886  2.3037
27051SOL    HW282767   5.716   8.355   1.443 -0.5262 -0.4358  1.6007
27052SOL     OW82768   7.404   7.049   4.982 -0.2686 -0.0966  0.3007
27052SOL    HW182769   7.315   7.017   4.992 -0.1661 -0.8758 -1.1280
27052SOL    HW282770   7.458   6.970   4.975  0.4206  0.3701  0.1960
27053SOL     OW82771   5.921   3.780   0.138 -0.1768  0.2573 -0.8105
27053SOL    HW182772   5.966   3.819   0.213  0.4079 -0.1588 -0.9394
27053SOL    HW282773   5.833   3.818   0.140  0.5706  2.1419 -1.3396
27054SOL     OW82774   3.031   0.492   4.981 -0.8682 -0.2258  0.0712
27054SOL    HW182775   3.104   0.552   4.963 -0.6668  0.2915  2.3122
27054SOL    HW282776   3.061   0.407   4.949 -0.2507  0.4251 -1.1496
27055SOL     OW82777   2.832   0.791   7.853  0.2588 -0.3408 -0.5631
27055SOL    HW182778   2.773   0.716   7.859  0.5754 -0.5591 -0.0801
27055SOL    HW282779   2.895   0.778   7.925 -1.4261  1.8862  1.4992
27056SOL     OW82780   0.589   7.408   8.739 -0.2405  0.0753  0.5494
27056SOL    HW182781   0.528   7.434   8.670  1.3139  0.7584 -0.6243
27056SOL    HW282782   0.674   7.441   8.710  0.1571  2.6624  3.9734
27057SOL     OW82783   4.243   4.801   4.162 -0.0786 -0.5265  0.0546
27057SOL    HW182784   4.230   4.826   4.254  3.1482 -0.4198  0.5999
27057SOL    HW282785   4.219   4.708   4.160 -1.3211 -0.2440  0.6994
27058SOL     OW82786   4.235   6.732   0.816  0.8703 -0.5075  0.0026
27058SOL    HW182787   4.188   6.666   0.866 -1.1173 -0.2462 -1.4209
27058SOL    HW282788   4.317   6.689   0.790  0.3938 -1.7836  0.5708
27059SOL     OW82789   8.554   3.585   0.790 -0.2365  0.1323  0.1125
27059SOL    HW182790   8.507   3.504   0.810 -1.1365  0.9428  1.4312
27059SOL    HW282791   8.586   3.573   0.700  0.3894 -2.0098  0.5761
27060SOL     OW82792   9.658   7.049   7.808 -0.4227  0.1917  0.7709
27060SOL    HW182793   9.714   7.125   7.818 -0.6803  0.9831 -2.5396
27060SOL    HW282794   9.582   7.081   7.759 -1.0287 -1.9759  0.1711
27061SOL     OW82795   2.320   9.250   2.521  0.3007  0.2084 -0.1106
27061SOL    HW182796   2.365   9.334   2.508  1.1732 -0.2063  0.1287
27061SOL    HW282797   2.331   9.232   2.615 -0.9233  0.3950  0.0818
27062SOL     OW82798   7.984   0.544   4.326  0.2988  0.0972  0.0231
27062SOL    HW182799   7.915   0.611   4.326 -0.4302 -0.4635  3.2904
27062SOL    HW282800   7.942   0.467   4.288 -0.3191  0.2599  0.3604
27063SOL     OW82801   7.396   8.437   1.317 -0.1563  0.0695  0.1546
27063SOL    HW182802   7.433   8.524   1.310 -1.5157  0.8440  1.8218
27063SOL    HW282803   7.301   8.451   1.317 -0.4410 -1.5510 -0.9175
27064SOL     OW82804   9.742   5.666   2.980 -0.1698 -0.9512  0.4024
27064SOL    HW182805   9.662   5.620   2.956 -1.5348  1.1031  0.7226
27064SOL    HW282806   9.735   5.678   3.075  1.1307 -1.7740  0.6291
27065SOL     OW82807   3.130   5.007   9.426 -0.2538  0.1010  0.3132
27065SOL    HW182808   3.203   5.000   9.488 -0.0582  1.3170  0.2368
27065SOL    HW282809   3.052   5.012   9.482 -0.1028  0.8735  0.4622
27066SOL     OW82810   2.086   5.044   1.232  0.1975 -0.3837  0.1185
27066SOL    HW182811   2.055   4.970   1.285 -0.7058  0.6047  0.9963
27066SOL    HW282812   2.158   5.081   1.283 -1.1330  1.0065  1.0521
27067SOL     OW82813   6.716   1.012   8.796 -0.3819  0.0773 -0.3209
27067SOL    HW182814   6.653   1.058   8.850 -0.8730 -2.1566  1.1513
27067SOL    HW282815   6.798   1.015   8.846 -0.6380 -1.3057  0.2426
27068SOL     OW82816   5.326   1.833   1.466  0.1822  0.1263 -0.1529
27068SOL    HW182817   5.388   1.774   1.424  0.5713  0.9972 -0.8435
27068SOL    HW282818   5.371   1.864   1.545  0.5455  0.5734 -0.5285
27069SOL     OW82819   4.413   6.347   9.497 -0.3105  0.3840  0.0807
27069SOL    HW182820   4.475   6.274   9.504 -1.3707 -0.5834 -0.3240
27069SOL    HW282821   4.328   6.308   9.516 -0.9299  1.4696 -0.3870
27070SOL     OW82822   6.369   1.149   0.745 -0.1706 -0.3179  0.0348
27070SOL    HW182823   6.357   1.239   0.774 -0.8653  0.5404 -2.6100
27070SOL    HW282824   6.375   1.098   0.826  2.3759  2.2849  1.6538
27071SOL     OW82825   1.033   2.974   2.224 -0.4679 -0.0371  0.0308
27071SOL    HW182826   1.046   3.068   2.237  0.5052 -0.0933 -0.4882
27071SOL    HW282827   0.945   2.968   2.186  0.5413  0.9660 -2.8103
27072SOL     OW82828   8.595   9.639   0.747  0.2158 -0.4612  0.0354
27072SOL    HW182829   8.536   9.606   0.815 -1.0340 -0.5666 -1.0539
27072SOL    HW282830   8.663   9.686   0.795 -0.9061 -0.0863  1.3360
27073SOL     OW82831   6.047   5.199   2.257  0.3828 -0.1811 -0.4531
27073SOL    HW182832   6.121   5.160   2.210  0.0805 -1.0590 -0.2129
27073SOL    HW282833   6.060   5.174   2.348  0.4537  0.7130 -0.2167
27074SOL     OW82834   7.913   8.353   4.494 -0.2582 -0.2349 -0.1673
27074SOL    HW182835   7.892   8.396   4.576  2.5153  0.8355  0.1034
27074SOL    HW282836   7.901   8.259   4.512  0.1107 -0.0058  1.4087
27075SOL     OW82837   8.694   5.246   3.571 -0.5913 -0.2077  0.3023
27075SOL    HW182838   8.725   5.301   3.642  1.1699  0.3700 -0.8331
27075SOL    HW282839   8.600   5.262   3.567 -0.8516 -0.7389  2.8474
27076SOL     OW82840   2.138   1.374   7.267  0.0391 -0.1010 -0.0365
27076SOL    HW182841   2.130   1.413   7.354  0.1582  0.6351 -0.3511
27076SOL    HW282842   2.218   1.412   7.231  0.6167 -1.2677 -0.0383
27077SOL     OW82843   2.941   3.003   9.400 -0.5219  0.8537 -0.2932
27077SOL    HW182844   2.936   2.909   9.381 -0.2318  0.8257 -0.2372
27077SOL    HW282845   2.989   3.040   9.325 -1.7900  1.1662 -0.9901
27078SOL     OW82846   6.252   6.111   0.952  0.0443  0.0245 -0.0040
27078SOL    HW182847   6.315   6.045   0.923  0.6967  0.7512 -0.2773
27078SOL    HW282848   6.179   6.061   0.988 -0.8766 -0.9722 -2.9774
27079SOL     OW82849   0.964   6.309   6.390 -0.7010  0.7879  0.1458
27079SOL    HW182850   0.882   6.307   6.439 -0.1249  0.0233  1.1251
27079SOL    HW282851   0.959   6.234   6.330 -0.9982  1.1476 -0.2832
27080SOL     OW82852   8.708   3.343   6.443 -0.1956 -0.5330 -0.3485
27080SOL    HW182853   8.702   3.363   6.536 -0.2099 -0.3488 -0.3876
27080SOL    HW282854   8.661   3.261   6.432 -1.4146  0.1497 -0.4188
27081SOL     OW82855   2.956   4.384   4.179  0.2527  0.1293 -0.3410
27081SOL    HW182856   2.898   4.449   4.218 -0.0539 -0.9929  1.1622
27081SOL    HW282857   2.927   4.377   4.089  1.1722  3.0410 -0.9849
27082SOL     OW82858   3.658   4.398   8.366 -0.1476  0.2038  0.2314
27082SOL    HW182859   3.749   4.382   8.393 -0.0583  0.0338 -0.1632
27082SOL    HW282860   3.660   4.393   8.270 -0.4647  0.7958  0.1910
27083SOL     OW82861   2.359   6.424   4.066 -0.3500 -0.5893  0.3492
27083SOL    HW182862   2.383   6.515   4.083 -0.7595 -0.4177  0.0230
27083SOL    HW282863   2.441   6.375   4.077 -0.5953 -0.5381  2.9634
27084SOL     OW82864   5.069   9.005   4.958  0.0412  0.3932  0.2649
27084SOL    HW182865   4.979   8.974   4.961 -0.1959  1.1399  2.2470
27084SOL    HW282866   5.070   9.085   5.011  1.2353  2.2458 -2.3421
27085SOL     OW82867   7.094   0.470   7.586 -0.1836  0.1237  0.2472
27085SOL    HW182868   7.074   0.449   7.495  1.5245 -0.3756 -0.0527
27085SOL    HW282869   7.010   0.497   7.624 -0.7820  1.1355 -1.6692
27086SOL     OW82870   1.692   1.567   9.659 -0.2724  0.1652  0.7460
27086SOL    HW182871   1.666   1.492   9.711 -0.0795 -1.4198 -1.3096
27086SOL    HW282872   1.609   1.610   9.635 -0.4679 -0.1235  0.9021
27087SOL     OW82873   8.619   1.731   9.711 -0.6794 -0.6372 -0.5613
27087SOL    HW182874   8.561   1.677   9.658 -0.7108 -2.5644  1.3081
27087SOL    HW282875   8.638   1.678   9.788  1.7481  0.8375 -0.0187
27088SOL     OW82876   4.404   8.486   1.164 -0.0851  0.0045  0.0253
27088SOL    HW182877   4.334   8.551   1.163  0.0818  0.1841 -0.0418
27088SOL    HW282878   4.386   8.432   1.241 -1.0349 -0.7632 -0.7081
27089SOL     OW82879   6.032   4.130   2.771 -0.5117  0.1970  0.3633
27089SOL    HW182880   6.123   4.126   2.741 -0.2158  4.0410  0.3645
27089SOL    HW282881   6.024   4.057   2.833  2.3541 -0.5764 -0.0406
27090SOL     OW82882   7.780   0.111   1.625 -0.2780  0.5697 -0.0409
27090SOL    HW182883   7.726   0.062   1.687 -0.1588  0.5532  0.0499
27090SOL    HW282884   7.822   0.044   1.571  0.2665  0.5463  0.3988
27091SOL     OW82885   5.347   0.726   8.359  0.1925  0.1085  0.4360
27091SOL    HW182886   5.414   0.673   8.402 -1.5343 -2.3861  0.2790
27091SOL    HW282887   5.374   0.729   8.267  1.0515  0.7895  0.6951
27092SOL     OW82888   9.675   5.578   0.281 -0.2660  0.6634 -0.0651
27092SOL    HW182889   9.694   5.648   0.343 -0.8443  0.1416  0.7405
27092SOL    HW282890   9.579   5.574   0.278 -0.2410  0.2374 -0.4758
27093SOL     OW82891   6.142   5.215   9.798  0.2491  0.4744  0.1991
27093SOL    HW182892   6.087   5.157   9.851  1.0739  1.2016  1.9423
27093SOL    HW282893   6.211   5.158   9.764 -1.3741 -0.3955 -1.8203
27094SOL     OW82894   6.896   4.150   0.314  0.3004 -0.3352 -0.0717
27094SOL    HW182895   6.817   4.195   0.343  0.1284 -1.4108  1.2193
27094SOL    HW282896   6.958   4.220   0.295 -0.9677  0.5364 -1.2250
27095SOL     OW82897   8.271   3.998   5.008 -0.0889 -0.2114 -0.4452
27095SOL    HW182898   8.257   3.983   4.915  0.7671  0.8290 -0.7584
27095SOL    HW282899   8.366   4.001   5.018 -0.1132 -1.8057  0.7259
27096SOL     OW82900   0.460   7.617   5.821  0.0641 -0.2345 -0.0695
27096SOL    HW182901   0.389   7.681   5.809  2.5566  2.6212 -1.0191
27096SOL    HW282902   0.500   7.640   5.905  0.5044 -1.0814 -0.0379
27097SOL     OW82903   7.889   9.587   1.832 -0.3376  0.3662 -1.2784
27097SOL    HW182904   7.918   9.665   1.879 -0.1028 -0.3627 -0.1790
27097SOL    HW282905   7.898   9.610   1.740  1.7448  0.9292 -0.9955
27098SOL     OW82906   3.789   8.427   7.009 -0.6339 -0.2584 -0.0586
27098SOL    HW182907   3.844   8.449   7.084 -1.5627  0.1029  0.5323
27098SOL    HW282908   3.809   8.335   6.991  2.1867  0.5554 -1.6140
27099SOL     OW82909   9.153   6.378   1.976  0.2150 -0.3932 -0.5414
27099SOL    HW182910   9.139   6.468   2.007  1.9761  0.1281 -1.0935
27099SOL    HW282911   9.088   6.326   2.022 -0.0172  0.9777  0.7683
27100SOL     OW82912   7.440   1.762   3.806  0.0248 -0.0396  0.0079
27100SOL    HW182913   7.434   1.813   3.887  1.0974 -0.8650  0.6330
27100SOL    HW282914   7.506   1.807   3.754 -0.6491  0.4783 -0.4239
27101SOL     OW82915   7.024   3.967   4.275  0.0427  0.2356 -0.5408
27101SOL    HW182916   7.034   4.058   4.304 -0.7233  0.0844  0.2767
27101SOL    HW282917   7.087   3.957   4.204  1.2639  0.9526  0.3996
27102SOL     OW82918   0.508   5.247   7.790 -0.1671 -0.2605  0.0277
27102SOL    HW182919   0.600   5.263   7.769 -0.0851 -1.5138 -0.7081
27102SOL    HW282920   0.509   5.167   7.842 -0.9444 -1.2275 -1.3910
27103SOL     OW82921   9.385   7.444   9.787 -0.3555  0.0560  0.3128
27103SOL    HW182922   9.310   7.503   9.776  0.4578  0.8578 -1.3002
27103SOL    HW282923   9.410   7.454   9.878 -1.3438  0.8340  0.5208
27104SOL     OW82924   0.079   5.228   2.271 -0.4336 -0.2740 -0.0510
27104SOL    HW182925   0.121   5.267   2.348 -1.0585  0.6391 -0.1632
27104SOL    HW282926   0.141   5.243   2.200 -0.0595 -0.7167  0.1725
27105SOL     OW82927   9.667   8.332   3.059 -0.6006 -0.2665  0.2759
27105SOL    HW182928   9.680   8.348   2.966  0.4976  2.5352  0.7818
27105SOL    HW282929   9.746   8.286   3.087 -1.5056 -2.3018 -0.3309
27106SOL     OW82930   4.800   2.489   0.358 -0.2670 -0.8148  0.7417
27106SOL    HW182931   4.858   2.537   0.300  0.3703 -0.9283  1.2758
27106SOL    HW282932   4.848   2.409   0.379 -0.9918 -1.3353  0.4753
27107SOL     OW82933   9.412   1.709   5.857  0.5687  0.0899 -0.2780
27107SOL    HW182934   9.332   1.761   5.850  1.3437  1.1919 -1.2383
27107SOL    HW282935   9.433   1.710   5.951  0.6234  1.6193 -0.2874
27108SOL     OW82936   9.252   6.616   7.266  0.6205  0.0434 -0.2714
27108SOL    HW182937   9.301   6.693   7.295 -0.8027  0.8572  0.0126
27108SOL    HW282938   9.257   6.618   7.171 -0.3501  1.1268 -0.3117
27109SOL     OW82939   5.629   8.408   4.426 -0.7357  0.1201  0.1905
27109SOL    HW182940   5.578   8.330   4.447 -1.4170  0.5510  0.1318
27109SOL    HW282941   5.703   8.405   4.487 -0.4560 -0.8523 -0.1693
27110SOL     OW82942   4.144   2.104   3.935 -0.1426  0.1654  0.1155
27110SOL    HW182943   4.221   2.066   3.979 -0.2346  0.1400  0.2535
27110SOL    HW282944   4.107   2.031   3.885  0.9522  0.5974 -1.3878
27111SOL     OW82945   9.106   9.211   1.987 -0.2141  0.5861 -0.1865
27111SOL    HW182946   9.198   9.237   1.995  0.2461 -1.0671  0.2173
27111SOL    HW282947   9.062   9.257   2.058  0.8354 -0.7496  1.4020
27112SOL     OW82948   2.501   3.458   2.203 -0.8312 -0.1171 -0.0743
27112SOL    HW182949   2.468   3.402   2.133 -1.3332  1.4018 -1.0836
27112SOL    HW282950   2.422   3.488   2.249 -0.7732  1.7566 -1.1195
27113SOL     OW82951   2.503   4.371   8.101  0.8954 -0.1066 -0.7628
27113SOL    HW182952   2.441   4.422   8.050  0.7709 -0.8032 -1.3266
27113SOL    HW282953   2.587   4.383   8.057  1.0130  0.2138 -0.4548
27114SOL     OW82954   6.310   0.239   6.537  0.8341 -0.5030 -0.0622
27114SOL    HW182955   6.344   0.167   6.589 -1.5114 -0.0850  2.3162
27114SOL    HW282956   6.256   0.198   6.470  0.9289 -0.9979  0.1640
27115SOL     OW82957   6.668   2.770   2.576 -0.6595 -0.3699  0.0709
27115SOL    HW182958   6.698   2.706   2.640 -0.3067 -0.1936  0.0869
27115SOL    HW282959   6.684   2.855   2.618 -1.4533 -0.2768  0.1969
27116SOL     OW82960   2.941   3.815   0.942 -0.0005 -0.2209  0.0243
27116SOL    HW182961   3.035   3.831   0.931  0.0209 -1.3558 -1.8018
27116SOL    HW282962   2.936   3.723   0.967 -0.6239 -0.0879  0.3902
27117SOL     OW82963   6.105   3.995   0.903 -0.3521 -0.6785  0.1893
27117SOL    HW182964   6.057   3.921   0.868 -0.3798 -0.0327 -1.2090
27117SOL    HW282965   6.071   4.006   0.992  1.1566 -3.6203  1.2676
27118SOL     OW82966   5.274   0.919   1.427  0.2017  0.2475 -0.2398
27118SOL    HW182967   5.318   0.929   1.511 -2.1185  0.1762  1.0903
27118SOL    HW282968   5.218   0.842   1.438 -1.2146  1.0684 -1.3264
27119SOL     OW82969   2.072   3.391   8.741 -1.3918  0.5083  0.7044
27119SOL    HW182970   2.117   3.328   8.684 -0.0845  1.9646  0.0412
27119SOL    HW282971   2.127   3.395   8.820 -0.1564  2.4381 -0.1848
27120SOL     OW82972   0.326   0.846   6.642  0.0187  0.8711  0.3769
27120SOL    HW182973   0.281   0.929   6.663 -1.8910  0.0735 -0.3450
27120SOL    HW282974   0.388   0.869   6.573 -0.0174  1.8229  0.6485
27121SOL     OW82975   5.650   7.937   9.421 -0.0366  0.4872 -0.3879
27121SOL    HW182976   5.661   7.906   9.511 -0.7653  0.6502 -0.2280
27121SOL    HW282977   5.560   7.913   9.399  0.4119 -0.3386 -1.3961
27122SOL     OW82978   3.612   7.997   6.748 -0.1461 -0.6994  0.0019
27122SOL    HW182979   3.582   7.953   6.668 -0.0694 -0.5910 -0.0870
27122SOL    HW282980   3.578   7.944   6.819 -0.6675 -0.5082 -0.0980
27123SOL     OW82981   0.285   2.496   3.439 -0.0517 -0.1026  0.0477
27123SOL    HW182982   0.305   2.571   3.495 -0.8002 -0.6060  1.0221
27123SOL    HW282983   0.293   2.421   3.497  0.1871 -0.7434 -0.7953
27124SOL     OW82984   2.173   5.788   1.720 -0.0621 -0.0602  0.3053
27124SOL    HW182985   2.258   5.777   1.764  0.3765 -0.2834 -0.5755
27124SOL    HW282986   2.114   5.728   1.766  0.3533 -0.1782  0.6898
27125SOL     OW82987   4.093   8.810   9.586 -0.0053 -0.1308 -0.1763
27125SOL    HW182988   4.075   8.729   9.539  0.7951  0.5853 -1.8069
27125SOL    HW282989   4.010   8.859   9.583 -0.5832 -0.9931  1.0969
27126SOL     OW82990   5.072   2.593   8.117 -0.0055 -0.3370  0.1362
27126SOL    HW182991   5.030   2.530   8.176  0.5169 -1.4827 -0.6898
27126SOL    HW282992   5.161   2.601   8.149  0.0186 -0.2460  0.0481
27127SOL     OW82993   8.402   1.158   7.749 -0.3389  0.1283 -0.2281
27127SOL    HW182994   8.342   1.160   7.674 -1.3284 -1.1866  0.4891
27127SOL    HW282995   8.461   1.084   7.730 -0.5912 -0.2042  0.2744
27128SOL     OW82996   0.310   5.587   0.430 -0.0777  0.1166 -0.0835
27128SOL    HW182997   0.399   5.581   0.464 -0.1750 -0.6388  0.0422
27128SOL    HW282998   0.309   5.529   0.354 -0.9539 -1.3554  0.9990
27129SOL     OW82999   5.815   3.170   2.956  0.1195 -0.8185 -0.2906
27129SOL    HW183000   5.760   3.118   2.898  0.1077  0.5239 -1.5486
27129SOL    HW283001   5.755   3.229   3.001  0.4504  0.6494 -1.6662
27130SOL     OW83002   7.627   3.382   3.202  0.0008 -0.3902 -0.4725
27130SOL    HW183003   7.635   3.321   3.128 -1.3891 -1.3614  0.1490
27130SOL    HW283004   7.533   3.389   3.218  0.2742 -0.1416  1.1808
27131SOL     OW83005   3.606   8.509   7.514 -0.1129 -0.0225 -0.4942
27131SOL    HW183006   3.597   8.511   7.419  0.7035 -0.9765 -0.6176
27131SOL    HW283007   3.523   8.473   7.545 -0.3062  0.0991 -0.8667
27132SOL     OW83008   6.038   5.717   0.830  1.0132 -0.0506  0.1508
27132SOL    HW183009   6.063   5.635   0.871 -0.1615 -0.3580  0.2997
27132SOL    HW283010   6.120   5.756   0.800  1.5046 -1.7939 -0.9071
27133SOL     OW83011   4.851   8.666   5.650 -0.2029 -0.2544 -0.5653
27133SOL    HW183012   4.886   8.710   5.573  2.1260  0.9402  1.0326
27133SOL    HW283013   4.864   8.730   5.721 -1.1088 -1.7626  1.0209
27134SOL     OW83014   3.704   8.672   8.702  0.1910 -0.0993  0.0605
27134SOL    HW183015   3.626   8.721   8.677  0.0842 -0.3878 -0.1852
27134SOL    HW283016   3.750   8.657   8.619  0.4526 -0.0234  0.1901
27135SOL     OW83017   2.172   7.547   5.126  0.1576  0.4653 -0.4834
27135SOL    HW183018   2.216   7.611   5.182  0.4797  0.5906 -0.8793
27135SOL    HW283019   2.171   7.467   5.179  1.0014  0.4182 -0.5255
27136SOL     OW83020   7.172   4.948   8.200  0.3544 -0.0584 -0.8689
27136SOL    HW183021   7.211   5.026   8.238  0.9762 -1.1221  0.7985
27136SOL    HW283022   7.119   4.911   8.271  1.0656 -1.7948 -1.1769
27137SOL     OW83023   9.116   4.085   6.422 -0.3668 -1.0136 -0.0640
27137SOL    HW183024   9.055   4.157   6.411 -0.9709 -1.4384  0.4565
27137SOL    HW283025   9.199   4.127   6.446 -0.0347 -0.3255 -2.1864
27138SOL     OW83026   8.237   1.283   9.363  0.6708 -0.4354  0.3702
27138SOL    HW183027   8.228   1.370   9.403 -2.0819 -0.4772  0.0015
27138SOL    HW283028   8.295   1.297   9.289  0.2500  1.1265  0.2939
27139SOL     OW83029   4.205   2.299   4.959 -0.3923 -0.0343 -0.6065
27139SOL    HW183030   4.182   2.289   5.051 -2.4728  0.6185 -0.9889
27139SOL    HW283031   4.140   2.361   4.925 -0.5436 -1.3025 -2.8172
27140SOL     OW83032   6.752   2.459   4.840  0.2682  0.4540  0.0210
27140SOL    HW183033   6.662   2.432   4.854 -0.3852  1.7909 -1.3168
27140SOL    HW283034   6.787   2.472   4.928 -0.3297 -1.5903  0.6030
27141SOL     OW83035   0.364   5.960   4.147 -0.1602 -0.7427 -0.4032
27141SOL    HW183036   0.425   6.019   4.189 -0.5323  0.3559 -1.3543
27141SOL    HW283037   0.412   5.925   4.072 -0.1064 -1.2759 -0.1257
27142SOL     OW83038   0.515   7.527   3.816 -0.2702  0.0153 -0.4271
27142SOL    HW183039   0.576   7.488   3.753  0.0807  0.6288 -0.4746
27142SOL    HW283040   0.439   7.468   3.816 -0.2010 -0.0868 -1.2942
27143SOL     OW83041   8.359   3.782   9.014  0.0099  0.1726 -0.8222
27143SOL    HW183042   8.423   3.821   8.955 -0.6635  1.1291 -0.9316
27143SOL    HW283043   8.274   3.813   8.983 -0.7326 -2.5222 -1.8062
27144SOL     OW83044   7.311   6.776   0.118 -0.3903  0.7378 -0.1706
27144SOL    HW183045   7.294   6.803   0.208  1.3135  1.6703 -0.0895
27144SOL    HW283046   7.391   6.822   0.093 -0.2227 -0.3291 -1.8061
27145SOL     OW83047   3.175   1.504   8.085 -0.0352 -0.4738  0.1102
27145SOL    HW183048   3.131   1.443   8.025  0.3104 -0.2969 -0.3246
27145SOL    HW283049   3.247   1.540   8.034 -0.4234  0.5546  0.2591
27146SOL     OW83050   7.850   5.887   0.959 -0.2021 -0.5617 -0.3282
27146SOL    HW183051   7.764   5.883   1.001  0.5514 -3.4075  1.2237
27146SOL    HW283052   7.897   5.957   1.005 -0.6370 -1.1560  1.0463
27147SOL     OW83053   1.673   8.888   7.535  0.6069 -0.3453 -0.1342
27147SOL    HW183054   1.602   8.825   7.543  0.4302  0.0047  1.2144
27147SOL    HW283055   1.722   8.859   7.457 -0.9187 -0.6534 -1.0222
27148SOL     OW83056   6.675   7.360   9.016  0.1142  0.1019 -0.0045
27148SOL    HW183057   6.723   7.357   8.933 -0.6754 -0.8166 -0.4553
27148SOL    HW283058   6.740   7.384   9.081  1.1141 -0.7723 -0.6462
27149SOL     OW83059   5.952   1.577   7.315 -0.1821 -0.4050  0.2627
27149SOL    HW183060   5.995   1.493   7.301  0.2769 -0.2100  0.4935
27149SOL    HW283061   5.954   1.619   7.229 -0.6907 -0.7556  0.0753
27150SOL     OW83062   9.179   5.433   2.233  0.1398  0.4575 -0.7091
27150SOL    HW183063   9.167   5.500   2.165  0.7486 -0.6759 -1.9865
27150SOL    HW283064   9.091   5.401   2.251 -0.4059  2.7981  1.2550
27151SOL     OW83065   1.391   5.542   1.734 -0.1567  0.2970 -0.4682
27151SOL    HW183066   1.300   5.512   1.732  0.2894 -1.2017  0.0460
27151SOL    HW283067   1.385   5.637   1.746 -1.6422  0.1260  0.3468
27152SOL     OW83068   2.261   7.433   6.924  0.1063 -0.4806  0.4172
27152SOL    HW183069   2.228   7.375   6.992  1.0793 -0.7779  0.6447
27152SOL    HW283070   2.253   7.382   6.843 -0.8926 -0.1867  0.3101
27153SOL     OW83071   1.416   5.070   6.292 -0.3199 -0.0635 -0.2916
27153SOL    HW183072   1.477   4.997   6.286 -0.1572  0.1706 -2.3031
27153SOL    HW283073   1.339   5.041   6.243 -0.3665  0.9790 -0.8703
27154SOL     OW83074   1.182   0.353   3.288  0.1003 -0.3245  0.1044
27154SOL    HW183075   1.233   0.278   3.256  0.5411 -0.3990  0.9846
27154SOL    HW283076   1.175   0.411   3.212 -0.3748 -1.3129 -0.6411
27155SOL     OW83077   0.103   7.985   1.527  0.1519 -0.0738 -0.0234
27155SOL    HW183078   0.023   7.941   1.498 -0.6967  1.1786  0.2963
27155SOL    HW283079   0.151   7.919   1.576 -1.7920 -0.2898  1.7429
27156SOL     OW83080   5.571   0.802   8.958 -0.0907  0.1457  0.4071
27156SOL    HW183081   5.607   0.742   9.023  1.1131 -0.5581 -0.8466
27156SOL    HW283082   5.526   0.869   9.009 -0.7945 -1.3843  1.8803
27157SOL     OW83083   5.733   5.536   0.591  0.2891 -0.8911  0.4223
27157SOL    HW183084   5.774   5.618   0.564 -2.0974  0.7980  1.5327
27157SOL    HW283085   5.804   5.485   0.631  1.8248  0.6446 -0.2395
27158SOL     OW83086   1.770   4.199   8.817  0.6104 -0.0408 -0.6525
27158SOL    HW183087   1.686   4.231   8.850  0.7189 -0.0970 -0.3176
27158SOL    HW283088   1.836   4.244   8.869  0.7936  0.1087 -1.0110
27159SOL     OW83089   4.198   1.820   0.300 -0.0668 -0.2117 -0.4709
27159SOL    HW183090   4.269   1.792   0.243 -0.0077 -0.8500 -0.0983
27159SOL    HW283091   4.218   1.911   0.321  0.3760 -0.2416 -0.7601
27160SOL     OW83092   5.238   2.386   2.076 -0.0888  0.0309 -0.6860
27160SOL    HW183093   5.182   2.325   2.028 -1.1352 -0.8340  1.4843
27160SOL    HW283094   5.184   2.465   2.087  0.1592  0.2393 -0.9572
27161SOL     OW83095   4.621   5.433   0.387  0.3081 -0.2864 -0.0150
27161SOL    HW183096   4.570   5.509   0.362 -1.4022 -1.8861 -1.7321
27161SOL    HW283097   4.566   5.387   0.450  1.1140 -0.3472  0.6529
27162SOL     OW83098   0.905   6.482   1.696 -0.5758  0.6039  0.6502
27162SOL    HW183099   0.928   6.400   1.741  0.7143  0.5261 -0.0758
27162SOL    HW283100   0.828   6.460   1.644  0.6366 -0.6423 -0.7266
27163SOL     OW83101   5.478   6.423   0.988  0.2370  0.0352  0.0507
27163SOL    HW183102   5.431   6.340   0.979 -2.4075  1.5442 -1.5343
27163SOL    HW283103   5.410   6.490   0.978  2.2377  2.4283  1.3114
27164SOL     OW83104   9.607   7.996   3.423 -0.3793 -0.2732  0.4512
27164SOL    HW183105   9.519   8.021   3.450  1.0024  2.7933  2.6621
27164SOL    HW283106   9.662   8.011   3.500  2.3705 -0.2555 -1.3606
27165SOL     OW83107   7.867   1.486   6.367 -0.5362 -0.0556 -0.1150
27165SOL    HW183108   7.944   1.455   6.318  0.1973  1.8826 -0.2757
27165SOL    HW283109   7.801   1.500   6.299 -0.6063 -0.4814 -0.1382
27166SOL     OW83110   8.449   7.173   0.355  0.3116  0.0067  0.3894
27166SOL    HW183111   8.496   7.147   0.276 -0.4405 -1.2812  0.3186
27166SOL    HW283112   8.361   7.195   0.324  0.4737  1.1175  0.6755
27167SOL     OW83113   7.058   1.286   1.763 -0.4371 -0.2393 -0.8095
27167SOL    HW183114   7.020   1.199   1.771 -0.2320 -0.3544 -1.0736
27167SOL    HW283115   6.984   1.342   1.740 -0.8250 -0.1007  0.6674
27168SOL     OW83116   1.116   7.902   2.036 -0.5227 -0.3299 -0.0469
27168SOL    HW183117   1.078   7.890   1.949 -0.3323 -0.5718 -0.0975
27168SOL    HW283118   1.043   7.891   2.096 -0.1030 -3.4159  0.0168
27169SOL     OW83119   7.531   2.583   9.075  0.0844 -0.1456 -0.1943
27169SOL    HW183120   7.582   2.598   8.995 -0.9506 -0.7275 -0.9930
27169SOL    HW283121   7.521   2.488   9.080 -1.3849 -0.0311 -0.3794
27170SOL     OW83122   8.734   6.443   3.135  0.1034  0.1963  0.0604
27170SOL    HW183123   8.737   6.536   3.116 -0.2419  0.0493 -0.7819
27170SOL    HW283124   8.826   6.416   3.139  0.1993  0.4537 -0.3412
27171SOL     OW83125   2.995   5.998   8.807  0.4074  0.0442 -0.4559
27171SOL    HW183126   3.085   6.010   8.777 -0.1666  0.3350 -2.1708
27171SOL    HW283127   2.998   5.919   8.862  2.2047  1.6378  1.9453
27172SOL     OW83128   8.754   0.580   9.504 -0.0997 -0.3463  0.0739
27172SOL    HW183129   8.772   0.553   9.414 -0.2051 -0.2606  0.0254
27172SOL    HW283130   8.835   0.566   9.551  0.0308 -0.1573 -0.0928
27173SOL     OW83131   9.048   9.690   4.979  0.1334 -0.2861  0.2498
27173SOL    HW183132   8.959   9.664   4.955 -0.1017  0.3450  0.4082
27173SOL    HW283133   9.046   9.786   4.977  0.7199 -0.2638  0.5877
27174SOL     OW83134   9.021   9.420   4.767 -0.2059  0.4549 -0.4878
27174SOL    HW183135   8.952   9.406   4.702  1.6280 -0.0374 -2.4882
27174SOL    HW283136   9.067   9.499   4.736  1.4342 -0.4710 -0.5398
27175SOL     OW83137   8.402   7.391   8.663  0.5585  0.0923  0.1217
27175SOL    HW183138   8.348   7.394   8.584 -0.0227  2.6064  0.5430
27175SOL    HW283139   8.485   7.353   8.633  0.4921  1.3623 -1.8230
27176SOL     OW83140   6.008   3.525   1.777 -0.7307 -0.3085  0.2744
27176SOL    HW183141   5.941   3.562   1.720  0.7109  0.6651 -0.8274
27176SOL    HW283142   5.976   3.544   1.866 -0.2488  3.3296 -0.2096
27177SOL     OW83143   8.009   1.827   0.574 -0.4230 -0.4767 -0.6557
27177SOL    HW183144   8.010   1.910   0.526 -1.0029 -0.7969 -1.2337
27177SOL    HW283145   7.920   1.793   0.561 -0.4086 -0.8586  0.1548
27178SOL     OW83146   2.130   0.863   0.500  0.3752  0.1716 -0.1855
27178SOL    HW183147   2.176   0.869   0.584  0.1514 -0.6971  0.0121
27178SOL    HW283148   2.196   0.832   0.438  0.1766 -0.6480  0.0030
27179SOL     OW83149   4.814   2.250   4.057  0.0795 -0.6503  0.1276
27179SOL    HW183150   4.789   2.233   4.148 -0.9870 -1.9649 -0.3715
27179SOL    HW283151   4.907   2.272   4.061 -0.1378  0.1351  1.6171
27180SOL     OW83152   5.500   5.847   5.874 -0.4898 -0.4488 -0.0143
27180SOL    HW183153   5.502   5.802   5.789  1.4954 -0.9608  0.2613
27180SOL    HW283154   5.456   5.785   5.932 -0.0674 -0.9676 -0.2298
27181SOL     OW83155   4.676   9.086   0.407 -0.2735 -0.5906  0.9061
27181SOL    HW183156   4.621   9.099   0.484 -1.0537 -1.3756  0.5034
27181SOL    HW283157   4.696   9.174   0.376  0.1583 -0.2631  2.0674
27182SOL     OW83158   9.489   8.382   7.616 -0.3154 -0.2668 -0.7020
27182SOL    HW183159   9.539   8.411   7.540  0.0800  1.5056  0.1826
27182SOL    HW283160   9.423   8.450   7.629  0.3543  0.0925  1.2029
27183SOL     OW83161   4.833   3.242   9.614 -0.6224 -0.6306 -0.1164
27183SOL    HW183162   4.780   3.199   9.682 -1.0638 -1.7740 -1.1529
27183SOL    HW283163   4.910   3.273   9.661 -1.7747  0.3062  1.2644
27184SOL     OW83164   7.300   7.687   7.880  0.0203  0.4937  0.4013
27184SOL    HW183165   7.272   7.736   7.958 -0.3990  0.3431  0.3473
27184SOL    HW283166   7.347   7.611   7.914 -2.0859 -0.7919  0.5983
27185SOL     OW83167   0.071   1.493   7.892 -0.4919  0.4499 -0.6034
27185SOL    HW183168   0.139   1.545   7.848  0.4296 -1.2078 -1.2157
27185SOL    HW283169  -0.003   1.496   7.832 -0.8899  2.0185 -0.0757
27186SOL     OW83170   6.917   3.865   5.374 -0.2041  1.0537 -0.3164
27186SOL    HW183171   6.903   3.952   5.410  0.4708  0.8594  0.4640
27186SOL    HW283172   7.013   3.857   5.368 -0.1232 -0.4003  1.6683
27187SOL     OW83173   4.669   4.543   4.655  0.0155  0.1412  0.0377
27187SOL    HW183174   4.689   4.464   4.605  1.1360  0.8187 -0.6309
27187SOL    HW283175   4.671   4.614   4.591  1.2438  0.9971  0.9707
27188SOL     OW83176   6.099   4.418   8.921  0.1988 -0.0094 -0.0272
27188SOL    HW183177   6.068   4.338   8.878 -1.3748 -0.4809  1.8060
27188SOL    HW283178   6.020   4.454   8.962  0.9862  2.2218 -0.3794
27189SOL     OW83179   7.512   2.664   3.160 -0.2199  0.1012 -0.0295
27189SOL    HW183180   7.490   2.679   3.252 -1.8730  0.4188 -0.4433
27189SOL    HW283181   7.576   2.594   3.162  0.0198  0.3285  1.3821
27190SOL     OW83182   8.508   3.333   4.612 -0.1090  0.1581  0.2968
27190SOL    HW183183   8.577   3.365   4.669  1.5076  2.9549 -2.8915
27190SOL    HW283184   8.550   3.266   4.558 -0.2779  0.7275 -0.5713
27191SOL     OW83185   8.376   7.114   1.822  0.3900  0.2773 -0.3114
27191SOL    HW183186   8.351   7.108   1.730  1.4456  0.8492 -0.6554
27191SOL    HW283187   8.367   7.025   1.856 -0.6293  0.1890 -0.7854
27192SOL     OW83188   1.019   6.174   4.805  0.1223 -0.3411  0.0295
27192SOL    HW183189   1.079   6.122   4.858  0.1216  0.6745  1.0519
27192SOL    HW283190   0.947   6.113   4.785  1.1060 -1.3434 -0.5883
27193SOL     OW83191   4.455   9.838   0.372  0.2361 -0.0810 -0.3322
27193SOL    HW183192   4.361   9.827   0.352  0.0917  0.6710 -0.1067
27193SOL    HW283193   4.467   9.794   0.456  0.2355 -0.7651 -0.6788
27194SOL     OW83194   1.063   7.304   8.666  0.2565 -0.0718 -0.1765
27194SOL    HW183195   1.133   7.306   8.600  1.3246 -3.5631  0.6549
27194SOL    HW283196   1.109   7.291   8.749 -1.2595  0.8359  0.8472
27195SOL     OW83197   6.647   4.907   2.594 -0.1855  0.3554  1.0509
27195SOL    HW183198   6.736   4.941   2.595 -0.5793  1.4337  1.0034
27195SOL    HW283199   6.638   4.859   2.676  0.5655 -0.1294  0.8553
27196SOL     OW83200   9.529   7.252   3.489 -0.1412  0.3997 -0.3520
27196SOL    HW183201   9.558   7.163   3.507  0.0152  0.5584  0.2089
27196SOL    HW283202   9.443   7.242   3.447 -0.0908 -0.0119 -0.3543
27197SOL     OW83203   8.414   3.843   9.696 -0.0432 -0.3702 -0.2984
27197SOL    HW183204   8.404   3.836   9.791  0.6779  0.8309 -0.1112
27197SOL    HW283205   8.495   3.893   9.684 -0.7906  0.6166 -1.5209
27198SOL     OW83206   8.212   8.533   9.451 -0.0345  0.4696 -0.0342
27198SOL    HW183207   8.195   8.628   9.449 -1.9078  0.1572 -0.7797
27198SOL    HW283208   8.256   8.519   9.535 -0.7306  1.8633  0.5972
27199SOL     OW83209   0.086   1.381   0.768  0.3127 -0.4928  0.1131
27199SOL    HW183210   0.024   1.440   0.725  0.0645 -0.1220  0.9650
27199SOL    HW283211   0.100   1.420   0.855  2.5709  0.0349 -0.4253
27200SOL     OW83212   4.079   2.396   8.503 -0.0856 -0.0048 -0.3751
27200SOL    HW183213   3.998   2.356   8.471 -0.0781  0.5347 -1.1031
27200SOL    HW283214   4.116   2.439   8.426  0.2793  0.7780  0.2202
27201SOL     OW83215   7.593   0.973   5.475  0.4597  0.1420  0.0310
27201SOL    HW183216   7.510   0.946   5.436  1.1719 -1.2875 -0.5640
27201SOL    HW283217   7.568   1.035   5.544 -0.9719  1.1858 -1.3412
27202SOL     OW83218   5.984   6.487   3.711 -0.6370  0.2776  0.5051
27202SOL    HW183219   5.947   6.500   3.624 -1.8181  0.4971  1.0099
27202SOL    HW283220   6.056   6.425   3.698 -1.6997 -0.8063 -0.4213
27203SOL     OW83221   9.208   8.562   7.213 -0.3874  0.0436 -0.9658
27203SOL    HW183222   9.150   8.534   7.143  1.6319  1.9183 -3.5719
27203SOL    HW283223   9.296   8.540   7.182  0.5122 -3.0829  2.9957
27204SOL     OW83224   8.718   3.890   4.046 -0.0922 -0.5505  0.3453
27204SOL    HW183225   8.800   3.847   4.021 -0.3532 -1.9745  1.7868
27204SOL    HW283226   8.736   3.929   4.131 -0.7584 -0.3900  0.4176
27205SOL     OW83227   9.608   8.650   9.014 -0.4787  0.5209 -0.1576
27205SOL    HW183228   9.660   8.694   8.947 -0.0066  0.3375  0.0796
27205SOL    HW283229   9.656   8.569   9.032  0.2734  1.3037  1.5422
27206SOL     OW83230   3.334   6.318   9.757  0.7944 -0.4818  0.6480
27206SOL    HW183231   3.260   6.299   9.699 -0.4224 -1.8513  2.5174
27206SOL    HW283232   3.307   6.397   9.805  0.4364 -1.0535  1.4191
27207SOL     OW83233   3.339   3.895   5.978 -0.1956  0.5570  0.4168
27207SOL    HW183234   3.377   3.983   5.985  1.7573 -0.0991 -1.0367
27207SOL    HW283235   3.255   3.902   6.023 -0.3769  3.3240 -0.1456
27208SOL     OW83236   9.300   9.114   8.507  0.6450  0.1223 -0.3866
27208SOL    HW183237   9.337   9.084   8.590  2.4247  1.6865 -0.5364
27208SOL    HW283238   9.306   9.038   8.449  1.4293 -0.3708  0.3138
27209SOL     OW83239   7.346   5.711   0.464 -0.1300  0.1875 -0.1679
27209SOL    HW183240   7.272   5.731   0.522  0.3233 -0.0208  0.4866
27209SOL    HW283241   7.423   5.737   0.514  0.2846 -0.3471 -0.5257
27210SOL     OW83242   0.948   6.728   5.882  0.0284  0.1887  0.1131
27210SOL    HW183243   0.978   6.676   5.807 -0.0246  0.4394 -0.0838
27210SOL    HW283244   1.000   6.696   5.955  0.4175  0.2639 -0.1252
27211SOL     OW83245   5.185   5.668   0.334  0.0902 -0.0040  0.5064
27211SOL    HW183246   5.147   5.732   0.394  2.6150  0.6777  1.4790
27211SOL    HW283247   5.145   5.585   0.360 -1.9915  0.8733  0.3007
27212SOL     OW83248   2.002   4.105   7.171  0.3058 -0.0456 -0.0474
27212SOL    HW183249   2.079   4.162   7.184 -0.6497  1.2532  0.1069
27212SOL    HW283250   1.976   4.121   7.081 -0.2033  0.0681  0.1183
27213SOL     OW83251   2.147   4.502   3.370 -0.7490  0.1691  0.1175
27213SOL    HW183252   2.110   4.552   3.297 -0.5066  0.6610  0.3254
27213SOL    HW283253   2.089   4.428   3.380 -0.8812  0.1877 -0.4695
27214SOL     OW83254   6.873   0.372   1.307 -0.3995 -0.2380 -0.2039
27214SOL    HW183255   6.900   0.416   1.226  1.5816  1.3034  1.2139
27214SOL    HW283256   6.777   0.379   1.306 -0.3578  0.9141 -1.7748
27215SOL     OW83257   3.483   2.393   6.721 -0.0466 -0.0159 -0.3708
27215SOL    HW183258   3.421   2.443   6.775  0.9861  0.5748  0.3017
27215SOL    HW283259   3.569   2.417   6.755  0.5179 -2.1482 -0.1201
27216SOL     OW83260   4.032   4.721   5.092  0.0423 -0.4864  0.4825
27216SOL    HW183261   4.052   4.805   5.051 -3.7299 -0.3609 -1.5460
27216SOL    HW283262   4.043   4.657   5.022 -1.0621 -1.0843  0.8308
27217SOL     OW83263   4.825   4.044   3.597 -0.0904 -0.0349 -0.0555
27217SOL    HW183264   4.853   4.117   3.653  1.0715 -0.6167  0.1428
27217SOL    HW283265   4.734   4.065   3.575  0.5469  2.0334 -0.9234
27218SOL     OW83266   8.516   4.236   9.221 -0.1641  0.8175  0.1253
27218SOL    HW183267   8.513   4.166   9.286  0.4835  1.4519  0.8626
27218SOL    HW283268   8.516   4.191   9.137 -1.5331 -0.0206  0.5254
27219SOL     OW83269   9.033   3.277   6.527 -0.3228 -0.1529  0.0116
27219SOL    HW183270   8.981   3.200   6.550 -0.6996 -0.9816 -3.1331
27219SOL    HW283271   9.028   3.334   6.604 -2.9595 -1.7284  1.1175
27220SOL     OW83272   2.804   1.423   2.913  0.1481  0.1897  0.2641
27220SOL    HW183273   2.794   1.357   2.845  1.9893 -2.5545  2.4438
27220SOL    HW283274   2.739   1.399   2.979  0.8481  0.5171  1.0959
27221SOL     OW83275   0.676   7.757   1.609 -0.3635  0.2135  0.3267
27221SOL    HW183276   0.648   7.670   1.578  1.4739 -0.6387  0.9356
27221SOL    HW283277   0.639   7.763   1.697  0.6408 -0.5850  0.8316
27222SOL     OW83278   8.718   7.115   1.402  0.4386  0.3973 -0.7793
27222SOL    HW183279   8.635   7.152   1.372 -0.4334  0.1919  1.2201
27222SOL    HW283280   8.695   7.026   1.429  1.5901 -0.0863 -1.3125
27223SOL     OW83281   9.701   0.269   6.037 -0.2898  0.7436  0.0421
27223SOL    HW183282   9.611   0.295   6.057 -0.4581  0.7195 -0.6820
27223SOL    HW283283   9.704   0.265   5.942  0.2211 -0.1699  0.0913
27224SOL     OW83284   7.324   9.709   0.905 -0.1630 -0.1200 -0.2515
27224SOL    HW183285   7.388   9.730   0.973 -1.2745  0.6602  0.6037
27224SOL    HW283286   7.332   9.781   0.842  0.1741 -0.3224 -0.4466
27225SOL     OW83287   3.241   7.586   0.559 -0.0185  0.6412 -0.3769
27225SOL    HW183288   3.177   7.581   0.630 -0.2551 -0.7147 -0.6494
27225SOL    HW283289   3.321   7.551   0.597  0.3964  1.7175 -0.2325
27226SOL     OW83290   4.097   4.224   8.255 -0.0993  0.2223 -0.1265
27226SOL    HW183291   4.189   4.250   8.249 -0.5942  2.2811  0.5486
27226SOL    HW283292   4.057   4.259   8.176 -0.3810 -0.3808 -0.2541
27227SOL     OW83293   8.222   5.243   2.158 -0.1967 -0.4283 -0.4666
27227SOL    HW183294   8.293   5.275   2.103 -0.2631 -2.3203 -1.7226
27227SOL    HW283295   8.142   5.267   2.111 -0.2910 -0.8814 -0.5452
27228SOL     OW83296   3.252   7.634   1.199 -0.1473  0.4250  0.5376
27228SOL    HW183297   3.223   7.680   1.278  0.7178 -0.3373  1.3191
27228SOL    HW283298   3.255   7.702   1.131 -1.8750  0.8997  0.8852
27229SOL     OW83299   6.653   0.950   4.607 -0.1289 -0.1324  0.1941
27229SOL    HW183300   6.627   0.935   4.698 -0.2634 -0.0116  0.1744
27229SOL    HW283301   6.729   0.892   4.594  1.1244  1.2646  0.9588
27230SOL     OW83302   8.079   4.745   4.080  0.2809  1.1068  0.1755
27230SOL    HW183303   8.112   4.760   3.992  1.7476  1.3011  0.7237
27230SOL    HW283304   8.017   4.816   4.096  0.6336  1.5459 -0.3969
27231SOL     OW83305   1.853   3.633   4.209 -0.4568 -0.1242  0.4872
27231SOL    HW183306   1.823   3.548   4.243 -1.2242 -0.2329 -0.4138
27231SOL    HW283307   1.894   3.612   4.125  3.5953 -0.1893  2.2091
27232SOL     OW83308   1.497   6.498   0.532  0.5648 -0.0861  0.0510
27232SOL    HW183309   1.412   6.484   0.490 -1.0052  0.9602  2.6089
27232SOL    HW283310   1.522   6.413   0.566 -0.9284  0.0619  1.6756
27233SOL     OW83311   2.007   6.139   9.490  0.4279 -0.2732 -0.6096
27233SOL    HW183312   2.009   6.234   9.478  2.2069 -0.2059  0.0346
27233SOL    HW283313   2.051   6.104   9.413 -0.9707 -0.6602 -1.2683
27234SOL     OW83314   9.002   4.224   0.873 -0.0702  0.3632  0.2034
27234SOL    HW183315   8.965   4.157   0.815  0.4526 -0.5780  0.9280
27234SOL    HW283316   8.948   4.220   0.952  0.6389  0.0220  0.6777
27235SOL     OW83317   7.199   5.691   2.763 -0.0063  0.2998 -0.0288
27235SOL    HW183318   7.210   5.780   2.799  1.7942  0.4393 -0.8220
27235SOL    HW283319   7.141   5.647   2.826 -2.2103  2.4517 -0.3847
27236SOL     OW83320   2.206   8.304   6.685 -0.5848 -0.4280  0.6802
27236SOL    HW183321   2.290   8.328   6.723 -1.1668  0.7380  1.2816
27236SOL    HW283322   2.226   8.231   6.626  0.8711 -0.0065  0.6225
27237SOL     OW83323   6.388   9.602   6.587 -0.3192  0.5762  0.3913
27237SOL    HW183324   6.398   9.697   6.588 -0.9942  0.6520  0.4505
27237SOL    HW283325   6.355   9.581   6.675  0.5140  0.2036  0.6261
27238SOL     OW83326   9.750   9.162   5.295 -0.4587 -0.4607  0.8757
27238SOL    HW183327   9.837   9.174   5.256 -1.2993  3.8906 -0.2497
27238SOL    HW283328   9.767   9.149   5.388  1.5423  3.3918  1.2407
27239SOL     OW83329   4.206   2.837   7.715 -0.5546 -0.0901  0.4177
27239SOL    HW183330   4.268   2.804   7.780  0.4273  1.3666  0.2688
27239SOL    HW283331   4.207   2.932   7.727 -1.0105  0.1465 -1.1408
27240SOL     OW83332   4.624   4.748   4.465  0.4062 -0.3948 -0.7413
27240SOL    HW183333   4.553   4.689   4.442  0.3915 -0.9273  0.6045
27240SOL    HW283334   4.662   4.774   4.380 -0.1897 -1.5673 -1.3870
27241SOL     OW83335   6.336   7.964   2.672 -0.3897  0.2282 -0.0463
27241SOL    HW183336   6.347   7.878   2.715  0.8488 -0.8723 -2.3784
27241SOL    HW283337   6.248   7.992   2.697 -0.0221 -0.6439  2.5631
27242SOL     OW83338   9.231   3.235   8.731  0.0182  0.1103  0.1095
27242SOL    HW183339   9.308   3.292   8.719  1.3809 -1.3920  1.2591
27242SOL    HW283340   9.209   3.206   8.642  1.3562 -0.1257 -0.1680
27243SOL     OW83341   5.535   2.091   0.777  0.0542 -0.3375 -0.1142
27243SOL    HW183342   5.442   2.112   0.776  0.2753  0.7234  0.0163
27243SOL    HW283343   5.566   2.126   0.861  0.7910  0.4043 -0.6765
27244SOL     OW83344   1.509   8.261   2.161  0.0727 -0.5444  0.6913
27244SOL    HW183345   1.582   8.312   2.194 -0.5349  0.7094  0.1531
27244SOL    HW283346   1.434   8.320   2.165 -0.6703 -1.4139  0.1091
27245SOL     OW83347   9.594   9.517   1.916  0.1349 -0.7406  0.0603
27245SOL    HW183348   9.594   9.583   1.846  0.1580  0.2446  0.9546
27245SOL    HW283349   9.502   9.491   1.924 -0.1960  0.5724  0.9249
27246SOL     OW83350   5.320   2.536   0.276  0.1310  0.2611 -0.5656
27246SOL    HW183351   5.321   2.524   0.371 -0.9825 -0.9014 -0.6856
27246SOL    HW283352   5.294   2.627   0.264 -1.0112  0.0662  0.2450
27247SOL     OW83353   1.565   9.502   9.016 -0.4558 -0.0143 -0.1841
27247SOL    HW183354   1.598   9.473   9.101  3.2653  1.9473 -0.7479
27247SOL    HW283355   1.549   9.596   9.026 -0.1381  0.2180 -1.5545
27248SOL     OW83356   7.886   3.626   7.286 -0.0571  0.1492 -0.5029
27248SOL    HW183357   7.951   3.695   7.271  1.5246 -1.2696 -0.4578
27248SOL    HW283358   7.806   3.659   7.245  1.1698  1.1750 -2.1888
27249SOL     OW83359   0.056   0.336   0.543 -0.2005 -0.6668 -0.2342
27249SOL    HW183360   0.120   0.407   0.552  1.5929 -2.2296 -0.0815
27249SOL    HW283361  -0.000   0.345   0.620  0.6806 -0.0694  0.3678
27250SOL     OW83362   8.309   4.504   6.318  0.4373  0.1852 -0.1722
27250SOL    HW183363   8.254   4.508   6.239  0.3896  0.9407 -0.1065
27250SOL    HW283364   8.251   4.534   6.389  0.9213  0.9845 -0.1017
27251SOL     OW83365   8.229   2.996   6.164 -0.2069  0.0807 -0.3593
27251SOL    HW183366   8.251   3.066   6.102  1.0298  0.1895  0.1859
27251SOL    HW283367   8.198   2.924   6.109  0.6786  0.2479 -1.0935
27252SOL     OW83368   0.954   9.466   6.685  0.0567  0.1693  0.1938
27252SOL    HW183369   0.903   9.470   6.766 -0.0661  0.4258  0.1011
27252SOL    HW283370   0.890   9.453   6.616  0.1496  0.1075  0.1185
27253SOL     OW83371   0.150   5.771   6.336  0.8456  0.0734  0.4818
27253SOL    HW183372   0.171   5.859   6.365 -0.4192  1.2236 -1.7753
27253SOL    HW283373   0.219   5.716   6.373  3.3183  2.4250 -0.2828
27254SOL     OW83374   1.769   3.298   5.328  0.0312  0.1313  0.0937
27254SOL    HW183375   1.846   3.241   5.323  0.6026  0.9978 -1.6550
27254SOL    HW283376   1.704   3.257   5.271  0.6625  1.4739 -1.6739
27255SOL     OW83377   3.599   5.950   3.456 -0.2670 -0.1331  0.0668
27255SOL    HW183378   3.695   5.945   3.450 -0.2316  0.3564  0.2289
27255SOL    HW283379   3.580   5.940   3.549 -0.3009  0.9496  0.1828
27256SOL     OW83380   9.685   8.342   5.373  0.2092 -0.0919 -0.6861
27256SOL    HW183381   9.687   8.253   5.408  1.9748  0.2750  0.2239
27256SOL    HW283382   9.698   8.398   5.449 -2.5776  1.0949 -0.9616
27257SOL     OW83383   7.809   1.822   7.223  0.2456  0.3344  0.7100
27257SOL    HW183384   7.804   1.846   7.131 -2.7462 -0.3383  0.5931
27257SOL    HW283385   7.773   1.897   7.270  0.8007  0.2730  1.2508
27258SOL     OW83386   5.299   3.684   2.215  0.2511  0.2852  0.2463
27258SOL    HW183387   5.342   3.756   2.169 -0.5334  1.2829  1.0251
27258SOL    HW283388   5.206   3.708   2.214 -0.0767 -0.9671  0.0913
27259SOL     OW83389   6.209   5.400   3.399  0.0862  0.1174  0.2329
27259SOL    HW183390   6.139   5.394   3.334 -0.3574  2.5063  0.4227
27259SOL    HW283391   6.213   5.312   3.437 -3.8833  0.1721  1.2795
27260SOL     OW83392   9.113   7.009   6.040 -0.7597 -0.3888 -0.6409
27260SOL    HW183393   9.138   6.988   5.950 -2.1066  0.5125 -1.2522
27260SOL    HW283394   9.185   6.974   6.093  0.1877 -0.7123 -2.0674
27261SOL     OW83395   2.634   8.850   4.353  0.7834  0.1260 -0.2003
27261SOL    HW183396   2.540   8.852   4.367  0.3749 -0.1318 -2.5182
27261SOL    HW283397   2.670   8.817   4.435 -1.1329  0.1573  0.7060
27262SOL     OW83398   0.957   8.221   5.875 -0.9873  0.6461  0.0560
27262SOL    HW183399   0.937   8.131   5.900 -0.2700  0.2834 -0.6339
27262SOL    HW283400   0.872   8.257   5.848 -0.9150 -0.6376 -2.1214
27263SOL     OW83401   5.073   2.020   6.036  0.3216 -0.0959  0.3183
27263SOL    HW183402   5.115   1.957   5.977  0.2809 -0.9594  1.1848
27263SOL    HW283403   5.146   2.059   6.084  0.4924  1.6665 -1.2610
27264SOL     OW83404   6.196   1.118   7.864  0.4470 -0.1064 -0.3982
27264SOL    HW183405   6.228   1.118   7.954  1.1999 -1.2787 -0.6562
27264SOL    HW283406   6.102   1.138   7.872  0.5137 -0.1567  0.6290
27265SOL     OW83407   6.960   8.878   6.489  0.4843  0.6790 -0.2892
27265SOL    HW183408   6.886   8.911   6.539  0.1023 -0.3277 -0.1705
27265SOL    HW283409   6.965   8.785   6.512  0.7549  0.3627 -1.5710
27266SOL     OW83410   1.738   2.927   6.351 -0.2074  0.5235  0.5174
27266SOL    HW183411   1.776   2.954   6.267 -0.3257  1.6935  0.8215
27266SOL    HW283412   1.698   2.842   6.333  1.2968 -0.0704 -0.1699
27267SOL     OW83413   2.114   1.489   9.336 -0.5451  0.1306 -0.2613
27267SOL    HW183414   2.029   1.498   9.379 -1.2119  0.0429 -1.5240
27267SOL    HW283415   2.112   1.402   9.296  0.4637 -0.1963  0.3528
27268SOL     OW83416   1.036   6.917   5.552  0.0154 -0.5793 -0.1299
27268SOL    HW183417   1.036   6.830   5.593 -1.6254 -0.6147 -0.1338
27268SOL    HW283418   1.076   6.903   5.466  0.8784 -1.0698  0.3304
27269SOL     OW83419   4.435   4.067   0.776 -0.0043 -0.2459 -0.2463
27269SOL    HW183420   4.432   4.134   0.844 -2.6617  1.1811 -1.6345
27269SOL    HW283421   4.494   4.103   0.710 -0.3735  0.1072 -0.3863
27270SOL     OW83422   0.622   9.405   0.868 -0.8249  0.7026 -0.2714
27270SOL    HW183423   0.692   9.343   0.848 -0.0569  1.0733  1.1565
27270SOL    HW283424   0.657   9.490   0.839 -0.1980  1.0555  1.4105
27271SOL     OW83425   7.818   8.050   3.943 -0.2478 -0.1143 -0.0339
27271SOL    HW183426   7.797   8.137   3.908 -0.1146 -0.1743 -0.2643
27271SOL    HW283427   7.786   8.052   4.033  0.4612  0.4457  0.2145
27272SOL     OW83428   1.828   4.080   2.192 -0.2685 -0.2798  0.8394
27272SOL    HW183429   1.882   4.007   2.222  0.3470 -0.3016 -0.2450
27272SOL    HW283430   1.879   4.120   2.121 -2.6122 -1.7596 -1.9060
27273SOL     OW83431   7.969   9.675   9.247 -0.3817 -0.2267  0.0972
27273SOL    HW183432   8.027   9.656   9.173  0.8134  0.1583  0.8985
27273SOL    HW283433   8.007   9.626   9.320  0.3148  1.7971  1.1878
27274SOL     OW83434   5.060   0.783   7.056  0.0151 -0.0579  0.2129
27274SOL    HW183435   5.122   0.761   6.987  0.1872 -2.0615  0.9624
27274SOL    HW283436   5.103   0.853   7.105  1.8847 -1.6012  0.9008
27275SOL     OW83437   2.297   1.863   5.793  0.2950  0.0915  0.2605
27275SOL    HW183438   2.230   1.929   5.815 -0.0127 -0.7459  2.0376
27275SOL    HW283439   2.247   1.790   5.756  0.3538 -0.0782  0.5148
27276SOL     OW83440   9.068   0.332   6.909 -0.0695 -0.6403  1.0409
27276SOL    HW183441   9.105   0.288   6.833 -0.0740  0.0820  0.6076
27276SOL    HW283442   8.975   0.308   6.908 -0.3920  0.5307 -0.0512
27277SOL     OW83443   2.810   1.638   4.184  0.4580 -0.4695  0.6534
27277SOL    HW183444   2.749   1.581   4.230 -2.3630  0.7700 -1.2200
27277SOL    HW283445   2.837   1.588   4.107 -1.1935  0.2013 -0.4342
27278SOL     OW83446   1.476   2.078   9.379  1.0967  0.1672 -0.4842
27278SOL    HW183447   1.557   2.099   9.425  1.4135  2.1316 -1.7987
27278SOL    HW283448   1.504   2.039   9.297  0.6835  0.1824 -0.6367
27279SOL     OW83449   7.550   1.485   2.770  0.7515  0.3307  0.2931
27279SOL    HW183450   7.610   1.556   2.749  1.2746 -0.0586  0.4603
27279SOL    HW283451   7.592   1.438   2.842 -0.3848  0.8584  1.3516
27280SOL     OW83452   0.607   3.230   7.674  0.1960  0.3316 -0.4818
27280SOL    HW183453   0.684   3.175   7.659 -0.4873 -0.2877 -1.9666
27280SOL    HW283454   0.541   3.194   7.615 -1.6416  0.0936  1.5880
27281SOL     OW83455   6.891   8.013   0.590 -0.0219  0.2441 -0.1580
27281SOL    HW183456   6.983   7.988   0.590  0.2418  1.1698 -0.3376
27281SOL    HW283457   6.882   8.070   0.514 -0.3427  1.5568  0.8296
27282SOL     OW83458   2.614   6.628   2.931 -0.3923 -0.2752 -0.1454
27282SOL    HW183459   2.600   6.534   2.918 -1.8726 -0.0452 -0.2973
27282SOL    HW283460   2.578   6.646   3.018  1.2456 -0.0966  0.5463
27283SOL     OW83461   2.956   2.194   9.096  0.3938 -0.7298  0.5781
27283SOL    HW183462   2.861   2.193   9.092  0.4104  0.1999 -1.7235
27283SOL    HW283463   2.978   2.144   9.174 -1.9963  0.4207  2.0918
27284SOL     OW83464   1.499   6.697   1.260 -0.4562 -0.6299  0.0772
27284SOL    HW183465   1.442   6.625   1.237 -0.2581 -0.9481  0.5587
27284SOL    HW283466   1.443   6.758   1.308 -0.9357  0.1687 -1.4500
27285SOL     OW83467   7.873   2.046   7.086  0.3976 -0.0949  0.3715
27285SOL    HW183468   7.893   2.102   7.161  1.0031 -0.2809  0.3558
27285SOL    HW283469   7.937   2.073   7.019 -0.3512  0.3090 -0.2007
27286SOL     OW83470   8.444   1.342   9.574  0.5990 -0.4885 -0.2206
27286SOL    HW183471   8.429   1.276   9.507  0.0158  0.3218 -0.9265
27286SOL    HW283472   8.403   1.306   9.653 -1.2418 -0.2721 -1.0164
27287SOL     OW83473   1.189   8.713   8.099 -0.1557 -0.1029  0.0380
27287SOL    HW183474   1.103   8.750   8.123 -0.6164 -0.7823 -0.5187
27287SOL    HW283475   1.251   8.783   8.118 -0.8753  0.5251  0.1386
27288SOL     OW83476   5.026   2.753   1.628  0.5383 -0.2290 -0.7098
27288SOL    HW183477   5.089   2.683   1.609  0.6677 -0.3266  0.0456
27288SOL    HW283478   5.068   2.832   1.593  1.9615  0.0220  1.3624
27289SOL     OW83479   1.853   8.308   0.035  0.1581  0.3793  0.4849
27289SOL    HW183480   1.782   8.251   0.005 -0.2074  1.2100 -0.2436
27289SOL    HW283481   1.828   8.395   0.005  1.8429  0.5817 -0.4234
27290SOL     OW83482   6.660   8.100   2.106 -0.1292 -0.3535  0.0264
27290SOL    HW183483   6.642   8.042   2.031 -0.1956 -0.3866  0.0678
27290SOL    HW283484   6.660   8.188   2.068 -0.3046 -0.3596  0.0131
27291SOL     OW83485   9.007   5.345   9.492 -0.2074  0.5861 -0.0857
27291SOL    HW183486   9.020   5.425   9.441 -0.2791 -0.7526 -2.3668
27291SOL    HW283487   8.912   5.332   9.493 -0.1863  0.4469  0.0853
27292SOL     OW83488   1.534   4.157   7.289  0.4344 -0.3308 -0.2302
27292SOL    HW183489   1.612   4.116   7.327  1.0127  1.4550  0.6555
27292SOL    HW283490   1.566   4.197   7.207  0.3333 -0.0519 -0.1354
27293SOL     OW83491   9.086   0.695   4.450 -0.2846  0.0439  0.4107
27293SOL    HW183492   9.133   0.778   4.465 -2.9537  2.0232 -1.2143
27293SOL    HW283493   9.140   0.649   4.386  0.2512  1.5275 -0.2735
27294SOL     OW83494   4.825   7.086   9.687 -0.0243 -0.1254  0.1470
27294SOL    HW183495   4.800   7.011   9.634 -2.9221  0.6860  0.2211
27294SOL    HW283496   4.805   7.060   9.777 -0.8815  0.6461  0.1914
27295SOL     OW83497   0.339   2.841   5.439 -0.1057 -0.4891  0.0877
27295SOL    HW183498   0.399   2.906   5.476 -1.2624  0.8349 -0.2617
27295SOL    HW283499   0.393   2.763   5.428  1.4894  0.5634  0.0092
27296SOL     OW83500   5.559   5.598   6.498  0.1372  0.0511  0.1073
27296SOL    HW183501   5.614   5.576   6.422  0.7985 -0.5620  0.7469
27296SOL    HW283502   5.475   5.555   6.479  1.0181 -2.1029  0.7538
27297SOL     OW83503   7.618   5.386   1.618  0.0855  0.2510 -0.0291
27297SOL    HW183504   7.588   5.456   1.677 -0.6434  0.1894 -0.3111
27297SOL    HW283505   7.656   5.320   1.676  1.6464  1.2837  0.1731
27298SOL     OW83506   0.166   7.804   5.395 -0.0215  0.0473  0.3083
27298SOL    HW183507   0.073   7.821   5.407  0.0465  0.9504 -0.3354
27298SOL    HW283508   0.204   7.891   5.380  1.1936 -0.0824  2.2086
27299SOL     OW83509   6.103   3.557   6.581 -0.7271  0.3031  0.1013
27299SOL    HW183510   6.123   3.615   6.654  0.2266 -0.2580  0.3128
27299SOL    HW283511   6.151   3.595   6.507  0.5329 -0.5756  0.4111
27300SOL     OW83512   1.783   9.368   7.386  0.4970 -0.2034  0.1361
27300SOL    HW183513   1.715   9.303   7.373  0.8824 -0.1112 -3.0253
27300SOL    HW283514   1.865   9.319   7.379  0.7715  0.3932 -1.1488
27301SOL     OW83515   9.183   4.685   1.448  0.3656  0.0662  0.2516
27301SOL    HW183516   9.111   4.748   1.440 -0.4984 -0.7594  1.2404
27301SOL    HW283517   9.226   4.687   1.362 -0.5537  0.9196 -0.2091
27302SOL     OW83518   2.894   2.790   5.312  0.2167 -0.2652 -0.3059
27302SOL    HW183519   2.970   2.748   5.272  1.9176  1.0857  1.2794
27302SOL    HW283520   2.925   2.816   5.399 -1.7246  1.3677 -0.0318
27303SOL     OW83521   5.329   1.770   8.910  0.1194  0.6327 -0.1130
27303SOL    HW183522   5.392   1.842   8.912 -1.2418  1.8504  0.6900
27303SOL    HW283523   5.383   1.692   8.897  1.8653  1.5421  1.2149
27304SOL     OW83524   6.025   0.683   4.950 -1.3166 -0.1821 -0.1002
27304SOL    HW183525   6.048   0.772   4.925 -2.6345  0.4585  0.8445
27304SOL    HW283526   6.062   0.628   4.880 -1.1859  1.1637 -1.1258
27305SOL     OW83527   2.831   1.649   5.471 -0.6552 -0.1899 -0.8336
27305SOL    HW183528   2.870   1.736   5.486 -0.1388 -0.3865 -1.0254
27305SOL    HW283529   2.750   1.668   5.422 -2.4957  0.4903  2.1815
27306SOL     OW83530   7.987   2.987   8.008 -0.5471  0.3241 -0.1902
27306SOL    HW183531   8.059   2.956   8.063  0.7311  0.7639 -1.5420
27306SOL    HW283532   8.029   3.049   7.948 -2.0059  0.3363 -1.2283
27307SOL     OW83533   9.687   8.365   7.043 -0.0500 -0.2585 -0.6084
27307SOL    HW183534   9.657   8.288   7.091 -1.8735  0.1512 -1.0156
27307SOL    HW283535   9.736   8.416   7.107  0.0948 -1.1344 -0.0034
27308SOL     OW83536   0.528   0.487   8.262 -0.1607 -0.1449 -0.4105
27308SOL    HW183537   0.581   0.483   8.342  1.1750 -0.3700 -1.2823
27308SOL    HW283538   0.556   0.567   8.219 -1.4315  0.3783 -0.3072
27309SOL     OW83539   4.261   9.235   4.690 -0.0171  0.2830  0.0058
27309SOL    HW183540   4.324   9.307   4.683  0.3753 -0.0803 -0.2891
27309SOL    HW283541   4.176   9.278   4.703  0.3123  0.7770  0.5836
27310SOL     OW83542   0.487   8.180   1.441 -0.3226 -0.2085  0.1505
27310SOL    HW183543   0.545   8.104   1.445 -0.4178 -0.2647  0.5263
27310SOL    HW283544   0.466   8.189   1.348  0.8772  0.2663 -0.0860
27311SOL     OW83545   7.816   4.298   1.546  0.2641 -0.7190  0.4813
27311SOL    HW183546   7.731   4.305   1.502  0.9950 -0.3045 -0.9354
27311SOL    HW283547   7.864   4.234   1.495  0.6207 -1.3828  1.6153
27312SOL     OW83548   2.649   0.852   5.682  0.1905  0.0361  0.4304
27312SOL    HW183549   2.582   0.894   5.736  0.9430  2.1258 -0.1209
27312SOL    HW283550   2.615   0.861   5.592 -1.2875 -3.8307  0.4018
27313SOL     OW83551   3.193   2.625   2.955 -0.1157 -0.3129  0.0706
27313SOL    HW183552   3.202   2.716   2.980  3.3444 -0.4810 -0.1549
27313SOL    HW283553   3.239   2.618   2.871  0.1253 -2.3323  0.3124
27314SOL     OW83554   3.201   9.834   0.268  0.3814  0.0691 -0.3558
27314SOL    HW183555   3.189   9.873   0.355 -0.9716 -1.9399  0.4237
27314SOL    HW283556   3.112   9.814   0.239  0.8979 -0.3040 -1.7343
27315SOL     OW83557   3.094   3.563   5.907 -0.3212 -0.3600  0.2578
27315SOL    HW183558   3.113   3.469   5.900  1.0650 -0.0023 -1.7299
27315SOL    HW283559   3.156   3.595   5.972 -0.3551 -0.7265  0.4727
27316SOL     OW83560   4.468   0.123   6.002  0.5000  0.0403  0.2729
27316SOL    HW183561   4.478   0.210   6.040  1.5513 -0.4356  1.1376
27316SOL    HW283562   4.524   0.124   5.924  0.4118  0.1763  0.2113
27317SOL     OW83563   6.084   7.614   5.624 -0.8908 -0.6286  0.5006
27317SOL    HW183564   6.131   7.590   5.703  0.0194 -0.3757  0.0451
27317SOL    HW283565   6.100   7.541   5.564  0.0584  0.0863 -0.1256
27318SOL     OW83566   8.455   3.373   8.067  0.4503 -0.1582  0.7143
27318SOL    HW183567   8.484   3.288   8.100  2.5158 -0.2431 -1.1032
27318SOL    HW283568   8.466   3.432   8.141  2.2082 -0.8703  1.0727
27319SOL     OW83569   6.705   3.635   7.694  0.4090  0.1353 -0.4238
27319SOL    HW183570   6.671   3.645   7.605  1.0291 -0.8549 -0.7924
27319SOL    HW283571   6.798   3.655   7.687  0.7204 -1.1471 -0.2760
27320SOL     OW83572   6.264   6.449   8.577 -0.3386 -0.1534  0.2382
27320SOL    HW183573   6.245   6.525   8.631 -2.5383 -0.9455  0.6913
27320SOL    HW283574   6.347   6.416   8.610 -0.7293  0.4485  1.9225
27321SOL     OW83575   1.236   9.620   3.436 -0.2660  0.0033 -0.5796
27321SOL    HW183576   1.323   9.625   3.475 -0.7682 -2.2512  1.0069
27321SOL    HW283577   1.189   9.694   3.474  0.7808  0.9542 -1.0700
27322SOL     OW83578   1.152   6.639   4.070  0.0346  0.1095 -0.3815
27322SOL    HW183579   1.126   6.723   4.033  1.3835 -0.1689 -2.1307
27322SOL    HW283580   1.204   6.661   4.147 -0.3443  0.8495 -0.3310
27323SOL     OW83581   8.539   8.158   7.001 -0.0487  0.4796  0.2276
27323SOL    HW183582   8.609   8.216   7.029 -0.1961  1.0601 -0.5644
27323SOL    HW283583   8.560   8.139   6.909 -0.4621 -0.0343  0.2358
27324SOL     OW83584   6.704   6.607   0.913  0.1675 -0.0542  0.1268
27324SOL    HW183585   6.728   6.518   0.889  0.5599 -0.0094  0.3445
27324SOL    HW283586   6.778   6.661   0.885 -0.2001  0.2498 -0.2877
27325SOL     OW83587   6.418   6.869   5.769 -0.0630  0.4187  0.2697
27325SOL    HW183588   6.442   6.855   5.678  0.7610 -1.8239  0.7570
27325SOL    HW283589   6.323   6.858   5.772 -0.1689  1.1162 -0.3916
27326SOL     OW83590   8.315   2.281   1.581 -0.1871 -0.2251 -0.1516
27326SOL    HW183591   8.348   2.337   1.652 -0.0934 -0.1211 -0.2779
27326SOL    HW283592   8.330   2.192   1.613 -0.6947 -0.1864  0.2209
27327SOL     OW83593   5.197   4.437   0.756  0.6515  0.3389 -0.1458
27327SOL    HW183594   5.227   4.528   0.745  0.3143  0.4653 -0.0322
27327SOL    HW283595   5.257   4.400   0.821  0.9242  0.4135 -0.3490
27328SOL     OW83596   6.097   2.643   0.133 -0.0682 -0.0146 -0.0484
27328SOL    HW183597   6.010   2.612   0.158  0.0257 -0.4256 -0.2226
27328SOL    HW283598   6.135   2.570   0.083 -0.0742  0.6118 -0.9790
27329SOL     OW83599   5.394   9.746   9.609  0.0115  0.4319 -0.1334
27329SOL    HW183600   5.418   9.684   9.539 -1.6025 -0.3110 -0.0848
27329SOL    HW283601   5.433   9.829   9.582  1.0385 -0.2782 -0.9260
27330SOL     OW83602   3.753   9.106   3.009 -0.2181 -0.2585 -0.2590
27330SOL    HW183603   3.791   9.143   3.089 -0.3985 -0.8464  0.1093
27330SOL    HW283604   3.820   9.048   2.975 -0.7934 -1.4049  0.4677
27331SOL     OW83605   4.130   3.036   7.134  0.4249  0.1730  0.0409
27331SOL    HW183606   4.218   3.017   7.104  0.9855  0.1856  1.6088
27331SOL    HW283607   4.073   2.999   7.066  1.6029 -0.7962 -0.4473
27332SOL     OW83608   5.466   2.906   4.189 -0.1506  0.5318 -0.1102
27332SOL    HW183609   5.510   2.918   4.274  0.3761  0.9228 -0.4346
27332SOL    HW283610   5.405   2.979   4.183  0.2988  0.8832 -0.3728
27333SOL     OW83611   1.256   4.550   6.285 -0.1287  0.0724  0.5664
27333SOL    HW183612   1.243   4.456   6.299 -0.1432 -0.3348 -1.7263
27333SOL    HW283613   1.349   4.559   6.265 -0.5917  0.0976 -1.8224
27334SOL     OW83614   0.521   1.511   9.112 -0.2244 -0.1965  0.3090
27334SOL    HW183615   0.509   1.463   9.030  1.3047  1.0988 -0.7395
27334SOL    HW283616   0.554   1.597   9.084 -0.4690  0.5703  2.2525
27335SOL     OW83617   4.912   0.963   8.104 -0.6371 -0.2234  0.1593
27335SOL    HW183618   4.942   1.033   8.046 -1.4252  0.7861  0.9308
27335SOL    HW283619   4.991   0.912   8.122 -0.3756 -0.6484 -1.8526
27336SOL     OW83620   9.821   4.606   9.426 -0.2310 -0.0280  0.1873
27336SOL    HW183621   9.909   4.577   9.450  0.0894  1.0922  0.4123
27336SOL    HW283622   9.763   4.542   9.467  0.4856 -1.2434 -0.6214
27337SOL     OW83623   0.184   4.957   3.453  0.3519  0.1353  0.4855
27337SOL    HW183624   0.258   4.925   3.401 -0.3019 -1.9535  0.7459
27337SOL    HW283625   0.186   5.052   3.441  2.2785  0.0261 -0.5547
27338SOL     OW83626   7.020   4.063   6.572  0.4630  0.1478 -0.1022
27338SOL    HW183627   7.007   3.969   6.561 -0.3236 -0.1274  2.5934
27338SOL    HW283628   7.090   4.071   6.637  0.4654  1.4200 -0.2285
27339SOL     OW83629   5.521   1.863   8.475 -0.2923 -0.2899  0.0716
27339SOL    HW183630   5.476   1.936   8.432 -1.0724 -1.2018 -0.7293
27339SOL    HW283631   5.488   1.785   8.430  1.2360 -1.0811  0.2570
27340SOL     OW83632   3.383   6.845   1.242 -0.4455  0.6326  0.3485
27340SOL    HW183633   3.311   6.827   1.302 -1.6795  1.6797 -0.7571
27340SOL    HW283634   3.358   6.926   1.197  1.1820  0.7471 -0.4395
27341SOL     OW83635   2.234   9.374   8.067  0.5560 -0.2857 -0.0970
27341SOL    HW183636   2.294   9.377   8.141  1.1157 -0.4500 -0.5379
27341SOL    HW283637   2.186   9.292   8.079  0.1151  0.0442  0.4796
27342SOL     OW83638   1.019   7.918   7.653  0.0903 -0.1652 -0.7746
27342SOL    HW183639   1.010   7.909   7.748  1.7900 -0.1409 -0.5727
27342SOL    HW283640   1.009   7.829   7.619  1.0757 -0.4330 -0.3924
27343SOL     OW83641   7.095   4.030   1.716 -0.6869 -0.0152  0.0910
27343SOL    HW183642   7.166   3.987   1.763 -0.9872  0.3237  0.8711
27343SOL    HW283643   7.139   4.093   1.658 -0.3493  0.1947  0.5714
27344SOL     OW83644   3.907   9.580   0.178 -0.0161  0.0880  0.5763
27344SOL    HW183645   3.858   9.662   0.177  0.8040  0.5929  0.6878
27344SOL    HW283646   3.904   9.549   0.087  1.0685  1.1036  0.1795
27345SOL     OW83647   6.487   8.049   3.285  0.1105 -0.7313  0.2521
27345SOL    HW183648   6.468   8.033   3.193  0.6145 -1.0365  0.1972
27345SOL    HW283649   6.415   8.008   3.333 -2.1749  2.4703 -0.0841
27346SOL     OW83650   6.371   8.686   6.692 -0.5467 -0.0041  0.4513
27346SOL    HW183651   6.458   8.681   6.652  0.2459  3.2659  1.4563
27346SOL    HW283652   6.388   8.681   6.786 -1.0328  3.0175  0.8019
27347SOL     OW83653   3.533   2.847   6.328  0.2493  0.1632 -0.4552
27347SOL    HW183654   3.538   2.941   6.311  0.6726  0.3816  0.7747
27347SOL    HW283655   3.533   2.840   6.424 -1.6973 -0.9905 -0.4904
27348SOL     OW83656   3.062   3.964   6.050 -0.2176  0.0575 -0.0939
27348SOL    HW183657   3.043   4.058   6.046 -0.1561  0.0618 -0.3418
27348SOL    HW283658   3.057   3.935   5.958 -0.5469 -0.2401  0.0132
27349SOL     OW83659   2.212   5.100   9.230 -0.7690  0.4728 -0.0182
27349SOL    HW183660   2.307   5.102   9.233 -0.7542 -0.4181  0.4394
27349SOL    HW283661   2.191   5.036   9.162 -1.0152 -1.0718  1.4621
27350SOL     OW83662   0.595   8.697   5.246  0.4201 -0.2551 -0.3762
27350SOL    HW183663   0.658   8.662   5.184 -1.0329 -1.8008 -1.0778
27350SOL    HW283664   0.519   8.721   5.193  0.5357  2.0040  0.3753
27351SOL     OW83665   1.527   9.744   8.780 -0.6014  0.0151 -0.1439
27351SOL    HW183666   1.492   9.817   8.728 -0.3980  0.3859  0.2348
27351SOL    HW283667   1.474   9.669   8.754 -1.1224  0.3935 -0.2014
27352SOL     OW83668   7.972   7.821   1.758 -0.2009  0.3190 -0.7453
27352SOL    HW183669   7.958   7.735   1.719 -2.9802  0.1770  0.2960
27352SOL    HW283670   7.989   7.804   1.850 -3.9886  0.7899  0.2225
27353SOL     OW83671   7.251   5.116   2.295  0.1236  0.1563  0.0072
27353SOL    HW183672   7.200   5.106   2.215 -0.3887  1.0437  0.2070
27353SOL    HW283673   7.336   5.077   2.275 -0.2468 -0.2934 -0.7153
27354SOL     OW83674   7.979   0.273   5.271  0.6577 -0.1556 -1.0285
27354SOL    HW183675   7.948   0.185   5.293 -0.2977  0.0102 -1.6760
27354SOL    HW283676   7.901   0.328   5.275  1.2839  0.7170 -0.4291
27355SOL     OW83677   7.090   8.198   8.572  0.0344 -0.1133 -0.6241
27355SOL    HW183678   7.149   8.272   8.589  0.3586 -0.4578 -0.2263
27355SOL    HW283679   7.019   8.236   8.520  0.7897  0.2451 -1.4378
27356SOL     OW83680   7.355   3.291   5.095  0.0184  0.1857 -0.2294
27356SOL    HW183681   7.386   3.259   5.010 -0.9733 -1.2894 -0.0808
27356SOL    HW283682   7.260   3.279   5.092 -0.0950  0.6891  0.8639
27357SOL     OW83683   3.011   2.291   0.099 -0.2883  0.3297 -0.4092
27357SOL    HW183684   3.052   2.305   0.013 -0.4595 -0.0151 -0.5502
27357SOL    HW283685   3.072   2.234   0.145  0.2880  1.3051  0.0726
27358SOL     OW83686   2.598   0.990   7.679  0.6756  0.3778  0.1483
27358SOL    HW183687   2.585   1.084   7.685 -1.2726  0.1601 -0.0755
27358SOL    HW283688   2.618   0.974   7.587 -0.0981  0.4666 -0.0392
27359SOL     OW83689   1.661   8.225   0.927 -0.4046 -0.2129 -0.5591
27359SOL    HW183690   1.617   8.181   0.855 -1.7376 -0.3348  0.2948
27359SOL    HW283691   1.704   8.155   0.977 -0.1885 -0.2176 -0.7478
27360SOL     OW83692   4.037   6.221   4.455 -0.6142 -0.3789 -0.1423
27360SOL    HW183693   4.043   6.262   4.541 -0.0380 -2.8348  1.0593
27360SOL    HW283694   3.943   6.206   4.443 -0.7334  0.3155 -0.1481
27361SOL     OW83695   3.772   9.576   7.327 -0.5988  0.2913  0.3942
27361SOL    HW183696   3.788   9.516   7.400  0.4856  1.6286  1.3048
27361SOL    HW283697   3.859   9.595   7.291 -1.1745 -1.1028 -1.9357
27362SOL     OW83698   2.456   5.004   0.593 -0.1488  0.1026  0.3394
27362SOL    HW183699   2.497   5.078   0.638  0.9779 -0.3196  0.0354
27362SOL    HW283700   2.497   5.003   0.506  1.2585 -1.9898  0.9533
27363SOL     OW83701   1.704   3.934   7.666 -0.3178  0.4019 -0.2042
27363SOL    HW183702   1.744   3.977   7.590 -1.8917 -0.7044 -1.7267
27363SOL    HW283703   1.629   3.989   7.688  0.0657  0.6549  0.5200
27364SOL     OW83704   8.063   2.129   1.376  0.3951  0.2779 -0.2252
27364SOL    HW183705   7.995   2.082   1.328 -1.0199  0.1821  1.7347
27364SOL    HW283706   8.030   2.133   1.466  1.5251  2.9998  0.1702
27365SOL     OW83707   7.075   3.738   7.967  0.2894  0.2450  0.0770
27365SOL    HW183708   7.046   3.821   8.003 -0.4144  0.3867 -0.7595
27365SOL    HW283709   7.140   3.705   8.029 -0.2117  0.8984  0.9690
27366SOL     OW83710   9.635   1.414   6.196  0.3419  0.1091 -0.1193
27366SOL    HW183711   9.580   1.354   6.146 -0.6996  0.5376  0.4766
27366SOL    HW283712   9.604   1.501   6.171  0.5429  0.3496  0.4489
27367SOL     OW83713   2.586   1.636   7.866  0.4924 -0.0735 -0.1025
27367SOL    HW183714   2.581   1.716   7.917 -2.2121  0.5221 -1.1277
27367SOL    HW283715   2.564   1.566   7.928  1.1904  0.1628  0.4166
27368SOL     OW83716   7.721   6.328   0.656  0.0343 -0.0448  0.1119
27368SOL    HW183717   7.662   6.299   0.586  0.5561 -1.5881  0.2735
27368SOL    HW283718   7.702   6.270   0.729 -0.1579  1.2362  1.1186
27369SOL     OW83719   1.622   5.245   8.643  0.0040  0.4362  0.5233
27369SOL    HW183720   1.702   5.296   8.655 -0.2488  0.7226  1.0233
27369SOL    HW283721   1.639   5.192   8.565 -0.0516  1.8984 -0.5263
27370SOL     OW83722   6.085   7.921   1.158 -0.2085  0.3906  0.1531
27370SOL    HW183723   6.005   7.972   1.146  0.1029  0.4601 -1.9182
27370SOL    HW283724   6.066   7.865   1.234 -2.5786 -0.2469 -0.8020
27371SOL     OW83725   5.813   3.638   3.360  0.2637  0.1536 -0.2278
27371SOL    HW183726   5.726   3.597   3.366  0.6871 -0.7443 -0.0123
27371SOL    HW283727   5.857   3.611   3.441  0.8598  0.3270 -0.4939
27372SOL     OW83728   3.673   3.890   9.827  0.2140  0.0159 -0.2912
27372SOL    HW183729   3.631   3.808   9.854 -0.8907  0.3255 -0.9765
27372SOL    HW283730   3.748   3.863   9.775 -0.0604 -0.5763 -0.3863
27373SOL     OW83731   5.967   9.433   7.052 -0.2738 -0.2549  0.1261
27373SOL    HW183732   6.054   9.410   7.018  0.7744  1.9453  1.1385
27373SOL    HW283733   5.945   9.361   7.111  0.4285 -1.2767 -0.8003
27374SOL     OW83734   6.949   2.780   2.274  0.2901  0.0550  0.0864
27374SOL    HW183735   6.863   2.742   2.292  0.1152 -0.3241 -1.4488
27374SOL    HW283736   6.942   2.816   2.186  1.7543 -0.1060 -0.1227
27375SOL     OW83737   4.559   4.171   3.056 -0.4549  0.3140 -0.3126
27375SOL    HW183738   4.551   4.250   3.004  3.0800  0.9027 -0.1873
27375SOL    HW283739   4.613   4.196   3.131 -2.7158 -1.2730  2.0162
27376SOL     OW83740   9.330   7.389   5.370  0.2659 -0.6184 -0.4043
27376SOL    HW183741   9.373   7.470   5.343 -0.7985  0.1813  0.2371
27376SOL    HW283742   9.307   7.403   5.461 -0.4184 -1.4348 -0.4381
27377SOL     OW83743   9.628   1.109   1.671  0.2394  0.0604 -0.4284
27377SOL    HW183744   9.651   1.112   1.764 -1.2896 -0.1889 -0.0124
27377SOL    HW283745   9.702   1.065   1.629  3.2177  4.1700 -0.1380
27378SOL     OW83746   0.701   8.169   1.749 -0.1872  0.4867  0.0710
27378SOL    HW183747   0.619   8.186   1.796 -0.8836 -0.9850 -0.5454
27378SOL    HW283748   0.759   8.131   1.815 -0.5077  0.1795  0.1801
27379SOL     OW83749   8.370   8.843   0.851  0.0574  0.3969 -0.5760
27379SOL    HW183750   8.445   8.826   0.795  0.2431 -1.6062  0.1744
27379SOL    HW283751   8.295   8.844   0.791  0.5395  1.2323 -1.1839
27380SOL     OW83752   4.139   7.911   1.758  0.2963  0.4917 -0.0519
27380SOL    HW183753   4.088   7.982   1.718  0.1046  0.2393 -0.2590
27380SOL    HW283754   4.194   7.879   1.686  0.1997  0.2625 -0.0217
27381SOL     OW83755   6.404   0.148   1.254  0.1779 -0.6768 -0.2595
27381SOL    HW183756   6.476   0.166   1.193  0.3999  0.1738  0.2380
27381SOL    HW283757   6.353   0.229   1.255  0.4739 -0.4825  1.0772
27382SOL     OW83758   9.769   7.266   7.901 -0.3513 -0.2295 -0.1349
27382SOL    HW183759   9.843   7.261   7.962 -1.0617 -1.2137  0.6833
27382SOL    HW283760   9.741   7.358   7.904 -0.8963 -0.4209  1.6931
27383SOL     OW83761   7.174   6.559   3.101 -0.4905 -0.2817  0.6200
27383SOL    HW183762   7.085   6.575   3.070 -1.7791 -0.8365  3.6580
27383SOL    HW283763   7.182   6.464   3.104  0.8126 -0.2751 -0.9957
27384SOL     OW83764   4.507   8.846   5.454  0.5155 -0.6365  0.1761
27384SOL    HW183765   4.578   8.841   5.389 -0.3127 -0.0588 -0.8002
27384SOL    HW283766   4.531   8.920   5.510  1.3135 -1.2319  0.6412
27385SOL     OW83767   8.244   1.374   6.168 -0.1854 -0.0717  0.7193
27385SOL    HW183768   8.325   1.405   6.128  1.2836 -1.6364  2.3308
27385SOL    HW283769   8.246   1.409   6.257 -0.6827 -1.1038  1.1502
27386SOL     OW83770   6.056   0.642   9.078  0.5704 -0.0599  0.7427
27386SOL    HW183771   5.966   0.665   9.102 -0.3423 -2.4037 -0.0666
27386SOL    HW283772   6.099   0.623   9.162 -0.2643 -0.7043  1.0376
27387SOL     OW83773   4.524   8.850   5.154 -0.3847 -0.1990 -0.1906
27387SOL    HW183774   4.455   8.795   5.192  1.1950 -1.4027  1.1252
27387SOL    HW283775   4.600   8.835   5.211  0.9107  1.2228 -1.4585
27388SOL     OW83776   0.419   9.774   7.593 -0.1046 -0.5187 -0.8079
27388SOL    HW183777   0.493   9.717   7.571  2.0272  1.0146  1.7416
27388SOL    HW283778   0.359   9.766   7.519  2.1825 -2.5492 -2.5966
27389SOL     OW83779   8.993   3.347   3.640 -0.2040  0.5592 -1.0521
27389SOL    HW183780   9.019   3.272   3.587 -0.9023 -0.4993  0.0434
27389SOL    HW283781   8.931   3.311   3.704  1.1054  1.6116  0.9424
27390SOL     OW83782   8.271   4.246   1.519  0.1280 -0.2091 -0.2245
27390SOL    HW183783   8.323   4.284   1.589 -0.8690 -0.3374  0.6058
27390SOL    HW283784   8.188   4.292   1.522 -0.2467 -0.8270 -0.7428
27391SOL     OW83785   4.450   7.678   8.079  0.4914 -0.2764  0.7627
27391SOL    HW183786   4.368   7.709   8.116  2.4120  2.8130  2.9788
27391SOL    HW283787   4.438   7.682   7.984 -2.0045 -0.4237  1.0200
27392SOL     OW83788   6.126   4.284   4.714 -0.4892 -0.0548 -1.0241
27392SOL    HW183789   6.051   4.328   4.754 -0.7938 -0.7849 -0.7683
27392SOL    HW283790   6.176   4.354   4.672  0.1160  0.8117  1.0506
27393SOL     OW83791   4.532   1.990   7.923 -0.4022 -0.0140 -0.1270
27393SOL    HW183792   4.610   1.989   7.868 -1.2668 -1.8673 -1.4349
27393SOL    HW283793   4.547   2.061   7.984  1.2808  1.1873 -1.8106
27394SOL     OW83794   4.732   1.799   8.388  0.3613 -0.2658  0.1533
27394SOL    HW183795   4.708   1.751   8.467 -2.0406 -1.9821 -1.4719
27394SOL    HW283796   4.687   1.883   8.397  1.8105  0.4414  1.4571
27395SOL     OW83797   1.047   7.015   2.776  0.0261 -0.6052  0.0025
27395SOL    HW183798   0.973   7.062   2.737  1.9299  1.3013 -1.5347
27395SOL    HW283799   1.095   7.081   2.825  2.4224 -0.9841 -1.6507
27396SOL     OW83800   0.945   6.647   2.291 -0.1230 -0.1947  0.8430
27396SOL    HW183801   0.984   6.666   2.206 -0.1520  0.2239  0.9230
27396SOL    HW283802   0.871   6.590   2.272  0.8206 -1.4300  0.7315
27397SOL     OW83803   3.641   0.001   1.686 -0.4739  0.1574 -0.2210
27397SOL    HW183804   3.568  -0.061   1.689 -0.3498 -0.0562 -1.2230
27397SOL    HW283805   3.600   0.087   1.675 -0.6360  0.2372  0.9298
27398SOL     OW83806   5.964   6.485   3.412  0.6108  0.3122  0.0621
27398SOL    HW183807   6.039   6.523   3.366 -0.2939  0.6684 -1.1512
27398SOL    HW283808   5.935   6.413   3.356 -0.4311  0.6629  0.1387
27399SOL     OW83809   8.711   0.242   7.168 -0.2621  0.3631 -0.6779
27399SOL    HW183810   8.747   0.328   7.145  0.9739  0.0528 -0.0069
27399SOL    HW283811   8.651   0.259   7.240  0.0380  0.6540 -0.4952
27400SOL     OW83812   2.994   9.046   8.549  0.3596 -0.1377  0.8508
27400SOL    HW183813   2.951   9.039   8.634  0.0144 -1.0139  0.6156
27400SOL    HW283814   2.969   9.132   8.516 -1.5585 -0.7637  0.5467
27401SOL     OW83815   0.335   5.842   9.599 -0.4530  0.2802 -0.2378
27401SOL    HW183816   0.260   5.901   9.607 -0.2416  0.4840  0.3237
27401SOL    HW283817   0.337   5.818   9.507 -1.1266  0.3779 -0.2826
27402SOL     OW83818   0.118   7.835   9.802  0.1379  0.0405 -0.1843
27402SOL    HW183819   0.067   7.896   9.749  0.0363  0.6227  0.5801
27402SOL    HW283820   0.176   7.792   9.738  0.0598  0.7670 -0.7609
27403SOL     OW83821   0.186   0.390   8.802 -0.1439  0.0034 -0.3464
27403SOL    HW183822   0.271   0.431   8.789  0.5020 -1.2127 -0.1338
27403SOL    HW283823   0.151   0.431   8.881 -0.0502  0.9517 -0.7813
27404SOL     OW83824   3.321   4.686   1.740 -0.0927  0.1924  0.2644
27404SOL    HW183825   3.228   4.676   1.762 -0.1741 -0.7257 -0.4254
27404SOL    HW283826   3.351   4.596   1.726  1.7400  0.0863  3.6923
27405SOL     OW83827   9.678   2.234   6.848 -0.0375  0.1418 -0.7281
27405SOL    HW183828   9.745   2.213   6.913 -0.9845 -0.0982  0.2008
27405SOL    HW283829   9.610   2.168   6.862 -1.0846  1.1868 -0.7234
27406SOL     OW83830   5.996   8.027   4.617 -0.1081  0.6133 -0.3309
27406SOL    HW183831   5.978   7.937   4.591  1.5111 -0.3420  1.5789
27406SOL    HW283832   5.920   8.052   4.670  0.0785 -0.1842  0.3357
27407SOL     OW83833   6.579   1.905   6.232 -0.0179  0.3353  0.1168
27407SOL    HW183834   6.563   1.951   6.314  0.3375  0.3895  0.1592
27407SOL    HW283835   6.521   1.948   6.169 -0.1435  0.4282  0.2936
27408SOL     OW83836   8.400   4.613   1.207  0.3249  0.1274 -0.2922
27408SOL    HW183837   8.468   4.673   1.175  0.8798 -0.5583 -0.4286
27408SOL    HW283838   8.429   4.526   1.177 -1.2401 -0.0508 -1.4182
27409SOL     OW83839   7.788   3.569   4.054  0.5771  0.0044 -0.1941
27409SOL    HW183840   7.856   3.575   4.121  0.7628 -1.3181 -0.2437
27409SOL    HW283841   7.707   3.587   4.102  0.4897 -2.6558  0.8468
27410SOL     OW83842   3.082   5.867   5.157 -0.1725 -0.0224  0.0131
27410SOL    HW183843   3.028   5.790   5.171 -0.8932  0.3588 -0.5737
27410SOL    HW283844   3.172   5.837   5.169 -0.4138 -1.0696 -0.7652
27411SOL     OW83845   6.975   8.530   5.654  0.2558 -0.0413  0.2857
27411SOL    HW183846   7.035   8.488   5.593  0.4260  1.0813 -0.3510
27411SOL    HW283847   6.903   8.468   5.664  0.7598 -0.7142 -0.1925
27412SOL     OW83848   1.407   9.305   8.372  0.3409  0.2359  0.4385
27412SOL    HW183849   1.317   9.320   8.341  0.6530  0.5205 -0.3634
27412SOL    HW283850   1.460   9.366   8.321  0.9188  0.5239  1.3654
27413SOL     OW83851   1.773   1.737   7.912  0.3665  0.3966 -0.2074
27413SOL    HW183852   1.772   1.678   7.836  1.2171  1.0791 -0.7633
27413SOL    HW283853   1.777   1.679   7.988  0.3235 -0.2795 -0.7130
27414SOL     OW83854   3.824   9.371   1.967 -0.2484 -0.2556 -0.0181
27414SOL    HW183855   3.876   9.344   1.891 -0.3586  0.5695 -0.3943
27414SOL    HW283856   3.780   9.291   1.994  0.2918 -0.7060 -0.4255
27415SOL     OW83857   5.301   1.361   9.751 -0.7016 -0.0867  0.2958
27415SOL    HW183858   5.333   1.340   9.839 -0.6659 -0.7184  0.1342
27415SOL    HW283859   5.222   1.412   9.766 -0.1412  0.6916  0.6972
27416SOL     OW83860   5.993   1.988   2.057  0.0780  0.1165 -0.3617
27416SOL    HW183861   5.934   2.051   2.016  0.3771  0.1682 -0.7245
27416SOL    HW283862   6.003   1.919   1.991  0.6803  0.2724 -0.4400
27417SOL     OW83863   5.736   3.717   4.701  0.0139 -0.0455  0.1377
27417SOL    HW183864   5.648   3.702   4.737 -0.3317  1.2887 -0.1115
27417SOL    HW283865   5.758   3.806   4.726  1.6536 -0.6208  0.8668
27418SOL     OW83866   2.995   1.052   1.987 -0.1189  0.1781  0.1392
27418SOL    HW183867   3.049   1.009   2.054 -0.5562  0.7175  0.8440
27418SOL    HW283868   3.030   1.019   1.904 -1.1853 -2.5012  0.6417
27419SOL     OW83869   7.668   5.295   0.698  0.2939 -0.6504  0.2039
27419SOL    HW183870   7.718   5.251   0.767  0.9302 -2.4035 -1.2847
27419SOL    HW283871   7.734   5.345   0.650 -0.2768  1.2820  1.2923
27420SOL     OW83872   9.670   5.278   2.282  0.3247 -0.1311  0.8136
27420SOL    HW183873   9.762   5.254   2.271  0.4325  0.2780  0.8060
27420SOL    HW283874   9.640   5.226   2.357  0.1774 -1.3075 -0.0280
27421SOL     OW83875   6.593   6.110   0.933  0.3030  0.2614  0.2413
27421SOL    HW183876   6.669   6.065   0.969  0.8081  0.1486 -0.9350
27421SOL    HW283877   6.544   6.043   0.887 -0.9677  0.1641  1.6551
27422SOL     OW83878   8.189   2.952   1.964 -0.3454  0.1619  0.1500
27422SOL    HW183879   8.121   3.004   2.008  0.4028  0.1506  1.3774
27422SOL    HW283880   8.222   2.894   2.032 -0.9921 -1.8217 -1.1293
27423SOL     OW83881   4.534   3.788   5.036 -0.4870  0.2029  0.0696
27423SOL    HW183882   4.461   3.845   5.061 -1.6528 -1.0032 -0.4430
27423SOL    HW283883   4.494   3.720   4.981  1.0140 -0.5515 -0.1532
27424SOL     OW83884   3.283   9.677   7.758 -0.7584 -0.0046  0.6165
27424SOL    HW183885   3.228   9.751   7.735  0.2004  0.7900  0.7878
27424SOL    HW283886   3.361   9.687   7.703 -0.6071 -0.8653  0.6659
27425SOL     OW83887   0.764   9.562   3.215 -0.0238  0.1941  0.1074
27425SOL    HW183888   0.719   9.646   3.223 -1.3622 -0.4971  0.1599
27425SOL    HW283889   0.694   9.499   3.197  0.9993 -0.8505 -0.3536
27426SOL     OW83890   5.617   8.256   0.381  0.3036 -0.3052  0.6677
27426SOL    HW183891   5.603   8.332   0.324 -0.1984  1.5799  3.1357
27426SOL    HW283892   5.557   8.189   0.347 -1.4607  1.4304  0.1640
27427SOL     OW83893   7.952   1.528   0.765 -0.2997  0.7214  0.2785
27427SOL    HW183894   7.918   1.587   0.833 -1.5210 -0.9854  1.2024
27427SOL    HW283895   7.875   1.498   0.718  0.1720 -0.9445  0.5134
27428SOL     OW83896   7.793   2.354   5.895 -0.2160  0.2548 -0.2833
27428SOL    HW183897   7.822   2.372   5.805  0.9516  0.0552  0.0319
27428SOL    HW283898   7.811   2.261   5.908  2.7873  0.9240  1.2078
27429SOL     OW83899   5.984   8.504   1.546  0.3914 -0.4431 -0.3397
27429SOL    HW183900   5.984   8.577   1.607 -0.8369  0.4053 -1.3151
27429SOL    HW283901   5.891   8.488   1.527  0.4726 -3.2491  0.9722
27430SOL     OW83902   2.866   7.290   3.682 -0.3092  0.4629 -0.0042
27430SOL    HW183903   2.945   7.248   3.649 -0.2560  0.7735 -0.2795
27430SOL    HW283904   2.894   7.379   3.706 -0.9143  1.1728 -1.7356
27431SOL     OW83905   6.239   8.716   7.019  0.4814  0.5189 -0.0335
27431SOL    HW183906   6.225   8.647   7.085  0.5668  0.5420  0.0091
27431SOL    HW283907   6.303   8.774   7.059  0.5708  0.5062 -0.1571
27432SOL     OW83908   2.846   4.866   6.564  0.0933 -0.3096  0.1959
27432SOL    HW183909   2.901   4.808   6.512  1.5165 -0.2013  1.5010
27432SOL    HW283910   2.757   4.848   6.535  0.7936 -0.4452 -2.0406
27433SOL     OW83911   8.759   9.447   0.889  0.5638 -0.3007 -0.5273
27433SOL    HW183912   8.734   9.427   0.980  0.5964  2.7921  0.2608
27433SOL    HW283913   8.853   9.465   0.893  0.0344  3.0664 -0.3961
27434SOL     OW83914   0.264   0.438   1.211  0.4391  0.0739 -0.3658
27434SOL    HW183915   0.184   0.483   1.236 -0.5744 -1.6786 -0.2931
27434SOL    HW283916   0.262   0.436   1.115  0.3720 -0.0141 -0.3624
27435SOL     OW83917   5.544   2.469   7.101 -0.2919  0.0293  0.2968
27435SOL    HW183918   5.627   2.428   7.078 -0.3719  0.2385 -0.3814
27435SOL    HW283919   5.536   2.544   7.043  0.0950  1.3459  1.8713
27436SOL     OW83920   9.196   4.465   5.950  0.1685 -0.0008 -0.3344
27436SOL    HW183921   9.241   4.528   6.006 -0.6621  0.1499  0.1759
27436SOL    HW283922   9.104   4.472   5.975  0.0827 -1.5156 -0.1813
27437SOL     OW83923   8.957   2.176   5.654  0.3208 -0.1312 -0.1182
27437SOL    HW183924   9.046   2.192   5.687  0.3028  0.4233 -0.3199
27437SOL    HW283925   8.951   2.229   5.574  0.0339 -0.6974 -0.4827
27438SOL     OW83926   1.022   3.661   7.462  0.0355 -0.0570  0.0145
27438SOL    HW183927   0.983   3.705   7.387  0.5819  0.1869 -0.1323
27438SOL    HW283928   1.011   3.568   7.444  0.5181 -0.0059 -0.5638
27439SOL     OW83929   0.734   1.596   4.022 -0.2262  0.0072 -0.1358
27439SOL    HW183930   0.769   1.576   4.109  0.6578  0.5402 -0.3645
27439SOL    HW283931   0.717   1.510   3.983  2.9364 -0.4206 -0.8587
27440SOL     OW83932   1.132   5.967   1.939  0.4531  0.4486  0.9655
27440SOL    HW183933   1.155   6.028   1.869  0.4483  0.0061  0.5753
27440SOL    HW283934   1.061   5.915   1.903  0.6166  0.0563  1.2071
27441SOL     OW83935   0.842   3.921   0.997  0.2942  0.0619  0.0913
27441SOL    HW183936   0.867   3.978   0.925 -0.5757  0.4812  0.1016
27441SOL    HW283937   0.877   3.835   0.974  1.6659  0.5976  0.1050
27442SOL     OW83938   4.082   4.336   1.757  0.1815  0.3723  0.1743
27442SOL    HW183939   4.076   4.432   1.756  2.7686  0.7006  2.5746
27442SOL    HW283940   4.139   4.314   1.684 -0.2716  0.6517 -0.2706
27443SOL     OW83941   6.352   7.632   7.552 -0.1150  0.0038 -0.1815
27443SOL    HW183942   6.313   7.657   7.636 -0.2376 -0.6102 -0.0514
27443SOL    HW283943   6.288   7.658   7.487  0.3633  1.2956 -0.1621
27444SOL     OW83944   0.491   9.492   8.330 -0.2722  0.2749 -0.2014
27444SOL    HW183945   0.486   9.588   8.326 -2.4734  0.2023 -4.1881
27444SOL    HW283946   0.584   9.473   8.343  0.5022  2.9810 -1.1337
27445SOL     OW83947   4.974   6.958   3.372 -0.0214  0.0068 -0.5406
27445SOL    HW183948   4.881   6.938   3.361  0.2308 -1.0063 -0.9475
27445SOL    HW283949   4.987   7.040   3.325 -0.6541 -0.0037 -0.7404
27446SOL     OW83950   8.010   4.266   3.029  0.8627 -0.0151  0.3626
27446SOL    HW183951   7.975   4.230   3.110  0.2378 -0.8051 -0.2377
27446SOL    HW283952   8.056   4.193   2.988 -1.1460 -0.4524 -1.2879
27447SOL     OW83953   5.277   0.292   8.055  0.7723 -0.0909  0.1261
27447SOL    HW183954   5.304   0.241   8.130 -1.1727  2.0852  2.5110
27447SOL    HW283955   5.322   0.376   8.065  1.0995 -0.0126 -1.6232
27448SOL     OW83956   8.295   9.160   0.853 -0.1638  0.1142 -0.1264
27448SOL    HW183957   8.314   9.129   0.942  1.6219 -0.3647 -0.6230
27448SOL    HW283958   8.249   9.243   0.866 -1.8457 -0.9650  1.2203
27449SOL     OW83959   6.326   8.559   3.200  0.0954 -0.3205  0.3084
27449SOL    HW183960   6.406   8.592   3.241  1.9988 -3.7053 -0.3260
27449SOL    HW283961   6.298   8.486   3.256 -1.5459 -0.3613 -0.4958
27450SOL     OW83962   1.154   0.533   9.159 -0.2999 -0.2412  0.5573
27450SOL    HW183963   1.209   0.514   9.235  0.5471  0.4765  0.1385
27450SOL    HW283964   1.213   0.571   9.095 -0.7420 -1.9733 -0.9745
27451SOL     OW83965   5.878   0.568   9.814  0.3013  0.6711 -0.6595
27451SOL    HW183966   5.869   0.662   9.802  0.0606  0.6602 -0.5724
27451SOL    HW283967   5.878   0.555   9.909  0.8563  0.6330 -0.6655
27452SOL     OW83968   0.841   3.167   5.652 -0.1388 -0.0211 -0.2034
27452SOL    HW183969   0.843   3.172   5.557  0.7292  0.4730 -0.1758
27452SOL    HW283970   0.922   3.210   5.680 -0.3487 -0.2130  0.7548
27453SOL     OW83971   3.752   1.010   3.549  0.1706 -0.0851 -0.2857
27453SOL    HW183972   3.759   0.963   3.632  0.8068 -1.4816 -1.0887
27453SOL    HW283973   3.727   0.942   3.486  0.5126  0.7881 -1.3870
27454SOL     OW83974   1.756   1.098   8.446  0.4072  0.5388 -0.2256
27454SOL    HW183975   1.830   1.040   8.425  0.1283 -0.4507  1.3235
27454SOL    HW283976   1.785   1.184   8.417  2.0727  0.1299  0.0838
27455SOL     OW83977   9.772   1.085   1.942 -0.0966  0.1403 -0.3241
27455SOL    HW183978   9.850   1.029   1.949  1.1475  1.8998  0.8422
27455SOL    HW283979   9.733   1.081   2.030 -1.8698 -1.3690 -1.1096
27456SOL     OW83980   0.182   5.715   2.529  0.0347 -0.7632  0.5611
27456SOL    HW183981   0.155   5.799   2.493  0.8875 -1.1838 -1.1697
27456SOL    HW283982   0.265   5.695   2.484  0.1340 -2.2661  1.3383
27457SOL     OW83983   1.406   9.347   2.983  0.2425 -0.0834  0.1291
27457SOL    HW183984   1.356   9.376   3.060 -0.7522  1.5264 -1.0698
27457SOL    HW283985   1.343   9.299   2.930  0.5714  0.0214 -0.3606
27458SOL     OW83986   8.763   8.241   1.824 -0.0897 -0.2937  0.0470
27458SOL    HW183987   8.747   8.215   1.915 -0.0787 -1.2628 -0.2099
27458SOL    HW283988   8.679   8.277   1.794  0.2470  1.1885  0.7907
27459SOL     OW83989   7.473   5.224   0.104  0.4526 -0.1685 -0.3414
27459SOL    HW183990   7.393   5.268   0.076  0.9431  1.1845  0.3063
27459SOL    HW283991   7.463   5.213   0.198  1.9579  2.1661  0.1842
27460SOL     OW83992   1.281   2.140   0.069 -0.0167 -0.4479 -0.0336
27460SOL    HW183993   1.213   2.131   0.002 -1.6055  0.1460  1.4127
27460SOL    HW283994   1.279   2.232   0.093  1.6158 -0.3438 -0.2490
27461SOL     OW83995   9.508   1.346   7.360  0.0495  0.1178 -0.1423
27461SOL    HW183996   9.486   1.355   7.268  1.1284  0.2954 -0.3903
27461SOL    HW283997   9.556   1.263   7.367  1.4727  0.9112 -0.0572
27462SOL     OW83998   7.880   0.444   6.979 -0.1819 -0.3185 -0.2042
27462SOL    HW183999   7.944   0.376   6.953 -0.7880 -1.1283  0.3756
27462SOL    HW284000   7.901   0.463   7.070  0.9884  1.4460 -0.7863
27463SOL     OW84001   0.637   7.099   6.215  0.1326  0.3930 -0.1621
27463SOL    HW184002   0.684   7.175   6.183  0.3320 -0.1669 -1.2359
27463SOL    HW284003   0.706   7.039   6.245 -0.0305  0.7031  0.8934
27464SOL     OW84004   5.158   7.591   4.784  0.8123  0.1499 -0.1514
27464SOL    HW184005   5.144   7.544   4.702  0.2481  1.0824 -0.5919
27464SOL    HW284006   5.210   7.667   4.760 -2.8242  2.7875 -0.4775
27465SOL     OW84007   4.434   4.871   1.294  0.4303 -0.0929 -0.3964
27465SOL    HW184008   4.384   4.791   1.281 -0.4370  0.3277  0.2529
27465SOL    HW284009   4.446   4.877   1.389  1.0444  0.2170 -0.4851
27466SOL     OW84010   8.714   7.842   2.469 -0.3745  0.1157 -0.3072
27466SOL    HW184011   8.778   7.894   2.518  0.6722 -0.6618 -0.8101
27466SOL    HW284012   8.718   7.755   2.508  1.6645 -1.0001 -2.6701
27467SOL     OW84013   4.322   1.712   2.614  0.6767 -0.3932  0.2738
27467SOL    HW184014   4.378   1.744   2.544  0.2016  1.0627  0.5204
27467SOL    HW284015   4.276   1.637   2.576  0.4589  0.3391 -0.9621
27468SOL     OW84016   4.973   8.458   6.556  0.1335  0.6586  0.6966
27468SOL    HW184017   5.028   8.473   6.479  0.6356 -0.5554  0.8082
27468SOL    HW284018   4.886   8.440   6.521  0.3631  0.1025  0.4094
27469SOL     OW84019   6.356   0.018   4.659  0.1759  0.0493 -0.1389
27469SOL    HW184020   6.323   0.093   4.611  0.5917 -0.3369 -1.0491
27469SOL    HW284021   6.330   0.034   4.750 -1.5459  0.2663 -0.6495
27470SOL     OW84022   3.330   0.788   5.426 -0.1547 -0.2373  0.1153
27470SOL    HW184023   3.305   0.866   5.377 -3.6915 -1.1726  0.1672
27470SOL    HW284024   3.370   0.731   5.360  1.0553  0.9447 -0.2279
27471SOL     OW84025   5.823   4.401   0.324 -0.5211 -0.2285  0.4515
27471SOL    HW184026   5.786   4.336   0.384  0.6016 -0.5696  0.8038
27471SOL    HW284027   5.850   4.473   0.380  0.0730 -0.3312  0.3062
27472SOL     OW84028   9.305   8.711   8.034  0.1589 -0.3786 -0.4464
27472SOL    HW184029   9.241   8.724   7.964  0.3073 -0.0770 -0.5307
27472SOL    HW284030   9.336   8.799   8.054 -0.5806 -0.3430  0.6662
27473SOL     OW84031   0.003   3.257   3.942 -0.2632  0.0026  0.4021
27473SOL    HW184032  -0.022   3.249   3.850 -1.1444 -2.5869  0.7744
27473SOL    HW284033   0.087   3.303   3.940  0.1123 -0.6589 -1.7590
27474SOL     OW84034   9.237   9.628   7.940 -0.3525 -0.6427 -0.1800
27474SOL    HW184035   9.261   9.691   8.009  1.1284 -1.6364  0.2492
27474SOL    HW284036   9.216   9.683   7.864  1.8538  0.3901 -0.1107
27475SOL     OW84037   8.751   4.754   8.673 -0.4673 -0.4539 -0.9428
27475SOL    HW184038   8.846   4.748   8.678 -0.3491  1.7735  1.4252
27475SOL    HW284039   8.729   4.720   8.586  2.5035 -0.6978 -1.6857
27476SOL     OW84040   5.274   7.753   0.699  0.5084  0.1303  0.0495
27476SOL    HW184041   5.279   7.841   0.662  3.2641  0.4929  1.0612
27476SOL    HW284042   5.193   7.717   0.663  0.2636  2.3669 -1.9130
27477SOL     OW84043   2.860   3.467   7.216  0.3259  0.3067  0.3390
27477SOL    HW184044   2.847   3.477   7.121  0.0391 -2.4982  0.0019
27477SOL    HW284045   2.953   3.486   7.229  0.2728  1.1659 -0.4184
27478SOL     OW84046   1.186   0.933   7.583  0.1424 -0.0057 -0.0731
27478SOL    HW184047   1.223   0.981   7.657  1.6079  1.6803 -1.8004
27478SOL    HW284048   1.091   0.944   7.593  0.3732  3.4006 -0.3682
27479SOL     OW84049   5.730   4.066   2.275 -0.0545 -0.1568 -0.0149
27479SOL    HW184050   5.818   4.085   2.242 -0.0301 -0.2925 -0.0287
27479SOL    HW284051   5.742   4.054   2.370 -0.2870  1.2800  0.2142
27480SOL     OW84052   5.714   3.837   7.994  0.5053  0.2135 -0.0921
27480SOL    HW184053   5.788   3.783   8.023  0.6388  0.0381 -0.7499
27480SOL    HW284054   5.729   3.922   8.036 -0.4183 -0.6129  2.0475
27481SOL     OW84055   9.837   7.772   6.930  0.0141 -0.0121 -0.2271
27481SOL    HW184056   9.773   7.790   6.862 -0.5454 -1.9652 -0.2545
27481SOL    HW284057   9.802   7.815   7.008 -0.5052  0.2816 -0.6191
27482SOL     OW84058   2.464   7.594   9.641 -0.3908 -0.2584  0.8713
27482SOL    HW184059   2.467   7.689   9.635 -0.3537 -0.1876  1.8878
27482SOL    HW284060   2.397   7.576   9.708 -1.2765 -0.9880 -0.1672
27483SOL     OW84061   8.873   4.549   0.256 -0.4028 -0.0694  0.5315
27483SOL    HW184062   8.918   4.584   0.333 -0.1004 -0.3218  0.4692
27483SOL    HW284063   8.861   4.456   0.275 -1.0347  0.0215  0.6138
27484SOL     OW84064   3.581   3.666   0.347 -0.1724 -0.4511  0.7369
27484SOL    HW184065   3.631   3.623   0.416 -1.0235 -1.7236  0.5982
27484SOL    HW284066   3.627   3.643   0.266 -1.0314 -1.7848  0.5902
27485SOL     OW84067   3.178   6.537   8.170  0.9015 -0.1882 -0.2423
27485SOL    HW184068   3.099   6.483   8.165  0.9888 -0.3660  0.2096
27485SOL    HW284069   3.146   6.627   8.164  0.7489 -0.2840 -0.9452
27486SOL     OW84070   9.238   3.187   2.221 -0.7834  0.7439 -0.1540
27486SOL    HW184071   9.154   3.178   2.176 -0.1578 -0.6281 -1.1160
27486SOL    HW284072   9.252   3.281   2.226 -1.8301  0.9731 -1.0302
27487SOL     OW84073   5.428   5.810   6.701 -0.2670 -0.2009  0.4454
27487SOL    HW184074   5.345   5.796   6.747 -0.2390 -1.6094  0.1021
27487SOL    HW284075   5.423   5.752   6.625  0.7813  0.1650  0.0863
27488SOL     OW84076   6.216   4.831   8.796  0.4548  0.2416  0.0776
27488SOL    HW184077   6.285   4.805   8.857  2.2708 -0.0386 -1.9609
27488SOL    HW284078   6.256   4.900   8.743 -1.3071  1.0007 -0.3244
27489SOL     OW84079   1.661   2.992   5.403 -0.1549  0.1649 -0.1634
27489SOL    HW184080   1.688   2.927   5.468  2.2096 -0.6417 -1.8467
27489SOL    HW284081   1.628   3.065   5.455 -1.9192 -1.8699  1.8313
27490SOL     OW84082   8.173   3.014   5.070 -0.0717 -0.1278  0.3045
27490SOL    HW184083   8.081   3.040   5.067 -0.1002  0.0797  1.8846
27490SOL    HW284084   8.171   2.919   5.073 -0.1220 -0.2227 -1.8128
27491SOL     OW84085   5.975   4.730   3.992 -0.0324  0.0004  0.5563
27491SOL    HW184086   6.041   4.664   4.013 -0.4268 -0.8743 -0.7889
27491SOL    HW284087   6.024   4.799   3.948 -0.1254 -1.2545 -1.6628
27492SOL     OW84088   3.374   0.494   9.825  0.1570 -0.5089  0.0584
27492SOL    HW184089   3.289   0.463   9.794 -0.7090  0.5177  1.3451
27492SOL    HW284090   3.354   0.564   9.887  1.9666  0.3187 -0.2208
27493SOL     OW84091   3.605   2.454   3.221 -0.1554  0.2121 -0.5872
27493SOL    HW184092   3.541   2.505   3.272 -0.1173  0.5002 -0.8284
27493SOL    HW284093   3.621   2.506   3.143  0.8466  0.4416 -0.2412
27494SOL     OW84094   3.212   1.963   7.278  0.6797  0.5473  0.6676
27494SOL    HW184095   3.199   2.054   7.251 -1.4187 -0.3504 -1.7221
27494SOL    HW284096   3.286   1.933   7.224  0.3773  0.4167  0.3240
27495SOL     OW84097   2.062   0.301   6.932  0.0700 -0.2356 -0.2993
27495SOL    HW184098   2.140   0.351   6.956  1.2902 -1.0870 -2.2354
27495SOL    HW284099   2.032   0.341   6.851 -0.3822 -1.1332 -0.5819
27496SOL     OW84100   0.495   7.080   9.087 -0.2467  0.0608 -0.1402
27496SOL    HW184101   0.520   7.156   9.139  0.9260  0.3901 -1.1529
27496SOL    HW284102   0.501   7.109   8.997  0.3754 -1.2607 -0.5538
27497SOL     OW84103   8.844   1.096   0.902 -0.1583 -0.2102 -0.5099
27497SOL    HW184104   8.814   1.180   0.867  0.9290  0.2363 -0.4272
27497SOL    HW284105   8.778   1.072   0.967 -0.0684  1.0004  0.0678
27498SOL     OW84106   0.551   0.395   3.141 -0.7718  0.4726  0.2123
27498SOL    HW184107   0.498   0.454   3.194 -0.6070  1.1851 -0.4041
27498SOL    HW284108   0.500   0.382   3.061 -0.6790 -0.0084  0.2249
27499SOL     OW84109   3.643   7.056   3.656  0.3883  0.8677  0.0158
27499SOL    HW184110   3.653   6.967   3.622  1.8289  0.2816  1.8065
27499SOL    HW284111   3.581   7.047   3.728  0.3940  1.3294  0.0791
27500SOL     OW84112   1.857   3.342   5.045  0.2157 -0.7035  0.0737
27500SOL    HW184113   1.924   3.302   5.099 -0.8165  0.2084  2.1394
27500SOL    HW284114   1.801   3.269   5.017 -0.2798 -1.0290  1.8137
27501SOL     OW84115   6.426   3.858   6.454 -0.1340 -0.4264 -0.5947
27501SOL    HW184116   6.340   3.818   6.443 -0.7791  0.7546  0.0060
27501SOL    HW284117   6.434   3.871   6.548  1.1672 -1.4663 -0.5200
27502SOL     OW84118   4.734   0.056   9.181 -0.4022 -0.4171  0.1918
27502SOL    HW184119   4.725  -0.036   9.155  0.6749  0.0139 -1.9177
27502SOL    HW284120   4.787   0.096   9.112  0.5362  1.4490  1.8721
27503SOL     OW84121   2.430   2.603   7.887  0.2289 -0.9002 -0.6161
27503SOL    HW184122   2.428   2.699   7.882  0.1261 -0.8512  0.1672
27503SOL    HW284123   2.355   2.581   7.941  2.8282 -1.0661  3.3954
27504SOL     OW84124   5.494   2.097   6.475  0.0106  0.0243  0.2279
27504SOL    HW184125   5.527   2.072   6.561  2.7355 -0.0794 -0.7404
27504SOL    HW284126   5.435   2.026   6.450  0.3053 -0.6540  1.4012
27505SOL     OW84127   2.801   3.104   6.857 -0.5040 -0.2756  0.2493
27505SOL    HW184128   2.831   3.019   6.825  1.2213  0.5060 -0.3223
27505SOL    HW284129   2.711   3.089   6.884 -0.6935 -1.9551 -1.1508
27506SOL     OW84130   6.194   3.691   8.074  0.0972  0.5051 -0.8555
27506SOL    HW184131   6.178   3.785   8.069 -0.5361  0.5284  0.9104
27506SOL    HW284132   6.283   3.684   8.107 -1.0832  0.6466  2.8620
27507SOL     OW84133   5.090   0.696   5.743  0.3707  0.1476  0.5620
27507SOL    HW184134   5.086   0.620   5.685  0.3475  0.2827  0.3838
27507SOL    HW284135   5.001   0.732   5.742  0.3657  0.1400  0.6968
27508SOL     OW84136   5.512   3.903   6.973 -0.5816 -0.0277  0.6385
27508SOL    HW184137   5.449   3.921   7.043 -1.4662  0.1451 -0.1677
27508SOL    HW284138   5.457   3.873   6.900  0.1363  1.3508 -0.5097
27509SOL     OW84139   0.283   9.202   1.723  0.1262 -0.2592  0.0014
27509SOL    HW184140   0.372   9.206   1.689  0.3739  0.5250  0.7095
27509SOL    HW284141   0.285   9.255   1.802 -0.9039 -0.4701  0.1850
27510SOL     OW84142   2.450   6.327   9.344  0.3881 -0.2749 -0.5643
27510SOL    HW184143   2.467   6.233   9.343 -0.0757 -0.4918  2.4592
27510SOL    HW284144   2.468   6.354   9.435 -0.5677  2.3356 -1.0584
27511SOL     OW84145   8.938   8.228   5.927  0.3481 -0.0301 -0.5551
27511SOL    HW184146   8.883   8.296   5.965  0.4624  0.2583 -0.8971
27511SOL    HW284147   8.939   8.248   5.833  1.7741  0.5253 -0.4497
27512SOL     OW84148   3.554   4.132   9.703  0.1865 -0.1776  0.1591
27512SOL    HW184149   3.620   4.075   9.744 -1.5621 -1.8768  0.7991
27512SOL    HW284150   3.476   4.077   9.697 -0.1474  0.4611 -4.1491
27513SOL     OW84151   7.574   0.639   1.322  0.0783 -0.4188 -0.0169
27513SOL    HW184152   7.534   0.554   1.302 -0.6335 -0.4396  1.3927
27513SOL    HW284153   7.664   0.617   1.348  0.0001 -0.7166  0.0037
27514SOL     OW84154   8.675   3.050   8.917  0.3421 -0.0078 -0.0704
27514SOL    HW184155   8.620   3.024   8.844 -0.1246  1.9373 -0.4692
27514SOL    HW284156   8.714   3.132   8.890  2.4474 -0.6714  0.7428
27515SOL     OW84157   8.202   7.785   5.108 -0.0517  0.4922  0.2759
27515SOL    HW184158   8.177   7.872   5.138  0.3400  0.9607 -0.7190
27515SOL    HW284159   8.181   7.727   5.182  1.3857  1.6535  1.6900
27516SOL     OW84160   3.211   2.502   0.152 -0.5744  0.9813  0.2367
27516SOL    HW184161   3.239   2.447   0.226 -0.9050 -0.5682 -0.7639
27516SOL    HW284162   3.128   2.465   0.123 -1.2372  2.5301  0.0328
27517SOL     OW84163   5.179   1.815   8.596 -0.3686 -0.1367 -0.3073
27517SOL    HW184164   5.202   1.905   8.618 -0.6672 -0.4263  1.3248
27517SOL    HW284165   5.206   1.764   8.672 -0.9010 -1.3229 -0.8857
27518SOL     OW84166   6.514   9.733   4.504  0.0689  0.7671  0.1657
27518SOL    HW184167   6.462   9.785   4.566  0.4124  0.5609  0.6366
27518SOL    HW284168   6.595   9.714   4.551 -0.3868 -0.9119  0.3336
27519SOL     OW84169   8.661   7.262   2.541 -0.1831  0.5379  0.1932
27519SOL    HW184170   8.720   7.187   2.535 -0.8125  0.0556 -0.0642
27519SOL    HW284171   8.658   7.283   2.634 -0.8460 -0.4446  0.3996
27520SOL     OW84172   3.367   0.116   5.676 -0.7066 -0.7359 -0.1524
27520SOL    HW184173   3.378   0.039   5.733 -0.7388 -0.8115 -0.2479
27520SOL    HW284174   3.434   0.106   5.609  1.7410  1.1712  1.8251
27521SOL     OW84175   9.542   9.699   8.629  0.7905 -0.4302  0.7812
27521SOL    HW184176   9.611   9.752   8.589 -1.6370  2.9668  0.6512
27521SOL    HW284177   9.560   9.703   8.723  0.8410  0.3076  0.7397
27522SOL     OW84178   9.535   4.033   0.676 -0.0556 -0.3138  0.2542
27522SOL    HW184179   9.462   4.087   0.646 -0.0435  0.4144  1.4740
27522SOL    HW284180   9.560   3.981   0.599  0.3705  1.8959 -1.1982
27523SOL     OW84181   6.135   8.670   0.965  0.1809 -0.0691 -0.4757
27523SOL    HW184182   6.195   8.744   0.952 -0.7058  0.2775 -3.1315
27523SOL    HW284183   6.048   8.708   0.956 -0.3116 -1.2618 -0.9507
27524SOL     OW84184   0.960   8.567   1.443  0.1971 -0.2177  0.3467
27524SOL    HW184185   0.948   8.504   1.514  0.0018 -0.8998 -0.2810
27524SOL    HW284186   0.918   8.526   1.368 -1.1623  1.2668  0.2471
27525SOL     OW84187   0.978   7.013   7.961  0.3264  0.1272  0.2787
27525SOL    HW184188   0.950   7.104   7.975  0.5416  0.3510 -0.6822
27525SOL    HW284189   0.898   6.968   7.934  0.2424  0.0507  0.6487
27526SOL     OW84190   4.296   8.707   5.149  0.1428 -0.5970  0.0093
27526SOL    HW184191   4.223   8.761   5.117  0.1414 -0.1423  0.7751
27526SOL    HW284192   4.294   8.630   5.092 -1.1937 -0.7878  0.2686
27527SOL     OW84193   0.223   7.632   1.253  0.3580  0.1906  0.1931
27527SOL    HW184194   0.220   7.645   1.158 -0.5549  3.8629  0.5629
27527SOL    HW284195   0.132   7.622   1.279  0.3753  1.5454  0.8585
27528SOL     OW84196   3.696   3.882   7.117  0.2945 -0.3917  0.3287
27528SOL    HW184197   3.791   3.872   7.113  0.3947  0.2297  0.8628
27528SOL    HW284198   3.683   3.967   7.160 -0.4788  0.3451 -1.2742
27529SOL     OW84199   0.004   2.379   0.483 -0.4597 -0.2096  0.4145
27529SOL    HW184200   0.076   2.359   0.543  0.6912  0.5092 -0.6762
27529SOL    HW284201  -0.009   2.297   0.434  1.8795  0.5150 -1.6301
27530SOL     OW84202   2.841   6.914   2.174 -0.1624  0.0326  0.3688
27530SOL    HW184203   2.854   6.919   2.269 -1.0955  0.8765  0.4648
27530SOL    HW284204   2.882   6.993   2.140  0.1441 -0.2538  0.0672
27531SOL     OW84205   5.219   4.964   5.963  0.3510 -0.0135  0.3974
27531SOL    HW184206   5.306   4.937   5.931  0.5753  0.6782  0.4155
27531SOL    HW284207   5.235   5.000   6.050  0.0401  0.0883  0.4134
27532SOL     OW84208   0.382   3.187   3.026 -0.0281 -0.2031 -0.2156
27532SOL    HW184209   0.425   3.261   3.067 -1.6393  0.5227  0.2443
27532SOL    HW284210   0.438   3.112   3.047  0.5219  0.5513  1.1306
27533SOL     OW84211   6.338   8.570   2.468 -0.7640 -0.0622  0.0565
27533SOL    HW184212   6.365   8.659   2.491  0.0428 -0.3133  0.1140
27533SOL    HW284213   6.290   8.579   2.386 -0.4789  0.3941 -0.0600
27534SOL     OW84214   9.182   7.653   1.010 -0.2887 -0.9271  0.0242
27534SOL    HW184215   9.177   7.692   0.922  0.5516  0.3907  0.5304
27534SOL    HW284216   9.241   7.578   0.999  0.6323 -0.1686 -0.3475
27535SOL     OW84217   3.475   4.684   2.391 -0.1280 -0.0650 -0.2608
27535SOL    HW184218   3.449   4.645   2.308 -2.6810 -0.5320  0.6616
27535SOL    HW284219   3.481   4.610   2.452  1.3045  0.3202  0.1165
27536SOL     OW84220   8.082   1.175   9.715 -0.5067  1.2661  0.0081
27536SOL    HW184221   8.172   1.165   9.749 -0.9599 -1.1309  0.7044
27536SOL    HW284222   8.027   1.172   9.794 -1.2842  1.1796 -0.5343
27537SOL     OW84223   4.428   5.002   8.963  0.2982  0.4674  0.0872
27537SOL    HW184224   4.444   5.005   9.057  0.2859 -0.9132  0.1530
27537SOL    HW284225   4.344   4.958   8.954  0.6936 -0.1853 -0.5852
27538SOL     OW84226   9.648   3.795   1.192  0.5799 -0.7900 -0.2697
27538SOL    HW184227   9.638   3.886   1.218  3.4824 -0.5857  0.4556
27538SOL    HW284228   9.579   3.781   1.127  0.4623  2.1040 -0.9003
27539SOL     OW84229   5.856   8.657   3.213  0.0406  0.2606  0.1728
27539SOL    HW184230   5.881   8.735   3.262  1.1571  1.1826 -1.7485
27539SOL    HW284231   5.764   8.672   3.189 -0.2575  0.1800  1.2098
27540SOL     OW84232   2.635   8.553   6.665  0.5589  0.4220  0.0832
27540SOL    HW184233   2.677   8.624   6.618  0.6415  1.1449  1.2232
27540SOL    HW284234   2.566   8.595   6.716 -3.8904 -0.9506 -3.9940
27541SOL     OW84235   1.726   4.317   3.991 -0.0131 -0.2326 -0.0611
27541SOL    HW184236   1.688   4.240   3.949 -0.2942  0.0838 -0.4034
27541SOL    HW284237   1.803   4.338   3.938  1.8134 -1.9964  1.7268
27542SOL     OW84238   3.521   6.512   2.207  0.6570 -0.0728  0.0212
27542SOL    HW184239   3.523   6.576   2.278  2.4853 -1.0283  0.9057
27542SOL    HW284240   3.443   6.460   2.222  1.1077 -0.3665  1.4482
27543SOL     OW84241   3.822   8.773   2.878  0.0763  0.1226 -0.3059
27543SOL    HW184242   3.891   8.773   2.944  0.7033  0.7514 -0.9548
27543SOL    HW284243   3.759   8.708   2.910  1.6868 -1.5975 -0.4695
27544SOL     OW84244   8.615   4.063   2.360 -0.2261  0.6854  0.3621
27544SOL    HW184245   8.678   4.097   2.297  1.3252 -0.1323  1.3929
27544SOL    HW284246   8.552   4.013   2.308  0.6610  0.5465 -0.6028
27545SOL     OW84247   9.841   4.159   6.144  0.3860 -0.3398 -0.0063
27545SOL    HW184248   9.837   4.126   6.054  0.3854 -0.1422 -0.0793
27545SOL    HW284249   9.760   4.209   6.155 -1.1227 -2.8636  1.1119
27546SOL     OW84250   6.091   6.785   4.595 -0.1349 -0.7809 -0.1824
27546SOL    HW184251   6.142   6.808   4.518  0.9206 -1.4824  0.2841
27546SOL    HW284252   6.121   6.845   4.664  1.5360 -2.4599  0.6263
27547SOL     OW84253   1.209   8.019   0.117 -0.5682  0.2341 -0.3476
27547SOL    HW184254   1.281   7.959   0.099  0.3504  0.7990  1.2429
27547SOL    HW284255   1.199   8.018   0.212 -2.3476  0.5592 -0.4807
27548SOL     OW84256   5.416   9.023   6.612 -0.0843 -0.1738  0.4449
27548SOL    HW184257   5.338   9.035   6.558  1.0414  1.4583 -0.9119
27548SOL    HW284258   5.389   9.049   6.700 -0.9713  0.7381 -0.0886
27549SOL     OW84259   5.079   8.822   2.327  0.7085 -0.6497  0.5160
27549SOL    HW184260   5.171   8.807   2.306  1.1560  1.1063  1.0271
27549SOL    HW284261   5.060   8.909   2.292 -0.6491 -0.8196  0.7636
27550SOL     OW84262   8.070   1.705   2.094 -0.8567 -0.5302 -0.7760
27550SOL    HW184263   8.007   1.634   2.090 -1.0454 -0.3157 -2.2339
27550SOL    HW284264   8.150   1.664   2.129 -0.7405 -1.6619 -2.2447
27551SOL     OW84265   2.624   8.076   9.481  0.0232  0.1002 -0.8958
27551SOL    HW184266   2.635   8.033   9.396  0.6061  0.3911 -0.9721
27551SOL    HW284267   2.663   8.162   9.470  3.4734 -1.0922  0.6887
27552SOL     OW84268   0.417   2.537   8.338 -0.1102  0.1810  0.4134
27552SOL    HW184269   0.323   2.539   8.324 -0.3007  1.8938  1.5468
27552SOL    HW284270   0.455   2.551   8.251 -0.8887 -0.3997 -0.0295
27553SOL     OW84271   6.165   5.651   5.381 -0.0033  0.3230  0.0602
27553SOL    HW184272   6.189   5.559   5.394 -1.2717 -0.1824 -1.0062
27553SOL    HW284273   6.224   5.681   5.312 -0.5521 -0.1050 -0.5956
27554SOL     OW84274   4.494   6.125   0.513  0.1859  0.5759  0.1223
27554SOL    HW184275   4.399   6.126   0.524  0.0042 -2.6342 -0.1046
27554SOL    HW284276   4.528   6.097   0.598  0.8570  0.8371 -0.0540
27555SOL     OW84277   5.331   2.556   3.821 -0.3047  0.1726  0.2150
27555SOL    HW184278   5.327   2.624   3.888  0.2437 -1.0739  1.5643
27555SOL    HW284279   5.241   2.548   3.789 -0.6002  0.6743  0.9127
27556SOL     OW84280   0.414   6.739   2.863  0.2584  0.2907  0.5029
27556SOL    HW184281   0.319   6.751   2.857  0.2786  0.7167  0.8859
27556SOL    HW284282   0.426   6.686   2.942  0.2152 -1.7404 -0.8109
27557SOL     OW84283   8.652   9.574   0.368  0.3138 -0.4093  0.3475
27557SOL    HW184284   8.598   9.503   0.333 -0.5960  0.2010  0.4929
27557SOL    HW284285   8.594   9.622   0.426  0.7895  0.7402 -0.1087
27558SOL     OW84286   0.534   5.583   5.284  0.0972  0.4589 -0.2907
27558SOL    HW184287   0.560   5.507   5.337  0.1295  1.1001  0.6176
27558SOL    HW284288   0.586   5.574   5.204  2.1148  0.9323  0.8956
27559SOL     OW84289   1.305   1.952   6.668 -0.2756 -0.2762 -0.1833
27559SOL    HW184290   1.361   1.881   6.700 -1.5116 -1.0966  0.2465
27559SOL    HW284291   1.286   1.928   6.578  1.7825  1.1363 -1.0770
27560SOL     OW84292   1.429   7.766   1.215 -0.5555  0.6587  0.0640
27560SOL    HW184293   1.497   7.784   1.150 -0.5670 -0.0764 -0.1539
27560SOL    HW284294   1.470   7.706   1.277 -1.1711 -0.2386 -0.3780
27561SOL     OW84295   5.650   5.485   1.925 -0.3044 -0.2185 -0.6084
27561SOL    HW184296   5.743   5.504   1.912 -0.3027  0.2882  0.0784
27561SOL    HW284297   5.647   5.390   1.941 -0.0394 -0.4251 -1.6679
27562SOL     OW84298   8.014   3.830   4.958 -0.0205 -0.2685 -0.6420
27562SOL    HW184299   7.927   3.835   5.000  0.2171 -0.1078 -0.1579
27562SOL    HW284300   8.073   3.808   5.030  0.1957 -1.4501 -1.1701
27563SOL     OW84301   6.413   2.886   3.784 -0.4447  0.3198 -0.1229
27563SOL    HW184302   6.409   2.819   3.716  1.9875 -0.3166  0.2319
27563SOL    HW284303   6.451   2.963   3.741  0.4815  0.1303  0.3124
27564SOL     OW84304   6.513   8.716   4.451  0.7290  0.0436  0.3368
27564SOL    HW184305   6.582   8.769   4.410  1.4141 -2.2208 -1.6777
27564SOL    HW284306   6.442   8.716   4.387  0.1187 -0.2512  0.9995
27565SOL     OW84307   2.947   2.077   6.606 -0.0388  0.8449 -0.3617
27565SOL    HW184308   2.988   2.020   6.541  0.2345  2.5156 -1.7251
27565SOL    HW284309   3.013   2.087   6.675 -0.9502 -2.3372  1.1830
27566SOL     OW84310   7.851   9.465   4.937 -0.1205 -0.2467 -0.2948
27566SOL    HW184311   7.883   9.459   4.847 -0.1969 -0.8143 -0.2881
27566SOL    HW284312   7.856   9.558   4.958  2.8396 -0.4397  0.1937
27567SOL     OW84313   7.197   9.295   1.532 -0.1821 -0.4354  0.1578
27567SOL    HW184314   7.113   9.299   1.578 -0.5544 -1.3542 -0.4315
27567SOL    HW284315   7.261   9.326   1.597 -1.3533  4.1998 -0.5279
27568SOL     OW84316   6.976   2.836   4.537  0.6462 -0.3183 -0.5343
27568SOL    HW184317   7.030   2.899   4.489  0.3467  0.3894  0.0325
27568SOL    HW284318   6.946   2.774   4.471  0.5793  0.3990 -1.1883
27569SOL     OW84319   4.640   0.344   6.316  0.0775 -0.1255 -0.0428
27569SOL    HW184320   4.669   0.253   6.323 -0.5740 -0.4350 -1.1149
27569SOL    HW284321   4.549   0.343   6.346  0.2146  0.2622  0.3925
27570SOL     OW84322   7.884   7.320   0.079 -0.2788 -0.1425 -0.2037
27570SOL    HW184323   7.960   7.340   0.024 -0.7996  1.5650 -0.3484
27570SOL    HW284324   7.898   7.369   0.159 -0.7649 -0.5928  0.1620
27571SOL     OW84325   9.717   5.043   8.557  0.7026 -0.0402 -0.1858
27571SOL    HW184326   9.707   5.094   8.477  0.6910 -0.3626 -0.3913
27571SOL    HW284327   9.693   5.103   8.628  0.4666  0.1638 -0.4411
27572SOL     OW84328   7.495   8.675   5.211  0.1246  0.4646 -0.4780
27572SOL    HW184329   7.434   8.665   5.138  0.7724 -1.1524 -0.8279
27572SOL    HW284330   7.574   8.712   5.172 -0.4748  2.2798 -0.0735
27573SOL     OW84331   1.758   8.321   9.037 -0.6009 -0.0105 -0.3571
27573SOL    HW184332   1.701   8.245   9.029 -1.0230  0.3675 -1.1589
27573SOL    HW284333   1.842   8.293   8.999 -0.4759 -0.3437  0.1609
27574SOL     OW84334   3.626   4.139   9.275  0.7341 -0.2515 -0.2984
27574SOL    HW184335   3.709   4.092   9.270  1.4544  0.4988  2.6279
27574SOL    HW284336   3.650   4.227   9.306 -1.1658 -0.3522  1.7092
27575SOL     OW84337   9.002   1.874   8.531 -0.0204 -0.3271  0.0674
27575SOL    HW184338   8.936   1.934   8.498  1.5684 -0.0069 -2.8994
27575SOL    HW284339   8.961   1.788   8.528 -0.2898 -0.1785 -2.0306
27576SOL     OW84340   6.542   2.797   8.091 -0.2226 -0.0031  0.1041
27576SOL    HW184341   6.500   2.845   8.020  1.4382  0.5024 -0.5680
27576SOL    HW284342   6.531   2.705   8.067  1.3703  0.1753 -1.4886
27577SOL     OW84343   2.021   0.669   1.568  0.2137 -0.0417 -0.0824
27577SOL    HW184344   1.960   0.706   1.633  1.9387  0.4064  1.3539
27577SOL    HW284345   2.066   0.599   1.614  1.7202  0.4999 -0.6628
27578SOL     OW84346   6.287   3.500   4.439 -0.4625  0.5237 -0.0965
27578SOL    HW184347   6.290   3.485   4.345 -0.7206 -1.2221  0.1359
27578SOL    HW284348   6.356   3.564   4.456 -0.4800  0.9235 -1.4783
27579SOL     OW84349   8.183   3.228   2.489 -0.1242  0.1355  0.3516
27579SOL    HW184350   8.087   3.236   2.490 -0.2719 -1.3220 -0.0582
27579SOL    HW284351   8.211   3.271   2.569 -1.4681 -2.6330  2.4993
27580SOL     OW84352   3.158   2.167   6.782  0.3066 -0.0280 -0.3654
27580SOL    HW184353   3.228   2.165   6.847  0.2814 -0.3563 -0.3452
27580SOL    HW284354   3.109   2.246   6.801 -0.5600 -0.8399  0.9289
27581SOL     OW84355   8.554   9.606   2.480 -0.4400 -0.2149 -0.2103
27581SOL    HW184356   8.573   9.609   2.574 -0.2518  0.9959 -0.2677
27581SOL    HW284357   8.488   9.674   2.467 -1.4434 -1.2716 -0.7540
27582SOL     OW84358   5.900   2.835   3.673 -0.1864  0.6894  0.0014
27582SOL    HW184359   5.851   2.756   3.650 -0.5266 -0.0410  2.7875
27582SOL    HW284360   5.990   2.804   3.685 -0.2973  0.7093  0.9805
27583SOL     OW84361   2.076   5.260   3.255 -0.3905  0.3515  0.4396
27583SOL    HW184362   2.093   5.342   3.303  1.6798  0.4044 -0.2876
27583SOL    HW284363   2.023   5.287   3.180 -1.7666  0.6182  1.4776
27584SOL     OW84364   1.753   6.764   2.765  0.0597  0.1054  0.2021
27584SOL    HW184365   1.721   6.780   2.854  0.5029 -1.9570  0.7926
27584SOL    HW284366   1.848   6.767   2.773  0.1037 -0.0199 -0.2318
27585SOL     OW84367   4.952   0.602   7.248 -0.3993 -0.4846  0.0153
27585SOL    HW184368   4.980   0.691   7.225  1.9608 -0.8287  1.2337
27585SOL    HW284369   5.013   0.545   7.202 -3.3511 -1.7045 -2.7095
27586SOL     OW84370   6.844   2.317   0.153 -0.0439 -0.2516  0.5270
27586SOL    HW184371   6.844   2.297   0.247 -0.0394  0.4069  0.6731
27586SOL    HW284372   6.780   2.387   0.144 -0.9965 -1.1838 -0.1660
27587SOL     OW84373   6.297   3.212   5.705 -0.6008 -0.4036 -0.2086
27587SOL    HW184374   6.263   3.144   5.647  1.3563 -0.5907 -1.2261
27587SOL    HW284375   6.373   3.247   5.658  0.0475  0.6038  1.5099
27588SOL     OW84376   4.029   8.526   2.073 -0.3226  0.5782 -0.2563
27588SOL    HW184377   3.997   8.594   2.013 -1.0154  0.0450 -0.5070
27588SOL    HW284378   3.949   8.491   2.114  0.0350 -0.0103 -0.0522
27589SOL     OW84379   0.549   0.912   5.192  0.0452  0.2384 -0.3382
27589SOL    HW184380   0.488   0.846   5.225 -0.1610  1.0000  0.8625
27589SOL    HW284381   0.604   0.934   5.267  2.9928 -1.6375 -1.7646
27590SOL     OW84382   0.398   1.955   3.606  0.2193  0.2003 -1.0066
27590SOL    HW184383   0.315   1.937   3.563 -0.9117  1.6531  0.4429
27590SOL    HW284384   0.439   2.023   3.552  0.0117  0.1642 -1.2080
27591SOL     OW84385   7.432   0.464   9.405 -0.5289  0.5884  0.7447
27591SOL    HW184386   7.430   0.400   9.476  3.0231  0.7923  1.1964
27591SOL    HW284387   7.414   0.412   9.326 -2.8115  0.0591  1.5421
27592SOL     OW84388   7.586   9.691   7.527  0.3153 -0.3784 -0.3820
27592SOL    HW184389   7.609   9.628   7.596  1.9843  0.9471  0.3403
27592SOL    HW284390   7.530   9.755   7.571 -0.2493 -0.5910 -0.7761
27593SOL     OW84391   6.219   1.165   3.582 -0.0565  0.0424  0.6997
27593SOL    HW184392   6.130   1.184   3.551  0.7295  0.0098 -1.7963
27593SOL    HW284393   6.206   1.111   3.661 -2.2437 -0.5973 -0.0280
27594SOL     OW84394   4.619   0.618   4.189  1.2140 -0.2122  0.6046
27594SOL    HW184395   4.703   0.602   4.147  1.1804  2.2969 -0.6068
27594SOL    HW284396   4.601   0.711   4.173 -1.9252 -0.7056  0.5314
27595SOL     OW84397   4.901   2.622   0.783 -0.3531  0.2593  0.0928
27595SOL    HW184398   4.812   2.646   0.810 -1.5859 -2.7429 -0.8179
27595SOL    HW284399   4.935   2.570   0.856 -1.2431 -2.4438 -1.2376
27596SOL     OW84400   6.181   6.798   6.031 -0.5337 -0.1580  0.5745
27596SOL    HW184401   6.100   6.765   6.070 -1.1294  1.1194  0.4554
27596SOL    HW284402   6.207   6.870   6.088  1.2845 -1.3822  1.3947
27597SOL     OW84403   5.309   7.645   7.059  0.4202  0.0338 -0.3168
27597SOL    HW184404   5.323   7.659   6.965 -0.1634  0.6774 -0.3153
27597SOL    HW284405   5.360   7.566   7.079  1.1487  0.3083 -1.0196
27598SOL     OW84406   0.510   6.276   1.972  0.3987 -0.2550 -0.2820
27598SOL    HW184407   0.502   6.288   1.877  2.6789 -0.8475 -0.6157
27598SOL    HW284408   0.571   6.345   2.000  0.6184 -0.7707  0.5582
27599SOL     OW84409   7.421   0.987   8.224  0.1549  0.4867 -0.3586
27599SOL    HW184410   7.397   1.040   8.300 -2.1025 -1.6969  0.5650
27599SOL    HW284411   7.510   1.015   8.204  0.8124  1.2923  2.9878
27600SOL     OW84412   0.642   4.509   1.469 -0.2459  0.1996  0.1834
27600SOL    HW184413   0.706   4.496   1.399 -0.4338 -1.0350  0.2085
27600SOL    HW284414   0.580   4.573   1.434 -1.2709 -1.5925 -1.4874
27601SOL     OW84415   8.211   1.857   3.311 -0.7128  0.3350 -0.2272
27601SOL    HW184416   8.141   1.820   3.364  0.5807 -1.0654  0.5658
27601SOL    HW284417   8.225   1.794   3.240 -0.5401  0.8309 -0.6489
27602SOL     OW84418   0.463   9.794   6.117  0.3328  0.0038 -0.2304
27602SOL    HW184419   0.499   9.789   6.029 -1.2317  1.3344 -1.0061
27602SOL    HW284420   0.395   9.726   6.120 -0.1339  0.4547 -0.3399
27603SOL     OW84421   0.365   0.222   5.295  0.5742  0.2301  0.1413
27603SOL    HW184422   0.304   0.289   5.326  1.0090  1.3124 -1.2803
27603SOL    HW284423   0.331   0.196   5.210  1.1345 -0.4536  0.1170
27604SOL     OW84424   9.316   5.683   2.775  0.2778 -0.3857  0.1657
27604SOL    HW184425   9.334   5.769   2.736 -0.7749 -0.5497 -0.7221
27604SOL    HW284426   9.222   5.682   2.791  0.1603 -1.5988 -0.4363
27605SOL     OW84427   4.227   6.117   1.086 -0.0847  0.3854  0.0696
27605SOL    HW184428   4.253   6.136   1.176 -1.1282  1.4337  0.1737
27605SOL    HW284429   4.309   6.120   1.036  0.5474 -0.5035  1.0098
27606SOL     OW84430   6.589   7.883   0.648 -0.3798 -0.4378  0.4034
27606SOL    HW184431   6.683   7.892   0.631 -0.4272  1.1854  0.8029
27606SOL    HW284432   6.562   7.807   0.596  0.4979  1.0606 -2.4354
27607SOL     OW84433   3.015   3.999   4.966  0.4469 -0.7854 -0.2312
27607SOL    HW184434   2.953   3.969   5.032 -0.0410 -0.8412 -0.7105
27607SOL    HW284435   3.084   4.042   5.016 -1.5800  2.2859  0.2107
27608SOL     OW84436   4.942   8.432   7.097 -0.5987  0.7325 -0.2534
27608SOL    HW184437   4.914   8.397   7.013  0.3692 -0.8902  0.0483
27608SOL    HW284438   4.968   8.355   7.148  2.6893  1.8678  0.0718
27609SOL     OW84439   3.260   0.666   8.975  0.7771  0.3830  0.1304
27609SOL    HW184440   3.297   0.754   8.968 -1.1971  1.2632  0.0660
27609SOL    HW284441   3.173   0.674   8.937  0.4393 -1.5426  0.4178
27610SOL     OW84442   5.053   8.630   2.778 -0.0436 -0.3122  0.5052
27610SOL    HW184443   4.998   8.660   2.850 -0.1863 -0.4541  0.4559
27610SOL    HW284444   5.081   8.711   2.735 -0.6317 -0.2479  0.2236
27611SOL     OW84445   4.362   6.838   8.786 -0.8272  0.5902 -0.4615
27611SOL    HW184446   4.428   6.799   8.843 -0.4758  1.2457 -0.4045
27611SOL    HW284447   4.381   6.932   8.789  0.2283  0.5350 -2.9138
27612SOL     OW84448   3.273   1.894   3.851 -0.2924 -0.1377 -0.1069
27612SOL    HW184449   3.346   1.844   3.886  1.5941  2.1912 -0.4462
27612SOL    HW284450   3.239   1.841   3.779  2.5240 -0.3686 -1.3783
27613SOL     OW84451   4.876   7.115   6.720  0.2078  0.3418 -0.2331
27613SOL    HW184452   4.844   7.036   6.764 -0.2536 -0.7538 -2.3882
27613SOL    HW284453   4.961   7.132   6.760 -0.1070 -0.6715  0.9328
27614SOL     OW84454   7.820   6.977   5.783 -0.6386 -0.1178  0.0827
27614SOL    HW184455   7.808   6.894   5.737 -1.0450 -0.5023  0.8541
27614SOL    HW284456   7.817   7.043   5.714 -1.8147 -0.6332 -0.3965
27615SOL     OW84457   7.678   7.995   1.758  0.2678 -0.2377 -0.2079
27615SOL    HW184458   7.767   8.001   1.794  1.1495 -0.8678 -2.1759
27615SOL    HW284459   7.687   8.026   1.668 -1.1720 -1.8702 -0.9555
27616SOL     OW84460   8.159   0.642   2.883 -0.2738 -0.0730 -0.1780
27616SOL    HW184461   8.081   0.589   2.897  0.7518 -1.6684 -0.2687
27616SOL    HW284462   8.204   0.600   2.809  1.4906 -0.2160  0.9158
27617SOL     OW84463   4.776   7.371   8.745  0.4977 -0.0418 -0.4254
27617SOL    HW184464   4.841   7.355   8.813  0.0451 -1.2470 -0.2400
27617SOL    HW284465   4.707   7.307   8.763 -0.5821  0.9912 -0.8121
27618SOL     OW84466   5.200   5.841   8.355  0.2100 -0.1548 -0.3029
27618SOL    HW184467   5.153   5.772   8.308  0.3800 -0.8048  0.4488
27618SOL    HW284468   5.260   5.793   8.412 -0.0990  0.5982  0.6707
27619SOL     OW84469   7.079   8.798   4.630 -0.2196 -0.0357  0.0548
27619SOL    HW184470   7.108   8.708   4.642 -0.6610 -0.2382 -0.3885
27619SOL    HW284471   6.993   8.802   4.672 -0.8874 -0.2303 -1.2413
27620SOL     OW84472   0.288   6.625   5.128 -0.1134 -0.7047 -0.1569
27620SOL    HW184473   0.338   6.644   5.049 -0.7759 -1.1203 -0.6911
27620SOL    HW284474   0.207   6.676   5.118 -1.2965 -2.6215 -0.9521
27621SOL     OW84475   7.769   5.410   6.268 -0.3619  0.8403 -0.0414
27621SOL    HW184476   7.730   5.497   6.273 -1.4842  0.3600 -0.2553
27621SOL    HW284477   7.861   5.424   6.290 -0.0659  2.3988 -1.9962
27622SOL     OW84478   5.588   1.805   8.096 -0.2593 -0.1776 -0.6513
27622SOL    HW184479   5.654   1.852   8.046 -1.3125  1.2894 -0.7345
27622SOL    HW284480   5.504   1.835   8.060 -1.0026 -0.7695  0.4965
27623SOL     OW84481   8.049   0.709   4.003  0.0685  0.1491  0.8471
27623SOL    HW184482   8.031   0.691   3.911  0.6308 -0.1368  0.7830
27623SOL    HW284483   8.015   0.633   4.050  1.7499 -0.7819  0.6507
27624SOL     OW84484   5.915   1.771   9.132 -0.1003 -0.1048  0.0250
27624SOL    HW184485   5.873   1.755   9.216 -1.6496  1.3014 -0.4206
27624SOL    HW284486   5.955   1.858   9.141  0.2099 -0.1838 -0.5099
27625SOL     OW84487   2.228   0.714   8.079 -0.3840 -0.1900 -0.6120
27625SOL    HW184488   2.309   0.663   8.091  0.8222  1.7340 -0.0429
27625SOL    HW284489   2.167   0.654   8.037  0.8442 -2.1831  0.3188
27626SOL     OW84490   9.473   1.944   7.249 -0.5029  0.1277  0.3927
27626SOL    HW184491   9.532   2.002   7.201  0.6201 -0.8541  0.5364
27626SOL    HW284492   9.473   1.978   7.339  0.6470 -0.4220  0.6243
27627SOL     OW84493   3.339   7.822   1.502  0.1903 -0.2621  0.0117
27627SOL    HW184494   3.255   7.795   1.465  0.7291 -0.2527 -1.3009
27627SOL    HW284495   3.368   7.892   1.444  0.6499  0.4123  1.0387
27628SOL     OW84496   8.173   7.156   3.430 -0.2808 -0.0568 -1.1203
27628SOL    HW184497   8.215   7.183   3.511 -0.9338  0.7111 -1.0325
27628SOL    HW284498   8.152   7.063   3.444 -1.3561  0.3400  0.0065
27629SOL     OW84499   8.631   2.231   4.098 -0.3159  0.0090 -0.0001
27629SOL    HW184500   8.670   2.316   4.074  0.0525 -1.0732 -3.7718
27629SOL    HW284501   8.704   2.169   4.093 -1.1753 -1.0079 -0.2808
27630SOL     OW84502   9.786   2.326   2.139 -0.0380 -0.4958  0.7953
27630SOL    HW184503   9.721   2.328   2.068 -0.4283 -1.0844  1.1234
27630SOL    HW284504   9.745   2.273   2.207 -0.1413  1.0102  1.9388
27631SOL     OW84505   5.689   4.598   6.418 -0.3251 -0.1441  0.6278
27631SOL    HW184506   5.661   4.581   6.508 -1.2045 -0.8771  0.2329
27631SOL    HW284507   5.763   4.539   6.404  0.1548  0.3479  1.0251
27632SOL     OW84508   6.160   0.041   4.885  0.1122 -0.2582 -0.3345
27632SOL    HW184509   6.102   0.116   4.897  0.3141  0.1891 -1.8935
27632SOL    HW284510   6.227   0.050   4.953 -0.3165  0.5207 -0.0039
27633SOL     OW84511   0.887   5.406   8.686  0.0048 -0.0447  0.1806
27633SOL    HW184512   0.858   5.356   8.609  0.1097  0.6342 -0.3067
27633SOL    HW284513   0.982   5.411   8.677 -0.0274  0.4302  0.1156
27634SOL     OW84514   2.373   0.665   5.608  0.0729 -0.3661  0.1881
27634SOL    HW184515   2.321   0.719   5.667  1.0348  0.9725 -0.1489
27634SOL    HW284516   2.411   0.726   5.546 -0.6371 -1.7033 -1.6511
27635SOL     OW84517   5.732   3.920   0.833  0.3895  0.5065 -0.1255
27635SOL    HW184518   5.695   3.917   0.745  1.0218  0.9950 -0.4192
27635SOL    HW284519   5.810   3.865   0.828  0.1529  0.1270  0.2716
27636SOL     OW84520   6.066   5.194   0.478 -0.2490 -0.3042 -0.2232
27636SOL    HW184521   5.991   5.183   0.419 -1.8038  1.1442  1.3828
27636SOL    HW284522   6.043   5.144   0.556  0.2007  0.5659  0.4855
27637SOL     OW84523   1.836   6.368   0.990 -0.4195 -0.0729 -0.0087
27637SOL    HW184524   1.829   6.454   1.033 -0.4171 -0.3173  0.4834
27637SOL    HW284525   1.792   6.381   0.905  1.9887  1.2038 -1.1693
27638SOL     OW84526   8.878   2.461   2.396 -0.0930  0.2574  0.1474
27638SOL    HW184527   8.850   2.402   2.326  1.8228 -1.2158  0.5238
27638SOL    HW284528   8.949   2.512   2.357 -0.8139  1.3567  0.2437
27639SOL     OW84529   7.577   3.655   5.833 -0.1894  0.0879  0.1599
27639SOL    HW184530   7.484   3.672   5.825  0.3224  2.3933 -2.6440
27639SOL    HW284531   7.596   3.593   5.762  0.7570  1.8183 -1.1811
27640SOL     OW84532   5.540   0.134   6.141  0.0680 -0.2267 -0.2405
27640SOL    HW184533   5.550   0.171   6.229  2.0393  1.6455 -1.1641
27640SOL    HW284534   5.464   0.179   6.105 -0.5427 -0.7566  0.3385
27641SOL     OW84535   0.594   7.918   2.273  0.5499 -0.5213  0.0748
27641SOL    HW184536   0.640   7.845   2.314  1.9489  0.6721  0.7078
27641SOL    HW284537   0.516   7.878   2.235  0.6767 -2.1587  1.3884
27642SOL     OW84538   5.621   1.338   9.426 -0.8120  0.6800 -0.3509
27642SOL    HW184539   5.632   1.300   9.339 -0.6980  0.7500 -0.3656
27642SOL    HW284540   5.641   1.430   9.416 -1.0854  0.7461 -0.3126
27643SOL     OW84541   5.533   1.826   9.790 -0.2193 -0.1973 -0.5610
27643SOL    HW184542   5.577   1.828   9.705 -1.8175 -1.1050 -1.4435
27643SOL    HW284543   5.501   1.915   9.803  2.1144  0.6066  0.2935
27644SOL     OW84544   7.306   0.788   7.909 -0.0282  0.3557  0.0279
27644SOL    HW184545   7.260   0.857   7.957  1.7543  2.1314 -0.6770
27644SOL    HW284546   7.262   0.784   7.824 -0.6708  0.0249  0.3742
27645SOL     OW84547   9.078   4.710   7.977  0.4571  0.6102 -0.0248
27645SOL    HW184548   9.123   4.639   8.022  2.0140  1.2329 -0.5104
27645SOL    HW284549   9.042   4.764   8.047 -1.0127 -0.7847  0.3415
27646SOL     OW84550   1.061   0.807   2.785  0.5212  0.9479 -0.2107
27646SOL    HW184551   1.027   0.788   2.873 -0.3181 -0.4938 -0.8177
27646SOL    HW284552   1.138   0.751   2.776  1.4013  2.0630  0.0600
27647SOL     OW84553   2.742   6.109   4.426 -0.4670  0.3657  0.1071
27647SOL    HW184554   2.752   6.070   4.339  1.9146 -1.9934  1.2877
27647SOL    HW284555   2.773   6.199   4.416  1.7545 -0.4562 -1.1174
27648SOL     OW84556   5.626   8.653   5.864  0.3008 -0.4235 -0.0964
27648SOL    HW184557   5.577   8.724   5.822  2.3728  1.6371  0.7989
27648SOL    HW284558   5.558   8.591   5.891 -1.9093  2.4105  1.4105
27649SOL     OW84559   2.917   7.696   7.210 -0.5436  0.4535 -0.4465
27649SOL    HW184560   2.973   7.733   7.279 -0.1855  1.1618 -1.1057
27649SOL    HW284561   2.958   7.612   7.189  0.0025  0.7450 -0.5811
27650SOL     OW84562   6.956   2.005   8.099  0.9514  0.2051  0.3210
27650SOL    HW184563   6.940   2.002   8.005  0.8275 -0.7544  0.3644
27650SOL    HW284564   7.014   1.931   8.116  1.5442  0.7841  0.9030
27651SOL     OW84565   0.311   6.349   3.580  0.5006 -0.1411  0.0203
27651SOL    HW184566   0.299   6.383   3.491  0.8344  0.2976  0.1416
27651SOL    HW284567   0.345   6.260   3.567 -0.1039 -0.3343 -0.2937
27652SOL     OW84568   8.147   7.829   3.597 -0.3035 -0.7496  0.1221
27652SOL    HW184569   8.139   7.911   3.548 -0.3498 -0.6633  0.2734
27652SOL    HW284570   8.076   7.832   3.661  0.4647 -0.3228  0.9756
27653SOL     OW84571   2.283   4.605   3.985 -0.1839 -0.5457 -0.4385
27653SOL    HW184572   2.352   4.575   4.043 -0.6293  1.3566  1.1910
27653SOL    HW284573   2.220   4.533   3.983 -0.5052 -0.4097  2.0619
27654SOL     OW84574   4.898   9.814   0.465  1.0551  0.1337  0.2550
27654SOL    HW184575   4.860   9.816   0.377  1.3126 -0.0594  0.1374
27654SOL    HW284576   4.983   9.857   0.455  1.5669 -0.8703  0.1657
27655SOL     OW84577   6.363   0.148   7.470  0.0184  0.1140  0.2081
27655SOL    HW184578   6.404   0.170   7.386 -0.0272  0.7330  0.3432
27655SOL    HW284579   6.282   0.102   7.446 -0.2205  0.6835 -0.1015
27656SOL     OW84580   1.524   1.133   5.608  0.0744  0.3156 -0.2448
27656SOL    HW184581   1.548   1.139   5.701  1.3574 -0.8948 -0.4514
27656SOL    HW284582   1.609   1.128   5.563 -0.5316 -1.2327 -1.2861
27657SOL     OW84583   7.788   7.891   8.063  0.5136 -0.0291  0.0065
27657SOL    HW184584   7.779   7.815   8.121 -0.6195  0.0278 -0.0766
27657SOL    HW284585   7.738   7.868   7.985  1.6354  0.0969 -0.7646
27658SOL     OW84586   4.894   6.366   5.858 -0.5026 -0.1884  0.1064
27658SOL    HW184587   4.919   6.421   5.785 -1.9381 -2.6337 -2.4192
27658SOL    HW284588   4.807   6.397   5.884  0.6430  1.7214  2.0280
27659SOL     OW84589   9.627   3.483   5.640  0.5088  0.2985  0.0473
27659SOL    HW184590   9.588   3.398   5.623 -1.7255  0.9853  1.2743
27659SOL    HW284591   9.707   3.485   5.587 -1.0816 -1.2500 -2.5891
27660SOL     OW84592   3.134   3.669   5.113  0.1836  0.0116 -0.5853
27660SOL    HW184593   3.096   3.749   5.149  1.1822  0.3402 -0.2299
27660SOL    HW284594   3.130   3.606   5.185  2.2592  0.6939  0.2031
27661SOL     OW84595   2.059   1.523   8.044  0.1182 -0.1722  0.1177
27661SOL    HW184596   2.143   1.487   8.075 -0.4294 -1.5599  0.0346
27661SOL    HW284597   2.030   1.462   7.977 -0.9677  0.3064  0.1430
27662SOL     OW84598   9.038   8.673   4.367 -0.0292 -0.2995  0.4863
27662SOL    HW184599   9.053   8.759   4.330  1.6732 -1.0219 -0.5843
27662SOL    HW284600   8.991   8.625   4.299  0.0027 -0.5571  0.6426
27663SOL     OW84601   6.988   4.670   3.192 -0.0509 -0.1253  0.2326
27663SOL    HW184602   7.049   4.731   3.232  0.4813 -0.6117  0.1759
27663SOL    HW284603   6.943   4.629   3.267  0.0428 -0.1222  0.2910
27664SOL     OW84604   1.378   5.504   5.122 -0.1260 -0.1545  0.2591
27664SOL    HW184605   1.465   5.545   5.124 -0.5917  1.2347 -2.8097
27664SOL    HW284606   1.325   5.560   5.177  0.3908  0.4128  0.1946
27665SOL     OW84607   3.299   9.340   1.183 -0.2305  0.2136 -0.3362
27665SOL    HW184608   3.237   9.341   1.111 -0.2337  1.1613 -0.3363
27665SOL    HW284609   3.305   9.248   1.209 -2.7008  0.2468  0.5793
27666SOL     OW84610   0.289   7.033   6.378 -0.3732  0.5632 -0.1401
27666SOL    HW184611   0.302   6.943   6.347 -0.3197 -0.0496  1.5686
27666SOL    HW284612   0.362   7.049   6.437 -1.0033  1.3265  0.4569
27667SOL     OW84613   8.979   9.797   1.052  0.2065 -0.1487  0.4094
27667SOL    HW184614   9.031   9.876   1.034  1.5198 -1.2570 -0.9171
27667SOL    HW284615   8.951   9.806   1.143  1.5004  1.1870  0.7021
27668SOL     OW84616   8.285   6.415   5.571 -0.4084  0.2044  0.5408
27668SOL    HW184617   8.192   6.396   5.574 -0.4457  0.3776  0.4897
27668SOL    HW284618   8.305   6.426   5.478 -0.3679  0.3130  0.5619
27669SOL     OW84619   2.852   9.430   1.976  0.2315  0.7285  1.0380
27669SOL    HW184620   2.812   9.507   2.016  1.4435  2.5113 -0.9638
27669SOL    HW284621   2.937   9.461   1.945  0.8454 -1.4932  0.3213
27670SOL     OW84622   7.368   1.084   7.648  0.1147  0.0343  0.4317
27670SOL    HW184623   7.413   1.165   7.672  0.7587  0.5878 -2.3300
27670SOL    HW284624   7.275   1.104   7.662  0.2294  1.4208 -0.5594
27671SOL     OW84625   4.418   5.484   7.690 -0.1018  0.0929 -0.1779
27671SOL    HW184626   4.350   5.424   7.720  0.0943  0.2116  0.5327
27671SOL    HW284627   4.476   5.429   7.637  0.0737 -0.3469  0.4600
27672SOL     OW84628   6.652   7.007   0.149 -0.2558 -0.1319  0.0987
27672SOL    HW184629   6.745   6.983   0.149 -0.1952 -0.0567 -1.9147
27672SOL    HW284630   6.630   7.017   0.056 -2.2358  0.0388  0.5472
27673SOL     OW84631   4.075   9.295   9.786  0.4902  0.3604 -0.4040
27673SOL    HW184632   3.985   9.307   9.816  0.1936  1.4329 -1.6338
27673SOL    HW284633   4.100   9.209   9.819 -1.2479 -0.2863 -0.6534
27674SOL     OW84634   2.151   0.057   8.495  0.6339  0.4348 -0.3638
27674SOL    HW184635   2.221   0.036   8.557 -1.1241 -0.0890  1.5179
27674SOL    HW284636   2.077   0.083   8.549 -1.0806 -0.3055 -2.2318
27675SOL     OW84637   9.168   2.491   0.187 -0.1056  0.2021 -0.1961
27675SOL    HW184638   9.242   2.489   0.247 -1.3022 -1.0684  1.3352
27675SOL    HW284639   9.128   2.577   0.201 -0.2291  0.0093  0.6504
27676SOL     OW84640   4.181   1.438   2.543  0.4483  0.3565 -0.3091
27676SOL    HW184641   4.140   1.422   2.458 -0.3815  0.2922  0.0903
27676SOL    HW284642   4.121   1.497   2.587  1.4233  1.2680 -0.1778
27677SOL     OW84643   5.135   8.441   6.319 -0.4484  0.1972 -0.4747
27677SOL    HW184644   5.204   8.382   6.287  0.1902 -0.5359  2.0318
27677SOL    HW284645   5.055   8.410   6.275 -0.1214 -2.5505  0.6859
27678SOL     OW84646   9.660   8.756   9.424 -0.5412  0.2297 -0.4154
27678SOL    HW184647   9.711   8.830   9.456  1.0801 -1.8311  2.2210
27678SOL    HW284648   9.720   8.707   9.368  0.1619 -1.5737  1.7531
27679SOL     OW84649   8.494   3.577   2.761  0.1346  0.3600  0.1369
27679SOL    HW184650   8.443   3.629   2.822  0.4905 -0.2627  0.9871
27679SOL    HW284651   8.566   3.633   2.735 -0.2081  0.7493  0.0202
27680SOL     OW84652   4.157   2.601   3.917 -0.2795  0.2080  0.0412
27680SOL    HW184653   4.230   2.653   3.882 -0.0529  0.2685  0.5864
27680SOL    HW284654   4.115   2.563   3.840  1.8843 -1.9209 -0.2025
27681SOL     OW84655   5.767   7.416   8.566 -0.3776  0.1047 -0.0963
27681SOL    HW184656   5.843   7.372   8.529  0.8350  1.0413  1.1843
27681SOL    HW284657   5.724   7.350   8.619  0.6342  0.0571  0.6910
27682SOL     OW84658   6.991   2.564   6.614 -0.2683 -0.4115 -0.2648
27682SOL    HW184659   7.052   2.531   6.680 -0.8679  0.5469  0.8117
27682SOL    HW284660   6.962   2.648   6.649  2.4681  2.2051 -3.6204
27683SOL     OW84661   8.904   8.934   7.124 -0.3315 -0.0996 -0.6347
27683SOL    HW184662   8.941   8.907   7.208  0.3653  1.3025 -0.4569
27683SOL    HW284663   8.960   9.007   7.096 -1.1243  0.0620 -1.8608
27684SOL     OW84664   1.018   7.444   5.980  0.0604 -0.4357 -0.1060
27684SOL    HW184665   0.991   7.444   6.072  0.3046 -1.6988 -0.0136
27684SOL    HW284666   1.091   7.505   5.977 -1.7038  1.7982 -0.0425
27685SOL     OW84667   3.722   9.551   9.341 -0.3868 -0.5305 -0.1562
27685SOL    HW184668   3.706   9.579   9.251 -0.4010 -0.1318 -0.0313
27685SOL    HW284669   3.698   9.458   9.342 -0.1962 -0.5858 -0.6107
27686SOL     OW84670   2.794   2.282   7.556  0.0194 -0.0426  0.0431
27686SOL    HW184671   2.879   2.240   7.572 -0.5992 -0.8299  1.4294
27686SOL    HW284672   2.815   2.358   7.502  1.7505  0.3728  1.2187
27687SOL     OW84673   7.892   9.712   1.530 -0.3926 -0.0397  0.4340
27687SOL    HW184674   7.958   9.722   1.463 -0.6134  0.6866  0.3208
27687SOL    HW284675   7.838   9.639   1.500 -0.2470  0.0200  0.0314
27688SOL     OW84676   6.618   4.995   5.325 -0.1892  0.3091 -0.0531
27688SOL    HW184677   6.592   5.006   5.416 -0.1240  0.5201 -0.0600
27688SOL    HW284678   6.663   4.910   5.322 -1.9137 -0.6389 -0.2659
27689SOL     OW84679   9.157   5.129   6.714 -0.1480 -0.0652  0.3888
27689SOL    HW184680   9.251   5.138   6.698 -0.3119  0.3508 -0.3981
27689SOL    HW284681   9.151   5.089   6.800  0.7372  1.2231  1.0836
27690SOL     OW84682   4.761   1.602   1.974  0.2983  0.6021 -0.5670
27690SOL    HW184683   4.803   1.632   1.893  0.0074  0.1437 -0.8940
27690SOL    HW284684   4.722   1.681   2.011  0.3860  0.8080 -0.9079
27691SOL     OW84685   3.133   1.333   7.461  0.2588 -0.4567  0.3829
27691SOL    HW184686   3.132   1.412   7.408 -0.1461 -0.2933  0.6294
27691SOL    HW284687   3.171   1.360   7.545 -3.4336  0.4872  1.9597
27692SOL     OW84688   6.468   2.617   1.564 -0.1159 -0.1834 -0.0368
27692SOL    HW184689   6.541   2.671   1.533 -0.7629  0.8831  0.2564
27692SOL    HW284690   6.482   2.533   1.522  0.8471  0.2415 -0.6146
27693SOL     OW84691   4.474   7.668   6.036  0.0180  0.0269 -0.0007
27693SOL    HW184692   4.403   7.640   6.093 -1.1766  1.2766 -0.8175
27693SOL    HW284693   4.461   7.619   5.955 -0.7418  1.1944 -0.6213
27694SOL     OW84694   1.075   3.925   6.769  0.2043  0.2526  0.4510
27694SOL    HW184695   1.162   3.957   6.745 -0.5688  1.9401 -0.2147
27694SOL    HW284696   1.077   3.922   6.865 -0.0809  3.6928  0.6722
27695SOL     OW84697   3.639   2.986   0.756 -0.0285  0.1122 -0.1281
27695SOL    HW184698   3.647   3.068   0.805 -0.4710 -0.1321  0.3589
27695SOL    HW284699   3.646   3.013   0.664 -2.5718  1.0766 -0.1388
27696SOL     OW84700   8.758   4.591   4.486  0.3804 -0.0138 -0.2551
27696SOL    HW184701   8.762   4.568   4.579  0.0449 -0.6342 -0.3940
27696SOL    HW284702   8.680   4.647   4.479  2.1994  2.7924  0.4155
27697SOL     OW84703   4.769   4.504   7.565 -0.6829 -0.6026  0.1021
27697SOL    HW184704   4.738   4.445   7.496  1.0935 -0.4106 -0.9091
27697SOL    HW284705   4.833   4.560   7.522 -0.1280  0.0868  1.7364
27698SOL     OW84706   2.415   3.582   6.791  0.1308  0.1799 -0.3386
27698SOL    HW184707   2.455   3.510   6.840 -1.3406 -0.0823  0.5161
27698SOL    HW284708   2.373   3.637   6.857 -1.3176  0.1956 -1.2265
27699SOL     OW84709   6.998   4.826   7.749 -0.3000  0.0093 -0.0698
27699SOL    HW184710   6.954   4.907   7.773  0.1691  0.1602  0.2920
27699SOL    HW284711   6.960   4.760   7.807 -0.0404  0.1424  0.2549
27700SOL     OW84712   8.253   2.735   3.572 -0.3885  0.1965  0.1842
27700SOL    HW184713   8.300   2.800   3.624 -1.8713  0.5424  1.1383
27700SOL    HW284714   8.322   2.689   3.524  0.8073  1.5235  0.5601
27701SOL     OW84715   5.709   5.390   9.484 -0.1912  0.7910 -0.3245
27701SOL    HW184716   5.797   5.360   9.507 -0.9166 -0.5131  0.8789
27701SOL    HW284717   5.723   5.453   9.413  1.6829  0.4476 -0.3057
27702SOL     OW84718   4.797   2.676   3.667 -0.1354 -0.4471 -0.1319
27702SOL    HW184719   4.798   2.747   3.732 -0.7821  0.5436 -1.1613
27702SOL    HW284720   4.790   2.596   3.719  0.8250  0.2136  1.0764
27703SOL     OW84721   6.367   5.180   5.312  0.2675  0.4836 -0.2451
27703SOL    HW184722   6.400   5.091   5.304 -1.4384 -0.2311  0.3054
27703SOL    HW284723   6.359   5.210   5.221 -0.9717 -0.6542 -0.5432
27704SOL     OW84724   5.412   7.151   2.843  0.1301 -0.0247 -0.2956
27704SOL    HW184725   5.507   7.164   2.846  0.2987 -1.0046 -0.7128
27704SOL    HW284726   5.384   7.194   2.763 -0.2300  2.6686  1.1795
27705SOL     OW84727   4.237   5.323   0.555 -0.7954  0.5771 -0.2931
27705SOL    HW184728   4.219   5.415   0.572 -0.7543  0.8173 -1.4118
27705SOL    HW284729   4.183   5.302   0.478 -0.7484 -0.3098 -0.0977
27706SOL     OW84730   3.680   1.867   2.819 -0.1775  0.1066  0.1572
27706SOL    HW184731   3.767   1.864   2.858 -0.5030 -0.8014  0.8438
27706SOL    HW284732   3.694   1.902   2.731  0.7525  0.8204  0.5798
27707SOL     OW84733   4.136   1.881   9.122 -0.1050  0.0504 -0.1103
27707SOL    HW184734   4.205   1.857   9.060 -0.4034 -0.0196 -0.4192
27707SOL    HW284735   4.092   1.798   9.142 -0.1472  0.1057  0.0272
27708SOL     OW84736   2.213   9.625   0.903  0.4267  0.2332 -0.3705
27708SOL    HW184737   2.274   9.691   0.870  0.1127  0.7662  0.0940
27708SOL    HW284738   2.259   9.542   0.893  1.7641  0.7562  1.1908
27709SOL     OW84739   5.136   5.539   5.453 -0.2341  0.3582 -0.7557
27709SOL    HW184740   5.062   5.518   5.511  0.6837 -0.9549 -0.0128
27709SOL    HW284741   5.204   5.477   5.478  0.6035  0.5442 -2.4635
27710SOL     OW84742   3.596   7.446   3.828  0.0922 -0.0486 -0.1067
27710SOL    HW184743   3.660   7.397   3.775  0.1644 -1.5015  1.2448
27710SOL    HW284744   3.650   7.505   3.881  0.2612 -0.5584  0.3051
27711SOL     OW84745   9.763   8.465   4.383  0.1496 -0.0237  0.0903
27711SOL    HW184746   9.699   8.536   4.374 -0.7218 -0.8009  0.0072
27711SOL    HW284747   9.848   8.509   4.382 -0.2024  0.7773 -3.0487
27712SOL     OW84748   3.462   6.913   1.866 -0.2719 -0.5086 -0.3362
27712SOL    HW184749   3.509   6.836   1.896 -0.8096 -0.3531  1.0048
27712SOL    HW284750   3.470   6.976   1.938 -0.8129  0.2599 -0.9224
27713SOL     OW84751   8.027   4.242   9.148  0.2753  0.9005 -0.0089
27713SOL    HW184752   7.992   4.286   9.070  1.2037  0.1195 -0.8933
27713SOL    HW284753   8.119   4.267   9.151  0.7456 -0.6880 -0.3474
27714SOL     OW84754   7.105   5.818   0.661  0.5470  0.6501  0.0694
27714SOL    HW184755   7.073   5.890   0.715 -0.2131  0.1800  0.2688
27714SOL    HW284756   7.109   5.743   0.722 -1.2238 -0.1213 -0.7035
27715SOL     OW84757   1.921   5.086   2.051 -0.1464 -0.2654  0.0542
27715SOL    HW184758   1.855   5.145   2.086  1.7127  0.3624  2.7970
27715SOL    HW284759   2.003   5.119   2.085  1.3644 -2.3930 -1.2986
27716SOL     OW84760   5.096   5.601   1.380 -0.0480  0.3647  0.0018
27716SOL    HW184761   5.110   5.510   1.354  0.8108 -0.6407  3.3917
27716SOL    HW284762   5.051   5.594   1.465  1.3337  3.0465  1.0542
27717SOL     OW84763   1.565   3.056   4.192 -0.3700 -0.3991 -0.4047
27717SOL    HW184764   1.621   3.057   4.270  0.0491 -0.0583 -0.7118
27717SOL    HW284765   1.612   3.109   4.128 -0.8397 -0.4696 -0.8064
27718SOL     OW84766   4.221   5.130   8.471  0.5428  0.3386  0.5395
27718SOL    HW184767   4.168   5.154   8.395  1.8066 -0.3581 -0.6183
27718SOL    HW284768   4.249   5.214   8.508  0.0935  0.6876  0.0998
27719SOL     OW84769   6.042   2.150   9.832  0.1291  0.1851 -0.1516
27719SOL    HW184770   6.047   2.143   9.928 -0.3400  0.9639 -0.0614
27719SOL    HW284771   5.950   2.131   9.812  0.5061 -1.2872 -0.5819
27720SOL     OW84772   0.105   5.664   3.491 -0.4262  0.3810  0.1767
27720SOL    HW184773   0.194   5.640   3.518 -0.2801 -0.2848 -0.8529
27720SOL    HW284774   0.118   5.731   3.424 -0.6985  0.2418 -0.0169
27721SOL     OW84775   9.115   5.417   7.546  0.5968 -0.4537  0.3307
27721SOL    HW184776   9.163   5.477   7.602  2.3758 -1.5561  0.0787
27721SOL    HW284777   9.159   5.422   7.461 -0.0912 -1.0965 -0.0832
27722SOL     OW84778   3.230   2.180   9.021 -0.1253  0.5819 -0.5677
27722SOL    HW184779   3.253   2.260   9.067 -0.8999  0.4832  0.0144
27722SOL    HW284780   3.137   2.168   9.039  0.1571 -0.8990  0.0752
27723SOL     OW84781   8.333   7.887   6.084  0.6226  0.3580  0.4145
27723SOL    HW184782   8.282   7.886   6.166  2.1474 -1.8571  1.4490
27723SOL    HW284783   8.320   7.975   6.049 -1.9217  0.6626  1.8464
27724SOL     OW84784   5.547   3.639   9.057  0.0271 -0.6160  0.0454
27724SOL    HW184785   5.454   3.638   9.032  0.0570  0.1398 -0.1012
27724SOL    HW284786   5.562   3.726   9.093  1.0787 -0.1233 -1.4770
27725SOL     OW84787   2.067   7.085   8.315 -0.1933  0.0779  0.0960
27725SOL    HW184788   2.094   7.144   8.244 -3.1223  0.7085 -0.6051
27725SOL    HW284789   2.113   7.003   8.296  0.7672  0.8799 -1.2514
27726SOL     OW84790   0.696   0.775   0.772 -0.4101 -0.5177  0.4239
27726SOL    HW184791   0.703   0.728   0.855 -1.6227 -0.6672  0.4556
27726SOL    HW284792   0.706   0.707   0.705  3.0885 -0.0887  0.3293
27727SOL     OW84793   0.869   2.200   4.761 -0.7031  0.3383 -0.0415
27727SOL    HW184794   0.902   2.287   4.782 -0.4665 -0.2323  2.2415
27727SOL    HW284795   0.776   2.204   4.783 -1.1068  0.5008 -1.6661
27728SOL     OW84796   6.521   7.320   4.677  0.1211 -0.2065 -0.1259
27728SOL    HW184797   6.445   7.342   4.623 -1.3740 -0.1389  1.8904
27728SOL    HW284798   6.576   7.267   4.619 -1.3698 -0.1375 -1.7111
27729SOL     OW84799   9.236   5.128   4.897  0.2762  0.0597 -0.0027
27729SOL    HW184800   9.325   5.148   4.927  0.4016 -0.3196 -0.1079
27729SOL    HW284801   9.222   5.186   4.823  0.1695  0.6172  0.4505
27730SOL     OW84802   4.511   4.605   0.286 -0.0611 -0.2632 -0.0210
27730SOL    HW184803   4.602   4.618   0.311 -0.1256 -1.5803  1.0098
27730SOL    HW284804   4.466   4.588   0.369 -1.5381  1.8013 -0.3200
27731SOL     OW84805   9.379   9.123   2.437 -0.0019  0.3199  0.1493
27731SOL    HW184806   9.356   9.050   2.380  1.2741  0.5199 -0.6577
27731SOL    HW284807   9.295   9.159   2.466 -0.6659  0.0794 -1.4166
27732SOL     OW84808   9.572   0.582   4.047  0.3924  0.8559  0.0052
27732SOL    HW184809   9.642   0.541   3.996 -0.8387 -0.0189 -1.0439
27732SOL    HW284810   9.534   0.648   3.988 -0.4476  0.4738  0.0977
27733SOL     OW84811   4.036   1.234   1.945 -0.0490  0.2646  0.4338
27733SOL    HW184812   4.074   1.203   1.863 -0.6291 -0.8883  0.5854
27733SOL    HW284813   4.087   1.311   1.968  1.5261 -0.6501  0.1138
27734SOL     OW84814   0.062   7.669   8.793  0.0513  0.1749  0.1029
27734SOL    HW184815   0.157   7.668   8.791  0.1582  2.1218  1.2968
27734SOL    HW284816   0.040   7.675   8.886 -1.2598 -0.5346 -0.1374
27735SOL     OW84817   8.324   2.925   1.301  0.0263  0.1541  0.1957
27735SOL    HW184818   8.242   2.882   1.327 -0.4735  1.3812  0.7113
27735SOL    HW284819   8.374   2.932   1.382  0.6187 -0.5106 -0.1035
27736SOL     OW84820   2.227   6.402   6.436 -0.1363  0.6430  0.1825
27736SOL    HW184821   2.215   6.440   6.523 -2.2896 -0.1986  0.2932
27736SOL    HW284822   2.215   6.308   6.449 -0.8748  0.5429 -1.0934
27737SOL     OW84823   3.633   1.346   6.893 -0.0411 -0.0480  0.1434
27737SOL    HW184824   3.632   1.437   6.923 -1.2299  0.3129 -0.8996
27737SOL    HW284825   3.691   1.347   6.817 -1.6525  0.3114 -1.1359
27738SOL     OW84826   2.233   5.570   8.113 -0.6896  0.0526  0.6105
27738SOL    HW184827   2.290   5.563   8.190  0.0321 -0.1359  0.0655
27738SOL    HW284828   2.157   5.619   8.145 -0.7652 -0.6952  1.6412
27739SOL     OW84829   0.443   2.043   2.896 -0.0698 -0.1867 -0.0373
27739SOL    HW184830   0.500   1.976   2.934 -0.7931  0.1239  1.6956
27739SOL    HW284831   0.385   1.994   2.838  0.9034 -0.7236 -0.5888
27740SOL     OW84832   5.054   7.733   6.742 -0.1349  0.0158 -0.2048
27740SOL    HW184833   5.147   7.731   6.765 -0.3111  1.0769  0.6914
27740SOL    HW284834   5.052   7.771   6.654  0.1494  2.8966  0.9223
27741SOL     OW84835   3.622   0.316   3.981  0.2994  0.4155 -0.1493
27741SOL    HW184836   3.635   0.339   3.889  0.8777 -0.0064 -0.1810
27741SOL    HW284837   3.593   0.397   4.023  0.0299  0.6094 -0.7030
27742SOL     OW84838   4.911   1.377   3.438  0.3133 -0.0651 -0.0344
27742SOL    HW184839   4.946   1.421   3.361 -0.2334 -1.7148 -1.2965
27742SOL    HW284840   4.865   1.445   3.486  0.9334  1.0680 -1.0103
27743SOL     OW84841   9.522   6.347   1.604 -0.2427 -0.0671  0.8082
27743SOL    HW184842   9.492   6.409   1.538  0.0357 -0.0297  0.7180
27743SOL    HW284843   9.481   6.377   1.685  0.1327  0.4128  0.8231
27744SOL     OW84844   5.239   9.428   2.797 -0.7178 -0.0419  0.6113
27744SOL    HW184845   5.299   9.480   2.850  0.0624  1.2346 -1.4050
27744SOL    HW284846   5.171   9.489   2.768 -0.1353 -0.2109 -1.2872
27745SOL     OW84847   3.645   2.176   2.075 -0.0299 -0.1948  0.3935
27745SOL    HW184848   3.552   2.151   2.073  0.0631 -0.5713 -1.7414
27745SOL    HW284849   3.646   2.259   2.123 -1.6015  0.2357 -0.2310
27746SOL     OW84850   1.082   3.934   2.394  0.6132 -0.4985 -0.2931
27746SOL    HW184851   1.173   3.904   2.392  1.2406  1.1143  1.1058
27746SOL    HW284852   1.082   4.004   2.459 -1.1284  1.1415 -1.9241
27747SOL     OW84853   7.965   4.917   5.485  0.3496  0.2055 -0.2176
27747SOL    HW184854   7.972   4.845   5.548  2.2718  0.3275 -0.2389
27747SOL    HW284855   8.023   4.892   5.413 -1.9320 -0.0154 -2.0998
27748SOL     OW84856   4.556   0.222   2.290  0.2873 -0.5176 -0.5045
27748SOL    HW184857   4.505   0.233   2.370  0.5680  0.5606 -0.4662
27748SOL    HW284858   4.499   0.255   2.220  0.7399  0.2512 -0.5198
27749SOL     OW84859   2.026   8.276   4.823  0.8766  0.1805  0.1416
27749SOL    HW184860   1.939   8.252   4.853  0.8265  0.0824 -0.0733
27749SOL    HW284861   2.057   8.198   4.776 -0.1692  1.2228 -2.5214
27750SOL     OW84862   6.229   6.201   3.197 -0.1597 -0.4792  0.0777
27750SOL    HW184863   6.194   6.127   3.148  0.4121 -0.7466  0.0620
27750SOL    HW284864   6.152   6.245   3.233 -0.4933 -1.2173  0.2812
27751SOL     OW84865   0.876   6.109   1.483 -0.7709 -0.2567 -0.0297
27751SOL    HW184866   0.787   6.089   1.453 -0.5403  0.5626 -1.3194
27751SOL    HW284867   0.906   6.179   1.426  0.3112  0.2586  1.1145
27752SOL     OW84868   2.445   0.162   6.626 -0.4135 -0.0071  0.7869
27752SOL    HW184869   2.367   0.193   6.578 -0.1086 -1.3055 -0.6363
27752SOL    HW284870   2.515   0.220   6.597 -0.4388 -0.1372  0.4635
27753SOL     OW84871   6.055   7.017   8.073 -0.0448 -0.0239  0.1090
27753SOL    HW184872   6.017   7.103   8.092  1.4522  0.7986 -0.4235
27753SOL    HW284873   6.077   6.982   8.159 -0.2481  0.3202  0.3075
27754SOL     OW84874   7.801   5.382   9.342 -0.6011  0.0642 -0.3795
27754SOL    HW184875   7.884   5.349   9.375 -0.5221 -0.4383 -1.0462
27754SOL    HW284876   7.734   5.330   9.387 -0.5096 -0.3700 -0.7477
27755SOL     OW84877   5.786   8.827   2.801 -0.0804 -0.6327 -0.0913
27755SOL    HW184878   5.772   8.899   2.741  0.0349 -1.6843 -1.4208
27755SOL    HW284879   5.865   8.851   2.850  0.1399 -0.0106 -0.7431
27756SOL     OW84880   9.256   0.816   1.263  0.6172  0.4531  0.0186
27756SOL    HW184881   9.169   0.828   1.227  0.9263  1.0851 -0.5591
27756SOL    HW284882   9.299   0.901   1.250  1.1258  0.3321  0.8152
27757SOL     OW84883   9.144   5.492   3.204  0.4131 -0.2158 -0.2517
27757SOL    HW184884   9.104   5.538   3.278 -0.6309 -0.5990 -0.5702
27757SOL    HW284885   9.217   5.548   3.178  0.7751 -0.0458  1.0319
27758SOL     OW84886   2.887   2.626   7.908 -0.2054 -0.0155  0.4073
27758SOL    HW184887   2.875   2.662   7.820  1.4018 -0.6139 -0.1091
27758SOL    HW284888   2.830   2.678   7.964 -0.3796  1.1593 -0.8106
27759SOL     OW84889   1.677   5.944   4.786  0.3503 -0.0793 -0.0028
27759SOL    HW184890   1.768   5.950   4.756  0.4107 -0.8446  0.0132
27759SOL    HW284891   1.632   5.894   4.717 -0.0749  0.3231 -0.0294
27760SOL     OW84892   9.080   9.563   7.300  0.0671 -0.1858  0.3722
27760SOL    HW184893   9.044   9.480   7.331  0.2288 -0.4603 -0.1574
27760SOL    HW284894   9.050   9.628   7.364 -2.0572 -0.2586 -0.4846
27761SOL     OW84895   7.666   4.027   8.704 -0.2235 -0.4010  0.4946
27761SOL    HW184896   7.646   3.944   8.661 -0.5556 -0.2106  0.2811
27761SOL    HW284897   7.682   4.003   8.796  0.7597 -0.8431  0.2188
27762SOL     OW84898   7.907   5.038   1.413 -0.1637 -0.1809 -0.3589
27762SOL    HW184899   7.818   5.005   1.400 -0.6978  1.9998 -3.1411
27762SOL    HW284900   7.959   4.992   1.347  0.5129 -0.4611  0.3565
27763SOL     OW84901   7.387   7.256   9.211  0.1142 -0.1230  0.5684
27763SOL    HW184902   7.386   7.319   9.139  0.1688 -0.3903  0.3316
27763SOL    HW284903   7.312   7.280   9.265  0.9261  1.0017  1.2329
27764SOL     OW84904   5.650   5.021   7.258 -0.1480 -1.0625 -0.0349
27764SOL    HW184905   5.685   4.977   7.180  1.4131 -0.2842  0.1762
27764SOL    HW284906   5.705   4.990   7.330 -0.4678 -0.4741  0.4782
27765SOL     OW84907   5.187   8.400   0.732  0.7315 -0.2982  0.3659
27765SOL    HW184908   5.192   8.370   0.641  1.8131 -0.7191  0.5541
27765SOL    HW284909   5.148   8.487   0.726  0.2905 -0.5415 -0.4506
27766SOL     OW84910   7.178   8.924   2.576 -0.6697 -0.0248  0.1704
27766SOL    HW184911   7.156   8.873   2.654  0.4675  0.3886  0.7717
27766SOL    HW284912   7.102   8.914   2.519 -1.4605 -0.4357  1.2735
27767SOL     OW84913   3.175   3.119   9.742  0.1975  0.3654  0.5998
27767SOL    HW184914   3.088   3.137   9.705 -0.1926 -0.8631  0.8959
27767SOL    HW284915   3.166   3.141   9.835  0.3576  0.7076  0.5380
27768SOL     OW84916   9.304   9.760   3.479 -0.1029  0.4293  0.0214
27768SOL    HW184917   9.220   9.745   3.436 -0.7532 -0.0694  1.4086
27768SOL    HW284918   9.358   9.802   3.412 -0.8482 -0.8968 -1.4757
27769SOL     OW84919   9.587   7.316   5.378 -0.0510 -1.0443  0.3942
27769SOL    HW184920   9.501   7.355   5.361  0.3398  0.5315  1.7443
27769SOL    HW284921   9.624   7.300   5.292 -1.4183 -1.1329 -0.2083
27770SOL     OW84922   9.469   4.638   9.594 -0.0516  0.1363  0.5302
27770SOL    HW184923   9.388   4.662   9.638 -0.4387 -0.0368 -0.0646
27770SOL    HW284924   9.442   4.624   9.503  0.7398  0.5942  0.2190
27771SOL     OW84925   2.255   9.626   7.336  0.0565  0.2086  0.9436
27771SOL    HW184926   2.283   9.611   7.246 -1.0781  2.2510  0.2014
27771SOL    HW284927   2.166   9.591   7.340  0.1854 -0.0833  1.3489
27772SOL     OW84928   6.995   9.489   5.935  0.0742 -0.2730 -0.3921
27772SOL    HW184929   6.979   9.574   5.976  1.6970  0.3454 -0.9880
27772SOL    HW284930   6.934   9.430   5.980 -1.2664  1.2257 -0.1438
27773SOL     OW84931   4.214   5.577   2.141  0.3403  0.2413 -0.5279
27773SOL    HW184932   4.231   5.590   2.234  1.0655  0.5937 -0.7037
27773SOL    HW284933   4.119   5.579   2.133  0.2903  0.5729  0.1528
27774SOL     OW84934   7.288   8.785   5.995 -0.0107 -0.0454  0.4706
27774SOL    HW184935   7.238   8.738   5.927  0.9230 -1.4209  0.6966
27774SOL    HW284936   7.242   8.869   6.004 -0.8225 -0.2774 -1.0596
27775SOL     OW84937   1.703   7.499   2.941  0.0405 -0.8282  0.0124
27775SOL    HW184938   1.616   7.527   2.972  0.0699 -1.5177  0.7372
27775SOL    HW284939   1.758   7.501   3.019  0.4535 -1.2888 -0.2618
27776SOL     OW84940   5.361   3.502   5.749  0.4274  0.4313  0.1105
27776SOL    HW184941   5.299   3.433   5.771 -1.0045  0.5964 -2.8585
27776SOL    HW284942   5.318   3.583   5.777 -0.0880  0.4285 -0.6300
27777SOL     OW84943   5.231   1.697   2.191  0.3626  0.3059  0.0941
27777SOL    HW184944   5.262   1.633   2.255  1.2030  0.9115  0.3081
27777SOL    HW284945   5.159   1.652   2.146  0.7335 -0.6726  0.4392
27778SOL     OW84946   1.727   1.203   9.793  0.4374  0.5036 -0.3838
27778SOL    HW184947   1.644   1.169   9.761  0.1637  1.0553 -0.2841
27778SOL    HW284948   1.762   1.133   9.848  0.3830 -0.0106 -0.9974
27779SOL     OW84949   7.075   1.288   6.390  0.1508  0.2721  0.2068
27779SOL    HW184950   7.064   1.349   6.317 -1.4282 -0.4228 -0.1843
27779SOL    HW284951   7.169   1.268   6.390  0.0835 -0.3962 -2.2443
27780SOL     OW84952   7.236   8.752   6.477 -0.0470 -0.2154  0.3057
27780SOL    HW184953   7.254   8.704   6.396 -0.3877  0.9355 -0.4668
27780SOL    HW284954   7.148   8.787   6.464 -0.0806  0.0254  1.1588
27781SOL     OW84955   1.129   2.706   6.799  0.2410  0.0752 -0.4096
27781SOL    HW184956   1.188   2.659   6.740 -0.0478  0.1649 -0.7724
27781SOL    HW284957   1.045   2.660   6.791  0.4189 -0.4645  0.6048
27782SOL     OW84958   2.165   4.825   4.212 -0.4377 -0.3105  0.1040
27782SOL    HW184959   2.168   4.798   4.120 -1.9996  0.8059 -0.3063
27782SOL    HW284960   2.161   4.742   4.260 -1.1720 -0.8974 -0.9194
27783SOL     OW84961   6.719   1.690   0.807  0.0720 -0.2936 -0.0599
27783SOL    HW184962   6.709   1.609   0.756 -1.3236 -0.4430  0.4167
27783SOL    HW284963   6.721   1.661   0.898 -0.1517  0.1777  0.1001
27784SOL     OW84964   8.371   2.193   4.275 -0.3453 -0.1807 -0.5502
27784SOL    HW184965   8.465   2.176   4.275 -0.3405 -0.2908 -2.2235
27784SOL    HW284966   8.354   2.239   4.193 -1.9451 -1.4068 -0.9666
27785SOL     OW84967   5.261   9.648   3.735 -0.1866 -1.0033  0.4598
27785SOL    HW184968   5.227   9.716   3.677 -0.5411 -0.6096  1.1132
27785SOL    HW284969   5.356   9.664   3.739 -0.3763  0.0044  1.2894
27786SOL     OW84970   3.387   2.970   2.862  0.7258  0.3290  0.4298
27786SOL    HW184971   3.412   2.976   2.769 -0.5710  2.6925  0.1637
27786SOL    HW284972   3.458   2.921   2.903  2.1828  0.7067 -1.5076
27787SOL     OW84973   6.071   2.134   0.252  0.0096  0.0031  0.4895
27787SOL    HW184974   6.071   2.224   0.283  1.2319 -0.1163  0.8787
27787SOL    HW284975   6.145   2.093   0.296 -0.0678 -0.9917 -0.2607
27788SOL     OW84976   6.966   9.462   5.291  0.1433  0.0472 -0.1206
27788SOL    HW184977   6.991   9.432   5.379 -0.8130  0.3579  0.2675
27788SOL    HW284978   7.025   9.415   5.232  0.0192 -1.0617  0.6054
27789SOL     OW84979   1.413   1.898   8.383  0.3373 -0.3903  0.1727
27789SOL    HW184980   1.323   1.930   8.382  0.2742 -0.5455 -1.1314
27789SOL    HW284981   1.405   1.802   8.377  0.5753 -0.3953 -0.1430
27790SOL     OW84982   8.600   4.489   0.947  0.2323 -0.3127  0.6295
27790SOL    HW184983   8.577   4.409   0.900 -1.6553  1.4045 -1.6150
27790SOL    HW284984   8.682   4.517   0.907 -0.1222 -0.1293  0.0111
27791SOL     OW84985   2.191   6.173   8.860 -0.2348 -0.0688  0.4672
27791SOL    HW184986   2.122   6.107   8.866  0.5903 -1.0469 -0.3477
27791SOL    HW284987   2.271   6.122   8.844  1.0771  0.8369  3.4726
27792SOL     OW84988   3.371   2.397   2.451  0.6089  0.6270  0.4587
27792SOL    HW184989   3.442   2.345   2.491  0.8621  2.7140  3.0258
27792SOL    HW284990   3.296   2.382   2.508 -1.0373 -1.2983 -2.0557
27793SOL     OW84991   2.087   0.200   8.936  0.5019  0.4603  0.4026
27793SOL    HW184992   2.047   0.136   8.877  0.3592  0.4498  0.5097
27793SOL    HW284993   2.020   0.268   8.946  0.7774  0.7918  0.0286
27794SOL     OW84994   5.446   3.471   2.054 -0.2923 -0.3234  0.3043
27794SOL    HW184995   5.453   3.534   2.125 -0.2007  1.6774 -1.3980
27794SOL    HW284996   5.481   3.389   2.091 -0.7777  0.4724  2.6892
27795SOL     OW84997   4.312   2.106   0.311 -0.4687 -0.3511  0.7540
27795SOL    HW184998   4.401   2.074   0.295 -1.0336 -1.2487 -0.7758
27795SOL    HW284999   4.306   2.187   0.260 -0.2255  0.2618  1.6727
27796SOL     OW85000   9.325   9.822   8.265  0.2225  0.1461 -0.9194
27796SOL    HW185001   9.317   9.770   8.346  1.0413  0.7422 -0.4384
27796SOL    HW285002   9.391   9.776   8.214  1.0876  0.8059 -0.4090
27797SOL     OW85003   4.897   2.012   7.763 -0.0271 -0.0604 -0.0376
27797SOL    HW185004   4.830   1.976   7.704 -0.2741  0.4625 -0.0852
27797SOL    HW285005   4.908   1.945   7.830 -1.1619  0.1577  0.3939
27798SOL     OW85006   2.205   4.193   5.860 -0.0970 -0.3607  0.1170
27798SOL    HW185007   2.284   4.140   5.863 -0.0720 -0.2835  0.9147
27798SOL    HW285008   2.158   4.171   5.940  0.1654  1.2073  0.7327
27799SOL     OW85009   3.966   0.676   2.254  0.3072  0.1255  0.1694
27799SOL    HW185010   3.938   0.703   2.167  1.4563  2.7513  0.5258
27799SOL    HW285011   3.899   0.709   2.313  0.0863 -0.6927  0.3936
27800SOL     OW85012   6.035   0.353   6.645  0.1508 -0.3152  0.4899
27800SOL    HW185013   6.035   0.447   6.661  1.8690 -0.1826 -0.1080
27800SOL    HW285014   6.113   0.321   6.689  0.4279 -1.2033 -0.6009
27801SOL     OW85015   7.751   5.212   2.853  0.6612 -0.3256 -0.4263
27801SOL    HW185016   7.820   5.167   2.805  1.8085  0.9524 -0.0356
27801SOL    HW285017   7.670   5.191   2.806  1.4538 -0.9986 -1.5047
27802SOL     OW85018   3.648   3.942   3.659  0.0043  0.8927 -0.4719
27802SOL    HW185019   3.596   3.882   3.606 -2.8867  4.3169 -1.9834
27802SOL    HW285020   3.734   3.944   3.617  0.3029 -2.1587 -0.1968
27803SOL     OW85021   6.766   6.679   5.138 -0.5227  0.5929  0.5988
27803SOL    HW185022   6.846   6.661   5.090 -2.1819  2.3108 -3.1833
27803SOL    HW285023   6.699   6.625   5.096 -2.4228  3.5385 -0.5062
27804SOL     OW85024   3.052   4.578   4.783 -0.5429 -0.4960  0.5075
27804SOL    HW185025   3.033   4.570   4.689 -0.7699 -0.7361  0.5701
27804SOL    HW285026   3.086   4.666   4.794 -1.7047 -0.0206  0.3924
27805SOL     OW85027   2.828   3.999   3.818 -0.3334 -0.3151 -0.0414
27805SOL    HW185028   2.839   3.936   3.747  0.4061  0.4639 -0.6339
27805SOL    HW285029   2.736   3.991   3.843 -0.3591 -1.3033 -0.4092
27806SOL     OW85030   5.982   6.630   3.941  0.2413  0.4490 -0.1899
27806SOL    HW185031   5.974   6.608   3.849  1.2015  1.4369 -0.5214
27806SOL    HW285032   5.911   6.692   3.957 -0.5483 -0.4778 -0.0010
27807SOL     OW85033   3.963   1.157   8.771 -0.2258 -0.0586 -0.4272
27807SOL    HW185034   3.897   1.097   8.737 -0.8097  0.6676 -0.6040
27807SOL    HW285035   3.995   1.115   8.850 -2.1808  0.3522  0.6588
27808SOL     OW85036   6.224   0.458   1.934 -0.0661 -0.1779 -0.0407
27808SOL    HW185037   6.155   0.449   1.868  0.5732 -0.1648 -0.7335
27808SOL    HW285038   6.297   0.497   1.886  0.3094  0.1249  0.7588
27809SOL     OW85039   9.394   5.210   8.112  0.0453 -0.3423 -0.2785
27809SOL    HW185040   9.318   5.156   8.134  0.7633 -1.1648  0.1801
27809SOL    HW285041   9.372   5.247   8.026 -1.1136 -0.1194  0.0886
27810SOL     OW85042   5.365   9.371   2.114 -0.0091 -0.6797  0.5412
27810SOL    HW185043   5.375   9.299   2.176 -1.7319 -0.6147  0.9522
27810SOL    HW285044   5.282   9.412   2.138 -0.2370 -0.0442 -1.1889
27811SOL     OW85045   2.265   7.021   1.266 -0.1898 -0.5767 -0.3432
27811SOL    HW185046   2.280   7.094   1.326  1.6097 -0.7603 -0.5348
27811SOL    HW285047   2.235   6.950   1.323 -2.5698  0.4053 -0.2248
27812SOL     OW85048   4.714   6.244   9.637  0.1347  0.7025  0.3154
27812SOL    HW185049   4.708   6.291   9.720  0.0384  1.3483 -0.0476
27812SOL    HW285050   4.743   6.156   9.661 -1.7474  0.2827  1.2093
27813SOL     OW85051   8.461   9.694   2.938  0.4074 -0.1894  0.4927
27813SOL    HW185052   8.379   9.725   2.976  0.9639  1.6428  0.2985
27813SOL    HW285053   8.511   9.662   3.013 -0.5842 -1.6635  0.5685
27814SOL     OW85054   9.281   3.635   3.846 -0.1020  0.3311  0.4210
27814SOL    HW185055   9.269   3.544   3.873 -1.2274  0.4823  0.4640
27814SOL    HW285056   9.198   3.659   3.803  0.0079  1.4757  0.8045
27815SOL     OW85057   4.756   1.496   0.220 -0.2557  0.0369 -0.4349
27815SOL    HW185058   4.695   1.423   0.221 -1.2443  0.8345 -0.7767
27815SOL    HW285059   4.747   1.533   0.132 -0.7157  1.3211  0.1288
27816SOL     OW85060   7.789   0.243   4.472  0.4543 -0.0296 -0.3722
27816SOL    HW185061   7.836   0.171   4.513 -1.7465 -1.1636  0.3436
27816SOL    HW285062   7.795   0.315   4.535  4.0824  1.1185 -1.8087
27817SOL     OW85063   2.712   0.240   3.838 -0.1969  0.4237  0.3509
27817SOL    HW185064   2.790   0.190   3.861  0.7959  1.6784 -0.1316
27817SOL    HW285065   2.666   0.253   3.921 -0.4358 -1.1643  0.4942
27818SOL     OW85066   6.243   3.533   7.845 -0.2078 -0.5234 -0.2347
27818SOL    HW185067   6.205   3.602   7.899 -1.2582 -1.0144 -0.3234
27818SOL    HW285068   6.327   3.513   7.888 -0.8053 -0.5795  0.9505
27819SOL     OW85069   3.660   8.380   4.863 -0.2420 -0.2970  0.0015
27819SOL    HW185070   3.727   8.445   4.843 -0.4525 -0.3191 -0.8034
27819SOL    HW285071   3.708   8.298   4.871 -0.2409 -0.4738 -1.4419
27820SOL     OW85072   4.990   4.497   0.066 -0.3176  0.1882 -0.2379
27820SOL    HW185073   4.930   4.562   0.100  1.6486  1.4335  1.1002
27820SOL    HW285074   5.062   4.547   0.028  0.4323 -1.2039 -0.7557
27821SOL     OW85075   3.597   1.401   3.740 -0.0929  0.4462 -0.3788
27821SOL    HW185076   3.556   1.460   3.677 -1.7577 -0.8353 -0.5973
27821SOL    HW285077   3.530   1.388   3.807  1.1067  0.6192  0.8802
27822SOL     OW85078   6.161   1.397   4.404 -0.0321 -0.7470 -0.1505
27822SOL    HW185079   6.245   1.350   4.399 -0.5229 -1.6163 -0.5633
27822SOL    HW285080   6.147   1.429   4.315 -1.2088 -2.5803 -0.6858
27823SOL     OW85081   9.535   4.477   4.168 -0.5428  0.1847 -0.0992
27823SOL    HW185082   9.452   4.436   4.144 -0.2825 -1.5875  1.8226
27823SOL    HW285083   9.510   4.562   4.204 -1.1716  1.3665 -2.9728
27824SOL     OW85084   9.312   5.430   5.541 -0.1454  0.2328 -0.5812
27824SOL    HW185085   9.375   5.381   5.594 -0.1615 -1.2394 -1.8364
27824SOL    HW285086   9.364   5.496   5.496  0.2041  0.1337 -0.3256
27825SOL     OW85087   3.452   4.836   0.821  0.5031 -0.7515 -0.0795
27825SOL    HW185088   3.444   4.859   0.913  0.5317  1.1836 -0.5212
27825SOL    HW285089   3.489   4.914   0.779 -0.5219 -1.1761 -1.9058
27826SOL     OW85090   8.246   8.407   4.855 -0.5182 -0.1162 -0.0252
27826SOL    HW185091   8.200   8.453   4.784  0.5644  1.2305  0.1155
27826SOL    HW285092   8.261   8.473   4.922  0.7739 -0.7367  0.3425
27827SOL     OW85093   1.396   0.404   5.225  0.2138 -0.0515 -0.1367
27827SOL    HW185094   1.483   0.391   5.186  0.1207 -0.4201 -0.2315
27827SOL    HW285095   1.390   0.335   5.292  0.5475  0.8456  0.8389
27828SOL     OW85096   0.758   5.085   6.016  0.2173  0.0206  0.0872
27828SOL    HW185097   0.759   4.989   6.012 -2.3526 -0.0329 -1.2260
27828SOL    HW285098   0.677   5.106   6.062  0.7728  1.5768  0.3967
27829SOL     OW85099   3.768   9.240   5.513  1.0145 -0.5435 -0.1862
27829SOL    HW185100   3.853   9.283   5.525  1.1576 -0.8943  0.0475
27829SOL    HW285101   3.721   9.258   5.594  0.8573 -0.3367 -0.3215
27830SOL     OW85102   3.593   4.822   6.597  0.4667  0.7517  0.2273
27830SOL    HW185103   3.687   4.806   6.589  1.4109  4.3973  1.8660
27830SOL    HW285104   3.571   4.873   6.519  0.4816  1.9037  0.9406
27831SOL     OW85105   5.802   4.539   0.879 -0.5833  0.3294 -0.3223
27831SOL    HW185106   5.725   4.580   0.839 -1.4881 -0.9387  0.0589
27831SOL    HW285107   5.772   4.452   0.905  1.2488 -0.5721 -1.0546
27832SOL     OW85108   0.617   0.907   1.235  0.0600  0.4995 -0.0805
27832SOL    HW185109   0.636   0.822   1.196  0.1162  1.2317 -1.7390
27832SOL    HW285110   0.633   0.970   1.164 -0.0339  1.8884  1.0863
27833SOL     OW85111   1.518   1.045   9.638  0.4110 -0.3669 -0.3711
27833SOL    HW185112   1.460   1.109   9.596  2.4403  0.7561 -1.6809
27833SOL    HW285113   1.459   0.986   9.685 -1.7973  0.3420 -2.0486
27834SOL     OW85114   0.611   9.149   6.656 -0.4879  0.4451 -0.1824
27834SOL    HW185115   0.623   9.242   6.637 -2.5235  1.3739  2.3857
27834SOL    HW285116   0.641   9.138   6.746 -2.3093 -0.8332  0.3399
27835SOL     OW85117   6.025   7.727   1.348  0.2022 -0.4301 -0.1986
27835SOL    HW185118   6.017   7.673   1.270 -1.6110 -0.6157  0.0710
27835SOL    HW285119   6.031   7.664   1.420 -1.0270 -0.2876  0.0422
27836SOL     OW85120   4.639   3.309   7.252 -0.0233 -0.7013 -0.3675
27836SOL    HW185121   4.662   3.352   7.334  2.2404  1.1154 -1.8253
27836SOL    HW285122   4.545   3.293   7.258 -0.0521  0.0201  2.2444
27837SOL     OW85123   6.462   5.318   1.016  0.0577 -0.3506 -0.1024
27837SOL    HW185124   6.523   5.392   1.023 -1.1787  0.5732  1.6938
27837SOL    HW285125   6.484   5.262   1.090  0.0891 -1.0861 -0.6632
27838SOL     OW85126   6.642   4.470   0.179 -0.1800  0.5582  0.0633
27838SOL    HW185127   6.657   4.381   0.213 -2.4618  0.4497  0.9616
27838SOL    HW285128   6.573   4.458   0.113 -0.0709  1.6043 -0.2496
27839SOL     OW85129   2.579   2.895   4.320 -0.2379 -0.2387  0.0341
27839SOL    HW185130   2.562   2.971   4.264 -2.7943 -1.2734 -0.7724
27839SOL    HW285131   2.547   2.921   4.406  0.1252  0.0355  0.0894
27840SOL     OW85132   5.402   1.485   0.805 -0.7418 -0.2994 -0.6320
27840SOL    HW185133   5.469   1.554   0.806 -1.2575  0.2081  0.3851
27840SOL    HW285134   5.397   1.455   0.895 -1.2228 -0.9914 -0.8797
27841SOL     OW85135   5.610   5.262   1.546  0.5013  0.4291  0.3655
27841SOL    HW185136   5.680   5.226   1.601  0.2144  1.4057  1.4171
27841SOL    HW285137   5.539   5.282   1.608 -0.8432 -0.7699 -0.6879
27842SOL     OW85138   6.539   1.569   2.950 -0.3309  0.2801  0.6956
27842SOL    HW185139   6.599   1.643   2.962 -2.0009  1.6799  0.8821
27842SOL    HW285140   6.465   1.606   2.903 -0.1900 -1.8856 -1.4196
27843SOL     OW85141   1.450   6.981   0.838  0.4170 -0.3520  0.1778
27843SOL    HW185142   1.472   6.912   0.900 -0.4070 -2.5941 -1.8545
27843SOL    HW285143   1.369   7.018   0.872 -0.2702 -1.8456  0.2608
27844SOL     OW85144   7.228   8.012   0.588  0.5998 -0.0651  0.4194
27844SOL    HW185145   7.217   7.920   0.613  0.2241  0.3710  1.9442
27844SOL    HW285146   7.309   8.014   0.537  0.8901 -1.1498  0.8147
27845SOL     OW85147   8.157   1.721   8.245 -0.0950  0.0583  0.3060
27845SOL    HW185148   8.204   1.801   8.220 -1.7902  0.7859 -0.7840
27845SOL    HW285149   8.212   1.650   8.215  0.2508  0.8821 -1.1177
27846SOL     OW85150   8.775   4.069   2.585 -0.0641 -0.0170  0.6676
27846SOL    HW185151   8.727   4.042   2.507 -0.0338 -1.7286  1.2165
27846SOL    HW285152   8.714   4.054   2.658  0.7191 -0.6514  1.2057
27847SOL     OW85153   4.707   0.149   3.084 -0.3328 -0.5510 -0.1349
27847SOL    HW185154   4.711   0.075   3.145 -1.1981 -0.1043  0.4902
27847SOL    HW285155   4.765   0.215   3.122  0.0136 -0.6958 -0.4051
27848SOL     OW85156   0.251   9.790   7.395 -0.2084 -0.8985 -0.5469
27848SOL    HW185157   0.171   9.748   7.363 -1.0080  0.9937 -1.1964
27848SOL    HW285158   0.258   9.870   7.342  1.5288 -0.4840  0.2474
27849SOL     OW85159   8.570   6.374   9.564 -0.0064 -0.1345  0.0110
27849SOL    HW185160   8.646   6.315   9.564  1.1400  1.2583 -1.3610
27849SOL    HW285161   8.496   6.318   9.542  1.0204 -1.1145 -1.0737
27850SOL     OW85162   2.349   6.402   9.640 -0.6269 -0.2480  0.1245
27850SOL    HW185163   2.311   6.315   9.633  0.9593 -1.0163  0.7354
27850SOL    HW285164   2.279   6.456   9.677 -1.0608 -1.6710  1.4704
27851SOL     OW85165   5.190   8.834   4.764  0.2681  0.3789 -0.3629
27851SOL    HW185166   5.170   8.900   4.830  1.3958  2.0010 -1.5337
27851SOL    HW285167   5.124   8.848   4.696  0.3745  0.1495 -0.5136
27852SOL     OW85168   1.333   8.796   0.325  0.3109  0.6695  0.3109
27852SOL    HW185169   1.378   8.874   0.293  0.0577 -0.0520 -2.0488
27852SOL    HW285170   1.388   8.723   0.295 -0.5664 -0.1110  0.5612
27853SOL     OW85171   7.885   9.631   3.000  0.4373 -0.5978 -0.5357
27853SOL    HW185172   7.942   9.707   3.008 -0.2132 -0.0259 -1.1422
27853SOL    HW285173   7.913   9.587   2.919  0.1674 -0.4275 -0.7274
27854SOL     OW85174   8.726   7.248   6.954  0.5514 -0.4966 -0.4538
27854SOL    HW185175   8.727   7.154   6.972  1.6668 -0.9941 -2.7603
27854SOL    HW285176   8.662   7.258   6.885  1.5545  0.1711 -1.3174
27855SOL     OW85177   7.248   2.127   1.509 -0.6854  0.4324  0.3875
27855SOL    HW185178   7.191   2.059   1.473  1.0437 -0.6441 -0.4494
27855SOL    HW285179   7.313   2.079   1.559  1.2951  1.3405 -1.1997
27856SOL     OW85180   6.374   7.375   1.769 -0.0935  0.0067 -0.3775
27856SOL    HW185181   6.398   7.301   1.826  0.8830  0.2006 -0.5167
27856SOL    HW285182   6.310   7.338   1.708  1.6399 -1.2284 -1.5591
27857SOL     OW85183   3.013   9.334   8.559  0.2848  0.0388 -0.6458
27857SOL    HW185184   3.047   9.316   8.647 -0.1309  0.5922 -0.3603
27857SOL    HW285185   2.918   9.340   8.571  0.3193  1.3982 -0.8859
27858SOL     OW85186   1.008   2.655   8.251 -0.5267  0.4881 -0.3856
27858SOL    HW185187   1.061   2.674   8.328  0.1860  2.2121 -1.2441
27858SOL    HW285188   0.918   2.661   8.281 -0.2690 -0.1161  0.5605
27859SOL     OW85189   0.900   7.670   3.355 -0.3117 -0.4554 -0.3260
27859SOL    HW185190   0.923   7.763   3.364 -0.0784 -0.5356 -0.1339
27859SOL    HW285191   0.946   7.642   3.276 -4.0688  0.8304 -3.3554
27860SOL     OW85192   9.253   4.741   4.381 -0.5191  0.0582  0.1371
27860SOL    HW185193   9.241   4.761   4.474 -1.3163 -1.0962  0.3025
27860SOL    HW285194   9.348   4.737   4.370 -0.4148  0.2929  0.8738
27861SOL     OW85195   8.000   0.416   1.633  0.1658 -0.4439  0.7459
27861SOL    HW185196   8.027   0.506   1.614 -4.0172  0.4636 -2.3779
27861SOL    HW285197   7.977   0.417   1.726  1.4685  1.2705  1.1105
27862SOL     OW85198   8.939   6.101   5.208 -0.2444 -0.2292 -0.3840
27862SOL    HW185199   8.998   6.170   5.177  0.0100  0.2945  1.1814
27862SOL    HW285200   8.991   6.021   5.204  1.2097  0.4387  2.4112
27863SOL     OW85201   7.468   7.152   7.401 -0.1991 -0.4709 -1.0245
27863SOL    HW185202   7.395   7.133   7.342 -1.1427  0.0824 -0.0669
27863SOL    HW285203   7.513   7.068   7.411 -0.6209 -0.7886 -1.7306
27864SOL     OW85204   5.821   8.220   1.848  0.5063 -0.1356  0.7018
27864SOL    HW185205   5.780   8.243   1.765  0.1215 -1.5680  0.4699
27864SOL    HW285206   5.914   8.235   1.833  0.5933 -1.5847 -0.4397
27865SOL     OW85207   9.489   3.568   2.190 -0.2196  0.3182  0.4585
27865SOL    HW185208   9.540   3.553   2.270 -0.9712 -0.4271  0.8249
27865SOL    HW285209   9.467   3.661   2.193  0.6447  0.5267  0.5733
27866SOL     OW85210   3.764   4.934   6.257  0.2484 -0.1654  0.0687
27866SOL    HW185211   3.687   4.900   6.302 -0.1309  1.5023  0.7398
27866SOL    HW285212   3.766   4.887   6.174 -1.1170 -0.7025  0.3213
27867SOL     OW85213   6.331   5.837   9.460 -0.3618 -1.0650 -0.7999
27867SOL    HW185214   6.398   5.820   9.393  0.1667 -0.3890 -0.4604
27867SOL    HW285215   6.310   5.750   9.495  1.5781 -1.1758  0.2479
27868SOL     OW85216   4.202   5.235   9.558  0.5152 -0.3803 -0.5275
27868SOL    HW185217   4.108   5.251   9.550  0.0479 -1.2438  2.1422
27868SOL    HW285218   4.234   5.308   9.612  1.3237 -0.3415 -1.0369
27869SOL     OW85219   6.091   2.516   8.181 -0.3073 -0.1499  0.3057
27869SOL    HW185220   6.094   2.569   8.261 -0.8750 -0.7452  0.7352
27869SOL    HW285221   6.171   2.540   8.133 -1.5071  2.5751 -0.5110
27870SOL     OW85222   6.116   5.973   8.786 -0.0814  0.3100  0.3525
27870SOL    HW185223   6.144   6.053   8.830 -1.1480  1.0063 -0.2021
27870SOL    HW285224   6.088   5.915   8.857  0.9270  0.3065  0.7745
27871SOL     OW85225   5.814   0.896   0.231  0.1482 -0.2803  0.2083
27871SOL    HW185226   5.766   0.815   0.249 -0.3526  0.1845  1.0086
27871SOL    HW285227   5.746   0.964   0.227  0.5481  0.0907 -0.6081
27872SOL     OW85228   8.191   2.561   5.567  0.2500  0.7896  0.0201
27872SOL    HW185229   8.221   2.564   5.658  1.4482  0.6479 -0.3486
27872SOL    HW285230   8.272   2.561   5.516 -0.3940  0.1559 -1.0278
27873SOL     OW85231   6.044   1.834   1.838  0.1630 -0.3077  0.5650
27873SOL    HW185232   6.010   1.750   1.805 -0.8016  1.0734 -2.3106
27873SOL    HW285233   6.138   1.830   1.820  0.0076 -0.5025 -0.2472
27874SOL     OW85234   5.924   9.155   6.907 -0.2370  0.3145  0.2438
27874SOL    HW185235   5.889   9.195   6.987 -2.1884  0.1218 -0.4618
27874SOL    HW285236   5.856   9.095   6.879  0.9228 -0.4938 -0.9467
27875SOL     OW85237   9.596   9.242   8.030  0.2606 -0.4618  0.0148
27875SOL    HW185238   9.531   9.292   8.080 -0.0189  0.7668 -1.5205
27875SOL    HW285239   9.675   9.294   8.034  1.6233 -2.4378  2.7504
27876SOL     OW85240   0.753   4.400   7.473  0.1844  0.5790  0.0488
27876SOL    HW185241   0.679   4.389   7.414 -0.3517 -2.1837  1.0913
27876SOL    HW285242   0.776   4.492   7.465 -2.6370  1.2908 -1.1436
27877SOL     OW85243   8.287   2.783   2.477  0.2892 -0.9869 -0.1977
27877SOL    HW185244   8.242   2.699   2.491  1.3781 -1.2899  1.7833
27877SOL    HW285245   8.380   2.761   2.477  0.5540  0.0510 -1.1465
27878SOL     OW85246   8.162   9.678   5.785 -0.0698  0.3658 -0.1727
27878SOL    HW185247   8.198   9.639   5.706  0.2087 -0.1636  0.2052
27878SOL    HW285248   8.108   9.751   5.754 -1.5464 -1.0205 -0.9741
27879SOL     OW85249   4.998   8.116   9.231 -0.7323 -0.0352 -0.3716
27879SOL    HW185250   5.025   8.206   9.247 -0.7779 -0.0562 -0.1774
27879SOL    HW285251   4.981   8.080   9.318  1.5618 -0.9644 -0.2610
27880SOL     OW85252   6.715   7.859   6.678  0.1066 -0.1784 -0.2051
27880SOL    HW185253   6.674   7.862   6.764  0.9047 -1.5590  0.2635
27880SOL    HW285254   6.809   7.869   6.695  0.4725 -2.1994 -0.6683
27881SOL     OW85255   3.652   7.337   6.511  0.4814 -0.7881  0.0881
27881SOL    HW185256   3.641   7.345   6.416 -0.5537  0.1909  0.2557
27881SOL    HW285257   3.611   7.254   6.534 -1.2754 -0.0085 -0.0814
27882SOL     OW85258   4.501   6.998   6.657  0.5234  0.2258  0.2063
27882SOL    HW185259   4.509   6.955   6.571 -0.3828  0.9844 -0.2778
27882SOL    HW285260   4.482   7.089   6.636 -1.8074  0.0380  1.1767
27883SOL     OW85261   2.042   3.039   9.263  0.0668  0.7369  0.0276
27883SOL    HW185262   2.101   2.978   9.307 -0.1817  0.4308 -0.0608
27883SOL    HW285263   2.053   3.122   9.310  0.2804  0.5798  0.2536
27884SOL     OW85264   1.848   7.378   3.490  0.0212  0.3874  0.3103
27884SOL    HW185265   1.854   7.461   3.537 -0.0063 -0.1227  1.2433
27884SOL    HW285266   1.929   7.332   3.513 -0.3591 -0.1931  0.5068
27885SOL     OW85267   5.768   8.449   9.394  0.0331  0.1424 -0.1318
27885SOL    HW185268   5.781   8.426   9.486  0.8690  1.3615  0.0724
27885SOL    HW285269   5.857   8.458   9.359 -0.2798  0.3552 -0.8871
27886SOL     OW85270   5.413   9.403   7.303 -0.2220  0.0647  0.5213
27886SOL    HW185271   5.430   9.310   7.293  0.8287  0.2933  0.0127
27886SOL    HW285272   5.337   9.408   7.362 -1.3093 -1.1352 -0.7152
27887SOL     OW85273   6.303   4.982   0.004  0.7583 -0.0187  0.6225
27887SOL    HW185274   6.344   5.048   0.060 -0.3112  2.1929 -1.0316
27887SOL    HW285275   6.218   4.965   0.045  0.4077  0.8148  0.2640
27888SOL     OW85276   8.782   0.224   9.477 -0.0543 -0.2485 -0.0518
27888SOL    HW185277   8.802   0.214   9.570 -2.1135  0.0443  0.4660
27888SOL    HW285278   8.687   0.234   9.474  0.1850  2.3175 -1.9458
27889SOL     OW85279   0.134   1.151   8.764  0.4739 -0.2812 -0.5154
27889SOL    HW185280   0.125   1.082   8.698 -0.6982 -1.2540  0.6169
27889SOL    HW285281   0.221   1.138   8.801  0.6706 -0.4755 -1.0367
27890SOL     OW85282   8.969   2.776   7.509 -0.5117  0.1416  0.0712
27890SOL    HW185283   8.874   2.764   7.511 -0.3031 -1.8125  0.9473
27890SOL    HW285284   9.000   2.702   7.456  0.4766  1.3694 -1.1403
27891SOL     OW85285   9.177   0.340   2.891  0.1858 -0.2401  0.2545
27891SOL    HW185286   9.239   0.394   2.842  2.4799 -1.3609  1.7631
27891SOL    HW285287   9.174   0.257   2.843  0.9973 -0.6847  0.9456
27892SOL     OW85288   8.412   3.220   8.827  0.7969 -0.0681 -0.1614
27892SOL    HW185289   8.439   3.181   8.744 -0.5056  0.7768 -1.0262
27892SOL    HW285290   8.334   3.170   8.852  1.8961 -1.1506  1.2388
27893SOL     OW85291   2.367   2.202   0.184  0.0730  0.2458 -0.3888
27893SOL    HW185292   2.424   2.265   0.228  0.5525 -1.1529  1.1076
27893SOL    HW285293   2.386   2.119   0.227  0.7011 -1.3125 -3.3807
27894SOL     OW85294   8.857   1.595   5.311 -0.2686 -0.8983 -0.0518
27894SOL    HW185295   8.786   1.612   5.249 -2.7503 -0.7057  2.6267
27894SOL    HW285296   8.902   1.518   5.276 -0.0589  0.5144 -3.1935
27895SOL     OW85297   7.606   1.155   6.840 -0.0749 -0.1091 -0.5393
27895SOL    HW185298   7.688   1.188   6.877 -0.2689 -1.3010  1.0716
27895SOL    HW285299   7.593   1.205   6.760  1.6207  0.9178 -0.2028
27896SOL     OW85300   7.599   1.946   0.034 -0.0422  0.4584  0.1585
27896SOL    HW185301   7.686   1.983   0.021  1.0046 -2.1017 -0.7148
27896SOL    HW285302   7.598   1.920   0.126 -0.2416  1.2734  0.3963
27897SOL     OW85303   1.696   1.784   6.120  0.7255 -0.0489  0.7441
27897SOL    HW185304   1.631   1.714   6.128  0.1367  0.3181 -0.5213
27897SOL    HW285305   1.704   1.820   6.209 -0.7547 -0.1631  0.9570
27898SOL     OW85306   6.489   8.017   2.449 -0.1423  0.1023  0.0403
27898SOL    HW185307   6.570   7.976   2.478 -0.8022 -2.9745 -1.9837
27898SOL    HW285308   6.425   7.992   2.515 -0.5475 -2.4634 -1.1857
27899SOL     OW85309   6.172   7.728   8.677  0.0448  0.1678 -0.3093
27899SOL    HW185310   6.211   7.815   8.679  1.4802 -0.4471 -0.2100
27899SOL    HW285311   6.245   7.668   8.690 -0.8335 -1.0888 -0.8854
27900SOL     OW85312   0.685   6.210   5.614  0.0054  0.0140  0.0840
27900SOL    HW185313   0.635   6.204   5.696 -1.8433  1.4004 -0.8530
27900SOL    HW285314   0.675   6.124   5.574 -2.3179  0.4197 -0.3708
27901SOL     OW85315   2.352   8.028   4.887 -0.8312 -0.9898 -0.6039
27901SOL    HW185316   2.427   7.974   4.862  0.9798  0.9087  0.3803
27901SOL    HW285317   2.304   7.975   4.950 -0.2800 -2.2160 -1.1759
27902SOL     OW85318   2.234   8.539   3.022  0.0964  0.1611  0.0032
27902SOL    HW185319   2.205   8.628   3.042 -2.4214 -0.0613 -2.0810
27902SOL    HW285320   2.173   8.482   3.070  0.2283 -0.4015 -0.4829
27903SOL     OW85321   7.480   5.861   2.554  0.2425  0.4386  0.6398
27903SOL    HW185322   7.455   5.769   2.565  0.4917  0.0537 -1.4596
27903SOL    HW285323   7.504   5.868   2.461 -0.4004  2.7889  0.5849
27904SOL     OW85324   1.565   1.856   7.083 -0.0859 -0.0077  0.1375
27904SOL    HW185325   1.489   1.912   7.068 -0.3505 -0.7918 -1.8235
27904SOL    HW285326   1.588   1.871   7.175 -1.8627  1.1440  0.4597
27905SOL     OW85327   2.223   7.799   0.447 -0.2445  0.3128 -0.2181
27905SOL    HW185328   2.261   7.711   0.444 -0.9521 -0.0249  0.4262
27905SOL    HW285329   2.129   7.785   0.438 -0.3256  1.0501 -0.6002
27906SOL     OW85330   9.642   3.484   0.886 -0.1682 -0.2072 -0.0710
27906SOL    HW185331   9.596   3.533   0.819  1.0728  0.4453 -0.4799
27906SOL    HW285332   9.692   3.550   0.934  2.0723 -1.0803 -1.0661
27907SOL     OW85333   6.391   1.579   1.643  0.6947 -0.0242  0.0328
27907SOL    HW185334   6.396   1.585   1.548  0.0513  1.2322  0.0626
27907SOL    HW285335   6.482   1.588   1.673  1.0230 -1.3960 -0.4859
27908SOL     OW85336   8.257   1.115   2.917  0.3914  0.2466 -0.5548
27908SOL    HW185337   8.258   1.119   2.821  0.0794 -0.1194 -0.5744
27908SOL    HW285338   8.288   1.026   2.937 -1.9435 -0.5998 -0.3944
27909SOL     OW85339   3.794   2.920   9.515  0.4936 -0.1314 -0.0042
27909SOL    HW185340   3.774   2.904   9.607 -0.4242  0.3645 -0.1147
27909SOL    HW285341   3.817   3.013   9.511  0.4188 -0.1246 -0.2968
27910SOL     OW85342   0.181   6.098   5.965 -0.3521  0.5564  0.0225
27910SOL    HW185343   0.214   6.180   6.001 -0.3468 -0.1426  1.7473
27910SOL    HW285344   0.122   6.064   6.033  0.6246 -1.4701 -0.0516
27911SOL     OW85345   1.021   0.187   6.025 -0.0163 -0.0017 -0.2661
27911SOL    HW185346   1.066   0.113   6.066 -0.6211 -0.3653 -0.2427
27911SOL    HW285347   0.963   0.220   6.094  2.4315  2.4705  0.7935
27912SOL     OW85348   4.846   1.447   8.861 -0.3185  0.1378 -0.0022
27912SOL    HW185349   4.878   1.418   8.946 -0.2419  0.7869  0.1961
27912SOL    HW285350   4.800   1.370   8.825 -1.5597  0.2608  1.2311
27913SOL     OW85351   4.334   2.857   8.279  0.1690  0.3730  0.3311
27913SOL    HW185352   4.356   2.921   8.347  0.6003 -0.0149  0.5628
27913SOL    HW285353   4.403   2.866   8.214 -1.4815  2.3978 -1.2676
27914SOL     OW85354   5.707   2.014   7.925  0.4572  0.4842  0.5769
27914SOL    HW185355   5.659   1.950   7.873  0.1031  0.6535  0.6962
27914SOL    HW285356   5.661   2.097   7.911  1.0381  0.7572  0.2549
27915SOL     OW85357   8.528   4.786   1.866  0.2161  0.2348 -0.5794
27915SOL    HW185358   8.496   4.744   1.946  0.9826 -1.9465 -1.3293
27915SOL    HW285359   8.450   4.800   1.814 -0.2375  1.2647  0.3427
27916SOL     OW85360   0.583   4.748   0.159 -0.2398  0.0920  0.6413
27916SOL    HW185361   0.514   4.682   0.164  0.0154 -0.1349  1.2067
27916SOL    HW285362   0.541   4.823   0.116 -0.5784 -0.3656  0.1585
27917SOL     OW85363   4.487   6.850   7.443 -0.7043  0.4732 -0.8723
27917SOL    HW185364   4.411   6.812   7.398 -1.4938  0.9531  0.0129
27917SOL    HW285365   4.550   6.778   7.448 -0.8953  0.1956 -2.0360
27918SOL     OW85366   0.993   9.733   3.238 -0.1923 -0.2524  0.7735
27918SOL    HW185367   0.922   9.672   3.219  0.0393 -0.1643 -0.4096
27918SOL    HW285368   0.965   9.777   3.318 -0.6758 -1.4211  1.2728
27919SOL     OW85369   6.829   4.339   9.230 -0.1873  0.3494  0.1644
27919SOL    HW185370   6.882   4.311   9.155 -0.5910 -0.3832  0.1385
27919SOL    HW285371   6.763   4.270   9.239  0.4922 -0.1173  1.8570
27920SOL     OW85372   3.751   5.657   0.822  0.1528  0.3927 -0.6709
27920SOL    HW185373   3.831   5.710   0.813  0.5005 -0.0834 -0.4081
27920SOL    HW285374   3.689   5.715   0.866  0.4418  0.6732 -0.6291
27921SOL     OW85375   8.670   4.682   8.421 -0.1333  0.2828 -0.2967
27921SOL    HW185376   8.627   4.616   8.366 -1.5994  0.3293  0.7468
27921SOL    HW285377   8.690   4.754   8.361 -1.0876  0.0538 -0.9093
27922SOL     OW85378   2.116   0.950   3.143  0.0056 -0.2224 -0.0596
27922SOL    HW185379   2.083   1.040   3.137  0.1930 -0.2249 -1.8777
27922SOL    HW285380   2.211   0.959   3.141  0.0574 -0.4123  1.0981
27923SOL     OW85381   8.699   6.786   5.981  0.4079 -0.0217  0.4484
27923SOL    HW185382   8.713   6.743   6.066  0.9124 -0.5492  0.1036
27923SOL    HW285383   8.709   6.880   6.000 -0.5802 -0.0448  1.1811
27924SOL     OW85384   5.436   6.740   0.459 -0.1230 -0.1175  0.2869
27924SOL    HW185385   5.440   6.767   0.368  0.6923 -2.2194 -0.3577
27924SOL    HW285386   5.384   6.659   0.458  0.5456 -0.5954  1.5611
27925SOL     OW85387   4.086   2.572   0.445 -0.2076  0.4529  0.1774
27925SOL    HW185388   4.002   2.556   0.487  0.2266  0.5557  1.1096
27925SOL    HW285389   4.147   2.586   0.517  0.6208  0.3421 -0.4802
27926SOL     OW85390   9.661   9.193   3.063  0.0948 -0.7792  0.2211
27926SOL    HW185391   9.616   9.119   3.104 -0.4233 -0.1759  0.7506
27926SOL    HW285392   9.601   9.267   3.073  0.7266 -0.2169 -0.0533
27927SOL     OW85393   0.176   2.132   9.324 -0.2266  0.0755 -0.2524
27927SOL    HW185394   0.163   2.061   9.261 -2.4509  1.2330 -1.2013
27927SOL    HW285395   0.172   2.212   9.272  2.7967  0.9846  0.7045
27928SOL     OW85396   4.504   1.752   0.444 -0.6340 -0.0359  0.4215
27928SOL    HW185397   4.574   1.687   0.445  0.3292  0.9655  0.3676
27928SOL    HW285398   4.461   1.740   0.359  1.3299  1.2031 -0.8185
27929SOL     OW85399   6.927   1.216   5.464 -0.5655 -0.1209 -0.3404
27929SOL    HW185400   6.937   1.144   5.402  0.5063 -1.1300  0.9595
27929SOL    HW285401   6.913   1.293   5.408  0.3587 -0.9739 -1.8320
27930SOL     OW85402   7.840   6.768   3.408  0.6708 -0.8469  0.3487
27930SOL    HW185403   7.782   6.813   3.347 -1.6910 -0.7907  2.4630
27930SOL    HW285404   7.830   6.675   3.387 -1.1533 -0.9358  1.3494
27931SOL     OW85405   3.445   6.043   3.244  0.4575  0.4586 -0.2346
27931SOL    HW185406   3.514   6.015   3.304 -1.3088  0.6036  1.9586
27931SOL    HW285407   3.468   6.134   3.223  1.4681  0.1852 -0.3727
27932SOL     OW85408   6.425   3.649   1.734 -0.6687 -0.1193  0.1849
27932SOL    HW185409   6.351   3.644   1.673 -0.8730 -1.1650  0.5064
27932SOL    HW285410   6.395   3.602   1.812 -0.8233  2.0772  1.5357
27933SOL     OW85411   1.598   0.036   3.268  0.3024  0.0137  0.2443
27933SOL    HW185412   1.585  -0.044   3.217  0.0883  0.1191  0.1320
27933SOL    HW285413   1.692   0.039   3.285  0.1120 -1.0687  1.6064
27934SOL     OW85414   6.937   6.356   8.758 -0.2286  0.1162  0.1602
27934SOL    HW185415   6.976   6.271   8.780 -0.0611 -0.1273 -1.0182
27934SOL    HW285416   6.927   6.354   8.663 -0.1502  1.4609  0.1083
27935SOL     OW85417   5.928   9.663   5.244  0.3911  0.0046 -0.2772
27935SOL    HW185418   5.854   9.723   5.236 -0.4655 -1.1036 -0.9182
27935SOL    HW285419   6.005   9.719   5.231 -0.1366  1.6049  2.5468
27936SOL     OW85420   4.676   5.112   1.697  0.0693  0.3915 -0.1750
27936SOL    HW185421   4.660   5.018   1.688 -0.0392  0.4797 -0.9724
27936SOL    HW285422   4.743   5.132   1.632 -1.6601  1.3044 -1.7640
27937SOL     OW85423   8.686   6.929   8.627 -0.1783 -0.3004  0.5955
27937SOL    HW185424   8.687   6.846   8.579 -0.7951  0.1157 -0.1580
27937SOL    HW285425   8.778   6.944   8.650  0.2417 -0.2218 -0.9859
27938SOL     OW85426   7.642   7.769   7.867 -0.2248 -0.2519  0.1541
27938SOL    HW185427   7.690   7.702   7.915  1.4966  0.3188 -0.6577
27938SOL    HW285428   7.592   7.721   7.801 -0.3399 -0.8327  0.6614
27939SOL     OW85429   1.401   9.506   0.258 -0.3472 -0.3611  0.3471
27939SOL    HW185430   1.480   9.470   0.298  0.0658  0.3406  0.1774
27939SOL    HW285431   1.348   9.430   0.236  0.0683 -0.8141  0.9089
27940SOL     OW85432   4.690   4.142   3.912 -0.3521 -0.4179 -0.0041
27940SOL    HW185433   4.728   4.152   3.999 -2.0790  1.6605  0.5883
27940SOL    HW285434   4.756   4.175   3.852  0.9990 -2.1975  0.4128
27941SOL     OW85435   7.459   4.331   4.275  0.0149 -0.1842  0.6313
27941SOL    HW185436   7.511   4.375   4.343 -0.5715  0.0389  0.9428
27941SOL    HW285437   7.493   4.242   4.273  1.7717  0.4424 -0.5621
27942SOL     OW85438   7.799   6.387   7.315 -0.4249  0.4612 -0.2009
27942SOL    HW185439   7.725   6.436   7.278 -0.9578  0.9054  1.3488
27942SOL    HW285440   7.814   6.316   7.253 -1.4628  0.9746 -1.0906
27943SOL     OW85441   5.996   7.064   6.080 -0.1758  0.7213  0.4369
27943SOL    HW185442   5.952   6.979   6.078 -1.7752  1.4540 -2.9601
27943SOL    HW285443   5.927   7.126   6.104  0.2905  1.3275  0.2337
27944SOL     OW85444   7.427   7.132   0.631 -0.2010 -0.1647  0.5024
27944SOL    HW185445   7.521   7.115   0.623  0.0028  0.7874  0.7562
27944SOL    HW285446   7.386   7.045   0.623  0.6258 -0.4783 -0.5482
27945SOL     OW85447   5.497   8.603   6.494 -0.1780  0.6178 -0.1073
27945SOL    HW185448   5.530   8.534   6.436  1.7021  3.0576 -2.1291
27945SOL    HW285449   5.402   8.586   6.498  0.0513 -1.3719 -1.4856
27946SOL     OW85450   4.742   8.107   8.145  0.0840  0.4009  0.3522
27946SOL    HW185451   4.818   8.053   8.163 -1.4348 -1.6927  0.9465
27946SOL    HW285452   4.707   8.073   8.062 -1.1592  0.1267  0.9653
27947SOL     OW85453   8.475   8.508   2.644 -0.5542  0.2667 -0.0133
27947SOL    HW185454   8.433   8.582   2.688 -1.3416 -0.8367  1.1626
27947SOL    HW285455   8.402   8.463   2.600 -0.0319  0.3703 -1.0109
27948SOL     OW85456   7.324   8.213   9.208 -0.4489 -0.0333 -0.1870
27948SOL    HW185457   7.403   8.265   9.223 -0.0333 -0.3497 -1.1762
27948SOL    HW285458   7.353   8.140   9.154 -1.2261 -0.7300  0.3142
27949SOL     OW85459   3.416   8.097   5.276 -0.1012  0.0192 -0.0090
27949SOL    HW185460   3.336   8.149   5.280  0.1156  0.3051  1.1932
27949SOL    HW285461   3.390   8.015   5.233 -0.5995  0.8261 -1.2824
27950SOL     OW85462   5.433   4.857   9.022  0.1239 -0.4303  0.6505
27950SOL    HW185463   5.456   4.793   8.954 -1.1751  0.1181 -0.3478
27950SOL    HW285464   5.516   4.877   9.066  0.8118 -1.5856 -0.0802
27951SOL     OW85465   7.323   6.513   9.026 -0.2230  0.0776 -0.6056
27951SOL    HW185466   7.385   6.484   8.959  0.4681 -0.2500  0.1470
27951SOL    HW285467   7.241   6.468   9.005 -0.5655  1.4016 -2.2930
27952SOL     OW85468   3.157   5.704   7.276  0.2089  0.2513 -0.5016
27952SOL    HW185469   3.099   5.634   7.245 -1.9593  2.1180 -0.9798
27952SOL    HW285470   3.163   5.764   7.202  0.7371  1.3172  0.3785
27953SOL     OW85471   4.711   1.633   0.851 -0.4976 -0.6294 -0.3341
27953SOL    HW185472   4.750   1.545   0.848 -1.2374 -0.9355 -1.3176
27953SOL    HW285473   4.749   1.678   0.776  1.2341  0.5169  1.1277
27954SOL     OW85474   1.859   9.775   4.744  0.6481 -0.3246  0.1593
27954SOL    HW185475   1.795   9.735   4.685  0.9801 -0.6014 -0.0204
27954SOL    HW285476   1.896   9.848   4.694  0.1669  0.1106  0.4237
27955SOL     OW85477   7.765   7.883   8.718  0.2315 -0.2706  0.1471
27955SOL    HW185478   7.842   7.900   8.771 -0.1304 -1.6524  1.1711
27955SOL    HW285479   7.751   7.789   8.726 -0.5563 -0.3161 -1.4274
27956SOL     OW85480   1.056   7.149   2.193  0.1050 -0.0067 -0.9707
27956SOL    HW185481   1.072   7.084   2.125  2.3505  0.7008 -1.1834
27956SOL    HW285482   1.137   7.153   2.243 -0.7392  1.0662  0.4217
27957SOL     OW85483   0.435   7.340   4.285  0.2125  0.0751 -0.7269
27957SOL    HW185484   0.460   7.405   4.350  0.4489 -0.4740 -0.2562
27957SOL    HW285485   0.384   7.388   4.221 -0.8147  0.4629  0.3464
27958SOL     OW85486   6.265   4.987   6.381  0.1397  0.3651  0.1376
27958SOL    HW185487   6.217   5.047   6.324  1.2625  1.2073  0.0571
27958SOL    HW285488   6.304   4.924   6.321  0.2117  0.4495  0.0961
27959SOL     OW85489   6.808   2.392   4.591 -0.0156 -0.2520  0.3054
27959SOL    HW185490   6.770   2.397   4.679  0.4343 -1.2036  0.5590
27959SOL    HW285491   6.901   2.375   4.605 -0.0804 -1.2173 -0.3682
27960SOL     OW85492   1.257   6.548   8.017  0.1363  0.3098 -0.7463
27960SOL    HW185493   1.249   6.626   7.962 -0.1057 -0.0638 -1.2581
27960SOL    HW285494   1.349   6.522   8.008  0.4282  1.0205  0.1103
27961SOL     OW85495   7.150   3.310   6.071  0.2814  0.0374 -0.0081
27961SOL    HW185496   7.090   3.279   6.139  0.7262  0.7474  0.7297
27961SOL    HW285497   7.141   3.246   6.001  1.1979 -1.8281  1.4643
27962SOL     OW85498   8.001   3.483   5.468 -0.0334 -0.7557 -0.2193
27962SOL    HW185499   7.998   3.392   5.437 -0.1644  0.2620 -3.6013
27962SOL    HW285500   8.095   3.504   5.471 -0.0360 -0.5982 -0.9389
27963SOL     OW85501   8.119   2.962   9.145 -0.4066 -0.1127  0.0826
27963SOL    HW185502   8.031   2.973   9.109 -0.5958 -2.8671 -0.5491
27963SOL    HW285503   8.106   2.949   9.239 -0.2672  2.9720  0.6408
27964SOL     OW85504   4.764   8.340   9.616  0.0891 -0.3267 -0.2644
27964SOL    HW185505   4.691   8.281   9.597  2.0154 -2.6166 -1.1718
27964SOL    HW285506   4.723   8.424   9.638 -2.8083 -1.8172  0.5329
27965SOL     OW85507   7.531   3.334   7.503  0.3079 -0.5420 -0.5237
27965SOL    HW185508   7.559   3.374   7.421 -2.5814  1.4190 -0.6768
27965SOL    HW285509   7.470   3.265   7.476  0.9316 -1.2890 -0.0607
27966SOL     OW85510   7.881   8.593   3.089  0.7092 -0.3623  0.0921
27966SOL    HW185511   7.922   8.571   3.173  1.2330  2.8249  0.7907
27966SOL    HW285512   7.882   8.688   3.086  1.7597 -0.3188 -4.0948
27967SOL     OW85513   4.593   6.607   2.831  0.0365 -0.3904 -0.3083
27967SOL    HW185514   4.544   6.676   2.875  0.6705 -0.7986  1.1144
27967SOL    HW285515   4.541   6.528   2.846 -0.8677 -0.2208 -2.2276
27968SOL     OW85516   8.809   7.444   7.341  0.0277 -0.6917 -0.5722
27968SOL    HW185517   8.787   7.358   7.377  0.6000 -0.3864  0.5650
27968SOL    HW285518   8.817   7.430   7.247 -1.9712 -1.4431 -0.6710
27969SOL     OW85519   1.631   2.927   8.578 -0.3408 -0.5921  0.3999
27969SOL    HW185520   1.663   2.872   8.506  0.4040 -0.8201  0.8868
27969SOL    HW285521   1.544   2.955   8.550 -0.1660 -0.8782 -0.4789
27970SOL     OW85522   1.290   7.975   3.441 -0.5360  0.1910  0.5661
27970SOL    HW185523   1.384   7.964   3.433 -0.5757 -0.1361  0.5493
27970SOL    HW285524   1.256   7.887   3.460 -0.8259  0.3213  0.6642
27971SOL     OW85525   1.001   5.025   8.571  0.9035  0.6848  0.1982
27971SOL    HW185526   0.977   4.936   8.545  1.9142  0.2762  0.5818
27971SOL    HW285527   0.933   5.081   8.534 -1.0241 -0.4412  1.8036
27972SOL     OW85528   7.921   4.635   6.393  0.3943  0.0653  0.7344
27972SOL    HW185529   7.859   4.669   6.457  0.8464  0.7359  0.8207
27972SOL    HW285530   7.878   4.557   6.358  0.1305 -0.2952  1.8256
27973SOL     OW85531   1.844   1.264   5.709  0.7644 -0.2260  0.4392
27973SOL    HW185532   1.825   1.213   5.630 -2.6197  0.9892  0.2808
27973SOL    HW285533   1.812   1.352   5.689  0.4684  0.2960  2.8837
27974SOL     OW85534   2.817   1.115   6.259 -0.1734  0.0084 -0.1995
27974SOL    HW185535   2.774   1.195   6.289 -0.6233 -0.7911  1.3686
27974SOL    HW285536   2.910   1.130   6.276 -0.3157 -0.0252  0.6309
27975SOL     OW85537   9.290   0.778   2.702 -0.7951 -0.5815 -0.2607
27975SOL    HW185538   9.318   0.861   2.740 -1.1905 -0.0882 -1.0384
27975SOL    HW285539   9.195   0.780   2.707 -0.9193 -0.0484 -2.1995
27976SOL     OW85540   3.841   5.900   0.663  0.2267  0.0838  0.0754
27976SOL    HW185541   3.756   5.919   0.703 -2.1605 -2.1425 -3.4015
27976SOL    HW285542   3.851   5.968   0.597  1.4978  0.6585  0.8356
27977SOL     OW85543   2.457   2.515   4.876  0.1245  0.1960  0.1712
27977SOL    HW185544   2.460   2.480   4.966 -0.5347 -0.3463 -0.0098
27977SOL    HW285545   2.526   2.467   4.830  0.6964  0.7196  0.4636
27978SOL     OW85546   9.415   3.840   9.205  0.2957 -0.4741 -0.0142
27978SOL    HW185547   9.342   3.798   9.250  0.8070  0.1902  1.5501
27978SOL    HW285548   9.492   3.814   9.256  0.9211  0.2275 -0.5818
27979SOL     OW85549   3.454   3.618   1.417 -0.0806  0.0701 -0.7018
27979SOL    HW185550   3.509   3.681   1.464 -0.4175 -0.1536  0.0031
27979SOL    HW285551   3.476   3.632   1.324  0.0315  1.0478 -0.5416
27980SOL     OW85552   5.439   5.233   2.516  0.2104  0.3192 -0.2886
27980SOL    HW185553   5.379   5.159   2.531 -0.5041  0.7330 -0.9862
27980SOL    HW285554   5.414   5.266   2.429  3.4188 -1.3073 -2.0052
27981SOL     OW85555   8.973   8.086   1.961 -0.4077 -0.4950 -0.0941
27981SOL    HW185556   8.931   8.130   1.886  2.4664 -0.2683 -1.7117
27981SOL    HW285557   8.902   8.035   2.001 -2.5917  1.1889 -1.5364
27982SOL     OW85558   3.729   0.609   2.455 -0.3734 -0.6022 -0.2843
27982SOL    HW185559   3.641   0.578   2.474 -1.2737  0.2034 -2.7126
27982SOL    HW285560   3.719   0.704   2.444  0.6267 -0.5860 -1.2432
27983SOL     OW85561   7.727   6.462   8.980 -0.0373  0.5617  0.1337
27983SOL    HW185562   7.818   6.486   9.003 -0.1444  0.5934  0.5435
27983SOL    HW285563   7.731   6.368   8.965  0.1244  0.6136 -0.1491
27984SOL     OW85564   3.132   2.487   3.863 -0.0972  1.0205  0.1990
27984SOL    HW185565   3.173   2.422   3.920  0.8494 -0.4590 -2.0795
27984SOL    HW285566   3.132   2.567   3.916  0.8472 -0.2247  2.2164
27985SOL     OW85567   6.109   3.997   3.146 -0.1450  0.3377  0.3794
27985SOL    HW185568   6.072   3.910   3.157  0.9760 -0.4002 -1.2308
27985SOL    HW285569   6.054   4.039   3.080  0.5518  0.0546 -0.3936
27986SOL     OW85570   6.503   9.323   5.226 -0.0751 -0.5027 -0.2713
27986SOL    HW185571   6.441   9.353   5.293 -1.1796 -0.3848 -1.3040
27986SOL    HW285572   6.589   9.331   5.267 -0.4953  2.0269  0.2541
27987SOL     OW85573   2.146   7.666   3.533 -0.3945  0.6427 -0.0807
27987SOL    HW185574   2.182   7.634   3.450 -1.8232 -1.6079  0.0697
27987SOL    HW285575   2.204   7.630   3.600 -1.0694 -0.3391  0.0063
27988SOL     OW85576   6.083   5.096   5.383  0.9640  0.1427 -0.0677
27988SOL    HW185577   6.175   5.124   5.384  1.1863 -0.5604 -0.2840
27988SOL    HW285578   6.083   5.016   5.330 -0.1765  1.4917 -2.2287
27989SOL     OW85579   8.247   2.324   5.243 -0.0096  0.6461  0.5871
27989SOL    HW185580   8.303   2.276   5.182 -1.8748 -3.1386  1.5467
27989SOL    HW285581   8.303   2.340   5.319  0.5648 -0.6472  0.4686
27990SOL     OW85582   4.546   3.606   2.668 -0.5965 -0.2222  0.3170
27990SOL    HW185583   4.487   3.587   2.741  0.5242  1.2555  1.6969
27990SOL    HW285584   4.498   3.670   2.615 -0.3888  0.7678  1.2817
27991SOL     OW85585   6.287   8.954   7.434 -0.1443 -0.2177  0.2052
27991SOL    HW185586   6.372   8.913   7.452 -0.5308 -0.9102  0.5003
27991SOL    HW285587   6.272   9.012   7.509  0.3660  0.4003 -0.1701
27992SOL     OW85588   0.917   6.762   8.507  0.1480 -0.0345 -0.3014
27992SOL    HW185589   0.916   6.828   8.438  1.5276 -0.1065 -0.4265
27992SOL    HW285590   0.891   6.809   8.586  1.6979  0.8257 -0.2740
27993SOL     OW85591   9.776   6.753   8.272 -0.1961  0.0085 -0.5540
27993SOL    HW185592   9.687   6.719   8.270  0.0700 -0.7153 -0.6237
27993SOL    HW285593   9.788   6.794   8.186 -0.2037 -0.6002 -0.8552
27994SOL     OW85594   5.825   8.624   6.670 -0.0981 -0.1135 -0.2962
27994SOL    HW185595   5.775   8.697   6.634  1.1201  0.2760 -1.2842
27994SOL    HW285596   5.851   8.573   6.593  1.5551  0.0641  0.0957
27995SOL     OW85597   2.628   2.599   7.319  0.1366  0.5380 -0.5144
27995SOL    HW185598   2.631   2.678   7.265 -1.7328  0.9103 -0.1348
27995SOL    HW285599   2.555   2.613   7.378  0.1425 -1.2341 -0.0297
27996SOL     OW85600   7.091   1.699   8.062  0.3785  0.1110  0.2340
27996SOL    HW185601   7.156   1.739   8.004 -0.5632 -0.4556 -1.2700
27996SOL    HW285602   7.054   1.627   8.011 -1.4696  0.4543  1.0176
27997SOL     OW85603   5.648   2.056   0.530  0.2893 -0.1740 -0.1875
27997SOL    HW185604   5.602   2.061   0.614  2.9285 -0.1042  1.3549
27997SOL    HW285605   5.718   2.122   0.537 -1.0253  1.8527 -3.5853
27998SOL     OW85606   2.711   5.153   1.562  0.2461 -0.1860 -0.3916
27998SOL    HW185607   2.642   5.135   1.498  0.6362  0.4399 -1.0045
27998SOL    HW285608   2.687   5.100   1.638 -1.3193  0.5892 -0.3010
27999SOL     OW85609   5.790   6.710   3.431 -0.2242  0.0042 -0.0511
27999SOL    HW185610   5.862   6.773   3.434 -0.0609 -0.1324 -0.8263
27999SOL    HW285611   5.831   6.625   3.448 -0.2587 -0.0314 -0.1462
28000SOL     OW85612   7.326   5.556   3.318 -0.3020 -0.1431  0.1862
28000SOL    HW185613   7.249   5.499   3.322 -0.2592 -0.3964 -1.6325
28000SOL    HW285614   7.305   5.620   3.249  0.7778  0.2997  0.2506
28001SOL     OW85615   6.777   8.649   3.909  0.2983 -0.1296  0.4635
28001SOL    HW185616   6.711   8.646   3.839 -0.5476 -0.6262  1.2633
28001SOL    HW285617   6.727   8.643   3.990  1.1324  2.1183  1.2063
28002SOL     OW85618   6.181   1.439   0.376 -0.2236  0.0782  0.0136
28002SOL    HW185619   6.250   1.379   0.404 -1.0641 -0.5076  0.8597
28002SOL    HW285620   6.207   1.524   0.413  0.3585 -0.0000 -0.2036
28003SOL     OW85621   1.441   1.554   2.943 -0.0295 -0.4612 -0.5231
28003SOL    HW185622   1.511   1.503   2.985  0.7012  0.7876 -0.1858
28003SOL    HW285623   1.420   1.504   2.864 -0.5906 -2.2225  0.6562
28004SOL     OW85624   7.414   2.233   1.800 -0.1532 -0.5365 -0.3076
28004SOL    HW185625   7.324   2.241   1.769 -0.7202  0.1485  1.3993
28004SOL    HW285626   7.462   2.302   1.754 -0.3456 -1.2373 -1.6237
28005SOL     OW85627   3.373   2.087   7.799  1.3931  0.0287 -0.4819
28005SOL    HW185628   3.382   1.992   7.789 -0.1931 -0.1277 -0.6972
28005SOL    HW285629   3.304   2.097   7.865  1.1418  1.0371 -0.8858
28006SOL     OW85630   1.425   8.543   7.209 -0.4370  0.0084 -0.1869
28006SOL    HW185631   1.409   8.636   7.222  1.1779  0.2313  0.4884
28006SOL    HW285632   1.435   8.533   7.114  0.7306  0.7949 -0.1649
28007SOL     OW85633   3.767   3.629   7.018 -1.0231 -0.2106  0.4599
28007SOL    HW185634   3.774   3.676   7.101  2.6767  0.1851  0.1054
28007SOL    HW285635   3.715   3.687   6.962 -1.1815  0.8610  1.6661
28008SOL     OW85636   7.573   4.676   4.764 -0.4602 -0.0345  0.5026
28008SOL    HW185637   7.607   4.615   4.698 -3.6616 -0.6094 -0.8383
28008SOL    HW285638   7.566   4.624   4.844  2.0496  0.2381  0.9577
28009SOL     OW85639   3.679   6.650   5.468 -0.1994  0.3379 -0.2503
28009SOL    HW185640   3.714   6.631   5.381  0.6904  0.7019  0.0158
28009SOL    HW285641   3.691   6.745   5.478 -1.7290  0.5643 -0.3400
28010SOL     OW85642   4.753   2.718   4.216  0.2627 -0.4198  0.4603
28010SOL    HW185643   4.837   2.757   4.240  0.3629  0.6932 -1.4808
28010SOL    HW285644   4.726   2.767   4.139 -1.8961 -1.1693  0.6890
28011SOL     OW85645   5.607   4.499   1.291  0.0469 -0.1717 -0.4765
28011SOL    HW185646   5.670   4.537   1.351 -2.3998  1.1375  1.4330
28011SOL    HW285647   5.615   4.550   1.211  0.8934  0.4339 -0.0151
28012SOL     OW85648   9.497   9.839   0.601  0.2520  0.2383  0.2511
28012SOL    HW185649   9.544   9.907   0.552  0.5046 -0.0358  0.1102
28012SOL    HW285650   9.435   9.802   0.538 -0.2603  0.6951  0.4757
28013SOL     OW85651   0.668   6.120   9.507  0.4913  0.4058  0.3665
28013SOL    HW185652   0.604   6.171   9.556 -1.7292 -0.3655 -1.5650
28013SOL    HW285653   0.669   6.035   9.551  1.8086  1.0296  1.6379
28014SOL     OW85654   0.389   6.949   0.818  0.1253  0.6924  0.3417
28014SOL    HW185655   0.433   7.017   0.767 -1.1517  0.7369 -0.7612
28014SOL    HW285656   0.329   6.907   0.756 -0.7404  0.0595  1.5536
28015SOL     OW85657   0.498   8.181   4.655 -0.3405 -0.1450 -0.3387
28015SOL    HW185658   0.525   8.164   4.745  0.0349 -0.6704 -0.5479
28015SOL    HW285659   0.548   8.258   4.629 -0.7344  0.2404  0.0247
28016SOL     OW85660   1.341   5.441   6.304  0.3352 -0.0529 -0.3142
28016SOL    HW185661   1.373   5.474   6.220 -0.5719  0.0094 -0.6456
28016SOL    HW285662   1.273   5.378   6.281  0.4857 -0.4758  0.3654
28017SOL     OW85663   3.613   9.384   4.124  0.5226  0.1950 -0.8791
28017SOL    HW185664   3.652   9.472   4.127  0.5168  0.2031 -1.0253
28017SOL    HW285665   3.575   9.372   4.210 -0.0483  0.5970 -1.0688
28018SOL     OW85666   3.166   8.178   8.154 -0.1193  0.2773 -0.6591
28018SOL    HW185667   3.130   8.091   8.134 -0.3957  0.3467 -0.4560
28018SOL    HW285668   3.090   8.234   8.164  0.0649  0.5823 -0.9509
28019SOL     OW85669   9.538   2.113   3.603  0.1744  0.0448  0.0287
28019SOL    HW185670   9.489   2.188   3.636  0.5552  0.5550 -0.5630
28019SOL    HW285671   9.621   2.116   3.651  0.6321  0.6476 -0.7853
28020SOL     OW85672   8.900   6.357   1.786 -0.2527  0.2562  0.4065
28020SOL    HW185673   8.837   6.372   1.856 -0.1978 -0.2891  0.5821
28020SOL    HW285674   8.919   6.263   1.791 -2.2533 -0.4126 -2.0126
28021SOL     OW85675   1.340   2.225   8.412  0.1229  0.0388  0.4426
28021SOL    HW185676   1.387   2.194   8.490 -1.3142  0.2380  1.4408
28021SOL    HW285677   1.259   2.263   8.447 -0.3366  0.5765 -1.1294
28022SOL     OW85678   5.950   1.818   3.746 -0.2267  0.3371  0.3471
28022SOL    HW185679   5.928   1.858   3.830  1.0637  0.5291  0.6081
28022SOL    HW285680   6.046   1.816   3.744 -0.2070  1.0406 -1.4556
28023SOL     OW85681   9.291   5.023   7.448 -0.0092 -0.6070  0.2142
28023SOL    HW185682   9.273   4.932   7.423 -0.4024 -0.7680  1.0479
28023SOL    HW285683   9.386   5.030   7.444  0.0002 -0.9439 -0.2384
28024SOL     OW85684   8.443   5.519   0.694  0.2500 -0.4307  0.3189
28024SOL    HW185685   8.392   5.584   0.742  1.3436 -0.3244  1.3674
28024SOL    HW285686   8.414   5.435   0.730 -0.6475 -0.5126 -0.5389
28025SOL     OW85687   8.859   4.906   0.939  0.2535  0.2430 -0.4111
28025SOL    HW185688   8.847   4.886   0.846 -0.2613  1.3110 -0.5845
28025SOL    HW285689   8.902   4.991   0.940 -0.2810  0.5109  0.3348
28026SOL     OW85690   4.672   5.594   7.184 -0.0594  0.3490  0.1488
28026SOL    HW185691   4.674   5.674   7.235 -1.4727  0.3716  0.2301
28026SOL    HW285692   4.653   5.525   7.247 -0.5012  0.1984 -0.1354
28027SOL     OW85693   7.783   3.011   8.616 -0.1609 -0.0703  0.6438
28027SOL    HW185694   7.734   2.942   8.661 -1.8052  0.0115 -0.8811
28027SOL    HW285695   7.745   3.092   8.650 -1.5945 -0.0082 -0.9549
28028SOL     OW85696   6.495   0.510   9.388 -0.1590  0.0329 -0.2514
28028SOL    HW185697   6.500   0.558   9.471 -0.9125 -1.5568  0.7832
28028SOL    HW285698   6.563   0.548   9.334  0.3769  1.1157  1.1168
28029SOL     OW85699   6.396   3.524   3.763  0.3395  0.2616  0.1017
28029SOL    HW185700   6.403   3.504   3.670  0.5196  0.3420  0.0977
28029SOL    HW285701   6.478   3.492   3.801 -0.3642 -1.1437  0.4858
28030SOL     OW85702   7.137   3.379   5.559 -0.4053  0.3019 -0.1225
28030SOL    HW185703   7.232   3.382   5.548 -0.5753  1.8690 -1.6567
28030SOL    HW285704   7.102   3.389   5.470 -2.0515 -2.5645  0.0696
28031SOL     OW85705   0.406   9.141   8.432 -0.3382  0.5122  0.2669
28031SOL    HW185706   0.400   9.200   8.507  0.7546  1.9464 -0.7088
28031SOL    HW285707   0.402   9.199   8.356  2.2799 -0.4537 -0.7362
28032SOL     OW85708   2.444   6.739   8.471  0.7237 -0.2879 -0.2622
28032SOL    HW185709   2.495   6.733   8.390  2.1963  1.8690  0.3941
28032SOL    HW285710   2.461   6.656   8.516  0.6057 -1.1446 -1.7403
28033SOL     OW85711   3.293   9.157   4.652  0.1998  0.5072  0.4350
28033SOL    HW185712   3.296   9.062   4.662  2.4289  0.4783 -0.0124
28033SOL    HW285713   3.206   9.174   4.614 -0.2728 -1.3227  0.5874
28034SOL     OW85714   3.983   5.277   8.631  0.1267  0.1497 -0.3883
28034SOL    HW185715   4.067   5.286   8.675  0.2587 -1.9873 -0.1162
28034SOL    HW285716   4.002   5.298   8.540  0.4983  1.6337  0.0042
28035SOL     OW85717   1.071   5.917   3.430 -0.0695 -0.2835 -0.0296
28035SOL    HW185718   1.132   5.990   3.433  0.7307 -0.9332 -0.1672
28035SOL    HW285719   1.044   5.911   3.338  0.4860 -0.6614 -0.1699
28036SOL     OW85720   4.664   7.610   7.085  0.2817 -0.3069 -0.2450
28036SOL    HW185721   4.706   7.604   6.999  0.6282 -1.4670 -0.0121
28036SOL    HW285722   4.683   7.700   7.114  2.2195 -0.6234 -0.3685
28037SOL     OW85723   0.489   8.295   7.878 -0.5978 -0.2917  0.1307
28037SOL    HW185724   0.470   8.242   7.956 -0.1964 -1.5668 -0.6016
28037SOL    HW285725   0.481   8.234   7.805  0.1636  0.5964 -0.7303
28038SOL     OW85726   6.975   6.686   3.502  0.2388 -0.2507  0.2440
28038SOL    HW185727   6.886   6.683   3.467 -1.0433 -0.6198  3.2231
28038SOL    HW285728   6.974   6.622   3.574  2.2050  1.3572  1.8185
28039SOL     OW85729   7.636   8.110   4.444 -0.1132  0.3438 -0.2490
28039SOL    HW185730   7.655   8.027   4.489 -1.5754 -0.2540 -0.6651
28039SOL    HW285731   7.621   8.173   4.514  0.4497  0.1149  0.0802
28040SOL     OW85732   9.359   5.753   5.974  0.1108 -0.3581 -0.0782
28040SOL    HW185733   9.407   5.802   5.907 -0.2145 -0.1591 -0.1714
28040SOL    HW285734   9.376   5.661   5.954  0.3537 -0.2899 -0.1825
28041SOL     OW85735   1.509   2.704   5.818 -0.0750 -0.4280  0.1603
28041SOL    HW185736   1.461   2.693   5.900 -0.2390  1.5092  0.3758
28041SOL    HW285737   1.480   2.789   5.784  1.6738 -0.1306 -0.7257
28042SOL     OW85738   7.800   9.668   8.454  0.8138 -0.0903  0.4221
28042SOL    HW185739   7.743   9.740   8.430  2.4292  1.6346  1.4690
28042SOL    HW285740   7.832   9.634   8.371 -0.5049 -0.0777 -0.1084
28043SOL     OW85741   8.701   5.211   9.763  0.3426 -0.2886 -0.1449
28043SOL    HW185742   8.729   5.138   9.817 -0.4766  0.2485  1.0361
28043SOL    HW285743   8.697   5.286   9.823 -2.6669 -0.1173 -0.4144
28044SOL     OW85744   2.583   1.212   8.740  0.0757  0.1075 -0.2236
28044SOL    HW185745   2.537   1.268   8.678 -0.8950  0.4019  0.7282
28044SOL    HW285746   2.638   1.156   8.686  2.1798  2.8606 -1.2045
28045SOL     OW85747   3.620   4.789   4.707  0.5257 -0.6576  0.0615
28045SOL    HW185748   3.528   4.800   4.733  0.0761  0.5330 -1.8398
28045SOL    HW285749   3.620   4.798   4.612  2.7879  0.6442  0.1104
28046SOL     OW85750   6.287   7.458   0.048 -0.1554 -0.4203 -0.2070
28046SOL    HW185751   6.360   7.507   0.012  1.3215 -1.3227  1.3869
28046SOL    HW285752   6.277   7.383  -0.011  0.2237 -0.2962 -0.4333
28047SOL     OW85753   4.422   9.211   1.137  0.4061  0.1053 -0.3865
28047SOL    HW185754   4.428   9.130   1.187 -0.3267 -0.2286 -0.8193
28047SOL    HW285755   4.468   9.193   1.055  0.7211  0.3135 -0.2568
28048SOL     OW85756   1.860   0.923   4.700  0.0476  0.9627 -0.2686
28048SOL    HW185757   1.880   0.992   4.764  0.6391  1.4438 -0.9578
28048SOL    HW285758   1.800   0.964   4.638 -1.1349  0.2635  0.3955
28049SOL     OW85759   4.958   7.312   9.253 -0.5516 -0.3489  0.7106
28049SOL    HW185760   4.968   7.220   9.278  2.2005  0.0469  1.4801
28049SOL    HW285761   4.956   7.359   9.337  1.1436  0.4685  0.3324
28050SOL     OW85762   6.858   5.636   7.032 -0.2658 -0.2921  0.3864
28050SOL    HW185763   6.825   5.598   6.951  0.4327  1.6207 -0.8799
28050SOL    HW285764   6.810   5.719   7.040  0.1958 -0.1197  1.5421
28051SOL     OW85765   0.477   4.393   3.404 -0.2635 -0.1908  0.4605
28051SOL    HW185766   0.516   4.468   3.359 -0.3889 -0.3605  0.0596
28051SOL    HW285767   0.383   4.408   3.399 -0.2471  0.9129  2.6335
28052SOL     OW85768   8.233   7.733   6.600  0.1025  0.2560  0.2959
28052SOL    HW185769   8.296   7.794   6.638 -1.2142  0.5932  2.0499
28052SOL    HW285770   8.234   7.658   6.659 -0.8433  0.0914  0.1148
28053SOL     OW85771   4.622   2.118   5.985 -0.4888  0.2489 -1.1508
28053SOL    HW185772   4.572   2.096   6.063 -1.7614 -0.2660 -2.0656
28053SOL    HW285773   4.555   2.133   5.917  0.5690  0.6720 -2.1453
28054SOL     OW85774   2.162   4.502   9.806  0.0043 -0.1023  0.1185
28054SOL    HW185775   2.198   4.437   9.746  0.0455  0.5690 -0.6022
28054SOL    HW285776   2.200   4.480   9.891  0.6901 -0.4925 -0.2797
28055SOL     OW85777   7.788   2.664   1.484 -0.0111  0.1106  0.0740
28055SOL    HW185778   7.801   2.670   1.578  0.9188  1.4940 -0.1173
28055SOL    HW285779   7.788   2.570   1.466 -0.5608 -0.1811  1.4880
28056SOL     OW85780   1.950   1.218   7.158 -0.2272 -0.3638 -0.2047
28056SOL    HW185781   2.016   1.265   7.209 -0.2270 -1.6375  1.0178
28056SOL    HW285782   1.872   1.219   7.212 -0.7127 -0.3666 -0.8908
28057SOL     OW85783   3.562   8.732   3.807  0.2475 -0.2687  0.5293
28057SOL    HW185784   3.562   8.827   3.813 -0.8160  0.2372 -3.7858
28057SOL    HW285785   3.653   8.706   3.821  0.7461  1.4836  0.7234
28058SOL     OW85786   2.254   7.998   8.949 -0.2573  0.2837 -0.4005
28058SOL    HW185787   2.252   7.922   9.008 -0.8390  0.4677 -0.1772
28058SOL    HW285788   2.246   7.960   8.862  2.1379 -0.1167 -0.5185
28059SOL     OW85789   1.616   3.249   6.880 -0.4649 -0.0135  0.3340
28059SOL    HW185790   1.623   3.158   6.852 -0.5199 -0.1139  0.6440
28059SOL    HW285791   1.670   3.254   6.959 -1.0930  0.0376  0.7641
28060SOL     OW85792   9.760   0.045   0.250  0.0381 -0.2258 -0.0541
28060SOL    HW185793   9.668   0.058   0.225  0.0274 -0.8985 -0.3875
28060SOL    HW285794   9.807   0.117   0.208 -0.1098 -0.8171 -1.2720
28061SOL     OW85795   1.113   2.691   2.053 -0.2461 -1.0192 -0.3798
28061SOL    HW185796   1.184   2.703   2.117 -1.2071  0.4824  0.4751
28061SOL    HW285797   1.049   2.636   2.097 -0.8724 -0.0510 -0.0461
28062SOL     OW85798   8.401   8.239   9.562 -0.9591  0.5898  0.3139
28062SOL    HW185799   8.370   8.285   9.640 -0.1873  0.5778  0.6303
28062SOL    HW285800   8.447   8.305   9.511 -2.6317  0.9482 -0.8411
28063SOL     OW85801   6.106   7.019   5.260  0.3844 -0.1647 -0.6585
28063SOL    HW185802   6.055   7.038   5.339  1.5308 -0.2232  0.1210
28063SOL    HW285803   6.079   7.085   5.197 -0.3967  0.0096 -0.1518
28064SOL     OW85804   7.939   2.212   6.449 -0.0159 -0.1249 -0.5314
28064SOL    HW185805   7.920   2.256   6.366 -1.4950  1.0350  0.3771
28064SOL    HW285806   7.881   2.254   6.513  1.1920 -0.8725  1.1383
28065SOL     OW85807   6.857   9.282   2.720  0.0778  0.3688 -0.1417
28065SOL    HW185808   6.881   9.227   2.646 -1.8896 -1.8388  0.7209
28065SOL    HW285809   6.939   9.298   2.766  0.6324 -3.0395  0.2610
28066SOL     OW85810   8.488   0.471   1.742  0.0894  0.4487  0.0610
28066SOL    HW185811   8.477   0.460   1.647  0.9913 -1.1857  0.1181
28066SOL    HW285812   8.445   0.554   1.761  1.4048  1.7096 -2.0593
28067SOL     OW85813   2.166   9.633   6.740  0.5769 -0.4172  0.1497
28067SOL    HW185814   2.259   9.641   6.718  0.3592  1.1273 -0.3109
28067SOL    HW285815   2.144   9.716   6.781 -0.4212 -1.0862  1.0419
28068SOL     OW85816   3.960   7.357   3.984  0.4211  0.6230  0.0651
28068SOL    HW185817   3.910   7.430   3.948 -0.0541 -0.7415 -2.2432
28068SOL    HW285818   4.051   7.379   3.963  0.3410  0.8595 -0.0481
28069SOL     OW85819   7.207   3.861   6.260  0.1682 -0.1774  0.1520
28069SOL    HW185820   7.291   3.819   6.274  1.3739  1.4508 -1.7103
28069SOL    HW285821   7.177   3.830   6.175 -0.8047 -0.2334  0.4985
28070SOL     OW85822   0.912   5.427   9.821  0.5208  0.2808 -0.4962
28070SOL    HW185823   0.830   5.434   9.772 -0.2206  0.6761  0.7585
28070SOL    HW285824   0.980   5.425   9.754 -0.5759 -1.5409 -1.6260
28071SOL     OW85825   1.456   0.962   5.020 -0.2225  0.4454 -0.1947
28071SOL    HW185826   1.435   0.870   5.037 -3.2604  1.2592  1.2720
28071SOL    HW285827   1.502   0.992   5.098  1.1227  0.1008 -0.8420
28072SOL     OW85828   0.423   1.894   6.990 -0.0861  0.4391 -0.0647
28072SOL    HW185829   0.329   1.896   7.011  0.3534 -0.5423  2.4045
28072SOL    HW285830   0.462   1.846   7.063  2.2993  0.4149 -1.2760
28073SOL     OW85831   9.404   3.914   4.998 -0.0885 -0.2358 -0.7499
28073SOL    HW185832   9.406   3.929   5.092  2.4580  1.6470 -0.9761
28073SOL    HW285833   9.436   3.824   4.986 -0.3798 -0.4625  0.1705
28074SOL     OW85834   2.293   6.288   5.932 -0.6858  0.1401  0.3802
28074SOL    HW185835   2.301   6.210   5.878  1.1957  0.8275 -0.4096
28074SOL    HW285836   2.251   6.257   6.012 -0.8480 -1.4788 -0.2859
28075SOL     OW85837   2.518   5.473   5.649  0.4985 -0.0442 -0.4629
28075SOL    HW185838   2.475   5.459   5.565  0.8169 -0.4874 -0.5584
28075SOL    HW285839   2.476   5.412   5.709 -0.1964  0.7471 -0.1226
28076SOL     OW85840   0.521   5.930   3.929  0.1481 -0.0314 -0.1119
28076SOL    HW185841   0.570   5.853   3.900  0.0739  0.1471 -0.7359
28076SOL    HW285842   0.580   6.003   3.912  0.4020  0.0113  0.9205
28077SOL     OW85843   8.935   1.655   8.237 -0.5019 -0.0391 -0.5500
28077SOL    HW185844   8.944   1.584   8.173  0.7695 -1.1681  0.7889
28077SOL    HW285845   8.956   1.613   8.321 -1.8666  1.4484  0.5819
28078SOL     OW85846   0.656   5.732   3.787  0.0238 -0.5719 -0.2800
28078SOL    HW185847   0.741   5.760   3.821  0.2521 -1.2059 -0.3118
28078SOL    HW285848   0.677   5.658   3.730 -0.4065  0.1323 -1.3768
28079SOL     OW85849   3.264   8.598   3.478 -0.0209  0.4003  0.7757
28079SOL    HW185850   3.184   8.648   3.466  0.0416 -0.0155 -2.2168
28079SOL    HW285851   3.242   8.530   3.542 -1.8298  0.7179  0.5302
28080SOL     OW85852   8.801   7.942   9.118  0.0973 -0.0636  0.0144
28080SOL    HW185853   8.856   7.995   9.060 -0.6632 -0.5936 -1.2283
28080SOL    HW285854   8.841   7.855   9.115 -0.8388 -0.4758 -0.9754
28081SOL     OW85855   7.966   0.711   1.225 -0.5962  0.5020 -0.0991
28081SOL    HW185856   8.018   0.748   1.297 -0.1928 -1.6191  0.7872
28081SOL    HW285857   7.943   0.623   1.255 -1.8985  0.1723 -1.8821
28082SOL     OW85858   4.315   7.998   4.156  0.7130  0.2062  0.3767
28082SOL    HW185859   4.393   8.022   4.205  0.8291 -3.3060  2.2379
28082SOL    HW285860   4.346   7.981   4.067  1.7456  0.4965  0.6748
28083SOL     OW85861   7.744   6.063   7.878 -0.0743  0.1420  0.5062
28083SOL    HW185862   7.742   6.100   7.789 -1.5608 -1.3935 -0.1518
28083SOL    HW285863   7.836   6.045   7.895  0.2578  0.7082 -0.6098
28084SOL     OW85864   0.051   6.895   1.877  0.3285 -0.6634 -0.1936
28084SOL    HW185865   0.103   6.850   1.944  0.6360 -0.5617 -0.3607
28084SOL    HW285866  -0.036   6.903   1.915  0.4613 -0.7504  0.1318
28085SOL     OW85867   6.127   6.307   4.847 -0.0722  0.6593  0.3711
28085SOL    HW185868   6.125   6.360   4.927 -1.1216  2.3517 -0.7230
28085SOL    HW285869   6.078   6.359   4.783  3.4773  0.9454 -2.3683
28086SOL     OW85870   7.933   9.822   5.327 -0.6870  0.0821  0.1075
28086SOL    HW185871   7.906   9.800   5.416  0.3046 -1.3090  0.0775
28086SOL    HW285872   7.893   9.755   5.272  0.1533 -0.1002 -0.2960
28087SOL     OW85873   7.831   7.079   5.523  0.5739 -0.4373 -0.2413
28087SOL    HW185874   7.799   6.993   5.495 -0.5406  0.5059 -2.0814
28087SOL    HW285875   7.909   7.094   5.469  1.2985 -0.6376  0.7196
28088SOL     OW85876   2.363   0.330   4.322  0.2500 -0.3009  0.0609
28088SOL    HW185877   2.402   0.302   4.405  0.0008  0.0872  0.3101
28088SOL    HW285878   2.325   0.415   4.341  2.0717  0.8203 -0.9928
28089SOL     OW85879   6.822   8.772   4.194 -0.1451  0.1216 -0.8803
28089SOL    HW185880   6.912   8.779   4.163  0.4964 -1.3929  0.4985
28089SOL    HW285881   6.802   8.678   4.188 -0.5459 -0.0176  1.5929
28090SOL     OW85882   5.310   6.296   0.305 -0.6985 -0.2890  0.3117
28090SOL    HW185883   5.260   6.346   0.369 -0.7795 -0.9857  0.7961
28090SOL    HW285884   5.290   6.205   0.324 -1.1815 -0.4916 -1.0806
28091SOL     OW85885   1.094   9.151   1.311 -0.1896  0.0541  0.4048
28091SOL    HW185886   1.011   9.141   1.264 -0.7212  1.9735  0.8407
28091SOL    HW285887   1.160   9.161   1.242 -0.6799  0.8899  0.0448
28092SOL     OW85888   0.265   1.110   3.892 -0.0944  0.3536  0.1606
28092SOL    HW185889   0.287   1.030   3.939 -1.6127  0.0411  0.3811
28092SOL    HW285890   0.232   1.170   3.959 -0.7123  0.5005 -0.2647
28093SOL     OW85891   1.104   6.590   1.528 -0.1198  0.2508  0.3862
28093SOL    HW185892   1.033   6.556   1.582 -0.5887  0.3623 -0.1569
28093SOL    HW285893   1.086   6.683   1.519  0.6421  0.4765  1.0712
28094SOL     OW85894   1.824   9.671   6.133 -0.3551 -0.0622  0.5227
28094SOL    HW185895   1.786   9.590   6.098  0.9091 -1.2194  1.6865
28094SOL    HW285896   1.909   9.678   6.089 -0.8547  1.2130 -0.3094
28095SOL     OW85897   6.583   8.571   0.407  0.2745  0.0790  0.0916
28095SOL    HW185898   6.545   8.493   0.447  1.0099 -0.8515 -0.9441
28095SOL    HW285899   6.650   8.537   0.346  0.3064  1.4877 -0.7166
28096SOL     OW85900   6.568   6.897   3.917 -0.0517  0.1265 -0.2324
28096SOL    HW185901   6.615   6.963   3.865 -2.4414  2.6260  0.5581
28096SOL    HW285902   6.605   6.906   4.005  0.1974 -0.2062 -0.3013
28097SOL     OW85903   0.911   7.317   2.488  0.5282 -0.4832  0.1617
28097SOL    HW185904   0.874   7.259   2.421  0.2571  0.1691 -0.2733
28097SOL    HW285905   0.853   7.393   2.487  1.1217 -0.0204  0.4130
28098SOL     OW85906   0.590   6.457   4.240 -0.3577 -0.4748  0.1400
28098SOL    HW185907   0.573   6.508   4.161 -0.8077 -0.9156 -0.0581
28098SOL    HW285908   0.512   6.470   4.294  0.7884  1.4577  1.4280
28099SOL     OW85909   4.387   2.553   1.033  0.2463  0.6437  0.1412
28099SOL    HW185910   4.309   2.518   1.076  0.3229 -0.5405 -0.6520
28099SOL    HW285911   4.360   2.640   1.003 -0.6980  0.3389  0.0751
28100SOL     OW85912   1.743   6.948   2.135 -0.2139  0.5465 -0.5079
28100SOL    HW185913   1.831   6.916   2.154 -0.2333  1.1504  0.6445
28100SOL    HW285914   1.752   6.995   2.052  0.9021  1.9420  0.3634
28101SOL     OW85915   5.323   6.493   0.507 -0.1897 -0.4775 -0.0366
28101SOL    HW185916   5.247   6.516   0.561 -1.3387  1.8296 -2.4508
28101SOL    HW285917   5.360   6.416   0.551 -2.9274 -0.7187  2.1577
28102SOL     OW85918   4.938   5.475   9.549 -0.7147  0.0200 -0.7474
28102SOL    HW185919   4.942   5.454   9.643 -1.4354  1.0952 -0.4570
28102SOL    HW285920   4.935   5.389   9.506 -1.2662 -0.4981  0.2675
28103SOL     OW85921   2.471   9.626   8.808 -0.8082 -0.3649 -0.0579
28103SOL    HW185922   2.516   9.705   8.839  1.0700 -0.9346 -1.1762
28103SOL    HW285923   2.437   9.650   8.722  1.5595 -1.2849 -1.3476
28104SOL     OW85924   7.778   8.450   4.722  0.2109 -0.1228  0.3559
28104SOL    HW185925   7.800   8.401   4.801 -1.3256  1.1324  1.6065
28104SOL    HW285926   7.753   8.537   4.753 -1.0616  0.2054 -1.4327
28105SOL     OW85927   6.924   2.329   5.821 -0.2427  0.1099  0.3022
28105SOL    HW185928   6.949   2.281   5.900  0.5985  0.8847  0.5191
28105SOL    HW285929   6.937   2.266   5.750 -1.0256 -0.5995  0.7624
28106SOL     OW85930   6.522   2.684   1.162 -0.8280 -0.1611 -0.4357
28106SOL    HW185931   6.609   2.654   1.191 -0.9492 -1.4434 -1.2973
28106SOL    HW285932   6.462   2.651   1.229 -0.7296  0.0118 -0.2640
28107SOL     OW85933   6.656   4.252   1.438 -0.0451 -0.2749  0.8477
28107SOL    HW185934   6.569   4.292   1.442 -0.5736 -1.1898 -0.7271
28107SOL    HW285935   6.689   4.276   1.351  1.4862  0.4458  1.5952
28108SOL     OW85936   3.760   7.523   1.743 -0.1923 -0.1205 -0.3391
28108SOL    HW185937   3.838   7.549   1.694  0.2667  1.3468  1.0753
28108SOL    HW285938   3.687   7.557   1.690  0.2518  0.7485 -0.4163
28109SOL     OW85939   3.786   8.491   9.643 -0.1749  0.1802  0.4014
28109SOL    HW185940   3.849   8.438   9.595 -0.6115  1.2489 -1.4672
28109SOL    HW285941   3.812   8.483   9.735  2.2361  0.0062 -0.2372
28110SOL     OW85942   3.867   1.717   8.364 -0.6977 -0.2941  0.5736
28110SOL    HW185943   3.784   1.677   8.392  0.2281 -2.5163  0.3021
28110SOL    HW285944   3.922   1.643   8.338  0.4079  1.2869 -1.9563
28111SOL     OW85945   4.860   3.372   6.936  0.2680  0.2203 -0.3358
28111SOL    HW185946   4.847   3.442   7.000 -0.3907 -1.0566  0.9929
28111SOL    HW285947   4.862   3.416   6.851 -0.4566  1.8006  0.4402
28112SOL     OW85948   5.403   4.210   3.193  0.4796  0.5146 -0.3814
28112SOL    HW185949   5.344   4.278   3.226  0.8477  1.0162 -0.7284
28112SOL    HW285950   5.461   4.190   3.267 -1.0806 -1.1072  0.4663
28113SOL     OW85951   7.706   5.632   2.438  0.3288 -0.1454 -0.0755
28113SOL    HW185952   7.782   5.657   2.490  0.4589  0.3623 -0.5050
28113SOL    HW285953   7.634   5.627   2.501  1.0016 -2.1798  0.6283
28114SOL     OW85954   9.052   8.224   3.052  0.0106  0.2320 -0.3911
28114SOL    HW185955   9.104   8.145   3.064 -2.2919 -1.2210  0.8329
28114SOL    HW285956   9.088   8.287   3.114  1.1031 -0.2535 -0.5109
28115SOL     OW85957   8.339   6.608   6.306 -0.0786  0.4593  0.0162
28115SOL    HW185958   8.392   6.543   6.261 -0.3344  0.7316 -0.6956
28115SOL    HW285959   8.366   6.603   6.397  1.2946  0.7068 -0.3564
28116SOL     OW85960   9.642   1.251   1.408 -0.7107 -0.1437 -0.1408
28116SOL    HW185961   9.601   1.207   1.483  0.2754  1.8462  1.6655
28116SOL    HW285962   9.732   1.265   1.435 -0.2169  0.2803 -1.9005
28117SOL     OW85963   8.722   6.870   0.089  0.2933 -0.0770 -0.1417
28117SOL    HW185964   8.743   6.923   0.012  0.5131 -0.4293 -0.3320
28117SOL    HW285965   8.776   6.907   0.159  2.2664 -1.4937 -0.8249
28118SOL     OW85966   0.110   9.634   7.881  0.0692 -0.0980  0.0439
28118SOL    HW185967   0.173   9.566   7.856  0.5874  0.5229 -0.3733
28118SOL    HW285968   0.118   9.700   7.812 -1.5186 -0.3104 -0.3724
28119SOL     OW85969   2.322   7.898   3.441  0.1703 -0.0497  0.1255
28119SOL    HW185970   2.294   7.820   3.394 -2.8788  1.0664 -0.1715
28119SOL    HW285971   2.383   7.941   3.382 -1.2388 -0.2169 -1.5478
28120SOL     OW85972   1.562   4.604   8.852 -0.7904  0.2079 -0.2757
28120SOL    HW185973   1.627   4.534   8.855 -0.3721  0.5374 -1.1704
28120SOL    HW285974   1.482   4.564   8.886  0.2443  0.2504  2.4106
28121SOL     OW85975   2.559   7.075   7.659 -0.1481  0.0861 -0.2485
28121SOL    HW185976   2.625   7.020   7.701 -0.0407  0.6016  0.2763
28121SOL    HW285977   2.492   7.014   7.629  0.6922 -0.4694 -1.0272
28122SOL     OW85978   1.677   2.974   6.900 -0.4500 -0.2094 -0.2312
28122SOL    HW185979   1.644   2.887   6.924  0.3185 -0.0596  1.5369
28122SOL    HW285980   1.750   2.989   6.960  1.6261  0.2757 -2.7037
28123SOL     OW85981   3.198   6.884   3.865  0.3438  0.3225 -0.2928
28123SOL    HW185982   3.127   6.821   3.878 -0.1945  0.7835 -0.9305
28123SOL    HW285983   3.156   6.969   3.873  1.0614  0.6161  0.5310
28124SOL     OW85984   9.202   8.444   9.503  0.2369 -0.0537 -0.4036
28124SOL    HW185985   9.241   8.384   9.567  1.0270  0.9586  0.0772
28124SOL    HW285986   9.133   8.392   9.462 -0.4572 -0.6655  1.4310
28125SOL     OW85987   0.185   4.528   8.575  0.0393 -0.6534  0.3037
28125SOL    HW185988   0.269   4.534   8.621  0.8562  0.3123 -1.2242
28125SOL    HW285989   0.148   4.617   8.581 -0.2445 -0.7388 -0.1641
28126SOL     OW85990   3.901   9.350   7.061  0.0683 -0.2545 -0.2618
28126SOL    HW185991   3.985   9.310   7.087  0.6113  1.1611  0.2487
28126SOL    HW285992   3.916   9.381   6.972  1.0492  2.3734  0.7137
28127SOL     OW85993   7.774   3.812   5.091 -0.0556 -0.2471 -0.8119
28127SOL    HW185994   7.755   3.731   5.138 -0.8154 -0.2116 -1.0416
28127SOL    HW285995   7.697   3.868   5.107 -0.5965 -0.4392 -2.5115
28128SOL     OW85996   9.175   4.481   8.095  0.6046 -0.0436  0.0197
28128SOL    HW185997   9.245   4.481   8.161 -0.7349 -0.4154  1.5084
28128SOL    HW285998   9.133   4.396   8.105 -0.9796  0.7215  0.2178
28129SOL     OW85999   1.737   7.398   5.174  0.3825  0.3254 -0.1079
28129SOL    HW186000   1.688   7.330   5.127  1.4123  0.1418 -0.9603
28129SOL    HW286001   1.775   7.452   5.104  0.6259  1.0180  0.5500
28130SOL     OW86002   3.107   6.927   4.733  0.1597 -0.1470  0.2966
28130SOL    HW186003   3.146   6.936   4.646 -0.6142  0.6339  0.0136
28130SOL    HW286004   3.176   6.955   4.793 -0.4189  2.9260 -0.2886
28131SOL     OW86005   5.532   6.448   5.673 -0.1801 -0.8781  0.1824
28131SOL    HW186006   5.537   6.402   5.757  2.7134 -2.5434 -0.7314
28131SOL    HW286007   5.540   6.378   5.608 -0.6166  0.5219 -1.4344
28132SOL     OW86008   2.533   2.016   5.800 -0.5435 -0.1567  0.2013
28132SOL    HW186009   2.473   1.941   5.795 -0.6594 -0.0357 -0.4089
28132SOL    HW286010   2.491   2.077   5.860 -2.2802  0.9785 -2.0072
28133SOL     OW86011   1.587   8.457   4.495  0.4418  0.1830  0.0925
28133SOL    HW186012   1.554   8.387   4.551 -0.4602  0.1048 -0.5027
28133SOL    HW286013   1.566   8.538   4.541  1.9538  0.0727  1.0290
28134SOL     OW86014   7.122   9.226   6.807  0.0547  0.1350 -0.4610
28134SOL    HW186015   7.051   9.165   6.827 -0.6360  1.5489  1.7729
28134SOL    HW286016   7.202   9.174   6.819 -0.5258 -0.9272 -0.9926
28135SOL     OW86017   9.516   6.661   7.480 -0.4546 -0.7692  0.5954
28135SOL    HW186018   9.577   6.686   7.549 -0.0356 -1.3112  0.4266
28135SOL    HW286019   9.453   6.733   7.477  0.3893 -0.0158  0.5136
28136SOL     OW86020   1.019   4.542   2.565 -0.0419 -0.2187 -0.7535
28136SOL    HW186021   1.110   4.512   2.565  0.2538  0.6060  0.4118
28136SOL    HW286022   0.971   4.474   2.612  0.3246  0.2574  0.3427
28137SOL     OW86023   6.378   5.204   8.314  0.4813  0.2781 -0.2155
28137SOL    HW186024   6.354   5.297   8.308 -0.7164 -0.0874 -1.6560
28137SOL    HW286025   6.462   5.199   8.268  0.0434  0.4898 -1.0549
28138SOL     OW86026   5.586   4.366   3.072 -0.3617 -0.2043 -1.0575
28138SOL    HW186027   5.518   4.300   3.087  1.0321 -1.5247 -0.1851
28138SOL    HW286028   5.605   4.359   2.978 -0.1803 -1.1292 -0.9656
28139SOL     OW86029   1.252   0.830   8.055  0.3996  0.9244 -0.0574
28139SOL    HW186030   1.250   0.768   8.129  1.0696  1.8402  0.7585
28139SOL    HW286031   1.246   0.774   7.977  0.1759 -0.1058  0.6734
28140SOL     OW86032   4.503   8.540   3.681 -0.2074 -0.0606 -0.5278
28140SOL    HW186033   4.429   8.582   3.726 -0.5128 -2.0988  1.0406
28140SOL    HW286034   4.580   8.579   3.721 -0.4873 -0.6467  0.6390
28141SOL     OW86035   8.452   3.445   8.309 -0.7382  0.2497 -0.3155
28141SOL    HW186036   8.403   3.459   8.390  0.3365  0.0526  0.3921
28141SOL    HW286037   8.541   3.426   8.338 -0.2195  0.6737 -1.5708
28142SOL     OW86038   2.148   7.008   3.336  0.1655  0.0523 -0.2175
28142SOL    HW186039   2.175   6.956   3.260 -1.1604 -0.5234 -0.3235
28142SOL    HW286040   2.068   6.965   3.367 -0.9127  1.9463 -0.2247
28143SOL     OW86041   8.341   0.590   8.967  0.2593 -0.0082  0.4379
28143SOL    HW186042   8.275   0.571   8.901 -0.4862  0.8907  0.8998
28143SOL    HW286043   8.424   0.587   8.920 -0.4101  3.4658 -1.2642
28144SOL     OW86044   8.136   1.280   6.582  0.4938 -0.6134 -0.0484
28144SOL    HW186045   8.204   1.214   6.570  0.0828 -1.0175 -0.1876
28144SOL    HW286046   8.067   1.235   6.630 -0.2179 -0.5888 -1.0098
28145SOL     OW86047   5.827   8.720   4.949 -0.7114 -0.8038  0.2724
28145SOL    HW186048   5.877   8.639   4.945 -0.1326 -0.4806 -3.7872
28145SOL    HW286049   5.873   8.773   5.014  0.5764 -2.6845  0.9986
28146SOL     OW86050   0.978   6.542   0.966  0.5527  0.6786 -0.2196
28146SOL    HW186051   1.069   6.527   0.938 -0.3042 -1.1725 -2.3694
28146SOL    HW286052   0.939   6.591   0.894 -0.7765 -0.7912 -0.5446
28147SOL     OW86053   6.974   7.807   5.358 -0.3556 -0.1246  0.3586
28147SOL    HW186054   7.037   7.876   5.375  0.7998 -1.1404  0.2838
28147SOL    HW286055   6.889   7.846   5.382  0.4360  0.7710  1.8795
28148SOL     OW86056   1.569   5.361   0.235 -0.4250 -0.5645 -0.0434
28148SOL    HW186057   1.607   5.415   0.166 -0.2185  0.5170  0.8818
28148SOL    HW286058   1.621   5.281   0.234  0.6182  0.0888 -0.1118
28149SOL     OW86059   9.414   0.359   6.052 -0.0012  0.4992  0.1898
28149SOL    HW186060   9.402   0.360   6.147 -1.9900  2.9750 -0.0079
28149SOL    HW286061   9.414   0.266   6.029  0.5191 -0.1581  2.5753
28150SOL     OW86062   5.622   2.400   8.144 -0.5595  0.5071  0.1968
28150SOL    HW186063   5.569   2.341   8.090  0.0966  0.5532 -0.5089
28150SOL    HW286064   5.584   2.486   8.128  0.5630  0.7528 -1.4184
28151SOL     OW86065   0.384   2.693   7.073  0.6761 -0.6168  0.0740
28151SOL    HW186066   0.325   2.618   7.068 -0.2817  0.1907 -1.7445
28151SOL    HW286067   0.468   2.661   7.042 -0.1019 -0.6472 -2.2079
28152SOL     OW86068   6.025   2.883   3.173 -0.5631 -0.0695 -0.3116
28152SOL    HW186069   6.003   2.811   3.231 -0.0427 -1.2131 -1.4768
28152SOL    HW286070   6.096   2.929   3.217 -2.4109  1.1671  1.5253
28153SOL     OW86071   0.929   4.695   6.960  0.4985 -0.5257  0.1856
28153SOL    HW186072   1.019   4.699   6.992  0.9476  0.2649 -1.0788
28153SOL    HW286073   0.877   4.670   7.036  1.6274  0.2665  1.2597
28154SOL     OW86074   9.522   2.516   2.656 -0.0203 -0.1430 -0.1050
28154SOL    HW186075   9.547   2.456   2.726  0.7898 -1.0654 -1.1513
28154SOL    HW286076   9.430   2.495   2.639  0.1950 -0.9516 -0.3156
28155SOL     OW86077   1.436   4.789   6.052  0.0190 -0.5534 -0.6380
28155SOL    HW186078   1.484   4.855   6.003  0.5395 -1.4299 -1.3415
28155SOL    HW286079   1.345   4.819   6.050  0.4686  1.0330  0.5536
28156SOL     OW86080   2.142   5.782   9.666  0.1021 -0.6079 -0.2284
28156SOL    HW186081   2.173   5.817   9.582  1.9491 -1.1708  0.1715
28156SOL    HW286082   2.081   5.848   9.698  0.9819  0.6595 -1.0413
28157SOL     OW86083   8.392   8.852   9.485 -0.6427  1.0736  0.4248
28157SOL    HW186084   8.391   8.948   9.479 -3.1816  1.1341  0.9110
28157SOL    HW286085   8.416   8.823   9.397  0.2541  2.1336  0.2958
28158SOL     OW86086   5.121   8.828   6.632  0.0117  0.3771 -0.5712
28158SOL    HW186087   5.051   8.794   6.688 -1.1126  0.9080 -1.6046
28158SOL    HW286088   5.178   8.752   6.616  0.8503  0.3742  1.8926
28159SOL     OW86089   9.211   5.815   4.787  0.3697 -0.0977 -0.0248
28159SOL    HW186090   9.241   5.804   4.696  1.7992  0.9975  0.2869
28159SOL    HW286091   9.122   5.850   4.779 -1.1718 -3.7560 -0.9796
28160SOL     OW86092   4.559   8.342   6.086  0.1601  0.4893  0.3319
28160SOL    HW186093   4.532   8.365   5.997  3.2422  3.5666  0.0153
28160SOL    HW286094   4.639   8.291   6.074  0.7453  1.1492  1.3268
28161SOL     OW86095   9.599   4.485   7.550 -0.0657  0.5961 -0.1660
28161SOL    HW186096   9.663   4.529   7.495 -1.0343  0.2865 -1.6193
28161SOL    HW286097   9.643   4.405   7.579  0.4164  0.6777 -0.6514
28162SOL     OW86098   1.462   6.734   6.630  0.3348 -0.2121  0.0819
28162SOL    HW186099   1.444   6.648   6.590 -0.6850  0.0991 -0.1685
28162SOL    HW286100   1.468   6.794   6.556  0.2440  0.0680  0.3001
28163SOL     OW86101   2.909   8.347   9.104 -0.1513 -0.8865 -0.0395
28163SOL    HW186102   2.997   8.367   9.133 -0.5452  1.1946 -0.1367
28163SOL    HW286103   2.902   8.387   9.018 -0.4159 -3.2162 -1.1877
28164SOL     OW86104   3.064   6.231   6.680 -0.3373 -0.7994 -0.2052
28164SOL    HW186105   3.025   6.288   6.746  0.6269  1.4458 -1.4831
28164SOL    HW286106   3.137   6.189   6.726  0.9156  1.4414  0.0210
28165SOL     OW86107   3.508   8.268   4.563 -0.0067  0.0318 -0.3953
28165SOL    HW186108   3.474   8.354   4.588 -0.8978  0.2581 -2.2076
28165SOL    HW286109   3.542   8.280   4.475  4.5354 -0.3047  1.0372
28166SOL     OW86110   0.008   9.307   6.069 -0.4354 -0.1346 -0.4476
28166SOL    HW186111  -0.015   9.395   6.099  1.2095  0.8324 -1.8352
28166SOL    HW286112   0.079   9.321   6.006  1.1371 -2.5750  0.6273
28167SOL     OW86113   0.676   4.671   3.622  0.5087  0.1534  0.6838
28167SOL    HW186114   0.737   4.598   3.636  3.0763  2.1196  0.5990
28167SOL    HW286115   0.599   4.631   3.582  1.7914 -2.4852  0.6124
28168SOL     OW86116   7.987   0.283   5.964  0.2157 -0.5695  0.3031
28168SOL    HW186117   8.073   0.282   6.005  0.4334  1.0239 -0.0670
28168SOL    HW286118   8.000   0.241   5.879  0.6209 -0.3251  0.2434
28169SOL     OW86119   4.342   2.998   8.511  0.0294 -0.0349  0.5813
28169SOL    HW186120   4.378   3.084   8.487 -0.1496  0.0263  0.5322
28169SOL    HW286121   4.271   3.018   8.571 -0.6096 -0.0959 -0.1411
28170SOL     OW86122   2.674   1.155   6.698 -0.2676  0.0987  0.6451
28170SOL    HW186123   2.692   1.086   6.634  1.0683 -1.0129  2.1350
28170SOL    HW286124   2.745   1.218   6.685 -0.4632  0.2854  0.4826
28171SOL     OW86125   8.671   9.370   7.599 -0.8534 -0.3870 -0.0409
28171SOL    HW186126   8.619   9.418   7.535 -1.7525 -0.4158  0.6436
28171SOL    HW286127   8.752   9.420   7.608 -1.8875  1.2152  0.8982
28172SOL     OW86128   9.486   3.843   6.521 -0.3195 -0.0861  0.1086
28172SOL    HW186129   9.400   3.802   6.512  0.0219 -0.9456  0.5761
28172SOL    HW286130   9.531   3.789   6.587  1.0726 -0.4969 -1.1282
28173SOL     OW86131   9.556   7.553   0.622  0.0640  0.4373  0.6020
28173SOL    HW186132   9.526   7.502   0.547  0.2367  0.9023  0.2077
28173SOL    HW286133   9.571   7.641   0.586  3.3005 -0.0631  0.3862
28174SOL     OW86134   5.370   7.912   3.967  0.1110  0.1640  0.1977
28174SOL    HW186135   5.440   7.952   4.019  0.7556 -1.2278  0.4391
28174SOL    HW286136   5.300   7.897   4.030  0.3782 -0.2820  0.3978
28175SOL     OW86137   9.703   9.615   7.608  0.4689 -0.6902  0.7802
28175SOL    HW186138   9.731   9.672   7.536  3.5767 -1.5265  1.1838
28175SOL    HW286139   9.725   9.526   7.578 -1.8018 -1.4832  1.2507
28176SOL     OW86140   4.726   1.146   6.671 -0.2013 -0.2989  0.1940
28176SOL    HW186141   4.687   1.066   6.707 -1.5423  0.8514  1.3984
28176SOL    HW286142   4.820   1.136   6.690 -0.1191 -2.1488 -0.8669
28177SOL     OW86143   0.268   1.746   2.353  0.1167  0.0667  0.2589
28177SOL    HW186144   0.189   1.742   2.299 -1.0356  1.4248  1.7293
28177SOL    HW286145   0.260   1.829   2.400  1.0756 -0.9986  2.4399
28178SOL     OW86146   5.436   2.723   7.892  0.2399  0.1716  0.2059
28178SOL    HW186147   5.402   2.649   7.842  1.0797 -0.8386  1.0754
28178SOL    HW286148   5.529   2.725   7.871  0.1887  1.1266  0.0302
28179SOL     OW86149   5.737   0.306   1.236  0.2719  0.4375  0.1209
28179SOL    HW186150   5.674   0.353   1.290  1.2515  0.0147  1.7030
28179SOL    HW286151   5.769   0.236   1.293  0.7944 -0.4911 -1.2804
28180SOL     OW86152   9.711   7.268   1.728 -0.3987  0.0083  0.2037
28180SOL    HW186153   9.774   7.198   1.711  0.3131  0.8556 -0.7209
28180SOL    HW286154   9.736   7.339   1.669 -1.9498  0.5388  0.1367
28181SOL     OW86155   8.484   4.213   7.964  0.2334 -0.2592  0.2043
28181SOL    HW186156   8.392   4.184   7.961 -0.7479  2.1635  2.5489
28181SOL    HW286157   8.482   4.300   7.925  0.9554  0.8686  2.5097
28182SOL     OW86158   8.631   7.167   8.030  0.1764  0.6085 -0.3393
28182SOL    HW186159   8.651   7.170   7.936  0.8213  0.2463 -0.2197
28182SOL    HW286160   8.685   7.095   8.063 -1.9511 -0.9828 -0.1308
28183SOL     OW86161   5.740   1.578   2.066  0.2860  0.3570  0.0500
28183SOL    HW186162   5.652   1.611   2.047  0.2448  0.5680  0.5893
28183SOL    HW286163   5.728   1.521   2.143  0.5671  0.1272 -0.0750
28184SOL     OW86164   3.074   0.328   0.765  0.1091 -0.3450 -0.0175
28184SOL    HW186165   3.154   0.357   0.808  0.8037 -0.8715 -0.9349
28184SOL    HW286166   3.087   0.348   0.672 -0.1160 -1.9476 -0.4216
28185SOL     OW86167   5.521   3.303   4.678 -0.2357  0.0155 -0.0515
28185SOL    HW186168   5.446   3.324   4.734 -1.4747  0.0225 -1.6258
28185SOL    HW286169   5.598   3.321   4.732 -1.3598  0.7465  1.3691
28186SOL     OW86170   7.525   2.713   2.072  0.0588  0.2541 -0.2976
28186SOL    HW186171   7.545   2.620   2.073  0.6369  0.3606 -1.2945
28186SOL    HW286172   7.561   2.746   2.154  1.7685 -0.0136 -0.9114
28187SOL     OW86173   0.271   6.216   8.740 -0.1758 -0.3875 -0.3882
28187SOL    HW186174   0.271   6.202   8.835  0.2003  0.3341 -0.2733
28187SOL    HW286175   0.191   6.265   8.723  0.7079  1.2094 -0.1520
28188SOL     OW86176   7.841   7.881   6.095  0.8781  0.1791  0.3859
28188SOL    HW186177   7.873   7.797   6.127  4.4122  1.8015  1.6902
28188SOL    HW286178   7.892   7.897   6.015 -0.2240  0.8305 -0.2179
28189SOL     OW86179   3.100   0.843   6.699 -0.5085 -0.0752  0.0674
28189SOL    HW186180   3.163   0.829   6.770 -0.8280  1.2208  0.6409
28189SOL    HW286181   3.025   0.788   6.723  0.1541 -1.1743 -0.3191
28190SOL     OW86182   5.518   5.641   0.729  0.4500  0.4758 -0.3036
28190SOL    HW186183   5.594   5.613   0.678  0.5703  0.7421 -0.2721
28190SOL    HW286184   5.551   5.713   0.784  0.0584  0.9173 -0.6413
28191SOL     OW86185   6.736   4.730   4.884 -0.1651  0.3174  0.0780
28191SOL    HW186186   6.727   4.719   4.979  0.8484  1.6325  0.3561
28191SOL    HW286187   6.679   4.803   4.862 -0.9948 -0.4790 -0.4698
28192SOL     OW86188   3.909   6.872   9.714  0.1347 -0.0612 -0.5663
28192SOL    HW186189   3.868   6.947   9.758  0.2065  0.4106 -1.3003
28192SOL    HW286190   3.835   6.823   9.677  0.1423  0.0504 -0.7277
28193SOL     OW86191   3.600   6.249   0.497 -0.4564  0.2262  0.7212
28193SOL    HW186192   3.587   6.185   0.427 -0.5382  0.3877  0.5878
28193SOL    HW286193   3.641   6.324   0.453  0.6338 -0.1550  1.0816
28194SOL     OW86194   5.156   5.064   7.275 -0.0011  1.1522  0.4415
28194SOL    HW186195   5.194   5.061   7.362 -1.6083 -0.9142  1.1615
28194SOL    HW286196   5.230   5.054   7.215  0.7689 -2.2274  1.7537
28195SOL     OW86197   4.323   2.925   6.092  0.1288 -0.0929 -0.1187
28195SOL    HW186198   4.330   3.016   6.118  0.6163 -0.3887  0.8365
28195SOL    HW286199   4.322   2.927   5.996 -0.5262  0.9462 -0.1051
28196SOL     OW86200   6.921   5.501   8.767 -1.0613  0.7330  0.0154
28196SOL    HW186201   6.906   5.420   8.816 -1.1418 -0.2601 -1.5948
28196SOL    HW286202   7.014   5.501   8.748 -1.1756  0.6728 -0.5632
28197SOL     OW86203   0.661   1.578   7.227  0.9266 -0.0194 -0.1919
28197SOL    HW186204   0.656   1.565   7.133  1.0336 -0.2698 -0.1633
28197SOL    HW286205   0.581   1.625   7.250 -0.2828 -2.0587 -0.0446
28198SOL     OW86206   0.826   0.740   7.872 -0.0727 -0.2863 -0.6449
28198SOL    HW186207   0.772   0.799   7.819 -1.4121 -1.6967 -0.9209
28198SOL    HW286208   0.894   0.709   7.813  0.9503  1.3240 -0.3627
28199SOL     OW86209   9.425   6.151   0.630  0.0523 -0.2972  0.0885
28199SOL    HW186210   9.380   6.221   0.582  0.9557 -0.5505 -1.1964
28199SOL    HW286211   9.429   6.078   0.567  3.4267  0.1724 -0.4336
28200SOL     OW86212   7.181   8.133   4.109  0.3308 -0.5182  0.6353
28200SOL    HW186213   7.251   8.117   4.173  2.2128  1.3972 -0.8143
28200SOL    HW286214   7.153   8.046   4.082  1.8724 -1.3472  1.5595
28201SOL     OW86215   8.579   8.934   4.297  0.0340 -0.1527 -0.0852
28201SOL    HW186216   8.624   8.855   4.329 -0.7483 -1.6512 -2.4305
28201SOL    HW286217   8.637   8.971   4.232 -0.6886 -0.2508 -0.8015
28202SOL     OW86218   0.130   4.339   5.475  0.6937 -0.0175  0.8046
28202SOL    HW186219   0.036   4.352   5.477  0.7272  0.2298  0.8322
28202SOL    HW286220   0.147   4.292   5.394  0.2572 -2.4164  2.0214
28203SOL     OW86221   4.369   8.248   6.689  0.1469 -0.5034 -0.6260
28203SOL    HW186222   4.314   8.227   6.765 -0.8666 -0.4561 -1.3341
28203SOL    HW286223   4.427   8.318   6.720 -0.3126 -0.4274  0.0815
28204SOL     OW86224   8.895   5.781   1.032 -0.3744  0.2631  0.0667
28204SOL    HW186225   8.978   5.776   1.080 -0.4603  2.5348  0.5606
28204SOL    HW286226   8.828   5.770   1.099 -0.6148 -3.6510 -0.5886
28205SOL     OW86227   7.233   4.658   9.070  0.2926  0.1809  0.4493
28205SOL    HW186228   7.263   4.688   9.156  3.0858 -1.3229  0.1152
28205SOL    HW286229   7.213   4.565   9.083 -0.5302  0.2562 -0.2409
28206SOL     OW86230   6.105   8.890   5.629 -0.4058 -0.0654 -1.1436
28206SOL    HW186231   6.081   8.962   5.571 -0.9151 -1.2926 -2.5148
28206SOL    HW286232   6.031   8.881   5.689 -0.5827  0.1755 -1.3268
28207SOL     OW86233   6.621   4.139   9.500 -0.1331 -0.6302  0.1708
28207SOL    HW186234   6.676   4.209   9.536 -0.2103 -0.7077  0.4390
28207SOL    HW286235   6.561   4.183   9.440 -0.9123 -0.3208  1.1661
28208SOL     OW86236   7.472   0.112   9.288  0.1994 -0.1159  0.0363
28208SOL    HW186237   7.557   0.080   9.257  0.7689  1.2731  0.0837
28208SOL    HW286238   7.435   0.159   9.213 -0.7272 -1.0700 -0.1173
28209SOL     OW86239   9.149   3.434   4.317  0.3949 -0.4487 -0.2381
28209SOL    HW186240   9.184   3.368   4.376 -1.6664 -0.8955  0.5642
28209SOL    HW286241   9.095   3.490   4.373 -1.2458 -0.5986 -1.6005
28210SOL     OW86242   4.430   1.942   6.896 -0.2644 -0.4537 -0.0750
28210SOL    HW186243   4.343   1.982   6.887 -0.5919 -0.5505  2.1014
28210SOL    HW286244   4.448   1.945   6.990  2.1612 -0.3361 -0.4766
28211SOL     OW86245   7.728   7.340   8.084  0.5827 -0.0486 -0.3691
28211SOL    HW186246   7.774   7.305   8.160 -0.3872 -0.4415  0.0442
28211SOL    HW286247   7.658   7.277   8.066  0.1224  0.5973 -0.9142
28212SOL     OW86248   4.662   9.620   9.178 -0.3813  0.2579 -0.3800
28212SOL    HW186249   4.569   9.610   9.198  0.0326 -1.0458  1.1783
28212SOL    HW286250   4.686   9.537   9.135  0.3091  0.0150  0.4355
28213SOL     OW86251   8.313   6.775   2.925  0.5977  0.3178 -0.1267
28213SOL    HW186252   8.341   6.836   2.993  0.7127 -0.8943  0.9707
28213SOL    HW286253   8.381   6.779   2.858  1.5411  0.0752  0.7901
28214SOL     OW86254   6.390   5.113   6.028  0.4643  0.4636 -0.4828
28214SOL    HW186255   6.365   5.107   5.936  2.9893 -2.1860 -1.1224
28214SOL    HW286256   6.330   5.054   6.074  0.0182  0.8164 -0.6056
28215SOL     OW86257   9.566   4.485   5.686 -0.0716  0.6439 -0.2020
28215SOL    HW186258   9.612   4.501   5.768  0.8210 -0.0055 -0.5606
28215SOL    HW286259   9.494   4.548   5.686  0.4022  1.1998  0.6981
28216SOL     OW86260   4.816   1.907   6.142  0.2172 -0.1127  0.1134
28216SOL    HW186261   4.869   1.898   6.222 -0.0210  0.1607  0.3072
28216SOL    HW286262   4.811   1.819   6.107 -0.0113 -0.3113  0.6258
28217SOL     OW86263   6.528   3.823   0.716  0.0406 -0.0024 -0.3527
28217SOL    HW186264   6.483   3.870   0.787 -0.9884 -0.8294 -0.4332
28217SOL    HW286265   6.532   3.732   0.746 -0.1681 -0.3164 -1.2451
28218SOL     OW86266   7.656   4.547   3.224  0.0457  0.4353 -0.0738
28218SOL    HW186267   7.626   4.477   3.282 -0.2081  0.6088  0.0071
28218SOL    HW286268   7.711   4.503   3.160 -0.0216  0.1778  0.0424
28219SOL     OW86269   2.173   9.108   7.383 -0.2207 -1.0565 -0.0469
28219SOL    HW186270   2.125   9.136   7.306  0.0229 -0.1302  0.1273
28219SOL    HW286271   2.105   9.082   7.446 -0.4609 -0.6183 -0.1256
28220SOL     OW86272   3.671   5.423   5.153  0.6268 -0.1426  0.0181
28220SOL    HW186273   3.713   5.506   5.173  1.1128 -0.5551  0.7599
28220SOL    HW286274   3.729   5.357   5.192  0.4102 -0.8483 -0.8103
28221SOL     OW86275   4.589   2.975   2.476  0.0504  0.3529  0.1740
28221SOL    HW186276   4.511   3.029   2.471  0.1197  0.3172 -2.0777
28221SOL    HW286277   4.598   2.936   2.389  1.6788 -0.9181  0.8468
28222SOL     OW86278   8.233   0.538   8.519 -0.2890  0.2179  0.0495
28222SOL    HW186279   8.237   0.630   8.491  0.0875  0.7484  1.7087
28222SOL    HW286280   8.178   0.540   8.597  1.1424 -0.6785  1.1211
28223SOL     OW86281   4.183   5.214   0.897  0.5172 -0.4518  0.3525
28223SOL    HW186282   4.183   5.301   0.858  0.2232 -0.3072  0.6774
28223SOL    HW286283   4.095   5.180   0.880  1.0669 -1.2591 -1.0405
28224SOL     OW86284   7.826   6.309   0.270 -0.2533  0.0742 -0.5746
28224SOL    HW186285   7.754   6.263   0.314 -0.1500  0.3501 -0.1022
28224SOL    HW286286   7.900   6.249   0.277 -0.3620 -0.0886 -0.8063
28225SOL     OW86287   2.683   1.333   5.353  0.6962 -0.0692  0.2399
28225SOL    HW186288   2.647   1.372   5.433  0.1960 -0.8959  0.4279
28225SOL    HW286289   2.698   1.407   5.295  0.4085  0.4720  0.8469
28226SOL     OW86290   7.747   8.734   4.652 -0.0183  0.1719 -0.6650
28226SOL    HW186291   7.745   8.756   4.745  1.3817 -1.9574 -0.0468
28226SOL    HW286292   7.660   8.758   4.619 -0.3230  1.5228  1.0382
28227SOL     OW86293   2.193   8.719   1.569  0.0135  0.6993 -0.2244
28227SOL    HW186294   2.249   8.719   1.491 -0.4056  1.2849 -0.5340
28227SOL    HW286295   2.223   8.793   1.621  0.0605  0.5199  0.0071
28228SOL     OW86296   4.157   7.544   0.362  0.2288 -0.3075  1.0395
28228SOL    HW186297   4.182   7.636   0.374  0.9650 -0.6836  2.6916
28228SOL    HW286298   4.116   7.541   0.276  0.6619  1.4715  0.7361
28229SOL     OW86299   9.348   2.111   8.880 -0.4038  0.5987  0.3287
28229SOL    HW186300   9.361   2.199   8.915 -1.8013  0.0917  2.3538
28229SOL    HW286301   9.270   2.118   8.825  0.1121  0.8231 -0.3836
28230SOL     OW86302   5.025   6.220   9.632  0.2180 -0.0908  0.1478
28230SOL    HW186303   5.101   6.162   9.631  1.0465  0.9210  0.9644
28230SOL    HW286304   4.994   6.216   9.723 -0.7148 -0.5000 -0.1850
28231SOL     OW86305   0.069   2.701   2.378 -0.2089  0.0470 -0.2414
28231SOL    HW186306   0.019   2.655   2.446  1.1445 -1.2345 -0.0660
28231SOL    HW286307   0.057   2.794   2.398 -0.8927 -0.2754  0.9577
28232SOL     OW86308   5.292   1.021   8.550  0.1005  0.2633 -0.6040
28232SOL    HW186309   5.324   0.947   8.498  2.1323  0.3679  0.4171
28232SOL    HW286310   5.296   1.095   8.490 -1.3323 -0.2850 -1.4368
28233SOL     OW86311   2.465   0.318   7.372  0.3587 -0.1897 -0.8150
28233SOL    HW186312   2.551   0.359   7.376  1.2871 -2.1017  1.2222
28233SOL    HW286313   2.426   0.338   7.457  0.4194 -2.5259 -0.1845
28234SOL     OW86314   1.087   9.568   4.647 -0.0305  0.9008 -0.7886
28234SOL    HW186315   1.071   9.581   4.553 -0.5724  0.9321 -0.6960
28234SOL    HW286316   1.000   9.565   4.686  0.0314 -2.2666 -0.6755
28235SOL     OW86317   1.965   6.590   5.446  0.0926  0.1141  0.0702
28235SOL    HW186318   1.963   6.673   5.494 -0.0435  0.8745 -1.2133
28235SOL    HW286319   1.916   6.607   5.366 -0.5321 -1.4222  0.0965
28236SOL     OW86320   0.153   7.237   8.472  0.5226 -0.0909  0.0671
28236SOL    HW186321   0.182   7.191   8.393 -0.8870 -1.5934  0.3517
28236SOL    HW286322   0.095   7.174   8.515 -0.1314  1.3701  1.3912
28237SOL     OW86323   3.178   8.522   5.107  0.4279 -0.0132  0.2257
28237SOL    HW186324   3.263   8.503   5.147  0.4710  0.2220  0.2471
28237SOL    HW286325   3.139   8.436   5.091  0.0707 -0.1098  1.5048
28238SOL     OW86326   2.109   4.846   3.897 -0.6023  0.0497 -0.1522
28238SOL    HW186327   2.155   4.780   3.846 -1.4787 -0.2712 -0.5489
28238SOL    HW286328   2.020   4.812   3.906 -0.4861  0.1286  1.5395
28239SOL     OW86329   8.465   4.316   3.897 -0.3633 -0.2211  0.0582
28239SOL    HW186330   8.464   4.356   3.810 -0.5319 -0.0179  0.1513
28239SOL    HW286331   8.505   4.383   3.953  1.8631 -1.2013 -0.2571
28240SOL     OW86332   7.330   3.787   6.960 -0.8002 -0.3450 -0.2831
28240SOL    HW186333   7.398   3.721   6.955 -0.6309 -0.1696 -0.3044
28240SOL    HW286334   7.353   3.839   7.037 -0.8481 -0.2167 -0.3560
28241SOL     OW86335   2.180   0.038   3.635 -0.0716  0.4253  0.4380
28241SOL    HW186336   2.187  -0.057   3.624  0.2940  0.5645 -0.6291
28241SOL    HW286337   2.253   0.060   3.693  1.0021  0.2839 -0.8257
28242SOL     OW86338   5.529   1.009   2.716 -0.2430 -0.4430  0.0029
28242SOL    HW186339   5.536   1.070   2.643 -0.1231 -0.3007  0.1319
28242SOL    HW286340   5.547   0.923   2.678 -2.5378 -0.7133 -0.6142
28243SOL     OW86341   4.044   2.214   7.785  0.4847  0.1229  0.2805
28243SOL    HW186342   4.128   2.255   7.763  1.6765 -1.1386  2.2801
28243SOL    HW286343   4.032   2.147   7.717  0.4892  1.0577 -0.6763
28244SOL     OW86344   7.263   6.483   2.259  0.5719  0.1891 -0.1576
28244SOL    HW186345   7.247   6.476   2.165  0.5650  1.3053 -0.2507
28244SOL    HW286346   7.356   6.502   2.267  0.6770 -0.3926  0.0973
28245SOL     OW86347   2.669   2.244   3.395 -0.2435 -0.6795  0.1899
28245SOL    HW186348   2.713   2.252   3.480 -0.2481 -3.5305  0.5622
28245SOL    HW286349   2.579   2.218   3.416 -0.1987 -1.5969 -0.6754
28246SOL     OW86350   7.487   3.782   0.655 -0.4681 -0.5983 -0.3645
28246SOL    HW186351   7.518   3.729   0.728 -0.3949 -0.7980 -0.5392
28246SOL    HW286352   7.535   3.865   0.663  0.1844 -0.9369 -0.6827
28247SOL     OW86353   0.556   4.822   7.317  0.0163  0.0128  0.1967
28247SOL    HW186354   0.572   4.769   7.395  1.0073 -0.6726 -0.4482
28247SOL    HW286355   0.622   4.891   7.321 -0.3736  0.3829  0.3109
28248SOL     OW86356   7.615   6.300   0.003  0.1872 -0.0815 -0.1464
28248SOL    HW186357   7.531   6.342   0.020 -0.4262 -0.6791 -1.5769
28248SOL    HW286358   7.606   6.213   0.040  0.8164  0.4124  1.2248
28249SOL     OW86359   7.232   1.614   6.477 -0.6252  0.2458  0.3630
28249SOL    HW186360   7.286   1.546   6.438  2.1839  0.9148  2.7294
28249SOL    HW286361   7.219   1.586   6.568 -2.0842  1.4025  0.5519
28250SOL     OW86362   2.892   7.383   7.497 -0.6509  0.5997 -0.0128
28250SOL    HW186363   2.891   7.296   7.538  2.2695  0.6008  0.2788
28250SOL    HW286364   2.848   7.439   7.560 -1.1633 -0.3885  0.5396
28251SOL     OW86365   1.074   2.135   9.722 -0.1036  0.0355 -0.1823
28251SOL    HW186366   1.089   2.222   9.685  0.8628  1.2060  2.7049
28251SOL    HW286367   0.983   2.137   9.753 -0.4218 -0.3981 -1.0531
28252SOL     OW86368   7.626   5.266   8.374 -0.0176 -0.2299  0.0896
28252SOL    HW186369   7.670   5.281   8.458  1.1416 -2.6973  0.0096
28252SOL    HW286370   7.533   5.275   8.395  0.3190  1.4742  1.0899
28253SOL     OW86371   8.208   7.465   1.267 -0.4376 -0.7631 -0.0426
28253SOL    HW186372   8.268   7.518   1.214 -1.5922  3.0764  2.1293
28253SOL    HW286373   8.264   7.421   1.331  0.4116 -0.8586 -0.8368
28254SOL     OW86374   9.587   2.549   6.900  0.3030 -0.2739  0.1532
28254SOL    HW186375   9.578   2.536   6.994 -1.0840 -0.2219  0.0433
28254SOL    HW286376   9.588   2.461   6.863 -2.1863 -0.2969 -0.0080
28255SOL     OW86377   6.658   4.552   9.188  0.6850  0.3238  0.0450
28255SOL    HW186378   6.698   4.631   9.154  0.2299  0.0679 -1.1482
28255SOL    HW286379   6.728   4.486   9.186  0.2741 -0.1449 -2.1048
28256SOL     OW86380   5.645   6.765   5.911 -0.5947 -0.0014 -0.7323
28256SOL    HW186381   5.684   6.798   5.992  0.9881  1.8518 -2.1707
28256SOL    HW286382   5.705   6.696   5.881 -0.2124  0.5361 -1.2212
28257SOL     OW86383   8.398   7.939   6.700 -0.3523  0.5627 -0.6021
28257SOL    HW186384   8.469   7.946   6.763 -2.3636  2.5210  1.6650
28257SOL    HW286385   8.402   8.020   6.649 -0.2373  0.1344 -1.2785
28258SOL     OW86386   5.356   1.045   3.109 -0.3191  0.6868  0.0275
28258SOL    HW186387   5.311   0.993   3.176  2.6443  0.9910  2.4687
28258SOL    HW286388   5.344   1.135   3.137  0.3830  0.8756 -0.2794
28259SOL     OW86389   9.486   5.932   9.128  0.0752 -0.2074 -0.6015
28259SOL    HW186390   9.465   6.025   9.120  0.8548 -0.0884 -1.3676
28259SOL    HW286391   9.522   5.907   9.043 -1.2094 -1.5147 -0.8051
28260SOL     OW86392   2.089   9.631   8.177  0.1447 -0.5644  0.2097
28260SOL    HW186393   2.060   9.681   8.100  0.9353  0.3221  0.4704
28260SOL    HW286394   2.106   9.543   8.144  1.7956  0.1359 -0.9579
28261SOL     OW86395   1.912   6.128   0.539  0.7188 -0.1077 -0.0170
28261SOL    HW186396   1.915   6.036   0.563 -1.8502  0.2146  1.9017
28261SOL    HW286397   1.949   6.174   0.614  1.5134  0.4970 -0.7511
28262SOL     OW86398   5.165   8.312   4.205  0.3283  0.1719 -0.4336
28262SOL    HW186399   5.087   8.353   4.168  0.5935  1.3208  0.2256
28262SOL    HW286400   5.236   8.339   4.147  0.7371  1.9353  0.8142
28263SOL     OW86401   1.919   4.188   6.902 -0.4830  0.1069  0.4472
28263SOL    HW186402   1.913   4.101   6.862 -0.0201 -0.5083  1.6624
28263SOL    HW286403   1.993   4.229   6.858 -0.2761 -0.3751  0.3335
28264SOL     OW86404   8.890   4.222   1.129  0.2056 -0.2406  0.0588
28264SOL    HW186405   8.858   4.133   1.142  1.1413 -0.3366  2.0818
28264SOL    HW286406   8.813   4.278   1.144  0.2150 -0.6135  1.7159
28265SOL     OW86407   6.447   2.508   9.470 -0.0400  0.6540 -0.2845
28265SOL    HW186408   6.408   2.477   9.388 -0.6802  0.9752 -0.1113
28265SOL    HW286409   6.533   2.541   9.445  0.3069 -0.4469 -0.6144
28266SOL     OW86410   2.021   8.002   4.653  0.1165 -0.4624 -0.1366
28266SOL    HW186411   1.963   8.077   4.644  2.4760  1.8881  2.1313
28266SOL    HW286412   2.056   7.988   4.565 -1.2801  0.3167 -0.8442
28267SOL     OW86413   2.887   1.178   5.485  0.0093  0.4566  0.2090
28267SOL    HW186414   2.841   1.247   5.438  0.8547 -0.5655 -2.3200
28267SOL    HW286415   2.843   1.097   5.459  1.2095 -0.2487  0.2607
28268SOL     OW86416   2.269   2.296   8.442 -0.3806  0.0773 -0.5685
28268SOL    HW186417   2.271   2.272   8.534  1.5879  2.3514  0.0862
28268SOL    HW286418   2.176   2.312   8.423 -1.1405 -2.7864  0.2421
28269SOL     OW86419   7.444   0.870   9.021 -0.5173  0.0873  0.1412
28269SOL    HW186420   7.535   0.843   9.007 -0.7316 -0.9124  0.5638
28269SOL    HW286421   7.421   0.834   9.107 -1.3227  0.2860  0.0199
28270SOL     OW86422   4.711   5.698   9.595  0.2003 -0.1340 -0.4863
28270SOL    HW186423   4.746   5.656   9.673 -1.9742 -2.0546 -0.4517
28270SOL    HW286424   4.659   5.772   9.627 -0.2764 -0.6201 -0.1235
28271SOL     OW86425   9.603   5.223   1.130 -0.3904 -0.1555 -0.5811
28271SOL    HW186426   9.695   5.246   1.140  0.0724 -2.3927  1.0315
28271SOL    HW286427   9.564   5.243   1.215 -0.5606 -2.4490 -0.0503
28272SOL     OW86428   3.059   8.167   7.440  0.1503  0.0724  0.0054
28272SOL    HW186429   2.985   8.192   7.495 -1.4473  0.8434 -2.3401
28272SOL    HW286430   3.022   8.107   7.375  1.7474 -0.0977 -0.8080
28273SOL     OW86431   6.117   8.265   9.435  0.2321  0.1189 -0.4916
28273SOL    HW186432   6.046   8.205   9.460  0.8854 -0.4666  0.0043
28273SOL    HW286433   6.174   8.212   9.379  2.1068 -0.5357  1.8781
28274SOL     OW86434   4.131   3.332   7.104 -0.6024 -0.2345  0.2806
28274SOL    HW186435   4.112   3.239   7.099  1.9977 -0.8055 -0.1539
28274SOL    HW286436   4.064   3.373   7.049 -0.8118 -1.9990 -0.8311
28275SOL     OW86437   1.023   3.629   4.890 -0.8568  0.0287 -0.5449
28275SOL    HW186438   1.026   3.557   4.952 -1.1825 -0.8049 -1.4637
28275SOL    HW286439   1.102   3.679   4.907  0.4633 -1.7077 -1.2300
28276SOL     OW86440   7.204   5.795   5.459  1.0061 -0.5481  0.4882
28276SOL    HW186441   7.280   5.845   5.429  0.1187  2.2220  2.4469
28276SOL    HW286442   7.129   5.834   5.414  0.4788 -1.5467  0.4724
28277SOL     OW86443   7.606   5.772   9.300 -0.0906  0.0406  0.4423
28277SOL    HW186444   7.563   5.786   9.216  3.0548  1.5191 -1.0979
28277SOL    HW286445   7.620   5.860   9.335  1.3630 -0.3710  0.9730
28278SOL     OW86446   0.425   6.340   8.529  0.1081 -0.3489 -0.1117
28278SOL    HW186447   0.429   6.281   8.453  0.8788  0.5918 -0.8227
28278SOL    HW286448   0.393   6.285   8.600 -1.1568 -1.1345 -1.2350
28279SOL     OW86449   3.196   7.506   8.035 -0.5551  0.3080 -0.4207
28279SOL    HW186450   3.261   7.576   8.035 -0.6805  0.4616 -1.9513
28279SOL    HW286451   3.119   7.545   7.993 -1.9002  0.3273  1.8640
28280SOL     OW86452   5.284   2.110   9.819 -0.3643 -0.3482 -0.0093
28280SOL    HW186453   5.196   2.074   9.806 -0.5433 -0.3138  0.9978
28280SOL    HW286454   5.320   2.119   9.731 -1.1863 -0.8238 -0.4039
28281SOL     OW86455   6.019   7.986   6.562 -0.0820  0.1229 -0.0277
28281SOL    HW186456   6.079   8.007   6.633 -0.9704  1.4260  0.3835
28281SOL    HW286457   6.075   7.967   6.487  0.8647 -0.8710  0.9087
28282SOL     OW86458   1.379   9.136   3.274  0.5883  0.7870  0.3829
28282SOL    HW186459   1.423   9.141   3.359  0.6593  1.2460  0.3258
28282SOL    HW286460   1.286   9.137   3.294  0.5440 -1.9561  0.6058
28283SOL     OW86461   8.220   9.514   5.099  0.6695 -0.2748  0.0051
28283SOL    HW186462   8.197   9.458   5.025  0.2880 -0.7729  0.4950
28283SOL    HW286463   8.196   9.602   5.072 -1.4904 -0.7059  0.3404
28284SOL     OW86464   4.105   6.783   4.941  0.6288 -0.3533 -0.8791
28284SOL    HW186465   4.038   6.835   4.985  1.4785 -0.2767  0.4152
28284SOL    HW286466   4.150   6.845   4.884 -0.0619 -0.2911 -1.3674
28285SOL     OW86467   7.217   0.960   9.638 -0.1182 -0.2347  0.8777
28285SOL    HW186468   7.203   1.046   9.677  1.5416 -0.2891  1.6555
28285SOL    HW286469   7.135   0.942   9.591 -0.2184  2.1052  0.0017
28286SOL     OW86470   9.248   8.184   6.530 -0.7913 -0.1513 -0.6522
28286SOL    HW186471   9.171   8.129   6.532 -0.9431  0.0628 -0.4694
28286SOL    HW286472   9.240   8.239   6.609 -1.7992  1.7042 -1.9752
28287SOL     OW86473   8.104   1.702   4.115  0.5578  0.4144  0.7109
28287SOL    HW186474   8.134   1.793   4.120 -0.6396  0.7908  1.7301
28287SOL    HW286475   8.008   1.709   4.116  0.4458 -0.8236 -0.1079
28288SOL     OW86476   8.296   5.450   3.740 -0.2560  0.1091  0.3722
28288SOL    HW186477   8.320   5.371   3.789  2.9936  1.3490  1.0148
28288SOL    HW286478   8.304   5.424   3.648 -0.0196 -0.5243  0.5662
28289SOL     OW86479   7.554   6.362   5.822  0.1497  0.5418 -0.4475
28289SOL    HW186480   7.485   6.332   5.880  1.5235 -0.3447  0.7870
28289SOL    HW286481   7.569   6.453   5.848  0.2959  0.3530  0.1419
28290SOL     OW86482   5.855   3.137   1.194  0.4073 -0.0453 -0.5078
28290SOL    HW186483   5.949   3.126   1.181  0.1494 -1.1078 -1.6192
28290SOL    HW286484   5.826   3.053   1.231 -0.3562 -0.3608 -1.7692
28291SOL     OW86485   9.453   6.039   5.359  0.4259  0.1762  0.2321
28291SOL    HW186486   9.490   6.076   5.279  0.0803 -0.8191 -0.4146
28291SOL    HW286487   9.377   6.094   5.378  1.7384  1.7642  1.1388
28292SOL     OW86488   7.120   2.110   2.979  0.1386  0.1419  0.1278
28292SOL    HW186489   7.214   2.099   2.962  0.0206  1.2877 -1.6044
28292SOL    HW286490   7.082   2.123   2.892 -1.8636 -1.6697  0.6591
28293SOL     OW86491   0.239   6.141   2.559  0.1944  0.4005 -0.0941
28293SOL    HW186492   0.300   6.215   2.569 -0.1689  0.6390  0.3845
28293SOL    HW286493   0.290   6.074   2.513  0.4107  1.0898 -0.8816
28294SOL     OW86494   2.622   4.376   1.855 -0.1932 -0.0683 -0.1426
28294SOL    HW186495   2.648   4.325   1.779  1.7743  0.1833  0.2892
28294SOL    HW286496   2.563   4.443   1.820 -0.7690 -1.0508 -1.1190
28295SOL     OW86497   8.597   3.556   0.067  0.2790  0.1215  0.2459
28295SOL    HW186498   8.679   3.585   0.105  0.5862  0.4814 -0.6483
28295SOL    HW286499   8.622   3.514  -0.015 -0.4624  0.8016 -0.3531
28296SOL     OW86500   0.559   7.377   5.333  0.2249  0.3555  0.3508
28296SOL    HW186501   0.587   7.365   5.424  0.4764  1.2680  0.4046
28296SOL    HW286502   0.628   7.430   5.294 -0.0263  0.2072 -0.3005
28297SOL     OW86503   5.130   5.606   1.909  0.3600  0.0616 -0.4999
28297SOL    HW186504   5.086   5.622   1.826 -1.0429 -0.5611  0.0934
28297SOL    HW286505   5.172   5.690   1.931 -1.1065  0.8943 -0.7619
28298SOL     OW86506   5.749   9.567   9.515 -0.3878  0.5289  0.2440
28298SOL    HW186507   5.656   9.565   9.495 -0.4095  0.4158  0.3546
28298SOL    HW286508   5.777   9.476   9.512 -0.9691  0.1461  3.3233
28299SOL     OW86509   4.950   5.782   4.768 -0.2474 -0.3063 -0.3714
28299SOL    HW186510   4.888   5.849   4.797 -1.5677 -1.8723  0.5906
28299SOL    HW286511   4.920   5.757   4.681 -0.0703 -0.0354 -0.5126
28300SOL     OW86512   2.418   3.865   1.793 -0.6091  0.2007  0.1056
28300SOL    HW186513   2.419   3.796   1.859 -0.2955  0.0865 -0.0204
28300SOL    HW286514   2.364   3.934   1.832  2.3150  1.6038  1.9839
28301SOL     OW86515   5.332   7.546   1.930  1.2370  0.0870 -0.2905
28301SOL    HW186516   5.261   7.606   1.952 -0.4734 -1.7110 -0.6964
28301SOL    HW286517   5.302   7.499   1.853  0.7882 -3.8712  2.0150
28302SOL     OW86518   3.929   9.147   1.018 -0.2710  0.4913 -0.1746
28302SOL    HW186519   3.860   9.126   0.954 -0.1977 -0.0723 -0.0770
28302SOL    HW286520   3.978   9.218   0.977 -0.8275  0.8081 -0.3054
28303SOL     OW86521   6.875   6.856   9.743 -0.1394  0.5704  0.3458
28303SOL    HW186522   6.889   6.763   9.726 -2.1512 -0.0447  1.6603
28303SOL    HW286523   6.894   6.866   9.837  2.0170  1.9673 -0.1471
28304SOL     OW86524   7.503   3.321   2.771 -0.6793  0.3934  0.0622
28304SOL    HW186525   7.565   3.336   2.699 -2.4146  1.2635 -1.3468
28304SOL    HW286526   7.557   3.316   2.849  1.0845  2.1544 -0.9576
28305SOL     OW86527   2.354   1.793   7.463  0.5185 -0.6060  0.5292
28305SOL    HW186528   2.397   1.724   7.513  0.2990 -0.1487  1.3641
28305SOL    HW286529   2.307   1.845   7.529  0.0598 -0.1107 -0.1722
28306SOL     OW86530   1.874   7.620   3.615 -0.3965 -0.2321 -0.6093
28306SOL    HW186531   1.941   7.660   3.560 -0.5540 -0.0057 -0.6370
28306SOL    HW286532   1.917   7.610   3.700 -0.5377  0.5361 -0.4390
28307SOL     OW86533   2.279   1.143   3.285  0.2507  0.4312  0.5024
28307SOL    HW186534   2.358   1.173   3.331  2.4982 -0.7047 -2.3141
28307SOL    HW286535   2.261   1.211   3.221 -2.2323  1.5004  2.1768
28308SOL     OW86536   1.324   8.240   5.146  0.1497  0.1279  0.0251
28308SOL    HW186537   1.245   8.222   5.196  0.1798  1.0539  0.4266
28308SOL    HW286538   1.360   8.154   5.125 -0.5990 -0.2843  0.4229
28309SOL     OW86539   7.935   6.625   9.683  0.1681 -0.0435  0.9958
28309SOL    HW186540   8.006   6.561   9.686  0.2249 -0.3178 -2.1951
28309SOL    HW286541   7.867   6.588   9.739  1.1887 -1.6063  1.2656
28310SOL     OW86542   3.554   6.595   7.915  0.4418 -0.0397  0.7530
28310SOL    HW186543   3.546   6.500   7.904 -1.2511  0.0692  0.7245
28310SOL    HW286544   3.473   6.630   7.878  1.2327  1.4559  0.3791
28311SOL     OW86545   3.474   8.631   6.487  0.3574 -0.1240  0.5583
28311SOL    HW186546   3.488   8.684   6.566 -0.1000  1.5576 -0.4333
28311SOL    HW286547   3.538   8.666   6.424 -1.0532  0.3895 -0.6387
28312SOL     OW86548   7.758   3.987   8.965  0.2182  0.7416 -0.7051
28312SOL    HW186549   7.820   4.052   8.932  0.6883  1.1493  0.9251
28312SOL    HW286550   7.810   3.930   9.021 -0.5014 -0.1122 -0.8805
28313SOL     OW86551   0.200   8.673   5.298  0.1147  0.5173  0.4618
28313SOL    HW186552   0.247   8.644   5.220 -0.4206  3.1806 -0.9778
28313SOL    HW286553   0.192   8.594   5.352  1.3003 -1.2332 -1.7378
28314SOL     OW86554   4.611   6.035   4.517 -0.2626  0.0133  0.4019
28314SOL    HW186555   4.637   6.127   4.510  0.5655  0.2221  4.0150
28314SOL    HW286556   4.516   6.036   4.511 -0.3218  1.2533  1.1500
28315SOL     OW86557   1.123   8.313   9.613 -0.3420 -0.1636  0.2627
28315SOL    HW186558   1.152   8.311   9.704  0.4753 -0.1221  0.0086
28315SOL    HW286559   1.077   8.230   9.601  0.1853 -0.4992  0.5095
28316SOL     OW86560   3.272   8.258   6.224 -0.5480  0.8422 -0.1907
28316SOL    HW186561   3.280   8.340   6.273  1.9999  0.9643 -0.6971
28316SOL    HW286562   3.348   8.256   6.167 -0.7333 -1.7319 -0.4750
28317SOL     OW86563   2.294   9.776   7.699  0.1267  0.6261 -0.1508
28317SOL    HW186564   2.271   9.820   7.617  0.6789 -0.5537 -0.9499
28317SOL    HW286565   2.332   9.693   7.673  0.2198  0.1758  1.3133
28318SOL     OW86566   1.336   8.271   6.889  0.2075 -0.4944  0.3350
28318SOL    HW186567   1.287   8.217   6.827 -1.7653 -0.6164  1.9229
28318SOL    HW286568   1.417   8.293   6.842 -1.4879  0.0649 -2.5924
28319SOL     OW86569   0.240   1.031   9.759  0.0745 -0.0102  0.0382
28319SOL    HW186570   0.293   1.103   9.724  0.9491 -0.5703  0.1672
28319SOL    HW286571   0.161   1.032   9.706 -0.5779  1.9290  0.9404
28320SOL     OW86572   2.943   7.539   4.487  0.2170  0.0746  0.1490
28320SOL    HW186573   2.950   7.516   4.394 -2.6762  0.3039 -0.2028
28320SOL    HW286574   2.904   7.626   4.487  0.4033  0.1724  1.5807
28321SOL     OW86575   0.508   2.404   6.642 -0.1292 -0.1531  0.3637
28321SOL    HW186576   0.465   2.394   6.727 -1.4695  0.8521 -0.1557
28321SOL    HW286577   0.459   2.345   6.584  0.4791 -0.4799  0.1678
28322SOL     OW86578   7.991   7.255   4.076 -0.1887  0.6042  0.2603
28322SOL    HW186579   7.944   7.306   4.142  0.9362  1.0605  0.7324
28322SOL    HW286580   7.922   7.219   4.020 -1.0535  2.4705  0.0280
28323SOL     OW86581   5.905   4.585   3.630 -0.0165  0.1073 -0.3703
28323SOL    HW186582   5.893   4.604   3.537 -0.0758 -0.5963 -0.5103
28323SOL    HW286583   5.998   4.599   3.646  0.0503 -0.0653 -0.6063
28324SOL     OW86584   6.352   7.233   7.829  0.2305  0.5065 -0.2730
28324SOL    HW186585   6.418   7.296   7.858 -0.3606 -0.3657  3.5196
28324SOL    HW286586   6.392   7.189   7.753  2.2529  2.7237 -0.5919
28325SOL     OW86587   0.835   9.371   4.061  0.0636  0.2641  0.4613
28325SOL    HW186588   0.833   9.366   3.965  1.9408 -0.5455  0.4075
28325SOL    HW286589   0.779   9.445   4.083 -1.8649 -0.6196 -1.1369
28326SOL     OW86590   2.926   7.393   8.620 -0.0799  0.2806 -0.1831
28326SOL    HW186591   2.851   7.335   8.605 -2.0434  2.3941  0.8278
28326SOL    HW286592   2.937   7.393   8.715  1.4529 -0.2012 -0.3250
28327SOL     OW86593   6.494   2.648   9.172 -0.5083  0.2324  0.1904
28327SOL    HW186594   6.483   2.563   9.131 -1.3781  0.8267 -0.8593
28327SOL    HW286595   6.415   2.697   9.148 -0.9806  0.6809  2.4260
28328SOL     OW86596   0.758   4.655   7.175  0.9169  0.2667 -0.5424
28328SOL    HW186597   0.821   4.663   7.246 -0.4280  0.1803  0.6939
28328SOL    HW286598   0.696   4.726   7.189 -0.8194 -1.2713 -0.0919
28329SOL     OW86599   2.200   8.390   3.829  0.3415  0.1714 -0.1384
28329SOL    HW186600   2.288   8.368   3.860  0.0994 -1.9041 -0.7513
28329SOL    HW286601   2.143   8.370   3.903  0.3031  0.7517 -0.0087
28330SOL     OW86602   8.114   1.087   6.168 -0.5189 -0.0935  0.7312
28330SOL    HW186603   8.196   1.039   6.173 -0.8648 -1.3258 -2.5084
28330SOL    HW286604   8.140   1.176   6.146  0.0099 -0.3684  0.1943
28331SOL     OW86605   4.513   0.604   9.709 -0.0793 -0.5048  0.3385
28331SOL    HW186606   4.599   0.632   9.675 -1.3907  1.6747 -1.5232
28331SOL    HW286607   4.507   0.511   9.686  1.2246 -0.3438 -0.8015
28332SOL     OW86608   1.249   0.236   5.437 -0.0086  0.0374  0.5105
28332SOL    HW186609   1.212   0.172   5.376  0.8832 -0.6438  0.6629
28332SOL    HW286610   1.214   0.212   5.522  0.6373 -0.4918  0.6270
28333SOL     OW86611   2.909   1.940   4.086  0.0084  0.5537 -0.1831
28333SOL    HW186612   2.843   2.000   4.122 -0.1132  1.3727 -1.7307
28333SOL    HW286613   2.891   1.857   4.131 -1.7302  0.9045 -0.1345
28334SOL     OW86614   7.304   5.532   5.116  0.4642  0.4411  0.2680
28334SOL    HW186615   7.293   5.571   5.030  1.2738  0.0519 -0.0245
28334SOL    HW286616   7.329   5.441   5.098 -2.5000 -0.6266  0.9247
28335SOL     OW86617   7.448   1.563   9.444 -0.4577  0.3754  0.4351
28335SOL    HW186618   7.519   1.511   9.482 -0.4672  0.3578  0.4288
28335SOL    HW286619   7.415   1.615   9.517 -0.6047  0.1980  0.4972
28336SOL     OW86620   1.487   3.787   3.670  0.0674 -0.0841  0.0243
28336SOL    HW186621   1.452   3.708   3.628 -0.1483  0.8377 -1.6268
28336SOL    HW286622   1.434   3.858   3.634 -1.0053  0.6913  2.8963
28337SOL     OW86623   0.406   2.360   2.377 -0.1848  0.8157 -0.4965
28337SOL    HW186624   0.487   2.412   2.381 -0.2493  0.8736  0.1959
28337SOL    HW286625   0.349   2.399   2.443 -0.0511 -0.4234  0.3926
28338SOL     OW86626   6.705   4.105   2.275 -0.2608  0.0248  0.5193
28338SOL    HW186627   6.775   4.046   2.247  1.4341  1.6064  1.1814
28338SOL    HW286628   6.709   4.103   2.371  1.0809  2.4755  0.6092
28339SOL     OW86629   1.657   0.799   7.490  1.1318  0.2381  0.0412
28339SOL    HW186630   1.659   0.781   7.584  1.4004 -2.1140 -0.3619
28339SOL    HW286631   1.616   0.722   7.451  0.6294  1.3468 -1.7638
28340SOL     OW86632   8.424   1.982   5.225  0.8298  0.1424 -0.9487
28340SOL    HW186633   8.349   1.923   5.229  1.1984 -0.3908 -1.7216
28340SOL    HW286634   8.402   2.044   5.156 -0.3961  2.1334  1.0944
28341SOL     OW86635   1.558   3.014   4.582  0.0525 -0.0702  0.6320
28341SOL    HW186636   1.596   2.931   4.552 -0.0537 -0.7728  2.3195
28341SOL    HW286637   1.625   3.052   4.638  0.7611  1.8364 -1.3776
28342SOL     OW86638   4.078   6.010   8.854  0.6417 -0.0640  0.1509
28342SOL    HW186639   4.114   6.095   8.881 -1.8978  1.2908 -0.4722
28342SOL    HW286640   4.150   5.969   8.805  1.7943  1.9136  0.0581
28343SOL     OW86641   4.883   9.257   3.483 -0.8059 -0.4201 -0.3506
28343SOL    HW186642   4.972   9.257   3.518 -0.7304  1.7598 -0.4091
28343SOL    HW286643   4.862   9.350   3.471 -3.1484 -0.8782 -0.1939
28344SOL     OW86644   8.563   9.722   5.685  0.1836  0.0724  0.7116
28344SOL    HW186645   8.471   9.717   5.658  0.0060  0.4716  1.2223
28344SOL    HW286646   8.566   9.679   5.770  0.5882 -0.4659  0.4290
28345SOL     OW86647   9.288   0.491   2.052 -0.0176  0.0241 -0.0819
28345SOL    HW186648   9.337   0.418   2.089  0.5739  0.4784  0.0334
28345SOL    HW286649   9.336   0.569   2.079 -1.5239  0.5718  1.1842
28346SOL     OW86650   3.766   6.788   5.050  0.2859 -0.7998  0.3704
28346SOL    HW186651   3.765   6.757   4.959  0.5724 -1.5707  0.6180
28346SOL    HW286652   3.834   6.855   5.053  0.7659 -1.2671  0.1608
28347SOL     OW86653   4.968   0.402   5.308 -0.6983  0.2169  0.4327
28347SOL    HW186654   4.926   0.327   5.266  0.1229  0.2471 -0.4914
28347SOL    HW286655   5.062   0.387   5.294 -0.4745  0.9085  1.1218
28348SOL     OW86656   7.974   3.917   7.711  0.0415  0.1056 -0.0852
28348SOL    HW186657   8.046   3.858   7.689 -0.6446 -1.3176  1.3168
28348SOL    HW286658   7.981   3.929   7.806 -0.2090  1.8152 -0.2587
28349SOL     OW86659   3.301   1.936   5.667 -0.0017 -0.9089  0.7272
28349SOL    HW186660   3.273   1.846   5.654  0.4778 -0.9830  0.2049
28349SOL    HW286661   3.357   1.956   5.592 -0.3416 -0.0812  0.6748
28350SOL     OW86662   8.993   9.372   2.153  0.0024  0.0844 -0.3630
28350SOL    HW186663   9.021   9.366   2.244  0.8542  0.0731 -0.6198
28350SOL    HW286664   8.996   9.466   2.134 -0.0611  0.0759 -0.4166
28351SOL     OW86665   8.482   8.748   1.374  0.3924  0.2137  0.0032
28351SOL    HW186666   8.480   8.709   1.286 -0.0756  1.2451 -0.4643
28351SOL    HW286667   8.402   8.799   1.379  2.3398  3.6633 -0.6725
28352SOL     OW86668   7.075   5.137   8.874 -0.0263  0.1377 -0.3491
28352SOL    HW186669   7.034   5.204   8.928  1.3818  1.2010 -0.5704
28352SOL    HW286670   7.085   5.062   8.932 -0.6011  0.4933  0.2139
28353SOL     OW86671   9.692   6.656   8.681  0.1414 -0.0781 -0.1404
28353SOL    HW186672   9.689   6.578   8.737  0.2119 -0.6474 -0.9041
28353SOL    HW286673   9.664   6.728   8.737  3.2095 -0.0654  1.5743
28354SOL     OW86674   6.424   2.383   9.715 -0.0180  0.4696 -0.1312
28354SOL    HW186675   6.401   2.429   9.635  0.8629 -0.2501 -0.8158
28354SOL    HW286676   6.341   2.370   9.760 -0.6991 -0.2357 -1.5381
28355SOL     OW86677   2.509   5.242   9.761 -0.3026  0.4765  0.1607
28355SOL    HW186678   2.445   5.197   9.817 -0.4305  0.6882  0.1893
28355SOL    HW286679   2.490   5.210   9.672 -0.4513  0.5418  0.1691
28356SOL     OW86680   3.936   8.324   2.636  0.0757 -0.0090  0.2186
28356SOL    HW186681   3.939   8.368   2.551 -1.1240 -0.0234  0.1551
28356SOL    HW286682   3.942   8.395   2.700  0.1924  0.0672  0.1246
28357SOL     OW86683   3.003   8.827   8.364  0.2621  0.0868  0.2418
28357SOL    HW186684   2.945   8.850   8.292 -0.3147 -0.1139  0.6381
28357SOL    HW286685   2.982   8.888   8.434 -0.6351 -1.0233  0.9674
28358SOL     OW86686   1.386   9.095   7.563  0.6356 -0.4833 -0.2754
28358SOL    HW186687   1.451   9.036   7.601  0.8813  0.2485  0.4513
28358SOL    HW286688   1.428   9.127   7.482  1.1525 -0.0771  0.1477
28359SOL     OW86689   2.919   8.832   3.145  0.1075  0.2703 -0.2408
28359SOL    HW186690   2.938   8.890   3.219 -0.7107  1.1964 -0.7384
28359SOL    HW286691   2.891   8.750   3.186 -3.7969  1.8044  0.6539
28360SOL     OW86692   7.033   5.728   1.085 -0.1723 -0.2335 -0.4864
28360SOL    HW186693   7.034   5.689   0.998  1.3231 -0.4214 -0.4088
28360SOL    HW286694   7.016   5.655   1.144 -2.3932  0.0688 -0.6461
28361SOL     OW86695   0.518   9.665   9.222 -0.2433  0.0722 -0.0129
28361SOL    HW186696   0.607   9.633   9.229  0.0748  0.9815  0.2152
28361SOL    HW286697   0.486   9.669   9.312 -1.5814 -3.0872 -0.2298
28362SOL     OW86698   1.424   4.638   4.597  0.0134 -0.1961 -0.1396
28362SOL    HW186699   1.398   4.556   4.638  0.6753 -0.4261 -0.1636
28362SOL    HW286700   1.458   4.691   4.669 -2.1887  0.8297  0.2182
28363SOL     OW86701   8.724   0.342   0.219  0.2499 -0.2513  0.2518
28363SOL    HW186702   8.664   0.417   0.226 -0.4687 -0.4313 -2.5015
28363SOL    HW286703   8.811   0.379   0.237 -0.4434  0.4127  2.4925
28364SOL     OW86704   0.184   0.216   6.894  0.4535 -0.5317  0.3310
28364SOL    HW186705   0.238   0.270   6.952  2.9560 -2.2292 -0.2625
28364SOL    HW286706   0.174   0.269   6.815  0.1887  0.2908  0.8959
28365SOL     OW86707   8.594   8.803   6.099 -0.1551 -0.5653  0.5429
28365SOL    HW186708   8.590   8.780   6.006 -0.0754 -1.0868  0.6642
28365SOL    HW286709   8.545   8.885   6.106 -0.1471 -0.5157  0.0399
28366SOL     OW86710   6.075   1.363   4.934  0.0306  0.1950 -0.3778
28366SOL    HW186711   6.025   1.327   4.861 -1.1900 -0.1802  0.6102
28366SOL    HW286712   6.124   1.436   4.895 -2.7394  1.8395 -1.0638
28367SOL     OW86713   5.064   3.504   4.090  0.0184 -0.4676 -0.6053
28367SOL    HW186714   4.972   3.480   4.102  0.5517 -2.2415  0.3341
28367SOL    HW286715   5.085   3.558   4.166 -0.5539  1.0682 -1.4935
28368SOL     OW86716   4.669   5.345   8.265 -0.3871  0.2216 -0.0790
28368SOL    HW186717   4.642   5.261   8.302 -1.6550  0.3030 -0.7537
28368SOL    HW286718   4.630   5.346   8.178 -0.9502  1.7695  0.1609
28369SOL     OW86719   0.505   7.959   4.068  0.3851  0.3400  0.3637
28369SOL    HW186720   0.535   7.881   4.021 -1.0379  0.4149 -0.7029
28369SOL    HW286721   0.561   7.961   4.146  1.2648 -1.0600 -0.1727
28370SOL     OW86722   1.869   9.193   7.651 -0.5508  0.1682 -0.4086
28370SOL    HW186723   1.903   9.121   7.597  0.0144 -0.8945  1.2772
28370SOL    HW286724   1.946   9.247   7.669 -0.3224 -0.5447  0.8714
28371SOL     OW86725   7.261   1.153   5.451  0.0084  0.3582  0.7134
28371SOL    HW186726   7.170   1.122   5.448  0.2352 -0.4884  1.8969
28371SOL    HW286727   7.309   1.093   5.394 -0.2489  1.1825 -0.4143
28372SOL     OW86728   5.060   5.647   7.319  0.0782  0.4372 -0.1822
28372SOL    HW186729   5.033   5.555   7.322  1.4819 -0.1471 -2.6087
28372SOL    HW286730   4.980   5.695   7.302 -0.4404 -0.5208 -0.5356
28373SOL     OW86731   8.359   1.665   7.476 -0.4451  0.0069 -0.5319
28373SOL    HW186732   8.335   1.620   7.395 -0.8279 -0.8404  0.0402
28373SOL    HW286733   8.407   1.599   7.526 -0.3619  0.4706  0.0074
28374SOL     OW86734   0.793   8.161   0.610 -0.0063 -0.1388 -0.1887
28374SOL    HW186735   0.829   8.090   0.662  1.2489  0.0082 -0.8137
28374SOL    HW286736   0.704   8.133   0.588 -0.4080 -0.3792  1.6513
28375SOL     OW86737   4.972   4.912   7.157 -0.2873 -0.1823  0.6201
28375SOL    HW186738   5.032   4.848   7.117  0.4519 -1.0740  2.9921
28375SOL    HW286739   5.029   4.969   7.208 -1.1508  1.2430  0.0524
28376SOL     OW86740   8.733   1.071   6.045 -0.4711  0.5989 -0.0341
28376SOL    HW186741   8.697   1.008   5.983  1.4717 -0.2345 -0.3865
28376SOL    HW286742   8.710   1.157   6.008 -2.9905  0.1911  0.3704
28377SOL     OW86743   6.987   6.094   9.834  0.2084  0.2692 -0.2560
28377SOL    HW186744   6.952   6.030   9.896  1.2024 -2.0571 -1.9420
28377SOL    HW286745   6.921   6.097   9.764  1.3050 -0.9179 -1.3998
28378SOL     OW86746   3.619   2.609   0.076 -0.0704 -0.0151 -0.1363
28378SOL    HW186747   3.537   2.647   0.109 -0.5291 -0.6469 -0.5406
28378SOL    HW286748   3.595   2.565  -0.005  0.9207  0.9422 -0.9953
28379SOL     OW86749   7.720   9.145   5.823 -0.1439 -0.5626  0.4040
28379SOL    HW186750   7.664   9.067   5.826 -1.0842  0.0489 -0.2817
28379SOL    HW286751   7.771   9.142   5.904 -0.3779 -1.7235  0.5305
28380SOL     OW86752   6.054   7.547   4.580  0.2731  0.2376 -0.2393
28380SOL    HW186753   6.095   7.472   4.536 -0.8540 -0.6571  0.2068
28380SOL    HW286754   6.079   7.538   4.672 -0.3502  0.0693 -0.0830
28381SOL     OW86755   2.906   1.910   7.699 -0.5830 -0.2626  0.0552
28381SOL    HW186756   2.908   1.886   7.606  1.6404 -0.3404  0.0747
28381SOL    HW286757   2.898   1.827   7.745 -0.5174 -0.3150 -0.0277
28382SOL     OW86758   9.222   2.671   9.811 -0.2132  0.1073  1.0071
28382SOL    HW186759   9.217   2.623   9.729 -0.2661 -0.0172  1.0841
28382SOL    HW286760   9.220   2.604   9.879  0.3312  0.1768  1.0984
28383SOL     OW86761   5.182   7.798   3.183 -0.6115 -0.1683  0.0991
28383SOL    HW186762   5.138   7.877   3.215  0.2318  0.8013 -1.0608
28383SOL    HW286763   5.262   7.792   3.235 -0.2510  0.2491 -0.3939
28384SOL     OW86764   6.130   5.503   7.084 -0.2835  0.1688 -0.0182
28384SOL    HW186765   6.158   5.593   7.067  0.0929  0.2542  0.9813
28384SOL    HW286766   6.041   5.498   7.048 -0.7559  1.2907  0.9168
28385SOL     OW86767   9.043   1.639   6.599 -0.4201 -0.2788  0.4616
28385SOL    HW186768   9.072   1.564   6.651 -0.1340 -0.0133  0.6854
28385SOL    HW286769   9.096   1.712   6.630 -1.0501  0.1281  0.5930
28386SOL     OW86770   2.809   0.226   0.419 -0.6642 -0.2370 -0.0780
28386SOL    HW186771   2.752   0.150   0.406 -1.5029  0.2802  0.5306
28386SOL    HW286772   2.833   0.253   0.331 -0.5841 -1.0305 -0.3109
28387SOL     OW86773   8.174   8.964   7.236  0.6021 -0.4663 -0.6112
28387SOL    HW186774   8.186   9.026   7.164  0.5843 -0.9203 -1.0175
28387SOL    HW286775   8.263   8.937   7.259  0.5589 -1.4174 -1.4606
28388SOL     OW86776   7.145   2.481   4.713 -0.0470 -0.0415  0.0285
28388SOL    HW186777   7.089   2.408   4.740  0.8382 -1.0201 -0.7010
28388SOL    HW286778   7.234   2.446   4.716  0.5185  1.3696  0.8005
28389SOL     OW86779   4.471   5.253   8.870 -0.2069 -0.2999  0.5614
28389SOL    HW186780   4.457   5.163   8.899 -1.6384 -0.2643  0.0213
28389SOL    HW286781   4.531   5.245   8.796 -0.1596 -0.7942  0.6466
28390SOL     OW86782   0.613   6.412   7.895 -0.3031 -0.1019 -0.2506
28390SOL    HW186783   0.676   6.352   7.936 -0.4416 -0.5498 -0.6840
28390SOL    HW286784   0.618   6.491   7.948 -0.2808 -0.5709  0.4687
28391SOL     OW86785   1.694   3.691   3.265 -0.6446  0.3907  0.0547
28391SOL    HW186786   1.625   3.756   3.282 -1.6932 -0.8925  0.8547
28391SOL    HW286787   1.646   3.612   3.239  0.5793 -0.2716 -0.2454
28392SOL     OW86788   9.516   2.253   3.008  0.0310 -0.3912 -0.3933
28392SOL    HW186789   9.463   2.193   3.060  2.5069 -1.6369  0.8972
28392SOL    HW286790   9.457   2.326   2.988 -1.8810 -1.2437  1.6600
28393SOL     OW86791   8.848   3.866   4.529  0.2898 -0.3387 -0.1033
28393SOL    HW186792   8.851   3.946   4.477 -0.6656  0.1733  0.6113
28393SOL    HW286793   8.935   3.859   4.567  0.5796  0.0061 -0.6825
28394SOL     OW86794   0.843   9.249   0.753  0.2479  0.3079 -0.3460
28394SOL    HW186795   0.856   9.160   0.719 -0.5419  0.1998 -0.3744
28394SOL    HW286796   0.878   9.305   0.683  0.3179  0.0387 -0.5323
28395SOL     OW86797   4.971   0.259   6.433  0.2181  0.0142  0.1537
28395SOL    HW186798   4.988   0.352   6.449 -0.0665 -0.0345  0.7643
28395SOL    HW286799   5.056   0.223   6.408  0.5111  0.2718  0.7531
28396SOL     OW86800   3.330   5.804   9.366 -0.3721 -0.2379  0.5279
28396SOL    HW186801   3.254   5.746   9.363  0.1609 -0.9261  0.0053
28396SOL    HW286802   3.301   5.880   9.417 -0.8015 -1.3686  2.0262
28397SOL     OW86803   6.890   2.979   0.875 -0.1316 -0.2329  0.4791
28397SOL    HW186804   6.915   3.066   0.906  0.8612  0.2244 -1.4790
28397SOL    HW286805   6.965   2.923   0.897  1.0686  0.3220 -1.9082
28398SOL     OW86806   7.392   8.273   1.708  0.4336  0.2654 -0.0257
28398SOL    HW186807   7.344   8.200   1.747  0.1984  0.1936 -0.4312
28398SOL    HW286808   7.378   8.262   1.614 -0.2534  1.2648 -0.0607
28399SOL     OW86809   2.366   4.241   5.353  0.1940 -0.3283  0.0959
28399SOL    HW186810   2.338   4.152   5.371 -0.2024 -0.5514 -1.4966
28399SOL    HW286811   2.317   4.267   5.275  0.6677  1.1094  0.2392
28400SOL     OW86812   2.118   7.827   5.386  0.1768  0.1022  0.1670
28400SOL    HW186813   2.072   7.882   5.322  1.5539 -0.2852 -1.2272
28400SOL    HW286814   2.195   7.878   5.410 -0.5114  0.4107  1.8768
28401SOL     OW86815   3.129   0.040   6.476 -0.2805 -0.7197 -0.3109
28401SOL    HW186816   3.209   0.007   6.433  0.5124 -1.4352  1.5747
28401SOL    HW286817   3.085  -0.039   6.507 -0.6920 -0.2391  0.3599
28402SOL     OW86818   2.715   7.925   2.525  0.4075 -0.3063  0.2236
28402SOL    HW186819   2.717   7.948   2.618 -2.4990 -2.0940  0.8789
28402SOL    HW286820   2.688   7.833   2.524 -1.5292  0.1637 -2.3665
28403SOL     OW86821   1.441   9.155   3.535  0.4062  0.2278 -0.2132
28403SOL    HW186822   1.393   9.221   3.586  0.6532 -0.0392  0.3691
28403SOL    HW286823   1.498   9.112   3.599  0.1152 -0.6778 -0.5546
28404SOL     OW86824   8.998   1.914   8.798 -0.4580  0.0422  0.2111
28404SOL    HW186825   9.021   1.917   8.705 -0.9352  0.5580  0.1024
28404SOL    HW286826   9.069   1.865   8.839 -1.0952 -1.7268 -0.6913
28405SOL     OW86827   5.329   3.261   6.911 -0.2006  0.1421 -0.3730
28405SOL    HW186828   5.368   3.256   6.824 -0.5599  1.0083 -0.6003
28405SOL    HW286829   5.291   3.175   6.927 -1.5669  0.4468 -1.7688
28406SOL     OW86830   9.508   9.678   1.464  0.1825 -0.9014  0.2899
28406SOL    HW186831   9.425   9.684   1.417  0.1925  0.5168  0.4117
28406SOL    HW286832   9.557   9.610   1.417 -0.3050 -0.4143 -0.9660
28407SOL     OW86833   7.906   9.339   6.191  0.5696  0.0661  0.2074
28407SOL    HW186834   7.951   9.256   6.201 -0.8015 -0.6731  0.4641
28407SOL    HW286835   7.928   9.389   6.270  1.8573  0.1971 -0.2149
28408SOL     OW86836   0.359   0.204   6.051  0.0718 -0.3730  0.5028
28408SOL    HW186837   0.396   0.146   5.984 -0.2028 -1.3766  1.1867
28408SOL    HW286838   0.267   0.178   6.057  0.1271 -0.3997  1.3661
28409SOL     OW86839   1.732   2.727   2.544 -0.3654  0.5938 -0.6571
28409SOL    HW186840   1.746   2.770   2.459  0.6086  1.4758 -0.0730
28409SOL    HW286841   1.764   2.790   2.608  0.0962 -0.5856  0.2975
28410SOL     OW86842   4.129   1.099   3.125  0.0773  0.2310 -0.0985
28410SOL    HW186843   4.044   1.059   3.145  0.1462  0.4278  0.6088
28410SOL    HW286844   4.189   1.063   3.190  0.0352  1.8449  0.8856
28411SOL     OW86845   3.711   3.463   2.065 -0.1297 -0.0485  0.7467
28411SOL    HW186846   3.656   3.533   2.031  1.1204  0.1971 -0.9126
28411SOL    HW286847   3.801   3.494   2.049  0.4750 -1.1886  1.7719
28412SOL     OW86848   2.335   6.758   9.394  0.4466  0.1380  0.0739
28412SOL    HW186849   2.329   6.671   9.353  1.5345  0.6995 -1.3699
28412SOL    HW286850   2.424   6.787   9.376 -0.3541  2.2064 -0.8419
28413SOL     OW86851   4.582   4.361   5.638  0.1432  1.0602 -0.1387
28413SOL    HW186852   4.524   4.380   5.564  0.7612  0.1922 -0.8697
28413SOL    HW286853   4.657   4.316   5.599 -0.9857 -2.4386  1.3215
28414SOL     OW86854   3.707   0.442   1.519 -0.2714 -0.1080 -0.0563
28414SOL    HW186855   3.709   0.358   1.474  2.6657 -0.6039  0.8094
28414SOL    HW286856   3.674   0.504   1.452 -0.1489 -1.5040 -1.4735
28415SOL     OW86857   2.283   0.540   6.308 -1.0119  0.1186  0.3948
28415SOL    HW186858   2.279   0.448   6.281 -0.1448  0.1192  0.2305
28415SOL    HW286859   2.286   0.589   6.226  0.8233  0.1608  0.4396
28416SOL     OW86860   4.575   1.590   1.097 -0.1011 -0.4708  0.5796
28416SOL    HW186861   4.618   1.651   1.157 -3.8803  3.1599  0.0122
28416SOL    HW286862   4.622   1.599   1.015 -0.1891  1.2978  0.6875
28417SOL     OW86863   0.160   1.169   6.040 -0.0282  0.0836 -0.5005
28417SOL    HW186864   0.208   1.107   6.096 -0.9038 -1.8853 -1.7955
28417SOL    HW286865   0.219   1.188   5.968 -0.0052  0.1992 -0.4505
28418SOL     OW86866   2.059   5.937   2.725  0.7326 -0.6047  0.0634
28418SOL    HW186867   2.091   5.865   2.779 -1.2933 -1.9124 -0.3787
28418SOL    HW286868   1.963   5.926   2.725  0.2883  2.3981  0.3930
28419SOL     OW86869   3.370   0.800   4.290  0.2304  0.3048  0.1132
28419SOL    HW186870   3.367   0.895   4.282 -0.4138  0.3700  1.1194
28419SOL    HW286871   3.282   0.771   4.267  0.4735 -0.0803 -0.3712
28420SOL     OW86872   7.591   6.498   7.194  1.0138 -0.1023  0.0098
28420SOL    HW186873   7.511   6.545   7.217  1.2197  1.2950 -1.8615
28420SOL    HW286874   7.643   6.563   7.146  2.9859 -1.1723  0.6295
28421SOL     OW86875   9.246   1.440   0.987  0.0447  0.0522 -0.0758
28421SOL    HW186876   9.258   1.522   0.938 -0.0619  0.5010  0.6373
28421SOL    HW286877   9.198   1.384   0.927  0.6502  0.2848 -0.8129
28422SOL     OW86878   3.277   0.660   1.711  0.4692 -0.1610  0.1017
28422SOL    HW186879   3.189   0.698   1.704  0.8549  1.5160  2.9416
28422SOL    HW286880   3.262   0.568   1.729 -0.7727  0.2445  1.3041
28423SOL     OW86881   8.851   7.455   7.065  0.3170 -0.2184 -0.5691
28423SOL    HW186882   8.832   7.528   7.007 -2.0588 -0.3452 -0.0484
28423SOL    HW286883   8.812   7.379   7.021  0.3743 -0.6916  0.1765
28424SOL     OW86884   4.637   1.519   0.462  0.1468  0.5452  0.3778
28424SOL    HW186885   4.645   1.429   0.495 -0.6447  0.7240  1.1112
28424SOL    HW286886   4.698   1.523   0.389  2.0568  0.1338  1.8596
28425SOL     OW86887   5.614   8.999   8.641  0.1435  0.0026  0.1532
28425SOL    HW186888   5.656   9.084   8.656  0.6384  0.4747 -3.1440
28425SOL    HW286889   5.522   9.014   8.664  0.1402  1.6206 -0.7376
28426SOL     OW86890   9.363   2.559   0.877 -0.4985 -0.3053  0.3804
28426SOL    HW186891   9.274   2.589   0.899 -0.7070  0.5803 -1.5194
28426SOL    HW286892   9.411   2.639   0.857  0.4093 -0.8758  0.2265
28427SOL     OW86893   1.723   0.070   2.642 -0.6601 -0.2779  0.3051
28427SOL    HW186894   1.642   0.053   2.595 -0.7318  1.4360 -0.2441
28427SOL    HW286895   1.745   0.161   2.622  1.4134 -0.6888  0.4253
28428SOL     OW86896   7.241   4.061   4.816 -0.4922 -0.5196 -0.6512
28428SOL    HW186897   7.263   4.109   4.736 -0.0023  1.6439  0.7042
28428SOL    HW286898   7.157   4.098   4.843  1.1415  1.6452  1.8569
28429SOL     OW86899   0.199   8.590   0.186 -0.4996  0.1041  0.1099
28429SOL    HW186900   0.165   8.505   0.158  0.3260 -0.5411  1.0296
28429SOL    HW286901   0.271   8.608   0.125 -0.8834  0.3172 -0.2916
28430SOL     OW86902   6.973   7.296   7.447 -0.1836 -0.1003 -0.4340
28430SOL    HW186903   6.924   7.351   7.507 -1.4094 -1.8392  0.2441
28430SOL    HW286904   7.057   7.281   7.491 -0.5626 -0.2852  0.2414
28431SOL     OW86905   6.465   9.803   9.016 -0.2803  0.2639 -0.1748
28431SOL    HW186906   6.460   9.713   9.047 -1.7396  0.2931 -0.2682
28431SOL    HW286907   6.392   9.812   8.955  0.7021  1.1031 -1.2833
28432SOL     OW86908   7.965   0.982   8.992  0.2072  0.4514  0.0113
28432SOL    HW186909   7.917   0.997   9.073  0.9421  0.1241  0.5171
28432SOL    HW286910   8.043   0.935   9.019  1.2132  1.6642 -0.6774
28433SOL     OW86911   1.285   0.282   7.238 -0.1736  0.3134 -0.1975
28433SOL    HW186912   1.262   0.373   7.259 -0.9985  0.4840 -1.7581
28433SOL    HW286913   1.373   0.271   7.275  0.2528  1.9842 -0.6442
28434SOL     OW86914   8.504   3.036   6.763 -0.2828 -0.0626  0.1072
28434SOL    HW186915   8.576   3.066   6.818 -0.2979 -1.6063  1.0205
28434SOL    HW286916   8.485   2.948   6.795 -1.4598 -0.3218 -1.2358
28435SOL     OW86917   3.837   1.777   6.740 -0.0147  0.2810 -0.1728
28435SOL    HW186918   3.825   1.745   6.651 -1.6992  1.0417 -0.2480
28435SOL    HW286919   3.906   1.844   6.733  0.2696 -0.0733 -0.7922
28436SOL     OW86920   6.646   3.459   5.767 -0.0931 -0.7077 -0.0034
28436SOL    HW186921   6.620   3.421   5.851  0.8840 -0.2337  0.5391
28436SOL    HW286922   6.730   3.417   5.747  1.7242  2.0104  1.2909
28437SOL     OW86923   1.995   6.853   2.801 -0.2145  0.2245 -0.0329
28437SOL    HW186924   1.996   6.869   2.895  0.6098  1.0582 -0.1670
28437SOL    HW286925   2.087   6.857   2.774 -0.4431  0.1062 -0.8810
28438SOL     OW86926   7.539   7.193   8.435  0.2356  0.0295 -0.2006
28438SOL    HW186927   7.456   7.147   8.442 -0.5420  1.4729  0.6309
28438SOL    HW286928   7.554   7.229   8.523  1.6387 -0.0252 -0.3933
28439SOL     OW86929   1.656   6.038   7.101 -0.5022 -0.4139 -0.3956
28439SOL    HW186930   1.622   6.057   7.013  1.6357  1.9876 -0.7994
28439SOL    HW286931   1.597   6.087   7.160 -0.3578  0.1709 -0.7282
28440SOL     OW86932   9.084   7.276   8.750 -0.3014 -0.1513  0.4336
28440SOL    HW186933   9.116   7.349   8.697 -0.1821  0.0665  0.7991
28440SOL    HW286934   9.161   7.223   8.767 -0.1878  0.1927  1.0303
28441SOL     OW86935   8.216   5.105   6.691 -0.2954 -0.0621 -0.3294
28441SOL    HW186936   8.259   5.176   6.739 -0.4762  1.1701 -1.8778
28441SOL    HW286937   8.278   5.033   6.693  0.1498  0.3257  0.7766
28442SOL     OW86938   1.647   5.543   7.433  0.0339 -1.2047 -0.4489
28442SOL    HW186939   1.556   5.533   7.406 -0.0115 -1.7185 -0.1313
28442SOL    HW286940   1.690   5.587   7.360 -0.4182 -1.1828 -0.7007
28443SOL     OW86941   5.286   2.815   6.304 -1.2307 -0.4344  0.5964
28443SOL    HW186942   5.244   2.827   6.219 -0.3060  1.8337  0.3915
28443SOL    HW286943   5.239   2.874   6.363 -1.1669 -1.1775  1.4058
28444SOL     OW86944   5.289   2.128   5.690  0.1118 -0.9455 -0.3086
28444SOL    HW186945   5.318   2.068   5.760 -1.2716 -1.8829 -0.4920
28444SOL    HW286946   5.210   2.087   5.655 -3.0199  2.6183  1.8398
28445SOL     OW86947   4.280   2.648   6.186 -0.7629 -0.7037 -0.6835
28445SOL    HW186948   4.332   2.604   6.120  1.4302 -2.5090  2.0528
28445SOL    HW286949   4.332   2.724   6.211 -0.9083 -0.7978 -0.0796
28446SOL     OW86950   1.317   8.641   7.741  0.0664 -0.5248 -0.2194
28446SOL    HW186951   1.365   8.685   7.812 -0.2222  0.5562 -0.6766
28446SOL    HW286952   1.255   8.584   7.786 -0.5445  0.6157  0.4296
28447SOL     OW86953   8.083   1.588   2.949  0.0369  0.4100  0.4176
28447SOL    HW186954   8.083   1.669   3.000  0.2048  0.0894  0.9318
28447SOL    HW286955   8.148   1.603   2.880 -0.8467  1.1918 -0.2792
28448SOL     OW86956   6.695   6.011   0.591  0.2405  0.5355 -0.1753
28448SOL    HW186957   6.610   6.001   0.633  1.2186  1.6579  2.2462
28448SOL    HW286958   6.675   6.043   0.503 -1.8705 -1.0475 -0.3374
28449SOL     OW86959   7.813   9.105   9.601 -0.5398 -0.0084 -0.1432
28449SOL    HW186960   7.742   9.167   9.586 -0.2621 -0.0024 -1.5222
28449SOL    HW286961   7.770   9.020   9.607 -0.6040 -0.1433 -2.0413
28450SOL     OW86962   4.972   2.287   5.168 -0.9595 -0.1950  0.1913
28450SOL    HW186963   4.880   2.272   5.147 -1.0420 -1.8670  1.4869
28450SOL    HW286964   4.993   2.370   5.127 -3.2964  0.6739  0.5959
28451SOL     OW86965   0.932   8.491   6.994 -0.0898 -0.3645  0.0385
28451SOL    HW186966   0.955   8.448   6.912 -0.6505 -0.0134 -0.3140
28451SOL    HW286967   0.961   8.431   7.062  1.9239  0.0764 -0.3510
28452SOL     OW86968   2.009   6.631   0.112  0.1323  0.0864  0.6532
28452SOL    HW186969   2.062   6.645   0.191  1.3910  3.0189 -0.5322
28452SOL    HW286970   2.074   6.623   0.042 -0.9588  0.8132 -0.4677
28453SOL     OW86971   6.980   0.429   3.557  0.0450 -0.1761 -0.4533
28453SOL    HW186972   7.066   0.425   3.599 -0.0427  0.3502 -0.2209
28453SOL    HW286973   6.996   0.467   3.471  0.1110 -0.5287 -0.5999
28454SOL     OW86974   3.412   2.337   7.764  0.0808  0.4870 -1.1824
28454SOL    HW186975   3.400   2.246   7.788 -1.5755  1.1434  0.8190
28454SOL    HW286976   3.505   2.346   7.748  0.7593 -0.9887  1.3668
28455SOL     OW86977   0.211   6.422   6.360 -0.4152 -0.1406 -0.1144
28455SOL    HW186978   0.162   6.493   6.318  1.7420  1.3768 -0.2053
28455SOL    HW286979   0.200   6.438   6.454  0.6354  0.7762 -0.1298
28456SOL     OW86980   2.304   8.611   2.176  0.0685  0.0530  0.1853
28456SOL    HW186981   2.325   8.646   2.089 -0.8892  0.9708  0.3106
28456SOL    HW286982   2.209   8.616   2.182 -0.0073 -1.4981  0.6880
28457SOL     OW86983   2.203   7.565   9.006 -0.6251  0.7153 -0.9127
28457SOL    HW186984   2.175   7.624   9.076 -1.1662 -0.0109 -0.4906
28457SOL    HW286985   2.292   7.592   8.985 -0.3995  0.8595  0.1647
28458SOL     OW86986   2.549   9.571   4.117  0.2421 -0.6592  0.2066
28458SOL    HW186987   2.546   9.659   4.082 -1.5038 -1.0294 -0.6899
28458SOL    HW286988   2.639   9.541   4.101  0.1363  0.0252 -1.8679
28459SOL     OW86989   8.552   3.142   8.150  0.3638  0.1532 -0.0834
28459SOL    HW186990   8.641   3.169   8.171 -0.0773  0.7614  1.0999
28459SOL    HW286991   8.555   3.047   8.146  1.2271  0.2061 -0.8666
28460SOL     OW86992   9.618   1.791   4.410  0.2951 -0.5836 -0.0759
28460SOL    HW186993   9.680   1.862   4.395  1.0203 -1.5446 -1.9633
28460SOL    HW286994   9.644   1.753   4.494  1.1844  0.0942 -0.0389
28461SOL     OW86995   3.295   0.568   0.487  0.0344  0.2411  0.1056
28461SOL    HW186996   3.371   0.537   0.536  0.7564  1.6827 -0.0472
28461SOL    HW286997   3.307   0.531   0.400 -0.3462 -0.9135  0.5205
28462SOL     OW86998   5.409   1.452   3.050  0.0030  0.0699  0.1619
28462SOL    HW186999   5.367   1.391   3.110  0.0819 -0.3329 -0.1867
28462SOL    HW287000   5.437   1.525   3.105 -0.0202 -0.2459  0.5954
28463SOL     OW87001   5.681   5.403   9.014 -1.0173  0.2429 -0.1193
28463SOL    HW187002   5.652   5.382   9.102 -1.0863  0.3419 -0.1175
28463SOL    HW287003   5.734   5.328   8.987  2.8415  2.0211  1.7224
28464SOL     OW87004   2.445   3.366   5.386  0.2967 -0.1316 -0.2279
28464SOL    HW187005   2.419   3.350   5.477  1.9419 -0.0233  0.2975
28464SOL    HW287006   2.501   3.291   5.364 -0.6685 -0.5406 -1.4267
28465SOL     OW87007   2.082   8.136   3.687  0.3238  0.3464 -0.1603
28465SOL    HW187008   2.150   8.200   3.707  0.0889  0.3202  0.7934
28465SOL    HW287009   2.002   8.187   3.677  0.3921  0.3322 -0.8121
28466SOL     OW87010   2.137   5.311   2.123 -0.1908 -0.1468 -0.5648
28466SOL    HW187011   2.126   5.382   2.059  1.1403  2.1335  1.5295
28466SOL    HW287012   2.099   5.346   2.204  2.2163 -0.9521  1.0416
28467SOL     OW87013   5.440   8.778   1.463  0.2918  0.6904  0.3979
28467SOL    HW187014   5.403   8.842   1.402 -0.3123  0.3667  0.4084
28467SOL    HW287015   5.501   8.727   1.410  0.5086  1.0483  0.3041
28468SOL     OW87016   0.103   8.074   4.263  0.1930 -0.2504 -0.2269
28468SOL    HW187017   0.106   7.993   4.315 -2.6479 -1.4609 -1.6775
28468SOL    HW287018   0.062   8.138   4.321  1.4839 -0.1153  0.5762
28469SOL     OW87019   3.545   9.284   2.896  0.2406 -0.0254 -0.1746
28469SOL    HW187020   3.454   9.270   2.919 -0.1487  0.6463 -1.2395
28469SOL    HW287021   3.588   9.200   2.913 -1.0286 -1.0701 -1.7732
28470SOL     OW87022   7.574   1.187   7.401  0.0261  0.3676  0.1381
28470SOL    HW187023   7.550   1.117   7.462 -0.1466 -1.2622 -1.7089
28470SOL    HW287024   7.591   1.142   7.318  0.5488  2.4651 -0.9612
28471SOL     OW87025   4.094   2.266   8.763 -0.2932  0.1141 -0.1309
28471SOL    HW187026   4.042   2.185   8.763 -0.7542  0.3976 -0.8889
28471SOL    HW287027   4.097   2.291   8.671  0.4879  0.5576  0.0156
28472SOL     OW87028   0.571   2.447   8.536 -0.1321 -0.7722  0.0034
28472SOL    HW187029   0.501   2.471   8.476  0.3033  0.2550 -0.1102
28472SOL    HW287030   0.620   2.380   8.490  0.6922  0.5822 -1.1626
28473SOL     OW87031   1.683   8.318   8.366  0.4453  0.2491  0.0939
28473SOL    HW187032   1.702   8.407   8.335 -3.1231  1.1856  0.0910
28473SOL    HW287033   1.700   8.322   8.460  0.3099  0.9569  0.0970
28474SOL     OW87034   6.805   5.807   7.744  0.4836  0.3659 -0.1061
28474SOL    HW187035   6.763   5.750   7.679  0.4966  1.8878 -1.5285
28474SOL    HW287036   6.732   5.841   7.797 -0.1124  2.3646 -2.0484
28475SOL     OW87037   6.840   5.585   8.355 -0.1562 -0.2942  0.6171
28475SOL    HW187038   6.894   5.610   8.280 -3.3754 -1.3281 -2.2985
28475SOL    HW287039   6.898   5.531   8.409  2.9776  2.4123  0.2300
28476SOL     OW87040   9.548   2.262   1.325 -0.0661  0.5532  0.2387
28476SOL    HW187041   9.501   2.182   1.351  0.1398  0.7419  1.2230
28476SOL    HW287042   9.545   2.318   1.402 -1.9787  2.3721 -1.0563
28477SOL     OW87043   7.856   1.532   8.280 -0.1135  0.4495 -0.3191
28477SOL    HW187044   7.776   1.532   8.227  0.2527 -0.3429 -0.8824
28477SOL    HW287045   7.879   1.440   8.290  0.3920  0.6402  0.3719
28478SOL     OW87046   3.533   1.901   6.868  0.3203 -0.3637  0.0501
28478SOL    HW187047   3.581   1.824   6.840  1.6914  0.1168  0.9467
28478SOL    HW287048   3.474   1.921   6.795  1.1986 -1.2169 -0.9214
28479SOL     OW87049   5.871   0.407   6.140 -0.1504 -0.1217  0.0378
28479SOL    HW187050   5.930   0.384   6.068  1.3837  2.6148  0.3054
28479SOL    HW287051   5.921   0.386   6.219 -0.4243  0.1474  0.2837
28480SOL     OW87052   0.626   7.434   3.230 -0.5606 -0.1478  0.3241
28480SOL    HW187053   0.662   7.369   3.170  0.9367  0.8507  0.0966
28480SOL    HW287054   0.605   7.509   3.173  2.3849  1.4443  1.1485
28481SOL     OW87055   1.532   9.072   4.053  0.1817 -0.2519 -0.4579
28481SOL    HW187056   1.610   9.018   4.064 -0.5264 -0.9845  1.3666
28481SOL    HW287057   1.549   9.150   4.106 -0.1360 -0.2345 -0.3759
28482SOL     OW87058   6.480   7.057   0.579  0.6831 -0.0064  0.2464
28482SOL    HW187059   6.455   7.014   0.497  0.0179 -0.1329  0.5092
28482SOL    HW287060   6.485   7.150   0.556 -0.3808  0.0617  0.2653
28483SOL     OW87061   8.109   1.437   7.016  0.0657 -0.9306 -0.0481
28483SOL    HW187062   8.198   1.427   6.983  0.0276 -1.5472  0.0154
28483SOL    HW287063   8.056   1.455   6.938  0.1226 -1.4222 -0.2079
28484SOL     OW87064   6.114   1.587   3.850  0.0415  0.4203  0.2853
28484SOL    HW187065   6.021   1.596   3.870  0.0915  1.8061  0.0024
28484SOL    HW287066   6.117   1.571   3.756 -0.1004 -4.3739  0.8625
28485SOL     OW87067   6.546   5.252   2.046 -0.0181  0.0196  0.0791
28485SOL    HW187068   6.450   5.246   2.045 -0.0525  0.4474 -1.0654
28485SOL    HW287069   6.566   5.320   1.981  1.0510  0.2007  0.5777
28486SOL     OW87070   1.452   0.024   7.546  0.5446 -0.3568  0.4669
28486SOL    HW187071   1.497   0.064   7.621 -0.5892  2.0689 -0.0437
28486SOL    HW287072   1.369   0.071   7.541  0.2664 -0.9769 -1.8724
28487SOL     OW87073   2.061   7.245   5.703  0.5374  0.3359  0.2779
28487SOL    HW187074   2.059   7.332   5.742  1.2562  0.1003  0.8654
28487SOL    HW287075   1.970   7.226   5.683  0.4078  1.3500 -0.1487
28488SOL     OW87076   3.111   7.266   8.799 -0.0527 -0.0853 -0.1198
28488SOL    HW187077   3.201   7.297   8.793 -0.2530  0.6292  0.4456
28488SOL    HW287078   3.079   7.301   8.881 -1.0797  0.2858 -0.6627
28489SOL     OW87079   4.038   8.277   1.603 -0.9571  0.0756 -0.0378
28489SOL    HW187080   3.981   8.239   1.670 -2.3383  0.5923 -0.8850
28489SOL    HW287081   4.053   8.367   1.631  0.4873 -0.4068  0.8178
28490SOL     OW87082   1.980   1.359   1.957 -0.0094 -0.2926 -0.1769
28490SOL    HW187083   1.980   1.433   2.018 -0.3280 -1.7511  1.7092
28490SOL    HW287084   2.058   1.309   1.980  0.8626  0.0310 -2.2399
28491SOL     OW87085   1.584   8.461   1.810  1.0157  0.7024  0.0839
28491SOL    HW187086   1.612   8.373   1.837 -0.3412  0.2578  0.1174
28491SOL    HW287087   1.607   8.517   1.883 -1.5833 -0.2950  1.8428
28492SOL     OW87088   2.606   8.834   8.633 -0.2100  0.4869 -0.1893
28492SOL    HW187089   2.619   8.761   8.693  0.4732 -1.6125 -2.7217
28492SOL    HW287090   2.521   8.871   8.658 -1.3351 -2.1780  0.2488
28493SOL     OW87091   5.819   0.988   4.171 -0.7162 -0.1717 -0.0346
28493SOL    HW187092   5.836   0.937   4.092 -1.5021 -0.4954 -0.0033
28493SOL    HW287093   5.899   1.039   4.184 -0.2515 -0.7469 -0.5538
28494SOL     OW87094   0.292   7.721   3.935 -0.3766 -0.3667  0.4767
28494SOL    HW187095   0.266   7.790   3.874  0.6326 -1.5704 -1.4440
28494SOL    HW287096   0.370   7.755   3.979 -1.2096  0.5823  1.2647
28495SOL     OW87097   5.568   1.048   7.782 -0.2895  0.0648  0.1887
28495SOL    HW187098   5.491   1.029   7.728  0.6760 -2.0981 -0.5249
28495SOL    HW287099   5.614   1.118   7.735  0.6304 -1.8926 -1.9987
28496SOL     OW87100   1.914   6.007   1.184  0.2484 -0.2025  0.7500
28496SOL    HW187101   1.952   6.080   1.136 -0.2660 -0.8545 -0.7026
28496SOL    HW287102   1.990   5.956   1.213  0.5601  0.0528  0.3927
28497SOL     OW87103   5.331   3.530   5.101 -0.3242  0.1268  0.2571
28497SOL    HW187104   5.410   3.582   5.089 -0.4968 -0.1221 -2.6218
28497SOL    HW287105   5.325   3.517   5.196  2.2161  1.4371  0.6839
28498SOL     OW87106   2.855   3.524   3.345 -0.2371 -0.0175 -0.3768
28498SOL    HW187107   2.832   3.615   3.362  1.0250  0.1547  0.6039
28498SOL    HW287108   2.809   3.474   3.413 -1.7729 -0.2528 -1.5524
28499SOL     OW87109   2.027   9.041   0.692 -0.2416 -0.5321  0.2804
28499SOL    HW187110   2.025   9.027   0.786 -1.1756  0.9448  0.5109
28499SOL    HW287111   1.948   8.999   0.659 -0.6290  0.1440  0.3442
28500SOL     OW87112   6.012   0.865   8.035 -0.3441 -0.2275 -0.1047
28500SOL    HW187113   5.966   0.903   7.960  0.3854  1.7778  0.3950
28500SOL    HW287114   6.074   0.804   7.996 -1.8938 -1.3368 -0.9229
28501SOL     OW87115   0.363   8.050   2.444  0.3165  0.7997  0.1999
28501SOL    HW187116   0.436   8.022   2.388 -0.9571  0.4688 -1.3798
28501SOL    HW287117   0.337   7.971   2.491 -0.0467  0.5226 -0.4556
28502SOL     OW87118   3.864   2.359   7.932 -0.3391 -0.9409  0.4488
28502SOL    HW187119   3.922   2.304   7.880 -1.0239 -0.6397 -0.6576
28502SOL    HW287120   3.856   2.440   7.882 -1.1260 -0.6993  0.9466
28503SOL     OW87121   3.947   8.187   0.841  0.1355  0.0702  0.3535
28503SOL    HW187122   3.905   8.143   0.767  0.3011  0.1130  0.2334
28503SOL    HW287123   4.040   8.188   0.818  0.4031 -1.3055  1.2611
28504SOL     OW87124   1.263   6.795   1.366  0.1163  0.0172  0.0955
28504SOL    HW187125   1.245   6.850   1.442 -1.8359  1.5146 -1.3304
28504SOL    HW287126   1.220   6.712   1.386  0.8312 -0.1202  1.1740
28505SOL     OW87127   9.809   0.834   8.428  0.1831 -0.0232  0.8896
28505SOL    HW187128   9.773   0.816   8.341  2.3444 -1.0130  0.1232
28505SOL    HW287129   9.846   0.751   8.456  0.0521  0.4376  2.5144
28506SOL     OW87130   5.345   8.413   8.422 -0.5041 -0.1671 -0.3647
28506SOL    HW187131   5.310   8.474   8.487  2.5970 -0.4942  1.7839
28506SOL    HW287132   5.418   8.460   8.382 -0.0258 -1.3693 -0.9443
28507SOL     OW87133   0.857   2.073   6.249 -0.2552  0.7989 -0.2205
28507SOL    HW187134   0.810   2.027   6.319  1.1364  0.2015  0.3657
28507SOL    HW287135   0.792   2.082   6.179 -0.8850 -1.2306  0.0094
28508SOL     OW87136   1.931   5.658   3.220  0.3050 -0.5902 -0.0212
28508SOL    HW187137   1.959   5.580   3.172 -0.0554  0.3464 -1.8484
28508SOL    HW287138   1.836   5.647   3.230  0.0868  0.0320 -1.1774
28509SOL     OW87139   2.142   4.614   9.422 -0.0045  0.3616 -0.2649
28509SOL    HW187140   2.158   4.576   9.508  0.7200  1.1103 -0.0499
28509SOL    HW287141   2.096   4.696   9.440 -3.2649 -1.2227 -0.8212
28510SOL     OW87142   2.226   8.954   9.498  0.5281 -0.0563 -0.0471
28510SOL    HW187143   2.170   9.032   9.499  0.7676  0.1164  1.0628
28510SOL    HW287144   2.301   8.977   9.552 -0.1507 -1.5801  1.6721
28511SOL     OW87145   9.051   5.718   9.157  0.7770  0.1964  0.0315
28511SOL    HW187146   8.981   5.773   9.124 -0.3719 -0.7817  0.7597
28511SOL    HW287147   9.131   5.770   9.145  0.0037  1.1293 -1.2676
28512SOL     OW87148   6.083   4.183   8.526  0.1059 -0.0645 -0.3541
28512SOL    HW187149   6.154   4.182   8.462 -1.5380 -0.1953 -2.2607
28512SOL    HW287150   6.057   4.275   8.532 -0.7549 -0.2442 -1.0952
28513SOL     OW87151   6.158   1.371   7.032  0.2431 -0.5531 -0.2716
28513SOL    HW187152   6.155   1.412   7.118  1.2696 -0.4537 -0.2807
28513SOL    HW287153   6.245   1.331   7.026  0.3557 -0.1819 -1.4358
28514SOL     OW87154   8.210   4.991   6.997  0.0503 -0.2581 -0.1909
28514SOL    HW187155   8.152   5.065   7.013 -0.2335 -0.2536 -1.2018
28514SOL    HW287156   8.274   4.994   7.069 -0.1623  0.7565 -0.0413
28515SOL     OW87157   2.352   2.196   4.511 -0.0807 -0.5627  0.5041
28515SOL    HW187158   2.357   2.169   4.420  1.9017 -0.6947  0.6102
28515SOL    HW287159   2.431   2.160   4.551 -0.8583 -0.4115  2.2549
28516SOL     OW87160   6.249   8.463   6.262 -0.0469  0.2153 -0.6054
28516SOL    HW187161   6.154   8.454   6.263  0.1465 -2.5906 -0.5387
28516SOL    HW287162   6.279   8.412   6.337  1.6473 -3.1703 -3.2584
28517SOL     OW87163   4.685   8.847   1.380 -0.3390 -0.0347  0.0655
28517SOL    HW187164   4.636   8.788   1.437 -0.4345 -0.1033 -0.0845
28517SOL    HW287165   4.656   8.824   1.292  1.7401 -1.7672 -0.2585
28518SOL     OW87166   3.733   0.332   2.365  0.3671  0.0266 -0.2404
28518SOL    HW187167   3.733   0.420   2.403 -1.4313 -0.0833  0.0961
28518SOL    HW287168   3.680   0.341   2.286 -0.2922 -0.8580  0.0934
28519SOL     OW87169   5.332   2.103   2.231  0.4650  0.2700  0.0810
28519SOL    HW187170   5.298   2.133   2.146  0.6847 -2.3472 -1.0219
28519SOL    HW287171   5.316   2.176   2.290 -2.3236  1.1259 -1.5613
28520SOL     OW87172   3.271   1.214   6.011 -0.1313  0.7295 -0.0767
28520SOL    HW187173   3.270   1.159   5.933 -2.3398  0.7414 -0.0980
28520SOL    HW287174   3.195   1.186   6.061  0.9573  1.0829  1.8535
28521SOL     OW87175   5.746   1.143   4.901 -0.4195  0.4385 -0.3210
28521SOL    HW187176   5.812   1.137   4.970 -0.6456  0.2773 -0.1150
28521SOL    HW287177   5.708   1.055   4.897  0.5983  0.0350 -1.6618
28522SOL     OW87178   1.085   0.826   1.215  0.6526  0.5269 -0.6620
28522SOL    HW187179   1.043   0.912   1.209  2.6838  1.5339 -1.8159
28522SOL    HW287180   1.141   0.832   1.292 -1.1717 -0.8086  0.8762
28523SOL     OW87181   1.895   1.459   9.486  0.7208  0.4918  0.1013
28523SOL    HW187182   1.898   1.391   9.553 -1.3150  0.3301  0.0997
28523SOL    HW287183   1.839   1.527   9.524  2.1728  1.9070 -0.1625
28524SOL     OW87184   7.329   7.486   1.990 -0.1507  0.2006  0.1207
28524SOL    HW187185   7.411   7.457   2.030 -1.8374 -0.8666  3.1167
28524SOL    HW287186   7.293   7.549   2.053 -2.3030 -0.4583 -0.3744
28525SOL     OW87187   7.102   3.434   8.131  0.2676 -0.0102 -0.2259
28525SOL    HW187188   7.145   3.519   8.143 -1.1038  0.8877 -1.2664
28525SOL    HW287189   7.123   3.409   8.042  0.3049 -0.5483 -0.0663
28526SOL     OW87190   3.038   8.765   3.447  0.2816  0.0879 -0.2026
28526SOL    HW187191   2.967   8.723   3.398  0.2418  2.3023 -2.2277
28526SOL    HW287192   3.017   8.858   3.445  1.4845  0.4811  2.1872
28527SOL     OW87193   0.605   5.951   5.517  0.0241 -0.3097 -0.1335
28527SOL    HW187194   0.582   5.889   5.586 -1.4125 -0.2459 -0.5288
28527SOL    HW287195   0.539   5.938   5.450  1.2277 -0.1592 -1.3917
28528SOL     OW87196   1.199   6.385   4.520 -0.8744 -0.1808  0.1667
28528SOL    HW187197   1.215   6.337   4.601  0.2434  0.3725  0.2928
28528SOL    HW287198   1.287   6.405   4.486 -1.3132  1.0389 -0.3121
28529SOL     OW87199   9.777   7.117   1.411  0.1296 -0.1067  0.0703
28529SOL    HW187200   9.863   7.125   1.453 -0.1592 -1.3257  0.9671
28529SOL    HW287201   9.794   7.069   1.330  0.1103 -2.0658  1.1446
28530SOL     OW87202   2.993   0.670   1.693 -0.6579  0.5893 -0.2559
28530SOL    HW187203   2.908   0.701   1.723 -0.9335 -1.5053  1.4054
28530SOL    HW287204   2.979   0.645   1.602 -1.5002  1.3345 -0.3439
28531SOL     OW87205   6.133   9.587   0.552 -0.3260  0.1786 -0.0066
28531SOL    HW187206   6.093   9.675   0.552 -0.4294  0.1321 -0.5505
28531SOL    HW287207   6.122   9.556   0.463 -0.1840 -0.3471  0.1592
28532SOL     OW87208   5.172   1.479   8.727 -0.2318 -0.0691 -0.0886
28532SOL    HW187209   5.252   1.517   8.691  0.3409 -1.3397 -0.1840
28532SOL    HW287210   5.196   1.453   8.816 -0.1015 -1.7356 -0.5831
28533SOL     OW87211   7.351   1.777   1.832  0.5270  0.0913  0.2976
28533SOL    HW187212   7.273   1.793   1.884  1.3241 -0.3104  1.6711
28533SOL    HW287213   7.405   1.856   1.845  1.2577 -0.5198  1.0939
28534SOL     OW87214   9.370   0.702   6.600  0.6051 -0.4319 -0.2014
28534SOL    HW187215   9.332   0.733   6.517  0.5118 -0.5334 -0.1969
28534SOL    HW287216   9.460   0.681   6.578  0.2512 -1.6494 -0.5808
28535SOL     OW87217   3.636   0.651   0.674  0.1214 -0.4291 -0.1126
28535SOL    HW187218   3.577   0.725   0.684 -0.7484 -0.9292 -1.3100
28535SOL    HW287219   3.720   0.690   0.650 -0.2922  0.1796 -0.5946
28536SOL     OW87220   0.453   7.479   7.041 -0.2968 -0.4745  0.1038
28536SOL    HW187221   0.400   7.555   7.066  2.0923  2.3942 -2.6660
28536SOL    HW287222   0.419   7.455   6.955  1.9780  0.7022 -1.2123
28537SOL     OW87223   8.725   9.518   9.149  0.0698  0.2331  0.0799
28537SOL    HW187224   8.736   9.538   9.242  0.5888 -1.2508  0.3693
28537SOL    HW287225   8.633   9.538   9.130 -0.1638  0.0764  1.0344
28538SOL     OW87226   7.529   3.978   7.918  0.0897  0.4851  0.0813
28538SOL    HW187227   7.611   4.005   7.876  0.8770 -0.9941  0.6195
28538SOL    HW287228   7.461   4.010   7.858  1.0820  0.8492 -0.8978
28539SOL     OW87229   2.700   2.431   6.720  0.7798 -0.0705 -0.8499
28539SOL    HW187230   2.723   2.510   6.769  1.6207 -0.7000 -0.1965
28539SOL    HW287231   2.626   2.393   6.768  1.0092 -0.1956 -0.5925
28540SOL     OW87232   4.367   2.065   2.360  0.1344 -0.4189 -0.1450
28540SOL    HW187233   4.377   2.147   2.408 -0.2346 -0.4147 -0.0711
28540SOL    HW287234   4.272   2.053   2.353  0.1761 -0.1988 -1.2470
28541SOL     OW87235   2.832   1.715   7.081 -0.0877  0.6385  0.9796
28541SOL    HW187236   2.834   1.653   7.007 -0.1945  1.0604  0.6176
28541SOL    HW287237   2.922   1.715   7.114 -0.1945 -0.0602  1.2770
28542SOL     OW87238   9.067   6.747   5.427  0.3533  0.1026 -0.2300
28542SOL    HW187239   9.009   6.677   5.398 -1.7950  1.5593  0.2805
28542SOL    HW287240   9.055   6.749   5.522  1.2621  0.4305 -0.1146
28543SOL     OW87241   5.347   5.283   0.399 -0.2294 -0.4751  0.1402
28543SOL    HW187242   5.283   5.342   0.358 -0.6022 -1.7658 -1.2016
28543SOL    HW287243   5.428   5.300   0.351  0.0536  0.0153  0.7775
28544SOL     OW87244   7.059   5.341   1.058 -0.0675 -0.2468  0.1690
28544SOL    HW187245   7.124   5.409   1.076 -0.8534  0.6893 -0.4882
28544SOL    HW287246   6.984   5.363   1.113  0.3959 -1.7390  1.4822
28545SOL     OW87247   6.010   3.663   4.301 -0.0610  0.1795  0.8064
28545SOL    HW187248   6.047   3.642   4.215 -0.7841  3.2255 -0.3742
28545SOL    HW287249   6.081   3.642   4.363  0.9165 -0.9396 -0.6145
28546SOL     OW87250   9.056   6.237   8.018  0.2440 -0.7660 -0.3255
28546SOL    HW187251   8.989   6.247   7.952 -0.5788 -0.8382  0.4773
28546SOL    HW287252   9.026   6.291   8.092  1.9195  0.5979 -0.5703
28547SOL     OW87253   9.812   0.332   0.830  0.2320 -0.8966  0.2790
28547SOL    HW187254   9.764   0.402   0.787  1.6535 -1.3069 -2.1289
28547SOL    HW287255   9.744   0.281   0.875 -1.2329  0.0708 -0.7526
28548SOL     OW87256   0.910   7.477   0.211 -0.6620 -0.5037  0.0987
28548SOL    HW187257   0.889   7.387   0.186 -0.1715 -0.5063 -0.3410
28548SOL    HW287258   0.977   7.504   0.147  0.6982 -0.5302  1.4391
28549SOL     OW87259   2.956   5.130   7.727 -0.1243 -0.6121  0.0166
28549SOL    HW187260   2.879   5.159   7.776 -0.5914 -0.5617 -0.7290
28549SOL    HW287261   2.994   5.211   7.692  0.0945 -0.6618  0.1425
28550SOL     OW87262   1.356   5.856   6.962 -0.1471 -0.5175 -0.6060
28550SOL    HW187263   1.431   5.884   6.910 -0.0989 -0.5969 -0.5784
28550SOL    HW287264   1.301   5.934   6.969 -1.1201 -0.9658 -2.4370
28551SOL     OW87265   8.739   8.652   9.329 -0.3371 -0.2575 -0.1115
28551SOL    HW187266   8.704   8.734   9.294  1.0012  0.2484 -0.3459
28551SOL    HW287267   8.816   8.633   9.274 -0.2495 -1.3254  0.3470
28552SOL     OW87268   3.490   0.496   2.492  0.5672 -0.0008 -0.0110
28552SOL    HW187269   3.414   0.493   2.551  2.9182  0.4754  3.3421
28552SOL    HW287270   3.468   0.564   2.429 -1.4146  0.8199  1.4383
28553SOL     OW87271   8.830   4.260   4.733  0.1841 -0.2188 -0.1213
28553SOL    HW187272   8.777   4.320   4.786 -0.7706 -0.3601 -0.8842
28553SOL    HW287273   8.878   4.317   4.673 -2.2912 -0.2356 -2.2777
28554SOL     OW87274   6.175   4.357   6.177  0.6430  0.1513 -0.0853
28554SOL    HW187275   6.230   4.284   6.204  0.8198  0.2635 -0.1363
28554SOL    HW287276   6.112   4.368   6.247 -0.0680 -0.7411 -0.5710
28555SOL     OW87277   3.502   6.274   6.293  0.0735 -0.4003  0.1450
28555SOL    HW187278   3.424   6.229   6.259 -0.6668  0.2709  0.9093
28555SOL    HW287279   3.546   6.207   6.346  0.2444 -0.8996 -0.6063
28556SOL     OW87280   0.964   7.555   9.324  0.2332 -0.0558 -0.1577
28556SOL    HW187281   0.956   7.607   9.244 -1.4968  0.2487  0.1795
28556SOL    HW287282   0.950   7.465   9.296 -1.7195  0.1685 -0.0631
28557SOL     OW87283   6.228   2.493   5.271 -0.0477  0.1632  0.4583
28557SOL    HW187284   6.301   2.482   5.210 -0.2171 -2.5081  0.5860
28557SOL    HW287285   6.151   2.499   5.215 -0.0039 -0.2361  0.3465
28558SOL     OW87286   6.308   1.491   6.211 -0.1814  0.0674  0.2859
28558SOL    HW187287   6.374   1.550   6.248 -0.7316  0.8793  0.0109
28558SOL    HW287288   6.303   1.514   6.119 -1.6972  0.8795  0.5301
28559SOL     OW87289   7.313   3.577   0.535  0.4720  0.3757  0.4311
28559SOL    HW187290   7.367   3.497   0.534  1.9565  1.3136 -2.0999
28559SOL    HW287291   7.362   3.637   0.591  0.5611  0.3074  0.4277
28560SOL     OW87292   8.406   3.473   6.484  0.0353  0.1718  0.2639
28560SOL    HW187293   8.383   3.447   6.395 -0.2696  1.7152 -0.1369
28560SOL    HW287294   8.419   3.390   6.530 -4.1981 -0.8496 -0.0018
28561SOL     OW87295   6.452   9.046   6.531 -0.2127 -0.6113 -0.9590
28561SOL    HW187296   6.374   8.990   6.527 -1.0713  0.4266  0.5342
28561SOL    HW287297   6.513   9.005   6.470 -1.2987 -2.4139 -0.9170
28562SOL     OW87298   2.401   5.312   4.233 -0.0249  0.4057  0.1926
28562SOL    HW187299   2.370   5.242   4.177 -0.5886  2.7414 -2.6684
28562SOL    HW287300   2.496   5.310   4.225 -0.0174 -0.1887  0.3862
28563SOL     OW87301   1.644   1.964   4.445  0.2924  0.0863  0.0309
28563SOL    HW187302   1.662   2.035   4.507 -0.8475 -0.4612  1.0476
28563SOL    HW287303   1.572   1.997   4.391  1.0086  0.4020 -0.7488
28564SOL     OW87304   6.470   6.786   2.173  0.5272  0.3512 -0.6222
28564SOL    HW187305   6.524   6.853   2.216  0.5872  0.3938 -0.7644
28564SOL    HW287306   6.422   6.745   2.245  0.3875  0.6399 -0.5463
28565SOL     OW87307   4.732   3.267   1.443  0.3241 -0.1176  0.2702
28565SOL    HW187308   4.817   3.232   1.416 -0.7701 -1.9847 -1.0090
28565SOL    HW287309   4.717   3.230   1.530  0.1760 -1.0338 -0.1360
28566SOL     OW87310   1.543   7.097   6.778  0.1385 -0.2642  0.2491
28566SOL    HW187311   1.618   7.095   6.838  0.8885  0.0250 -0.6392
28566SOL    HW287312   1.467   7.081   6.833  0.8051 -0.0306  1.2630
28567SOL     OW87313   2.404   8.686   0.857 -0.2570  0.6964  0.1071
28567SOL    HW187314   2.439   8.644   0.935  1.2159 -0.3416 -1.0468
28567SOL    HW287315   2.368   8.613   0.805  0.7706  1.0494 -1.1497
28568SOL     OW87316   4.797   2.199   4.343 -0.3203  0.0798 -0.2618
28568SOL    HW187317   4.772   2.290   4.364  1.2581  0.5120 -0.1374
28568SOL    HW287318   4.853   2.172   4.416 -2.7200 -1.9132  0.9793
28569SOL     OW87319   1.327   9.375   5.508  0.5851 -0.0571  0.0111
28569SOL    HW187320   1.309   9.442   5.574  0.3644 -1.0281  0.9701
28569SOL    HW287321   1.262   9.390   5.439  0.2827  0.4583  0.4086
28570SOL     OW87322   1.738   0.174   7.763  0.2789  0.4369 -0.1725
28570SOL    HW187323   1.778   0.093   7.794 -0.3480  0.3247  0.3657
28570SOL    HW287324   1.649   0.173   7.801  0.8103  2.1765  1.2733
28571SOL     OW87325   1.839   9.641   5.806 -0.5401 -0.6451  0.0458
28571SOL    HW187326   1.854   9.581   5.733 -1.1017  0.7352 -1.2592
28571SOL    HW287327   1.863   9.727   5.772 -0.5689  0.0171  1.5884
28572SOL     OW87328   1.849   5.742   3.468  0.3551 -0.4031  0.1721
28572SOL    HW187329   1.889   5.716   3.386 -0.7705  0.0955 -0.5658
28572SOL    HW287330   1.795   5.819   3.445 -0.0061 -0.2820  1.3574
28573SOL     OW87331   1.923   0.051   2.054  0.0993 -0.3212  0.1546
28573SOL    HW187332   1.860   0.113   2.017  0.8411  1.2567  1.3933
28573SOL    HW287333   1.869  -0.012   2.102 -0.5874  1.4119  1.7966
28574SOL     OW87334   4.381   2.809   2.664 -0.4248 -0.0624 -0.0832
28574SOL    HW187335   4.416   2.723   2.642  1.0662  0.6381 -0.5800
28574SOL    HW287336   4.378   2.810   2.760 -1.2586 -0.9511 -0.0836
28575SOL     OW87337   4.697   8.860   2.927  0.1911 -0.2376  0.0096
28575SOL    HW187338   4.714   8.820   2.842 -0.4767 -0.8320  0.1572
28575SOL    HW287339   4.780   8.851   2.975 -0.2190 -2.3116  0.3946
28576SOL     OW87340   6.549   2.045   4.857 -0.1781  0.2605  0.4925
28576SOL    HW187341   6.486   2.005   4.797 -0.2214 -0.7466  1.1861
28576SOL    HW287342   6.620   1.982   4.863  0.3184  0.8323  0.6803
28577SOL     OW87343   7.663   7.572   4.838  0.0932 -0.6645 -0.1421
28577SOL    HW187344   7.683   7.526   4.757  0.4408  0.5517 -0.7717
28577SOL    HW287345   7.568   7.587   4.833  0.2871  0.4581 -0.9277
28578SOL     OW87346   5.945   4.020   8.755 -0.3121 -0.1651  0.0163
28578SOL    HW187347   5.864   4.036   8.707 -0.4929 -1.5452 -0.1644
28578SOL    HW287348   5.919   4.025   8.847 -0.9112 -1.9143 -0.0253
28579SOL     OW87349   7.723   0.613   5.473 -0.0466 -0.1616  0.7261
28579SOL    HW187350   7.768   0.669   5.410 -0.3158  0.5746  1.1691
28579SOL    HW287351   7.663   0.672   5.519 -0.7814 -0.9354  0.7936
28580SOL     OW87352   8.646   6.543   2.669 -0.2192  0.0343 -0.2468
28580SOL    HW187353   8.576   6.493   2.627  0.0475 -0.8041  0.2656
28580SOL    HW287354   8.726   6.497   2.643  0.0266  0.1625  0.2823
28581SOL     OW87355   6.644   7.469   6.767  0.2733  0.4189  0.3450
28581SOL    HW187356   6.733   7.438   6.752  1.1311  2.8413 -0.0645
28581SOL    HW287357   6.618   7.509   6.684 -0.6916  0.8985  0.8582
28582SOL     OW87358   7.905   2.059   0.065  0.1456  0.0749  0.2384
28582SOL    HW187359   7.997   2.044   0.086  0.0429 -0.5847  0.2108
28582SOL    HW287360   7.890   2.011  -0.016 -0.0268  0.8321 -0.1875
28583SOL     OW87361   4.693   7.446   5.951 -0.7006 -0.2786  0.0991
28583SOL    HW187362   4.704   7.386   6.025  0.7937 -0.6400 -0.3743
28583SOL    HW287363   4.625   7.407   5.897  0.1068 -1.4625 -0.0904
28584SOL     OW87364   9.107   7.932   9.158  0.2215 -0.3503  0.1796
28584SOL    HW187365   9.054   7.880   9.218 -0.4467 -2.1036 -1.8150
28584SOL    HW287366   9.184   7.877   9.141  1.0944  0.7414  0.4931
28585SOL     OW87367   2.088   5.473   0.452  0.1563  0.0603  1.0880
28585SOL    HW187368   2.132   5.454   0.369  0.7535  1.7363  0.9761
28585SOL    HW287369   2.154   5.456   0.519  1.2779  3.0507  0.8916
28586SOL     OW87370   3.111   1.769   2.652  0.3049  0.3425  0.4234
28586SOL    HW187371   3.182   1.806   2.600 -0.9577  1.5215 -0.4967
28586SOL    HW287372   3.156   1.721   2.722  2.0020  0.7988 -0.3074
28587SOL     OW87373   5.111   3.843   0.858  0.1518 -0.1032  0.4347
28587SOL    HW187374   5.184   3.801   0.904  0.3675 -0.5719 -0.3281
28587SOL    HW287375   5.092   3.785   0.785  0.8946  1.4305 -1.0382
28588SOL     OW87376   1.140   1.902   4.615  0.1557  0.2239 -0.0935
28588SOL    HW187377   1.178   1.860   4.538 -0.5269  1.6268 -1.2435
28588SOL    HW287378   1.214   1.938   4.664  0.6966 -1.6920  0.5842
28589SOL     OW87379   5.721   5.740   3.182 -0.4314 -0.4747  0.2652
28589SOL    HW187380   5.762   5.712   3.263 -1.7023 -1.5240  0.5648
28589SOL    HW287381   5.639   5.782   3.209  0.2810  1.4061 -0.3343
28590SOL     OW87382   7.146   8.025   4.764  0.4333 -0.6633  0.2748
28590SOL    HW187383   7.053   8.043   4.775  0.0459 -1.8381 -0.7958
28590SOL    HW287384   7.151   7.977   4.681  1.9303 -1.0344  0.5569
28591SOL     OW87385   3.379   4.781   6.080  0.9426  0.5722 -0.6730
28591SOL    HW187386   3.431   4.742   6.010 -0.7217 -0.1656 -1.5413
28591SOL    HW287387   3.376   4.874   6.058  1.0957  0.4713 -1.1250
28592SOL     OW87388   6.368   2.723   6.056  0.4321  0.1124 -0.0740
28592SOL    HW187389   6.286   2.683   6.085  0.8239  0.9685  2.5399
28592SOL    HW287390   6.434   2.654   6.070  0.3214 -0.2069 -1.1002
28593SOL     OW87391   2.997   7.804   1.174 -0.1501  0.5187 -0.2376
28593SOL    HW187392   2.940   7.880   1.167 -2.5666 -1.2400 -0.7157
28593SOL    HW287393   2.991   7.761   1.088  0.3319 -0.7774  0.3506
28594SOL     OW87394   5.582   2.199   5.289 -0.1189  0.0404  0.0729
28594SOL    HW187395   5.632   2.248   5.223  0.2528  1.2708  1.2477
28594SOL    HW287396   5.510   2.256   5.313 -0.4376 -0.5353  0.5091
28595SOL     OW87397   5.963   1.220   3.499  0.3643 -0.1241  0.9544
28595SOL    HW187398   5.930   1.309   3.508  2.1445  0.8222 -1.0159
28595SOL    HW287399   5.974   1.208   3.405  0.4400 -2.3483  1.2011
28596SOL     OW87400   9.647   0.938   1.199 -0.0382  0.3762  0.7459
28596SOL    HW187401   9.679   0.882   1.129 -1.0699  0.3660  0.2730
28596SOL    HW287402   9.640   0.880   1.275  1.3107  0.4390  0.9542
28597SOL     OW87403   8.848   0.519   4.951 -0.4771  0.0439  0.6353
28597SOL    HW187404   8.821   0.440   4.904  0.9292  0.2486 -0.5874
28597SOL    HW287405   8.943   0.511   4.958 -0.1998  2.0378 -0.3053
28598SOL     OW87406   7.082   8.735   9.492  0.4402 -0.5586 -0.3632
28598SOL    HW187407   7.139   8.706   9.420  1.1787  0.2379 -0.1157
28598SOL    HW287408   7.001   8.761   9.449  0.6837 -0.5858 -0.8483
28599SOL     OW87409   5.728   8.788   2.120 -0.4286 -0.1383 -0.6353
28599SOL    HW187410   5.773   8.753   2.044 -0.9748 -1.5076 -0.3615
28599SOL    HW287411   5.645   8.822   2.085  0.5689  2.0128 -1.0755
28600SOL     OW87412   6.416   2.826   7.451 -0.8227 -0.3289 -0.1258
28600SOL    HW187413   6.368   2.842   7.369 -0.4005  1.6937 -0.0313
28600SOL    HW287414   6.349   2.832   7.519 -0.5888  2.3451 -0.0080
28601SOL     OW87415   6.781   3.470   5.438  0.2772 -0.2606  0.3067
28601SOL    HW187416   6.817   3.457   5.526  1.4440 -1.4192 -0.3095
28601SOL    HW287417   6.729   3.550   5.445  0.8915  0.0359  1.8846
28602SOL     OW87418   7.198   3.425   9.738  0.1926 -0.2675  0.2159
28602SOL    HW187419   7.216   3.378   9.820  0.7155 -1.6032 -0.6301
28602SOL    HW287420   7.267   3.396   9.678  0.8140  1.9598 -0.2388
28603SOL     OW87421   5.438   7.466   5.803 -0.4508 -0.1360  0.2110
28603SOL    HW187422   5.447   7.547   5.854 -1.1811  0.8543 -1.1666
28603SOL    HW287423   5.394   7.405   5.862  1.9354 -0.2571  1.9852
28604SOL     OW87424   2.063   2.410   2.366 -0.7180 -0.0622 -0.6426
28604SOL    HW187425   2.101   2.488   2.325 -3.1769  1.4125 -0.3046
28604SOL    HW287426   2.065   2.344   2.297  0.8891  0.4144 -1.1119
28605SOL     OW87427   1.958   0.641   8.613 -0.4335 -0.2801 -0.5453
28605SOL    HW187428   1.976   0.548   8.625 -0.0011 -0.0587  0.7696
28605SOL    HW287429   1.883   0.659   8.670  0.2864  0.4014  0.2337
28606SOL     OW87430   9.391   6.315   8.160 -0.0986  0.6646  0.0125
28606SOL    HW187431   9.458   6.335   8.226  0.7883  0.6915 -0.8631
28606SOL    HW287432   9.382   6.220   8.163  0.4298  0.5990 -0.2712
28607SOL     OW87433   1.229   1.253   8.039  0.3975  0.3592  0.3926
28607SOL    HW187434   1.176   1.217   8.110  0.9275  0.7572  1.0052
28607SOL    HW287435   1.166   1.282   7.973 -0.2888  2.6462  1.9508
28608SOL     OW87436   7.359   2.195   6.209  0.1356  0.1117 -0.1511
28608SOL    HW187437   7.322   2.243   6.283  0.3772 -0.0153  0.0577
28608SOL    HW287438   7.433   2.147   6.247  0.0411 -0.2389 -0.4031
28609SOL     OW87439   5.164   3.719   7.927 -0.1501  0.2731 -0.0319
28609SOL    HW187440   5.083   3.723   7.977 -0.4501  0.8431 -0.5603
28609SOL    HW287441   5.233   3.712   7.994 -0.7231 -2.1163  0.3881
28610SOL     OW87442   1.083   8.037   2.587 -0.0104 -0.4362 -0.0132
28610SOL    HW187443   1.139   8.094   2.638 -0.6260 -1.9150  2.5103
28610SOL    HW287444   1.022   8.096   2.543  0.9755  0.9543  0.4304
28611SOL     OW87445   9.065   9.768   2.937 -0.5121  0.0963 -0.2860
28611SOL    HW187446   9.134   9.707   2.961  0.0452  0.9772  0.3915
28611SOL    HW287447   9.110   9.840   2.893 -1.2594 -0.3823 -1.9328
28612SOL     OW87448   8.860   4.905   0.647  0.1635 -0.6818  0.2234
28612SOL    HW187449   8.778   4.918   0.599  0.6252 -0.7882 -0.5918
28612SOL    HW287450   8.918   4.974   0.616  0.2376 -0.2963  1.1620
28613SOL     OW87451   2.808   4.528   5.191 -0.5528  0.4925  0.3529
28613SOL    HW187452   2.830   4.589   5.262 -0.4169 -0.2935  1.0001
28613SOL    HW287453   2.731   4.481   5.224 -0.5658  0.2056 -0.0832
28614SOL     OW87454   2.745   2.378   6.308 -0.0205  0.3038 -0.1062
28614SOL    HW187455   2.811   2.309   6.314 -1.0499 -0.7275 -0.3499
28614SOL    HW287456   2.788   2.448   6.259  1.7026  0.6783  1.8121
28615SOL     OW87457   0.252   2.274   7.447 -0.0840  0.1480  0.0507
28615SOL    HW187458   0.171   2.316   7.478 -0.0961 -0.2264  0.5430
28615SOL    HW287459   0.279   2.219   7.520  1.4508  1.4110  0.4879
28616SOL     OW87460   6.834   6.704   9.326  0.1118  0.3381 -0.1991
28616SOL    HW187461   6.922   6.669   9.341  0.8466  1.1450 -2.2067
28616SOL    HW287462   6.783   6.674   9.400  2.1963  0.2520  1.2827
28617SOL     OW87463   5.707   4.118   6.393 -0.0872  0.3685 -0.2354
28617SOL    HW187464   5.687   4.202   6.352 -0.7815  0.2288 -0.1883
28617SOL    HW287465   5.751   4.141   6.474 -1.9024  0.7679  0.6937
28618SOL     OW87466   8.837   1.959   4.474  0.6719  0.2247 -0.6027
28618SOL    HW187467   8.916   1.999   4.512 -1.1277  2.0583  1.4844
28618SOL    HW287468   8.838   1.869   4.505  0.0106  1.2716  2.9310
28619SOL     OW87469   8.195   2.235   1.070 -0.1889 -0.4806 -0.5963
28619SOL    HW187470   8.198   2.327   1.096 -0.5661 -0.6024 -0.1218
28619SOL    HW287471   8.211   2.186   1.151 -2.3911 -0.8837 -0.3365
28620SOL     OW87472   6.853   3.547   8.086  0.1258 -0.1715 -0.4016
28620SOL    HW187473   6.887   3.632   8.056  1.9669 -1.7591 -3.3114
28620SOL    HW287474   6.931   3.501   8.117 -0.5213 -1.4902 -0.7067
28621SOL     OW87475   6.526   5.046   5.574  0.4558  0.1631 -0.2932
28621SOL    HW187476   6.586   5.121   5.576  0.8158 -0.1367  0.4115
28621SOL    HW287477   6.448   5.077   5.620  0.0604  0.5536 -1.2105
28622SOL     OW87478   3.933   5.794   6.290  0.4701  0.4804  0.5610
28622SOL    HW187479   3.956   5.701   6.294  1.5325  0.6003 -1.5580
28622SOL    HW287480   3.991   5.830   6.224 -1.4697  2.1907 -0.3262
28623SOL     OW87481   5.861   3.616   6.908  0.3212 -0.1298 -0.0575
28623SOL    HW187482   5.955   3.630   6.908  0.4328 -0.4697  2.5797
28623SOL    HW287483   5.826   3.680   6.969 -0.7977 -1.8380  1.1932
28624SOL     OW87484   6.751   5.747   6.576  0.1295  0.0101  0.1985
28624SOL    HW187485   6.695   5.820   6.552  0.3343 -0.0629 -0.5222
28624SOL    HW287486   6.805   5.781   6.648 -0.2770  0.3301  0.3557
28625SOL     OW87487   6.896   6.310   3.195  0.0624 -0.6803  0.6248
28625SOL    HW187488   6.902   6.382   3.132  0.1641 -0.0460  1.3387
28625SOL    HW287489   6.803   6.309   3.221 -0.5655 -2.5809 -1.3690
28626SOL     OW87490   1.328   4.496   7.131 -0.4037  0.6427  0.0647
28626SOL    HW187491   1.391   4.553   7.175 -1.1565  0.7313  1.0576
28626SOL    HW287492   1.316   4.422   7.190 -0.0209 -0.1789 -0.8645
28627SOL     OW87493   9.455   5.860   6.762 -0.2386  0.0325  0.2018
28627SOL    HW187494   9.402   5.939   6.760 -0.2908  0.0332  1.1403
28627SOL    HW287495   9.501   5.859   6.678 -0.0734  1.1721  0.2679
28628SOL     OW87496   8.005   8.671   2.239 -0.1080 -0.2609 -0.0146
28628SOL    HW187497   8.034   8.583   2.215  2.2290  0.1141  1.0856
28628SOL    HW287498   7.940   8.657   2.308 -0.6675 -1.1154 -0.6906
28629SOL     OW87499   5.634   7.900   7.592 -0.8056 -0.0035 -0.0942
28629SOL    HW187500   5.644   7.913   7.687 -0.7613  1.4701 -0.2772
28629SOL    HW287501   5.723   7.890   7.560 -0.5249  2.4297 -0.3157
28630SOL     OW87502   4.212   5.850   1.900  0.2301 -0.3997 -0.5935
28630SOL    HW187503   4.129   5.803   1.901  0.1169 -0.2011 -0.3785
28630SOL    HW287504   4.189   5.937   1.866  0.4233 -0.4757 -0.9191
28631SOL     OW87505   0.996   2.833   4.331  0.0925 -0.5230 -0.2366
28631SOL    HW187506   0.965   2.792   4.413 -0.0050  0.7211  0.3678
28631SOL    HW287507   1.052   2.766   4.292 -0.1941 -1.3110  0.6359
28632SOL     OW87508   6.983   5.341   3.854 -0.2665 -0.3715  0.0537
28632SOL    HW187509   7.043   5.286   3.804  1.6580  2.3758 -0.8936
28632SOL    HW287510   6.897   5.323   3.817  0.7157 -0.5683 -2.2778
28633SOL     OW87511   6.302   5.559   9.512 -0.3400  0.4304 -0.0390
28633SOL    HW187512   6.224   5.561   9.567 -0.2854  4.0563  0.1205
28633SOL    HW287513   6.363   5.501   9.559 -1.3697  1.0143  2.1505
28634SOL     OW87514   7.806   6.754   3.885 -0.6351  0.5130 -0.1273
28634SOL    HW187515   7.729   6.724   3.932 -1.4460 -0.9497 -2.2146
28634SOL    HW287516   7.771   6.793   3.805  0.7428 -2.0797 -2.1530
28635SOL     OW87517   4.235   6.096   2.807  0.0422 -0.5249 -0.0659
28635SOL    HW187518   4.158   6.127   2.855 -0.1430 -1.0533 -0.0229
28635SOL    HW287519   4.208   6.013   2.768  0.0215  0.1320 -1.5189
28636SOL     OW87520   3.096   3.297   2.469 -0.3019 -0.2018 -0.0660
28636SOL    HW187521   3.011   3.309   2.429 -1.1822  1.6710  2.1265
28636SOL    HW287522   3.151   3.366   2.431  0.0648 -0.9855 -0.9840
28637SOL     OW87523   7.905   4.207   9.406  0.2164  0.2509  0.1745
28637SOL    HW187524   7.947   4.215   9.321  0.3590 -0.9785  0.0992
28637SOL    HW287525   7.877   4.115   9.410 -2.8181  1.0526  0.0612
28638SOL     OW87526   1.914   3.058   6.134  0.0785  0.1036  0.0302
28638SOL    HW187527   1.983   3.007   6.092  0.0894  0.5599 -0.5294
28638SOL    HW287528   1.917   3.143   6.090 -0.7618  0.1693  0.0799
28639SOL     OW87529   0.714   4.826   6.110  0.2680  0.5578  0.1898
28639SOL    HW187530   0.651   4.806   6.179 -2.1575 -0.2970 -2.1006
28639SOL    HW287531   0.791   4.772   6.130 -0.5345  0.0131  1.9442
28640SOL     OW87532   7.714   5.799   8.352 -0.1113  0.5984  0.1182
28640SOL    HW187533   7.712   5.861   8.279  1.1603 -0.7132 -1.1157
28640SOL    HW287534   7.782   5.736   8.327  0.9524  0.5389  2.8278
28641SOL     OW87535   6.397   4.975   6.639  0.2579  0.0855 -0.0120
28641SOL    HW187536   6.341   4.974   6.562 -1.0207 -0.0641  0.8927
28641SOL    HW287537   6.394   4.886   6.672 -0.0867  0.3986  0.8223
28642SOL     OW87538   0.939   5.328   3.559  0.5800 -0.4630  0.0378
28642SOL    HW187539   0.844   5.322   3.558  0.4690  0.6441  0.9657
28642SOL    HW287540   0.962   5.374   3.478  0.4267 -1.5293 -0.6360
28643SOL     OW87541   2.698   6.673   7.827 -0.0840 -0.2231 -0.2467
28643SOL    HW187542   2.742   6.726   7.760  0.6968 -1.5384 -0.8194
28643SOL    HW287543   2.620   6.723   7.849  0.2625  0.8282 -1.2612
28644SOL     OW87544   7.648   2.813   6.267 -0.2932  0.4352  0.6401
28644SOL    HW187545   7.669   2.741   6.208  0.1610  0.2064  1.0757
28644SOL    HW287546   7.601   2.772   6.340  0.1867  0.5395  1.0108
28645SOL     OW87547   4.017   7.298   4.504  0.0701 -0.1510  0.4328
28645SOL    HW187548   3.982   7.340   4.425  0.7467  1.7177  1.0608
28645SOL    HW287549   3.944   7.298   4.566 -0.5310 -1.8269 -0.1987
28646SOL     OW87550   1.066   0.589   9.542 -1.0225 -0.0308 -0.0127
28646SOL    HW187551   1.124   0.514   9.535 -1.6271 -0.3693 -1.9628
28646SOL    HW287552   1.057   0.605   9.636  0.3781 -1.3891  0.3720
28647SOL     OW87553   8.415   8.247   2.958  0.3792 -0.2054 -0.2840
28647SOL    HW187554   8.342   8.244   2.897 -1.2537  1.0621  1.5006
28647SOL    HW287555   8.485   8.198   2.914 -1.4213 -1.2305 -2.1651
28648SOL     OW87556   0.996   1.116   3.848 -0.3661 -0.5022 -0.2649
28648SOL    HW187557   0.995   1.188   3.911  1.3400  0.0706 -0.8432
28648SOL    HW287558   1.020   1.157   3.765 -1.5791 -1.4051 -1.1100
28649SOL     OW87559   4.094   9.785   0.698 -0.6005 -0.2772  0.5526
28649SOL    HW187560   4.153   9.734   0.643 -0.9476 -0.0110 -0.0813
28649SOL    HW287561   4.132   9.780   0.786 -0.0554 -0.7333  0.2966
28650SOL     OW87562   7.702   7.460   2.242  0.5580 -0.1386 -0.3259
28650SOL    HW187563   7.622   7.443   2.292 -0.4981 -0.8376 -2.1891
28650SOL    HW287564   7.771   7.466   2.309 -0.9696  0.1369  1.2940
28651SOL     OW87565   8.111   0.798   6.926 -0.6249 -0.2747  0.3737
28651SOL    HW187566   8.074   0.886   6.935 -0.1652 -0.0647  0.2461
28651SOL    HW287567   8.049   0.751   6.870 -0.6212  0.1219  0.0309
28652SOL     OW87568   8.738   1.385   4.604 -0.5744  0.2423 -0.2434
28652SOL    HW187569   8.657   1.360   4.650 -0.9403 -0.5651 -1.2784
28652SOL    HW287570   8.709   1.448   4.539 -0.2593  0.4435 -0.1882
28653SOL     OW87571   3.162   7.665   4.244 -0.2932 -0.5935 -0.0988
28653SOL    HW187572   3.067   7.674   4.239 -0.4537 -0.6186  1.9605
28653SOL    HW287573   3.188   7.724   4.315  1.2383 -0.6004 -0.6100
28654SOL     OW87574   6.490   3.464   3.433 -0.2185 -0.8115 -0.7528
28654SOL    HW187575   6.432   3.393   3.407 -1.4358 -0.4629  0.8419
28654SOL    HW287576   6.446   3.544   3.403 -0.9219 -0.5059  0.9870
28655SOL     OW87577   3.502   5.011   0.423 -0.4968  0.6276 -0.0740
28655SOL    HW187578   3.542   4.936   0.467 -0.6879  1.2830  1.2812
28655SOL    HW287579   3.469   5.066   0.495 -0.7450  1.7957 -1.0490
28656SOL     OW87580   0.568   4.966   6.631  0.4902  0.3645 -0.8031
28656SOL    HW187581   0.554   4.911   6.708  0.2535  1.8713  0.2964
28656SOL    HW287582   0.661   4.989   6.635  0.3347  0.9875 -0.5507
28657SOL     OW87583   3.968   3.535   2.002  1.0458  0.1892  0.0860
28657SOL    HW187584   3.971   3.481   2.081  0.9015 -1.9827 -1.3026
28657SOL    HW287585   4.041   3.596   2.012  0.4743  0.6096  2.2765
28658SOL     OW87586   2.034   9.543   4.777 -0.2434 -0.6044 -0.0498
28658SOL    HW187587   2.030   9.518   4.870 -0.6427 -0.1025  0.0779
28658SOL    HW287588   1.975   9.618   4.771  1.0355  0.4199 -0.3631
28659SOL     OW87589   9.797   9.083   0.218 -0.1445 -0.3206  0.1224
28659SOL    HW187590   9.841   9.156   0.261 -0.4134  0.1007 -0.3076
28659SOL    HW287591   9.750   9.038   0.288 -0.5361  0.3257  0.2777
28660SOL     OW87592   4.166   8.690   9.066  0.5364  0.4117 -0.2950
28660SOL    HW187593   4.233   8.683   8.998  0.8821 -0.0600  0.0889
28660SOL    HW287594   4.091   8.643   9.031 -0.0817  2.0584 -1.2958
28661SOL     OW87595   2.537   1.502   4.073  0.0617 -0.1259  0.1611
28661SOL    HW187596   2.561   1.498   4.166  1.0712  1.8384  0.0402
28661SOL    HW287597   2.442   1.494   4.073  0.0331 -0.0466  1.3767
28662SOL     OW87598   0.074   7.686   3.170  0.2181 -0.2849  0.0666
28662SOL    HW187599   0.028   7.769   3.180 -0.4547 -0.6952  0.4803
28662SOL    HW287600   0.147   7.691   3.233  1.0783  0.5789 -0.9622
28663SOL     OW87601   8.766   9.610   3.791  0.4618  0.4948  0.2003
28663SOL    HW187602   8.799   9.521   3.803 -1.4725 -0.2894  0.0749
28663SOL    HW287603   8.815   9.643   3.715  1.0704 -0.5356  0.1188
28664SOL     OW87604   5.537   6.124   5.331  0.3651 -0.6800  0.3653
28664SOL    HW187605   5.492   6.175   5.398  1.0210 -2.2529  2.1094
28664SOL    HW287606   5.588   6.059   5.380  3.0468 -0.2124 -1.5639
28665SOL     OW87607   0.531   2.960   5.042 -0.1487  0.2664 -0.2121
28665SOL    HW187608   0.436   2.956   5.027 -0.1758  2.7309 -1.1261
28665SOL    HW287609   0.542   3.029   5.108  0.9498 -1.0612  1.0538
28666SOL     OW87610   5.166   8.833   2.645  0.1283  0.4441 -0.2636
28666SOL    HW187611   5.214   8.790   2.574 -0.4481  1.1690 -1.1084
28666SOL    HW287612   5.232   8.885   2.691  0.9235 -1.5633  1.0048
28667SOL     OW87613   6.587   5.003   7.831 -0.5553  0.1502 -0.2621
28667SOL    HW187614   6.538   4.922   7.843  0.2876 -0.4773 -0.9433
28667SOL    HW287615   6.541   5.067   7.885 -2.3659 -0.3022 -1.2026
28668SOL     OW87616   6.303   3.026   6.857  0.2140  0.3175 -0.3110
28668SOL    HW187617   6.212   3.026   6.887 -0.0081  1.5779 -0.9022
28668SOL    HW287618   6.304   3.089   6.784  1.8697  1.4902  0.6545
28669SOL     OW87619   8.327   6.221   9.543 -0.5556  0.0513  0.0528
28669SOL    HW187620   8.368   6.136   9.560 -0.2527  0.3913  1.1016
28669SOL    HW287621   8.236   6.200   9.524 -0.2539 -0.5860 -0.8012
28670SOL     OW87622   2.406   1.020   7.319  0.2705 -0.6585  0.2497
28670SOL    HW187623   2.489   1.001   7.363  1.0899  0.8193 -0.5313
28670SOL    HW287624   2.376   1.101   7.359 -0.0153 -0.3916 -0.4815
28671SOL     OW87625   6.209   9.071   7.675  0.4607 -0.0078 -0.1333
28671SOL    HW187626   6.132   9.014   7.681 -0.5678  0.9894 -2.4603
28671SOL    HW287627   6.239   9.081   7.765 -2.0604 -0.5341  0.8539
28672SOL     OW87628   4.422   2.645   7.491  0.1463 -0.1833 -0.4513
28672SOL    HW187629   4.344   2.607   7.452  1.5225  0.3957 -4.1890
28672SOL    HW287630   4.409   2.740   7.482  2.0422 -0.0681 -3.2154
28673SOL     OW87631   3.857   9.834   7.743  0.0323 -0.0247 -0.0187
28673SOL    HW187632   3.788   9.768   7.751  1.1847 -1.0412  3.5328
28673SOL    HW287633   3.937   9.787   7.765  1.1837  2.1225  0.6292
28674SOL     OW87634   3.739   6.533   8.246  0.2051 -0.1386  0.3490
28674SOL    HW187635   3.762   6.441   8.258 -0.3204 -0.3001  0.1289
28674SOL    HW287636   3.698   6.537   8.160  0.6975  0.3949  0.1247
28675SOL     OW87637   2.994   6.222   9.349 -0.2605 -0.0560  0.5984
28675SOL    HW187638   2.899   6.228   9.357 -0.5547 -2.6174 -0.1494
28675SOL    HW287639   3.009   6.209   9.256  0.8711  0.4721  0.6917
28676SOL     OW87640   3.191   6.246   3.965 -0.1488  0.2548  0.7721
28676SOL    HW187641   3.174   6.184   4.036  1.2459 -0.6611  0.3602
28676SOL    HW287642   3.171   6.197   3.886  1.9864 -0.1031  0.3846
28677SOL     OW87643   7.487   7.230   2.186 -0.4762  0.2949  0.1031
28677SOL    HW187644   7.458   7.307   2.234  0.1075  0.4141  0.2686
28677SOL    HW287645   7.407   7.196   2.145 -0.8035  0.7579  0.3483
28678SOL     OW87646   8.622   7.694   6.229  0.0555 -0.2652 -0.7679
28678SOL    HW187647   8.620   7.777   6.183  0.6123  0.0837 -0.1874
28678SOL    HW287648   8.713   7.685   6.258 -0.3889 -0.1860  0.7435
28679SOL     OW87649   5.632   4.751   4.866 -0.0528 -0.0157  0.2020
28679SOL    HW187650   5.582   4.818   4.912 -0.7013 -0.4118  0.0946
28679SOL    HW287651   5.701   4.725   4.928 -0.4570 -0.0118  0.6639
28680SOL     OW87652   5.370   0.731   4.563 -0.0647 -0.4334  0.1107
28680SOL    HW187653   5.292   0.712   4.512 -0.0297  0.9995 -0.5174
28680SOL    HW287654   5.363   0.823   4.585  1.6263 -0.1751 -0.2654
28681SOL     OW87655   2.542   7.713   7.530  0.4088 -0.0893 -0.2312
28681SOL    HW187656   2.458   7.758   7.527  0.7913  0.6030 -0.8278
28681SOL    HW287657   2.554   7.679   7.441  1.0091  0.2991 -0.3061
28682SOL     OW87658   0.475   4.432   2.140  0.2925 -0.0505  0.3233
28682SOL    HW187659   0.395   4.439   2.193 -1.0219  1.7854 -1.7576
28682SOL    HW287660   0.514   4.519   2.143  1.6560 -0.6422  0.4100
28683SOL     OW87661   2.751   9.268   5.059 -0.3219  0.3561  0.7325
28683SOL    HW187662   2.699   9.263   4.978 -0.1119  1.9233  0.4803
28683SOL    HW287663   2.686   9.263   5.129 -0.6951  0.9333  0.4371
28684SOL     OW87664   0.275   2.988   9.090  0.4119  0.3643  0.0007
28684SOL    HW187665   0.344   3.052   9.075  0.4140  0.4811  0.4913
28684SOL    HW287666   0.214   3.000   9.017  0.8624  0.3144 -0.3938
28685SOL     OW87667   2.232   4.065   6.959 -0.2716  0.4278 -0.0718
28685SOL    HW187668   2.210   4.060   6.866  2.4201 -0.5643 -0.7311
28685SOL    HW287669   2.300   4.132   6.964 -0.1630  0.2460  1.1412
28686SOL     OW87670   3.433   2.498   5.504  0.0515  0.0568  0.4211
28686SOL    HW187671   3.472   2.463   5.584  2.5037  1.2946 -0.1063
28686SOL    HW287672   3.416   2.590   5.524 -1.1205 -0.0848  0.1115
28687SOL     OW87673   4.994   4.528   3.258 -0.0129  0.4884  0.7862
28687SOL    HW187674   4.917   4.489   3.216  0.3742  0.0459  0.4753
28687SOL    HW287675   4.978   4.514   3.351 -0.2360  0.2476  0.7176
28688SOL     OW87676   7.524   0.411   5.393 -0.1951 -0.2135  0.2452
28688SOL    HW187677   7.556   0.424   5.304 -1.1389 -1.4627 -0.3020
28688SOL    HW287678   7.572   0.476   5.445 -1.8300  2.6841 -1.6115
28689SOL     OW87679   6.609   9.634   1.615 -0.2168  0.4581 -0.8042
28689SOL    HW187680   6.700   9.604   1.611 -0.0748  0.7876 -0.2916
28689SOL    HW287681   6.588   9.660   1.526 -0.0721 -0.3655 -1.0865
28690SOL     OW87682   0.968   7.194   3.476 -0.0822  0.3651  0.3340
28690SOL    HW187683   0.915   7.273   3.466 -0.1527  0.2843  0.0609
28690SOL    HW287684   0.909   7.123   3.452  0.1680  0.2788 -0.0403
28691SOL     OW87685   6.498   7.620   9.768  0.2446  0.3263  0.7208
28691SOL    HW187686   6.496   7.713   9.789  0.5005  0.6148 -0.4795
28691SOL    HW287687   6.550   7.614   9.688 -0.5186 -0.7474  0.2834
28692SOL     OW87688   5.293   6.329   7.610 -0.5571 -0.1197 -0.1029
28692SOL    HW187689   5.233   6.256   7.596 -1.2735  0.3975  0.1952
28692SOL    HW287690   5.316   6.359   7.523  0.2266 -1.0803 -0.2416
28693SOL     OW87691   9.046   7.544   6.622 -0.5628  0.4684 -0.0484
28693SOL    HW187692   9.050   7.451   6.646  0.9143  0.0712 -1.6891
28693SOL    HW287693   9.022   7.588   6.704  0.3484 -1.1884  1.1814
28694SOL     OW87694   7.308   0.110   7.227 -0.1040 -0.0347 -0.4679
28694SOL    HW187695   7.299   0.092   7.320  0.1213 -1.1920 -0.6640
28694SOL    HW287696   7.387   0.163   7.220  1.1616 -1.8453 -0.2274
28695SOL     OW87697   6.966   8.874   0.439  0.2503  0.0295 -0.3076
28695SOL    HW187698   6.884   8.862   0.391 -0.9858  1.5670  1.2774
28695SOL    HW287699   7.021   8.925   0.379 -0.1465 -0.5360 -1.1785
28696SOL     OW87700   9.835   5.863   7.893  0.6963  0.3929  0.0542
28696SOL    HW187701   9.801   5.826   7.812 -0.5608 -0.7266  1.0379
28696SOL    HW287702   9.827   5.958   7.882  1.5441  0.3057 -1.5164
28697SOL     OW87703   4.082   5.356   2.443 -0.2259 -0.3568  0.5490
28697SOL    HW187704   4.013   5.393   2.389 -0.4484 -0.7559  0.5563
28697SOL    HW287705   4.155   5.417   2.434 -0.9585  0.6928  1.4714
28698SOL     OW87706   5.523   2.722   3.435  0.0752  0.1508 -0.0275
28698SOL    HW187707   5.524   2.650   3.372 -2.0014  1.6271 -1.8930
28698SOL    HW287708   5.439   2.714   3.480  2.3261 -2.2145  4.4844
28699SOL     OW87709   3.566   6.445   5.014  0.0840  0.3356 -0.0364
28699SOL    HW187710   3.488   6.500   5.006  0.4840  0.9723  0.3418
28699SOL    HW287711   3.552   6.375   4.951 -1.9605 -0.9888  1.7536
28700SOL     OW87712   1.666   5.784   7.234  0.2130  0.3283 -0.6897
28700SOL    HW187713   1.738   5.801   7.295 -0.8365  1.0234  0.3977
28700SOL    HW287714   1.660   5.864   7.182  0.3315  0.1932 -0.9173
28701SOL     OW87715   0.988   8.821   3.873 -0.0837  0.0312  0.0339
28701SOL    HW187716   1.054   8.774   3.924  1.9787  1.6482 -1.0260
28701SOL    HW287717   0.942   8.876   3.937  0.7587  0.1666  0.5283
28702SOL     OW87718   6.918   3.869   3.378 -0.4096 -0.1063 -0.1131
28702SOL    HW187719   6.935   3.785   3.420  0.1730  1.4650  3.1072
28702SOL    HW287720   7.003   3.915   3.382 -1.2115  1.4143  0.2043
28703SOL     OW87721   2.117   4.293   7.440 -0.1747 -1.2091  0.1006
28703SOL    HW187722   2.192   4.337   7.478 -1.7194  0.3933  1.4756
28703SOL    HW287723   2.103   4.337   7.356 -0.9827  0.1712  0.9268
28704SOL     OW87724   2.947   3.760   9.200 -0.6649  0.0257 -0.3528
28704SOL    HW187725   2.988   3.676   9.179  0.5878  0.1490  1.3499
28704SOL    HW287726   3.013   3.807   9.251 -2.0890  1.2142  0.5000
28705SOL     OW87727   5.477   6.571   6.535 -0.2312 -0.5153  0.1138
28705SOL    HW187728   5.409   6.597   6.597 -0.5207  1.9148 -1.1249
28705SOL    HW287729   5.545   6.531   6.590 -0.4363  1.6026  2.0754
28706SOL     OW87730   5.722   5.042   7.556 -0.3538 -0.7620 -0.5274
28706SOL    HW187731   5.712   5.131   7.589 -0.2281 -0.0053 -2.3654
28706SOL    HW287732   5.814   5.037   7.528 -0.6928 -0.9606 -1.6926
28707SOL     OW87733   9.281   8.048   6.285  0.6023 -0.2693 -0.1087
28707SOL    HW187734   9.266   7.969   6.232  0.4851 -1.5687  1.7505
28707SOL    HW287735   9.223   8.037   6.361  1.9912  0.6481  1.1381
28708SOL     OW87736   4.120   9.673   2.536  0.0059 -0.3429 -1.2127
28708SOL    HW187737   4.214   9.691   2.525 -0.2500  1.8744 -0.2377
28708SOL    HW287738   4.091   9.736   2.601 -1.3896 -3.5425  1.5999
28709SOL     OW87739   0.696   0.480   5.334  0.6344  0.6574  0.2284
28709SOL    HW187740   0.688   0.407   5.273 -2.4172  0.9246  0.1821
28709SOL    HW287741   0.708   0.438   5.419  0.3779  0.1526  0.0218
28710SOL     OW87742   0.260   3.446   3.171  0.1231  0.5242 -0.2810
28710SOL    HW187743   0.170   3.436   3.200 -0.7209 -0.2615 -2.9308
28710SOL    HW287744   0.257   3.514   3.104  1.2014 -0.6238 -1.5489
28711SOL     OW87745   0.643   9.568   2.742 -0.1960 -0.0552  0.1711
28711SOL    HW187746   0.665   9.503   2.676  0.5697  0.5412 -0.1681
28711SOL    HW287747   0.684   9.649   2.712 -0.6318  0.4510  0.8911
28712SOL     OW87748   2.690   3.879   2.632 -0.2973  0.1088 -0.0200
28712SOL    HW187749   2.695   3.799   2.580  0.5949 -1.7099  2.6585
28712SOL    HW287750   2.604   3.876   2.673 -1.6180  2.2921 -2.2900
28713SOL     OW87751   4.422   4.117   5.253 -0.1008 -0.1280 -0.8859
28713SOL    HW187752   4.462   4.106   5.339 -0.6164  0.1270 -0.6086
28713SOL    HW287753   4.461   4.197   5.218 -0.5487  0.2531 -0.5149
28714SOL     OW87754   5.424   7.407   7.104 -0.0321  0.1876 -0.1786
28714SOL    HW187755   5.475   7.418   7.185 -1.3943 -0.6292  0.8303
28714SOL    HW287756   5.484   7.366   7.043  0.9894  0.6920  0.4581
28715SOL     OW87757   2.674   3.404   1.272  0.1809  0.5861  0.6757
28715SOL    HW187758   2.665   3.318   1.312  1.3610 -0.3347 -0.9172
28715SOL    HW287759   2.592   3.416   1.224  0.1165  0.2298  0.6896
28716SOL     OW87760   5.907   7.256   1.545 -1.2099 -0.2104 -0.4342
28716SOL    HW187761   5.909   7.300   1.630 -1.9356 -1.0598  0.0409
28716SOL    HW287762   5.822   7.280   1.508  0.0679  2.1760 -2.0706
28717SOL     OW87763   7.091   0.304   9.141 -0.1823  0.6522  0.1819
28717SOL    HW187764   7.074   0.335   9.229 -0.0540  0.1201  0.3990
28717SOL    HW287765   7.071   0.210   9.144  0.3503  0.5200 -0.2099
28718SOL     OW87766   3.261   4.342   9.573  0.3247 -0.1389  0.6122
28718SOL    HW187767   3.202   4.308   9.506  0.2913 -0.3880  0.7674
28718SOL    HW287768   3.347   4.308   9.550  0.9968  2.5475 -1.2903
28719SOL     OW87769   2.427   2.606   3.010 -0.5223 -0.3502  0.1872
28719SOL    HW187770   2.375   2.686   3.011  0.3306  0.2465 -0.8445
28719SOL    HW287771   2.400   2.561   2.930 -0.7035 -0.8995  0.5527
28720SOL     OW87772   4.806   3.001   9.483 -0.1638  0.0184  0.3575
28720SOL    HW187773   4.808   3.088   9.524 -1.5686 -0.1142  0.7560
28720SOL    HW287774   4.835   2.941   9.551  2.0306  0.2442 -0.2755
28721SOL     OW87775   3.841   8.716   9.241 -0.3008 -0.4009 -0.2483
28721SOL    HW187776   3.790   8.771   9.300 -2.4207 -0.4613 -1.9140
28721SOL    HW287777   3.874   8.776   9.174  0.5402 -0.6073 -0.0330
28722SOL     OW87778   4.704   8.021   9.119 -0.7260  0.5411 -0.1519
28722SOL    HW187779   4.744   8.090   9.065  1.1227  0.0579  0.5142
28722SOL    HW287780   4.737   8.038   9.207 -0.6199 -0.9101  0.1066
28723SOL     OW87781   7.054   6.925   5.750  0.3267 -0.0777  0.5009
28723SOL    HW187782   7.148   6.939   5.739  0.5351  0.0160  2.1300
28723SOL    HW287783   7.040   6.928   5.845 -0.8246 -3.2266  0.5529
28724SOL     OW87784   0.988   8.083   8.368  0.1028 -0.0149  0.0749
28724SOL    HW187785   0.975   8.175   8.348 -0.4232 -0.1067 -0.0078
28724SOL    HW287786   0.956   8.073   8.458  1.2415  0.1201  0.5184
28725SOL     OW87787   3.086   7.913   4.020 -0.0504 -0.0121 -0.6010
28725SOL    HW187788   3.066   7.841   4.080 -1.1396  0.4523 -0.3847
28725SOL    HW287789   3.070   7.992   4.072  0.7164  0.3975 -0.9720
28726SOL     OW87790   2.802   4.730   3.792  0.3225 -0.0145  0.1131
28726SOL    HW187791   2.758   4.806   3.827  0.7719  0.5322 -0.4720
28726SOL    HW287792   2.746   4.656   3.815 -0.7271  0.6231 -0.3502
28727SOL     OW87793   4.059   8.491   0.621 -0.3936 -0.3032 -0.4177
28727SOL    HW187794   4.062   8.475   0.715  1.3264  1.9007 -0.0043
28727SOL    HW287795   3.968   8.472   0.596 -1.0502 -0.3390  1.8199
28728SOL     OW87796   7.227   8.591   0.996  0.5543  0.7295 -0.1268
28728SOL    HW187797   7.184   8.666   1.036  1.1822  0.4373  1.1622
28728SOL    HW287798   7.165   8.519   1.009 -1.5449  1.5115 -4.1921
28729SOL     OW87799   4.738   4.812   1.545 -0.6230 -0.3304  0.3338
28729SOL    HW187800   4.740   4.758   1.466  0.7912 -0.4510  0.4136
28729SOL    HW287801   4.646   4.827   1.562 -1.0314 -2.0777 -0.1396
28730SOL     OW87802   7.950   8.661   4.501  0.2345  0.3623 -0.4300
28730SOL    HW187803   7.900   8.603   4.444  1.9973 -0.2515 -1.4296
28730SOL    HW287804   7.887   8.689   4.567 -1.1991 -1.0518 -1.1147
28731SOL     OW87805   5.837   1.975   5.374 -0.0044  0.0085  0.1759
28731SOL    HW187806   5.888   1.898   5.397  0.3207  0.2727  0.3549
28731SOL    HW287807   5.823   2.020   5.457  0.4728  0.5404 -0.0207
28732SOL     OW87808   7.688   0.516   6.647  0.6296  0.3981  0.4437
28732SOL    HW187809   7.613   0.549   6.696  0.8362  1.5778 -0.0068
28732SOL    HW287810   7.710   0.434   6.691  0.4851  1.1521  2.0205
28733SOL     OW87811   7.121   5.761   6.132 -0.5396 -0.3001  0.3994
28733SOL    HW187812   7.213   5.747   6.154 -0.7768 -1.7983  0.5444
28733SOL    HW287813   7.123   5.814   6.053  0.3908  1.9851  1.8496
28734SOL     OW87814   4.803   9.630   2.965  0.2206  0.0745  0.2741
28734SOL    HW187815   4.826   9.702   2.906 -2.4817  0.3746 -0.5119
28734SOL    HW287816   4.873   9.566   2.952  0.9799  1.1703 -1.4341
28735SOL     OW87817   3.564   4.952   2.445 -0.2571  0.3461  0.7769
28735SOL    HW187818   3.487   4.991   2.487 -1.4654 -0.3000 -0.7057
28735SOL    HW287819   3.534   4.865   2.418  1.7835 -0.9123  2.3472
28736SOL     OW87820   6.070   7.304   4.387 -0.2181  0.3100 -0.0345
28736SOL    HW187821   6.030   7.232   4.338 -0.3602  0.7991 -0.6498
28736SOL    HW287822   6.162   7.302   4.360 -0.2124  0.3327 -0.0160
28737SOL     OW87823   8.955   3.904   2.482  0.2207  0.6930 -0.0331
28737SOL    HW187824   8.921   3.871   2.398 -0.3655 -0.6330  0.6929
28737SOL    HW287825   8.899   3.979   2.503 -1.1670 -0.3883  0.2752
28738SOL     OW87826   5.358   5.562   8.811  0.1767 -0.4234  0.2728
28738SOL    HW187827   5.284   5.623   8.802  0.6781  0.1561  0.0651
28738SOL    HW287828   5.433   5.618   8.829  0.1149 -1.1546  3.3846
28739SOL     OW87829   9.781   7.462   5.207 -1.1836 -0.3790 -0.0499
28739SOL    HW187830   9.766   7.369   5.190 -1.6840 -0.0100 -1.8434
28739SOL    HW287831   9.743   7.507   5.131 -0.9518  1.2982  0.7696
28740SOL     OW87832   2.108   5.876   8.879  0.5909  0.2984 -0.2224
28740SOL    HW187833   2.185   5.828   8.848 -0.2703 -0.6913 -0.8872
28740SOL    HW287834   2.113   5.870   8.975  1.1736 -0.0151 -0.2696
28741SOL     OW87835   7.204   3.883   6.661 -0.0662  0.0292 -0.1615
28741SOL    HW187836   7.247   3.880   6.746 -0.3943 -0.4804 -0.0058
28741SOL    HW287837   7.275   3.894   6.598  0.1496  0.7220  0.1974
28742SOL     OW87838   4.549   3.471   6.158  0.1045 -0.4534  0.2399
28742SOL    HW187839   4.491   3.540   6.191  0.8537  1.0660 -1.4594
28742SOL    HW287840   4.499   3.429   6.089  0.5874  0.1602 -0.5052
28743SOL     OW87841   7.623   0.211   5.568 -0.0889  0.4190 -0.5823
28743SOL    HW187842   7.562   0.202   5.640  0.3287 -0.7550 -0.3581
28743SOL    HW287843   7.581   0.274   5.509 -1.2176  0.1068 -0.1407
28744SOL     OW87844   1.727   4.200   8.527 -0.4480  0.1409 -0.6254
28744SOL    HW187845   1.638   4.186   8.497 -0.4007  0.7358 -1.0808
28744SOL    HW287846   1.747   4.125   8.582 -1.1596 -0.0923 -0.6803
28745SOL     OW87847   1.418   2.374   0.159 -0.2728  0.7423 -0.5762
28745SOL    HW187848   1.461   2.454   0.189 -0.8452  1.4854 -1.6636
28745SOL    HW287849   1.341   2.405   0.112 -2.8965 -0.5484  2.4694
28746SOL     OW87850   1.233   7.267   8.447  0.0366  0.1412  0.3107
28746SOL    HW187851   1.247   7.173   8.462 -0.6760  0.1185  0.8621
28746SOL    HW287852   1.317   7.298   8.413  1.1920 -0.1619  2.6732
28747SOL     OW87853   5.326   1.545   1.798 -0.0058 -0.2738  0.1963
28747SOL    HW187854   5.391   1.527   1.730 -0.9054 -1.0219 -0.4998
28747SOL    HW287855   5.377   1.577   1.873  0.9415  1.3046 -1.0606
28748SOL     OW87856   4.186   1.939   8.292 -0.8612  0.1372  0.1486
28748SOL    HW187857   4.174   1.857   8.340 -0.4052  0.3748  0.6829
28748SOL    HW287858   4.240   1.914   8.216 -2.7598 -0.5094 -1.0693
28749SOL     OW87859   3.950   1.858   2.903 -0.0423 -0.5758  0.2549
28749SOL    HW187860   4.033   1.906   2.900 -0.5205  0.2664  0.0551
28749SOL    HW287861   3.955   1.808   2.984  0.0449  0.6306  1.0217
28750SOL     OW87862   4.019   4.552   2.709 -0.4383 -0.5475  0.0602
28750SOL    HW187863   4.072   4.484   2.751  1.1935  1.0173  0.6916
28750SOL    HW287864   4.042   4.546   2.616  2.2781  1.1591  0.5129
28751SOL     OW87865   5.506   3.447   1.588  0.1746  0.2169 -0.4457
28751SOL    HW187866   5.588   3.443   1.637  0.5122  2.3675 -0.7437
28751SOL    HW287867   5.443   3.484   1.650  0.1072  1.0638 -1.0070
28752SOL     OW87868   8.486   6.166   1.028  0.1248  0.3932  0.0894
28752SOL    HW187869   8.457   6.257   1.032 -0.4395  0.2960 -1.1514
28752SOL    HW287870   8.406   6.114   1.038  0.7057 -0.0928  3.3307
28753SOL     OW87871   2.253   4.091   1.804  0.7280 -0.2229 -0.4655
28753SOL    HW187872   2.306   4.130   1.735 -0.4640  1.5482 -0.4279
28753SOL    HW287873   2.252   4.156   1.874 -1.7421 -0.0069 -0.6049
28754SOL     OW87874   5.521   5.659   7.573  0.1075 -0.1200  0.1089
28754SOL    HW187875   5.560   5.729   7.522 -1.4902  0.2517 -0.6583
28754SOL    HW287876   5.551   5.578   7.531  2.0547  0.0283  1.0708
28755SOL     OW87877   3.274   1.078   5.260  0.3351 -0.4463 -0.3026
28755SOL    HW187878   3.243   1.089   5.170  2.0569 -2.1495 -1.1665
28755SOL    HW287879   3.200   1.039   5.306 -0.6049  0.5529 -0.9248
28756SOL     OW87880   6.124   1.136   6.813 -0.6946 -0.1320 -0.1169
28756SOL    HW187881   6.072   1.140   6.894 -0.6384  1.9274 -0.1476
28756SOL    HW287882   6.207   1.179   6.835  0.0603 -1.2137 -0.7668
28757SOL     OW87883   4.256   6.241   1.338 -0.4197  0.0271 -0.1339
28757SOL    HW187884   4.302   6.200   1.411  0.9684 -0.9337 -1.4785
28757SOL    HW287885   4.318   6.305   1.304 -1.1154  0.5809 -0.3645
28758SOL     OW87886   2.425   8.388   6.817  0.2494  0.2017  0.2392
28758SOL    HW187887   2.518   8.366   6.813  0.1271 -0.6119  1.2879
28758SOL    HW287888   2.418   8.449   6.891 -0.0759  0.1356  0.2644
28759SOL     OW87889   6.635   1.117   4.935 -0.1351  0.0113  0.3999
28759SOL    HW187890   6.665   1.188   4.994  0.0114  0.0467  0.2834
28759SOL    HW287891   6.587   1.058   4.993  0.7075 -0.3840  0.7250
28760SOL     OW87892   2.290   7.902   1.083  0.5667 -0.7069  0.9614
28760SOL    HW187893   2.282   7.847   1.006  0.3567  1.2555 -0.4899
28760SOL    HW287894   2.360   7.862   1.134  0.9544 -1.8489 -0.4093
28761SOL     OW87895   7.829   1.768   4.091 -0.2098 -0.0318 -0.4298
28761SOL    HW187896   7.775   1.691   4.105  0.2808 -0.0834  1.4009
28761SOL    HW287897   7.769   1.842   4.104 -0.5304 -0.0825 -1.5375
28762SOL     OW87898   1.501   2.042   5.105  0.1421 -0.8601 -0.3635
28762SOL    HW187899   1.514   2.112   5.040  0.2369 -1.5589 -1.1111
28762SOL    HW287900   1.424   2.070   5.154  1.7461  1.1213  1.1880
28763SOL     OW87901   2.925   8.422   5.988  0.0345 -0.2948  0.3964
28763SOL    HW187902   3.005   8.473   5.998 -0.3309  0.1160  1.4015
28763SOL    HW287903   2.880   8.461   5.913 -0.3066  0.9841  1.2384
28764SOL     OW87904   8.174   3.508   0.523 -0.9586 -0.4667 -0.4691
28764SOL    HW187905   8.080   3.495   0.533 -0.9138 -0.7561 -0.4150
28764SOL    HW287906   8.203   3.436   0.467 -0.1871 -2.5164  2.3276
28765SOL     OW87907   4.465   8.952   9.578 -0.0183 -0.1265 -0.1104
28765SOL    HW187908   4.416   8.871   9.585 -1.0036  0.3930 -0.6383
28765SOL    HW287909   4.506   8.964   9.663 -1.1538 -0.3822  0.4878
28766SOL     OW87910   2.527   7.085   9.575  0.1345 -0.4617  0.2200
28766SOL    HW187911   2.456   7.073   9.639 -0.0110 -0.8428 -0.0093
28766SOL    HW287912   2.531   7.180   9.562  0.7931 -0.2842  1.4944
28767SOL     OW87913   2.758   4.938   7.682 -0.3336  0.4760 -0.1005
28767SOL    HW187914   2.841   4.986   7.689  1.4252 -2.3883  0.7092
28767SOL    HW287915   2.748   4.921   7.588  0.3465  0.3399 -0.1549
28768SOL     OW87916   5.944   2.694   3.347 -0.6696  0.3220 -0.8288
28768SOL    HW187917   5.911   2.647   3.424 -0.0297  0.5118 -0.4269
28768SOL    HW287918   5.876   2.683   3.281 -1.3232  0.3164 -0.1726
28769SOL     OW87919   9.576   7.882   1.937  0.4200  0.1983 -0.0189
28769SOL    HW187920   9.571   7.952   2.003  0.3808  0.1690  0.0094
28769SOL    HW287921   9.594   7.803   1.988  0.0451  0.1191 -0.0062
28770SOL     OW87922   3.481   7.661   8.312  0.0999 -0.6752  0.4032
28770SOL    HW187923   3.495   7.568   8.332  1.9369 -0.4486  0.3452
28770SOL    HW287924   3.461   7.700   8.397 -1.8277 -1.2645  0.2745
28771SOL     OW87925   5.569   0.485   1.888 -0.9678 -0.0049  0.7172
28771SOL    HW187926   5.588   0.541   1.964  1.1929 -1.1502  1.1206
28771SOL    HW287927   5.632   0.413   1.896  0.6517  0.7252 -3.1171
28772SOL     OW87928   4.178   5.581   0.635  0.4012 -0.4159  0.1955
28772SOL    HW187929   4.109   5.561   0.697  0.7016 -1.0038  0.3428
28772SOL    HW287930   4.184   5.677   0.636 -1.4465 -0.2372 -0.9577
28773SOL     OW87931   5.346   0.032   0.398 -0.0779  0.5592 -0.0770
28773SOL    HW187932   5.437   0.035   0.426  0.1786 -0.3999 -0.7327
28773SOL    HW287933   5.351   0.020   0.303 -0.7236 -4.3805  0.2694
28774SOL     OW87934   2.271   2.621   7.370 -0.5901 -0.4244  0.2698
28774SOL    HW187935   2.308   2.662   7.291  0.2017 -1.2894  0.1696
28774SOL    HW287936   2.280   2.527   7.354  1.3615 -0.6389  2.1755
28775SOL     OW87937   1.005   2.503   8.664 -0.1204  0.1303  0.4416
28775SOL    HW187938   1.044   2.562   8.600 -1.1215  2.1424  1.5856
28775SOL    HW287939   0.912   2.527   8.665 -0.2852 -0.4757  1.9924
28776SOL     OW87940   0.665   3.813   3.542 -0.0770 -0.3087 -0.1120
28776SOL    HW187941   0.690   3.806   3.634  0.0804 -1.4204 -0.2249
28776SOL    HW287942   0.572   3.792   3.540 -0.4895  1.3905 -0.0081
28777SOL     OW87943   1.808   1.550   8.123 -0.6985  0.1755 -0.3507
28777SOL    HW187944   1.901   1.537   8.105  0.1015  2.3815  1.6492
28777SOL    HW287945   1.773   1.462   8.136  1.6792 -0.6109  1.2251
28778SOL     OW87946   2.186   4.321   0.649 -0.1353 -0.3683  0.1381
28778SOL    HW187947   2.280   4.317   0.667  0.0480 -0.8341 -0.8191
28778SOL    HW287948   2.180   4.365   0.564 -0.8390  0.3528  0.5510
28779SOL     OW87949   1.740   2.439   1.847 -0.4184  0.1235 -0.5659
28779SOL    HW187950   1.746   2.487   1.930  0.2659 -1.0738  0.1114
28779SOL    HW287951   1.826   2.399   1.836 -0.3949  0.5197 -2.0382
28780SOL     OW87952   3.473   1.971   2.336 -0.4328 -0.3001 -0.4561
28780SOL    HW187953   3.467   1.876   2.323 -0.8007 -0.3606  0.1121
28780SOL    HW287954   3.388   2.004   2.307 -0.4929 -0.2053 -0.1788
28781SOL     OW87955   6.425   4.390   1.447 -0.3513  0.0468  0.4517
28781SOL    HW187956   6.458   4.479   1.434 -0.0579  0.2017  2.1061
28781SOL    HW287957   6.330   4.399   1.445 -0.3221  0.3648  0.4447
28782SOL     OW87958   6.276   5.070   4.836  0.0667  0.3368  0.1861
28782SOL    HW187959   6.270   5.142   4.773  1.9423 -0.0665 -0.5492
28782SOL    HW287960   6.194   5.023   4.827 -0.4051  1.2834 -0.7185
28783SOL     OW87961   3.999   1.688   2.583 -0.0804  0.2038 -0.0599
28783SOL    HW187962   4.020   1.772   2.541  1.7508  1.2782  2.7416
28783SOL    HW287963   3.903   1.682   2.577 -0.3169  2.7173  0.0212
28784SOL     OW87964   0.542   0.759   0.166 -0.3890 -0.3415  0.1494
28784SOL    HW187965   0.612   0.771   0.102 -0.7568  1.3936  0.0239
28784SOL    HW287966   0.545   0.838   0.220 -2.9445  0.3350 -0.5654
28785SOL     OW87967   8.789   1.974   4.131  0.7365 -0.1625 -0.0649
28785SOL    HW187968   8.846   1.897   4.127  0.6675 -0.1534 -1.3917
28785SOL    HW287969   8.742   1.974   4.048 -0.2022  0.6055  0.4507
28786SOL     OW87970   6.980   4.784   0.811 -1.0237  0.0590 -0.6040
28786SOL    HW187971   7.071   4.765   0.831 -1.0379 -3.5610 -3.0611
28786SOL    HW287972   6.982   4.821   0.723 -1.8556  2.0215  0.1491
28787SOL     OW87973   3.368   9.526   1.906  0.5026  0.1717 -0.3302
28787SOL    HW187974   3.460   9.522   1.932  0.4346  1.0734  0.0807
28787SOL    HW287975   3.324   9.568   1.980  0.1583  1.9877 -1.5131
28788SOL     OW87976   4.931   8.905   3.574  0.0882  0.3847  0.1546
28788SOL    HW187977   4.845   8.878   3.608  1.1967 -0.0637  2.9167
28788SOL    HW287978   4.935   8.998   3.595 -0.0779  0.6472 -0.9107
28789SOL     OW87979   8.519   3.808   6.837 -0.5005 -0.4153  0.1144
28789SOL    HW187980   8.523   3.743   6.766  0.6534 -0.9068  0.6087
28789SOL    HW287981   8.538   3.892   6.794  1.5874 -0.8829  0.0211
28790SOL     OW87982   1.380   2.983   8.456 -0.2323 -1.0684  0.2295
28790SOL    HW187983   1.398   2.953   8.367 -0.1571 -1.1269  0.2639
28790SOL    HW287984   1.318   3.055   8.445  0.1915 -0.7228  0.0981
28791SOL     OW87985   2.591   7.994   0.306 -0.0162 -0.2958 -0.4431
28791SOL    HW187986   2.541   8.039   0.238 -0.4690 -1.8839 -1.2091
28791SOL    HW287987   2.627   8.064   0.360  0.2132  1.0088 -2.2192
28792SOL     OW87988   1.727   5.739   9.219 -0.0563 -0.4697 -0.0894
28792SOL    HW187989   1.635   5.763   9.207 -0.1069 -0.5688  0.0896
28792SOL    HW287990   1.732   5.713   9.311  0.3621  0.4855  0.1745
28793SOL     OW87991   1.306   0.225   0.740 -0.5107 -0.5829  0.2767
28793SOL    HW187992   1.235   0.166   0.767  0.5150 -2.4992 -0.9898
28793SOL    HW287993   1.360   0.172   0.681  1.4566  1.1079  0.4506
28794SOL     OW87994   4.882   9.694   3.242  0.0338  0.1570 -0.0738
28794SOL    HW187995   4.880   9.646   3.159 -0.4158  0.2109 -0.0960
28794SOL    HW287996   4.972   9.726   3.249 -0.0345  0.5249 -0.7557
28795SOL     OW87997   0.106   2.378   6.436  0.0695  0.2036 -0.0626
28795SOL    HW187998   0.020   2.353   6.404 -0.0556  1.7863 -1.0969
28795SOL    HW287999   0.129   2.455   6.384  0.0416  2.7677  3.3856
28796SOL     OW88000   5.064   5.178   3.605  0.9418  0.0824 -0.2085
28796SOL    HW188001   5.103   5.091   3.596  0.1296 -0.2771 -0.3411
28796SOL    HW288002   5.057   5.211   3.516  1.1904  0.2634 -0.1628
28797SOL     OW88003   4.677   9.410   5.268  0.0893  0.9151 -0.4571
28797SOL    HW188004   4.652   9.459   5.190 -3.1440 -0.0320 -0.1662
28797SOL    HW288005   4.700   9.478   5.332 -0.9163  1.9091 -1.1030
28798SOL     OW88006   9.496   5.459   3.111  0.9055 -0.1574 -0.3738
28798SOL    HW188007   9.503   5.451   3.016 -0.9821 -1.5155 -0.4547
28798SOL    HW288008   9.486   5.369   3.142  0.3973  0.3387  0.9949
28799SOL     OW88009   7.555   2.525   6.739  0.0890 -0.3459  0.5622
28799SOL    HW188010   7.584   2.449   6.788  0.3872 -0.2466  0.5425
28799SOL    HW288011   7.541   2.593   6.805  0.7502 -0.1314  0.4880
28800SOL     OW88012   5.697   6.262   3.452 -0.4986 -0.1288  0.4033
28800SOL    HW188013   5.622   6.207   3.429 -0.9551 -0.2905  2.1325
28800SOL    HW288014   5.774   6.212   3.424 -0.9881 -0.5152 -0.2765
28801SOL     OW88015   3.928   4.704   5.637  0.0288 -0.0991  0.2288
28801SOL    HW188016   3.923   4.772   5.704 -1.9374 -0.5834  0.6610
28801SOL    HW288017   3.901   4.747   5.556  0.3396 -0.0022  0.1759
28802SOL     OW88018   5.440   1.324   4.715  0.1856  0.0284 -0.0301
28802SOL    HW188019   5.472   1.318   4.805 -1.5702  0.6053  0.6781
28802SOL    HW288020   5.355   1.280   4.717 -0.1973  0.6685 -1.2342
28803SOL     OW88021   1.792   2.228   6.596 -0.9639 -0.0217 -0.3426
28803SOL    HW188022   1.806   2.259   6.507  1.2438  0.1397  0.0007
28803SOL    HW288023   1.815   2.135   6.594  0.0056  0.1893  0.2203
28804SOL     OW88024   6.603   7.703   5.990  0.1816  0.0195  0.6075
28804SOL    HW188025   6.570   7.638   5.928  0.3595  0.5009 -0.0022
28804SOL    HW288026   6.688   7.668   6.018 -1.3397 -1.9219  3.2436
28805SOL     OW88027   2.319   2.610   6.584  0.4362 -0.2025  0.3248
28805SOL    HW188028   2.241   2.558   6.602  0.0048  0.7385  1.3051
28805SOL    HW288029   2.304   2.693   6.631  1.1308  0.7781 -1.1033
28806SOL     OW88030   7.804   4.769   0.487 -0.4599  0.6487  0.0417
28806SOL    HW188031   7.740   4.714   0.533  0.0735 -0.8621 -0.9407
28806SOL    HW288032   7.888   4.744   0.525 -0.0700 -0.2224 -1.3033
28807SOL     OW88033   3.402   0.712   2.345 -0.2434 -0.5929  0.1365
28807SOL    HW188034   3.449   0.738   2.266 -1.3070 -0.4560 -0.4738
28807SOL    HW288035   3.351   0.789   2.369 -1.1510 -1.1382  0.0168
28808SOL     OW88036   2.556   9.809   3.979  0.1379  0.2291 -0.3545
28808SOL    HW188037   2.576   9.900   4.000 -1.3426  0.7798 -1.1923
28808SOL    HW288038   2.497   9.814   3.905 -1.6455 -1.3449  0.8754
28809SOL     OW88039   5.640   3.423   1.267 -0.0509  0.5880  0.0742
28809SOL    HW188040   5.650   3.433   1.173  0.5844 -1.2060 -0.0889
28809SOL    HW288041   5.730   3.416   1.300 -0.3025 -0.4454  0.5785
28810SOL     OW88042   3.010   7.437   2.794  0.2057 -0.4223 -0.3649
28810SOL    HW188043   2.997   7.417   2.887  0.2563 -1.0725 -0.4889
28810SOL    HW288044   3.066   7.367   2.763 -0.0397 -0.3623 -0.9497
28811SOL     OW88045   9.055   3.171   3.447  0.0270 -0.5558 -0.2282
28811SOL    HW188046   9.051   3.085   3.406  0.4628 -0.2818 -0.8831
28811SOL    HW288047   9.094   3.227   3.379 -0.9444  0.3121 -0.0865
28812SOL     OW88048   2.422   4.435   4.693 -0.9909  0.0648 -0.4920
28812SOL    HW188049   2.346   4.419   4.637 -2.5054  1.6432  0.9989
28812SOL    HW288050   2.429   4.531   4.697 -0.7280  0.0078  1.6658
28813SOL     OW88051   0.242   1.520   3.048  0.0657 -0.4132 -0.5768
28813SOL    HW188052   0.174   1.480   2.994 -1.3715 -0.2563  1.0290
28813SOL    HW288053   0.239   1.613   3.027 -1.0766 -0.2228  0.3220
28814SOL     OW88054   1.847   2.001   5.582  0.4346  0.6430  0.0688
28814SOL    HW188055   1.811   1.947   5.511 -0.3082  0.7709  0.3342
28814SOL    HW288056   1.921   2.046   5.543  2.0103 -1.6467  0.2035
28815SOL     OW88057   6.980   7.344   4.840  0.2533 -0.2800  0.0935
28815SOL    HW188058   7.002   7.325   4.748 -0.3092 -1.3304  0.1615
28815SOL    HW288059   6.902   7.291   4.857  0.5629 -0.3767  1.2885
28816SOL     OW88060   3.071   2.431   9.278  0.4958 -0.0683  0.6214
28816SOL    HW188061   3.126   2.459   9.205  1.1363 -1.2335  0.6307
28816SOL    HW288062   2.982   2.459   9.253  0.8320  0.3012 -0.2009
28817SOL     OW88063   1.223   7.111   8.131  0.3149 -0.1366  0.0843
28817SOL    HW188064   1.308   7.104   8.088 -0.1830  0.7043 -1.0777
28817SOL    HW288065   1.180   7.029   8.112  0.0498  0.2719 -1.1788
28818SOL     OW88066   5.839   8.709   5.396 -0.4499  0.6711 -0.1597
28818SOL    HW188067   5.809   8.794   5.428  0.9902  1.0738  0.2182
28818SOL    HW288068   5.852   8.657   5.476 -0.1781  0.5080 -0.3080
28819SOL     OW88069   5.253   3.564   8.439 -0.3795 -0.2536  0.4248
28819SOL    HW188070   5.172   3.512   8.438 -0.1432 -0.6885 -1.8498
28819SOL    HW288071   5.231   3.643   8.389  0.8289 -0.8529 -1.1484
28820SOL     OW88072   5.990   5.594   5.743 -0.2935  0.1074 -0.4163
28820SOL    HW188073   6.035   5.677   5.730 -3.2274  2.1501  1.3635
28820SOL    HW288074   5.949   5.576   5.658 -0.7669  1.2605 -0.4494
28821SOL     OW88075   1.346   4.446   8.304 -0.8873 -0.1465 -0.1491
28821SOL    HW188076   1.417   4.476   8.361 -0.5078 -2.5829  0.8128
28821SOL    HW288077   1.385   4.372   8.256 -1.8642  0.4781 -1.9891
28822SOL     OW88078   7.277   6.115   4.691 -0.1894  0.4129  0.5925
28822SOL    HW188079   7.279   6.139   4.599 -0.7265  0.9060  0.7042
28822SOL    HW288080   7.366   6.134   4.723  0.5860 -1.5786 -0.2521
28823SOL     OW88081   2.026   6.973   1.464 -0.2150 -0.0776  0.2352
28823SOL    HW188082   2.112   6.956   1.503  0.8123 -0.6919 -2.1016
28823SOL    HW288083   2.028   7.067   1.445  1.1097 -0.4841 -2.1346
28824SOL     OW88084   9.315   7.377   4.245 -0.1815 -0.4225 -0.3915
28824SOL    HW188085   9.348   7.288   4.255  1.3383  0.2502  1.2832
28824SOL    HW288086   9.373   7.417   4.181  0.5752 -0.0306  0.5125
28825SOL     OW88087   7.365   1.999   0.261 -0.7622  0.7770  0.1216
28825SOL    HW188088   7.289   2.039   0.219  0.1520  1.6403 -0.7847
28825SOL    HW288089   7.329   1.942   0.329 -2.1898  1.3891 -0.1017
28826SOL     OW88090   1.538   4.769   4.805  0.3914  0.2018 -0.3668
28826SOL    HW188091   1.503   4.825   4.874 -1.1224  1.3984 -2.0032
28826SOL    HW288092   1.613   4.818   4.770  1.2380 -0.4631  0.4551
28827SOL     OW88093   4.193   2.772   4.876 -0.3924 -0.5446  0.1822
28827SOL    HW188094   4.179   2.843   4.813 -1.2635  0.3707  1.3637
28827SOL    HW288095   4.288   2.767   4.886 -0.3277  1.6858  1.3951
28828SOL     OW88096   0.775   5.456   4.211 -0.7383 -0.0547 -0.4753
28828SOL    HW188097   0.863   5.449   4.246 -0.5013  0.6891 -0.9042
28828SOL    HW288098   0.721   5.405   4.271 -0.4382  1.5925  1.2819
28829SOL     OW88099   5.846   8.086   9.757  0.0201  0.4362 -0.5372
28829SOL    HW188100   5.913   8.051   9.815  0.5253  1.2266 -0.6223
28829SOL    HW288101   5.764   8.074   9.805  0.1673 -0.8735 -0.5885
28830SOL     OW88102   4.922   8.115   7.895  0.2751  0.5309 -0.2490
28830SOL    HW188103   4.939   8.049   7.827  1.0909  0.7648 -0.2878
28830SOL    HW288104   4.829   8.136   7.886  0.3356  0.4386 -1.1819
28831SOL     OW88105   6.240   7.304   2.863  0.1998  0.3984  0.1381
28831SOL    HW188106   6.289   7.353   2.797  0.8472 -1.4281 -0.7797
28831SOL    HW288107   6.295   7.308   2.941  0.6384  0.4451 -0.1720
28832SOL     OW88108   1.675   8.523   5.333 -0.1805 -0.3163 -0.4468
28832SOL    HW188109   1.725   8.545   5.255  0.3082 -2.3249 -0.7390
28832SOL    HW288110   1.591   8.490   5.300 -0.7380  0.6397 -0.0375
28833SOL     OW88111   4.682   0.965   3.534 -0.2249  0.0192 -0.1071
28833SOL    HW188112   4.682   0.969   3.438  0.5459 -0.5763 -0.1414
28833SOL    HW288113   4.775   0.963   3.558 -0.4119 -0.9786  0.5924
28834SOL     OW88114   2.782   0.078   4.126 -0.5444  0.5577 -0.3501
28834SOL    HW188115   2.800   0.144   4.193  0.8503 -0.7849  0.6997
28834SOL    HW288116   2.717   0.020   4.167 -0.3837  0.2524 -0.5264
28835SOL     OW88117   4.098   0.484   3.546 -0.3133  0.4008  0.5943
28835SOL    HW188118   4.185   0.465   3.511 -0.6752  0.3915 -0.3343
28835SOL    HW288119   4.040   0.476   3.471 -1.0770  0.7402  1.1348
28836SOL     OW88120   1.707   3.490   2.404  0.1085  0.2894  0.5101
28836SOL    HW188121   1.797   3.461   2.421  0.6175  0.5776 -1.4576
28836SOL    HW288122   1.672   3.511   2.490  1.9238  0.1548  1.3257
28837SOL     OW88123   3.472   6.130   1.436 -0.2603  0.3854 -0.1837
28837SOL    HW188124   3.410   6.180   1.489 -0.2951 -0.0254  0.1681
28837SOL    HW288125   3.558   6.168   1.458  0.2602 -2.1846  3.1370
28838SOL     OW88126   9.678   0.395   7.228  0.2619 -0.3367  0.5687
28838SOL    HW188127   9.699   0.304   7.206 -0.5486 -0.3526 -0.2096
28838SOL    HW288128   9.732   0.414   7.304  2.0750 -0.7808 -0.5272
28839SOL     OW88129   0.362   5.787   1.688 -0.0953  0.4291  0.3007
28839SOL    HW188130   0.278   5.751   1.717  0.3556  1.2827  2.9466
28839SOL    HW288131   0.427   5.729   1.727  0.6474 -1.1472 -3.0008
28840SOL     OW88132   4.286   1.342   9.361 -0.0505  0.4430  0.5815
28840SOL    HW188133   4.275   1.249   9.342  1.8982  0.3129 -0.1872
28840SOL    HW288134   4.306   1.381   9.276  0.4696  1.3248  1.0969
28841SOL     OW88135   8.565   5.652   2.657 -0.3877 -0.0214  0.2163
28841SOL    HW188136   8.525   5.622   2.575 -0.2986  1.7826 -0.5405
28841SOL    HW288137   8.558   5.748   2.653  2.8120  0.3375  0.6162
28842SOL     OW88138   6.987   2.998   3.679  0.4863 -0.7498  0.0675
28842SOL    HW188139   6.975   3.051   3.758 -0.1218 -0.1297 -0.4366
28842SOL    HW288140   6.905   3.006   3.631  1.0377 -0.6948 -0.8924
28843SOL     OW88141   6.066   3.583   3.025 -0.2271  0.0367  0.1202
28843SOL    HW188142   6.071   3.488   3.039  0.0356 -0.2873 -1.9131
28843SOL    HW288143   6.050   3.592   2.931 -1.8551  1.9826  0.5279
28844SOL     OW88144   0.908   6.762   3.417 -0.3169 -0.2521 -0.1817
28844SOL    HW188145   0.976   6.795   3.360 -0.2970 -0.9793 -0.5870
28844SOL    HW288146   0.856   6.840   3.440  0.5484  0.2805  0.0197
28845SOL     OW88147   3.911   1.697   3.362  0.1830  0.9560  0.3019
28845SOL    HW188148   3.822   1.723   3.386  0.2003  0.0026  1.5628
28845SOL    HW288149   3.967   1.759   3.409  0.1900  0.2240  1.2969
28846SOL     OW88150   6.094   7.987   8.063  0.2756  0.2777  0.5385
28846SOL    HW188151   6.089   8.005   7.969  2.8259 -0.0663  0.2766
28846SOL    HW288152   6.016   7.934   8.081 -0.8103  1.2096 -1.1330
28847SOL     OW88153   3.728   2.773   1.589  0.2042  0.4340 -0.6514
28847SOL    HW188154   3.742   2.708   1.658  0.5157  0.4995 -0.6519
28847SOL    HW288155   3.780   2.848   1.616 -1.3058  1.2590  0.1020
28848SOL     OW88156   3.231   2.185   5.917  0.2769  0.3960 -0.0119
28848SOL    HW188157   3.221   2.096   5.882  1.6512  0.5650 -0.8716
28848SOL    HW288158   3.279   2.233   5.850  0.8844  1.3841  1.0862
28849SOL     OW88159   8.367   5.039   4.383 -0.1634  0.4352 -0.2553
28849SOL    HW188160   8.291   4.981   4.391 -0.6938  1.0695 -0.5703
28849SOL    HW288161   8.346   5.114   4.440 -0.4002  1.2459 -1.3702
28850SOL     OW88162   7.097   5.707   6.494  0.1676  0.2272  0.4602
28850SOL    HW188163   7.035   5.780   6.483  0.5072  0.3714 -0.6537
28850SOL    HW288164   7.056   5.633   6.449  0.9348  0.4229 -0.6178
28851SOL     OW88165   8.563   1.227   5.906 -0.2722  0.4051 -0.1683
28851SOL    HW188166   8.505   1.175   5.851  0.2193 -0.8055  0.4166
28851SOL    HW288167   8.626   1.267   5.845 -0.7857  0.4918 -0.6425
28852SOL     OW88168   9.166   8.455   4.491  0.8203  0.1846  0.1903
28852SOL    HW188169   9.129   8.399   4.423  2.0081 -0.1522 -0.2194
28852SOL    HW288170   9.146   8.544   4.463 -0.2766 -0.0010  0.3622
28853SOL     OW88171   0.954   4.882   7.494  0.4776 -0.1927 -0.7224
28853SOL    HW188172   1.030   4.932   7.467  0.4965  0.1325 -0.0918
28853SOL    HW288173   0.921   4.928   7.571  1.2631 -1.8409  0.6773
28854SOL     OW88174   0.068   6.766   5.138  0.5803  0.6025 -0.1162
28854SOL    HW188175   0.073   6.825   5.213 -0.2352  0.0639  0.3785
28854SOL    HW288176   0.002   6.701   5.163  0.2520  0.4506 -1.3199
28855SOL     OW88177   8.059   5.676   7.013 -0.3628 -0.0960 -0.2194
28855SOL    HW188178   8.041   5.584   7.033  0.3891 -0.4166 -0.9813
28855SOL    HW288179   8.097   5.710   7.094 -1.8329 -0.0987  0.5095
28856SOL     OW88180   8.689   7.184   7.769 -0.0157 -0.0615  0.2156
28856SOL    HW188181   8.632   7.239   7.716  1.2246  0.5682 -0.5203
28856SOL    HW288182   8.745   7.139   7.705 -1.5615 -2.9267  0.7088
28857SOL     OW88183   0.440   7.511   4.928  0.6441 -0.0276 -0.0326
28857SOL    HW188184   0.412   7.562   5.004 -3.7277 -0.3063 -1.1760
28857SOL    HW288185   0.513   7.562   4.891  1.2086  1.4558  2.8133
28858SOL     OW88186   9.644   4.667   5.464 -0.1276 -0.1915  0.3951
28858SOL    HW188187   9.703   4.737   5.437 -1.7757  1.5112  1.0666
28858SOL    HW288188   9.631   4.681   5.557 -1.9246 -0.2634  0.1795
28859SOL     OW88189   7.433   1.542   7.641 -0.0110 -0.1699 -0.3286
28859SOL    HW188190   7.429   1.546   7.545 -0.9869  0.9966 -0.2588
28859SOL    HW288191   7.349   1.505   7.668  0.6675 -1.4900  0.0567
28860SOL     OW88192   5.158   5.686   3.753 -0.1794  0.2442  0.4561
28860SOL    HW188193   5.191   5.722   3.836 -0.1823 -0.8953  0.9706
28860SOL    HW288194   5.129   5.597   3.775 -0.4294  0.0197 -0.7145
28861SOL     OW88195   5.261   2.880   2.822  0.4198  0.0248  0.0333
28861SOL    HW188196   5.269   2.916   2.734  1.0523  1.7435  0.7462
28861SOL    HW288197   5.252   2.957   2.879 -0.3754 -1.0506  1.4397
28862SOL     OW88198   9.498   5.346   1.365 -0.2781  0.0700  0.3034
28862SOL    HW188199   9.524   5.358   1.456 -1.0699  1.2199  0.4060
28862SOL    HW288200   9.488   5.435   1.332  1.6812 -0.2743 -1.4232
28863SOL     OW88201   2.729   3.317   2.907  0.6033  0.3517 -0.1200
28863SOL    HW188202   2.784   3.312   2.829  0.8436  0.5247  0.0351
28863SOL    HW288203   2.773   3.382   2.963  0.9485 -0.4570  0.5640
28864SOL     OW88204   7.721   6.158   5.249 -0.0871 -0.3919 -0.2171
28864SOL    HW188205   7.650   6.190   5.306 -1.2165 -1.7140 -0.8405
28864SOL    HW288206   7.743   6.072   5.284  1.1421 -0.0506 -0.1159
28865SOL     OW88207   7.862   2.362   5.582 -0.3779  0.3263  0.7227
28865SOL    HW188208   7.955   2.387   5.580 -0.5750  1.2346 -2.5775
28865SOL    HW288209   7.841   2.339   5.492 -2.8603 -2.0814  1.7753
28866SOL     OW88210   7.548   6.899   9.195  0.3462  0.3388  0.0288
28866SOL    HW188211   7.493   6.858   9.129 -3.1609 -2.3428  4.1539
28866SOL    HW288212   7.619   6.836   9.209 -0.4348 -0.4299  0.6364
28867SOL     OW88213   5.155   2.321   4.766 -0.9107 -0.5104 -0.2293
28867SOL    HW188214   5.158   2.329   4.862  0.9586 -2.6694 -0.0166
28867SOL    HW288215   5.067   2.352   4.742 -1.3652  0.2615  2.1421
28868SOL     OW88216   8.446   2.112   8.730  0.4115  0.2746 -0.3043
28868SOL    HW188217   8.491   2.180   8.780 -0.8069 -0.5850  2.1018
28868SOL    HW288218   8.475   2.030   8.771  0.4316 -0.5729 -1.9535
28869SOL     OW88219   5.336   9.770   4.923  0.7130  0.2255  0.3422
28869SOL    HW188220   5.425   9.745   4.900 -0.0210 -1.7103 -0.5815
28869SOL    HW288221   5.295   9.689   4.954 -0.4382  1.2862  1.7663
28870SOL     OW88222   4.931   8.531   3.486 -0.7144  0.4117 -0.4361
28870SOL    HW188223   4.905   8.440   3.499  0.7678 -0.4397 -2.8622
28870SOL    HW288224   4.879   8.560   3.410 -0.3959  1.2521 -0.3464
28871SOL     OW88225   3.618   3.333   3.640 -0.1459  0.3254 -0.4907
28871SOL    HW188226   3.544   3.273   3.631  1.1071 -1.3081 -0.3431
28871SOL    HW288227   3.623   3.351   3.734 -0.1037  0.1154 -0.4534
28872SOL     OW88228   3.106   9.334   5.515  0.1273 -0.1235  0.0854
28872SOL    HW188229   3.173   9.324   5.582  0.4964  1.4651 -0.0047
28872SOL    HW288230   3.115   9.425   5.485 -0.7571 -0.4723 -1.3357
28873SOL     OW88231   0.062   5.894   6.658  0.5415  0.2298  0.7332
28873SOL    HW188232   0.079   5.802   6.678  0.8148  0.0605 -0.2277
28873SOL    HW288233   0.099   5.907   6.570 -0.3589  1.0071  0.4511
28874SOL     OW88234   8.735   2.209   9.115  0.0467  0.6849  0.3366
28874SOL    HW188235   8.699   2.262   9.043  0.2846 -0.5939 -0.7651
28874SOL    HW288236   8.828   2.200   9.093  0.7156  2.3822  2.1715
28875SOL     OW88237   8.011   2.360   3.002  0.0727  0.0632  0.1800
28875SOL    HW188238   8.043   2.444   3.035 -0.6807  0.6580 -0.5639
28875SOL    HW288239   8.005   2.304   3.080 -1.0859  1.2482  0.9894
28876SOL     OW88240   8.720   2.340   6.486  0.3288 -0.0226 -0.7187
28876SOL    HW188241   8.733   2.419   6.434  0.8995  0.8592  0.7298
28876SOL    HW288242   8.768   2.272   6.437  0.0557  0.5564 -1.8308
28877SOL     OW88243   9.436   7.092   0.608 -0.0047  0.1146 -0.2886
28877SOL    HW188244   9.384   7.085   0.689 -0.5256  1.1020 -0.5251
28877SOL    HW288245   9.484   7.174   0.618 -0.1340  0.2787 -1.0272
28878SOL     OW88246   2.679   6.197   1.338 -0.5812  0.0229 -0.0273
28878SOL    HW188247   2.647   6.270   1.286 -3.3106 -0.1540  1.2094
28878SOL    HW288248   2.770   6.219   1.357 -0.1224  1.0874 -3.0028
28879SOL     OW88249   6.672   5.410   7.879  0.3922  0.0631 -0.0064
28879SOL    HW188250   6.716   5.359   7.810 -0.1691  1.0159 -1.1101
28879SOL    HW288251   6.737   5.474   7.907 -0.7556  2.8504 -3.0955
28880SOL     OW88252   0.849   2.946   3.454  0.3208  0.0370  0.1238
28880SOL    HW188253   0.847   2.871   3.394 -3.6215 -1.1706  1.3997
28880SOL    HW288254   0.903   2.917   3.527  0.5787 -0.7488 -0.3652
28881SOL     OW88255   1.680   2.082   9.176 -0.4593  0.1371  0.2102
28881SOL    HW188256   1.740   2.126   9.116  0.2681  1.5496  1.8772
28881SOL    HW288257   1.724   2.087   9.261 -1.4554 -1.7801  0.8798
28882SOL     OW88258   8.052   0.730   6.003  0.1592 -0.2771  0.0432
28882SOL    HW188259   8.011   0.682   5.931 -0.5320 -0.4454  0.5437
28882SOL    HW288260   8.133   0.682   6.022 -0.1008 -0.7414 -0.0272
28883SOL     OW88261   3.601   3.129   1.698 -0.5850 -0.3571  0.5404
28883SOL    HW188262   3.601   3.126   1.602 -2.8302 -1.2616  0.5173
28883SOL    HW288263   3.692   3.148   1.721  0.3670 -1.7557 -1.7240
28884SOL     OW88264   0.246   2.436   3.981 -0.2756 -0.2401 -1.0636
28884SOL    HW188265   0.337   2.453   3.954  0.0626 -0.3404 -0.0353
28884SOL    HW288266   0.237   2.341   3.977  0.3190 -0.4178  0.7409
28885SOL     OW88267   7.165   0.904   2.870 -0.4751  0.0068  0.1920
28885SOL    HW188268   7.136   0.991   2.897 -0.1059  0.0982  0.3063
28885SOL    HW288269   7.164   0.853   2.951 -0.9292 -0.1622  0.0793
28886SOL     OW88270   3.747   4.514   6.416  0.2409 -0.0708 -0.2135
28886SOL    HW188271   3.741   4.509   6.511  1.3271 -1.9997 -0.1862
28886SOL    HW288272   3.659   4.493   6.385 -0.2037  0.9048  0.3393
28887SOL     OW88273   6.784   3.936   3.983  0.4732 -0.5478 -0.5943
28887SOL    HW188274   6.762   3.926   3.891  0.4090 -1.2648 -0.5070
28887SOL    HW288275   6.877   3.913   3.987  0.8019  0.7077 -0.6746
28888SOL     OW88276   8.419   3.937   7.766  0.4880 -0.1983  0.0337
28888SOL    HW188277   8.400   3.949   7.673  1.3009  0.3581 -0.0677
28888SOL    HW288278   8.390   4.019   7.807 -0.0558 -0.5225  0.2984
28889SOL     OW88279   5.055   7.195   1.451  0.4302  0.0948 -0.2157
28889SOL    HW188280   5.019   7.153   1.530 -0.9172  1.8254  0.1477
28889SOL    HW288281   5.149   7.198   1.467  0.4051 -1.3794  0.4157
28890SOL     OW88282   0.092   2.870   4.838  0.2665  0.0930 -0.5668
28890SOL    HW188283   0.130   2.788   4.805 -1.1964 -1.0548  0.4818
28890SOL    HW288284   0.049   2.909   4.762  1.7642  0.4008 -1.2941
28891SOL     OW88285   7.027   8.675   1.770 -0.1053  0.5547  0.0733
28891SOL    HW188286   7.055   8.584   1.774 -0.0182  0.5352 -0.7445
28891SOL    HW288287   7.037   8.708   1.859  0.6130 -0.0155  0.2054
28892SOL     OW88288   3.712   2.419   2.198 -0.4520 -0.1070  0.2284
28892SOL    HW188289   3.623   2.454   2.207 -0.2069  0.8192 -0.6533
28892SOL    HW288290   3.753   2.476   2.132  0.7614 -0.5776  0.5461
28893SOL     OW88291   6.681   1.846   2.605  0.8032 -0.5115  0.0578
28893SOL    HW188292   6.590   1.820   2.616  0.6169 -0.0985 -0.4774
28893SOL    HW288293   6.689   1.927   2.655  0.4731  0.2834 -1.1470
28894SOL     OW88294   7.142   5.921   2.927  0.4731  0.2708 -0.4972
28894SOL    HW188295   7.188   5.999   2.895  0.6500  0.4131  0.0930
28894SOL    HW288296   7.067   5.955   2.975  1.9633  0.2348  2.0602
28895SOL     OW88297   3.194   4.066   4.711 -0.7341  0.5344 -0.2645
28895SOL    HW188298   3.202   4.157   4.681 -0.4546  0.0944 -1.5980
28895SOL    HW288299   3.108   4.039   4.681  0.4456 -0.6556 -2.9571
28896SOL     OW88300   7.764   6.210   2.261 -0.4059  0.2598  0.1118
28896SOL    HW188301   7.800   6.277   2.319 -1.4515  1.5187 -0.6439
28896SOL    HW288302   7.673   6.201   2.289 -0.5623 -0.0764 -0.4888
28897SOL     OW88303   8.431   7.351   6.107  0.4735  0.4620 -0.0350
28897SOL    HW188304   8.335   7.350   6.117  0.3525  1.3150 -0.9422
28897SOL    HW288305   8.464   7.365   6.196 -0.1647 -1.3088  0.5294
28898SOL     OW88306   5.687   2.710   0.402  0.3267  0.3809 -0.5782
28898SOL    HW188307   5.631   2.647   0.448 -0.2454  1.4411  0.2034
28898SOL    HW288308   5.635   2.790   0.397  1.8426  1.4649  0.3483
28899SOL     OW88309   2.391   3.593   3.756 -0.5159  0.3973  0.1087
28899SOL    HW188310   2.299   3.575   3.777 -1.7484  2.3515 -2.7752
28899SOL    HW288311   2.425   3.510   3.724 -1.7852 -0.0249 -0.2118
28900SOL     OW88312   8.768   2.170   0.820 -0.6077  0.1667  0.3216
28900SOL    HW188313   8.771   2.186   0.915 -0.0395 -1.7079  0.6648
28900SOL    HW288314   8.858   2.186   0.791 -0.4220 -0.7357  0.3821
28901SOL     OW88315   2.777   8.227   5.571 -0.3106  0.5246  0.0954
28901SOL    HW188316   2.736   8.284   5.636 -2.6503 -1.2607  0.3269
28901SOL    HW288317   2.723   8.237   5.493  0.0190 -0.3737 -0.2650
28902SOL     OW88318   0.837   0.536   9.184  0.7576  0.4138  0.9720
28902SOL    HW188319   0.782   0.559   9.108  1.0987 -0.2046  0.5231
28902SOL    HW288320   0.924   0.522   9.147  1.1728  1.1348  1.6463
28903SOL     OW88321   6.365   5.137   0.317 -0.3379  0.3755  0.2023
28903SOL    HW188322   6.295   5.180   0.366  0.7594  2.9308 -0.3080
28903SOL    HW288323   6.428   5.207   0.299  0.7149 -1.0960 -2.3041
28904SOL     OW88324   3.755   0.108   0.646  0.8983  0.0519 -0.6524
28904SOL    HW188325   3.760   0.180   0.583 -0.5351 -2.3827 -3.8882
28904SOL    HW288326   3.837   0.059   0.632  1.1348  0.1357  0.3481
28905SOL     OW88327   8.592   1.311   2.165 -0.0631  0.2767  0.0947
28905SOL    HW188328   8.590   1.237   2.226  2.4127  0.4575  0.4740
28905SOL    HW288329   8.588   1.271   2.078 -0.8179 -0.1430  0.3089
28906SOL     OW88330   0.348   8.376   9.522 -0.5798  0.4346  0.4903
28906SOL    HW188331   0.316   8.415   9.440 -0.4753 -0.1323  0.1746
28906SOL    HW288332   0.413   8.311   9.494  0.8142  1.5072  1.1198
28907SOL     OW88333   4.779   8.800   1.802 -0.1655  0.2642 -0.0906
28907SOL    HW188334   4.711   8.854   1.843  1.2305  1.8076  0.2732
28907SOL    HW288335   4.740   8.712   1.798 -1.8974  0.9437  0.7575
28908SOL     OW88336   5.627   6.152   3.132 -0.3867  0.9918  0.5226
28908SOL    HW188337   5.606   6.244   3.144 -2.0980  0.6895  0.1846
28908SOL    HW288338   5.572   6.106   3.196 -1.0432  0.1247 -0.6095
28909SOL     OW88339   8.952   5.948   3.857 -0.6947  0.0531  0.0250
28909SOL    HW188340   8.960   5.891   3.780 -1.3505 -2.1326  1.5042
28909SOL    HW288341   8.945   6.036   3.820 -0.9898 -0.9132 -2.4189
28910SOL     OW88342   4.755   0.754   1.766  0.2406 -0.6846 -0.3769
28910SOL    HW188343   4.820   0.741   1.835 -0.4159 -0.9326  0.2094
28910SOL    HW288344   4.807   0.765   1.686  0.9679 -2.1194 -0.1267
28911SOL     OW88345   5.701   5.991   6.383 -0.1310  0.2028 -0.2298
28911SOL    HW188346   5.664   6.019   6.466 -1.3179  0.8170 -0.9337
28911SOL    HW288347   5.631   5.941   6.341  0.4430 -0.0819 -0.8627
28912SOL     OW88348   1.341   3.989   2.634 -0.1233 -0.0317 -0.8016
28912SOL    HW188349   1.417   4.022   2.682 -0.3584  0.3155 -0.6672
28912SOL    HW288350   1.272   4.053   2.651 -0.8080 -0.9843  0.0772
28913SOL     OW88351   2.843   8.924   6.896 -0.5051  0.4963  0.2067
28913SOL    HW188352   2.848   8.968   6.981 -0.5558  2.5007 -0.7721
28913SOL    HW288353   2.827   8.995   6.833  1.6646 -0.5966 -1.7490
28914SOL     OW88354   5.867   4.405   5.885  0.0402  0.8480 -0.4276
28914SOL    HW188355   5.777   4.411   5.853  0.4619  1.6963 -1.5309
28914SOL    HW288356   5.866   4.455   5.967 -0.5427  0.6609 -0.3167
28915SOL     OW88357   4.680   2.844   5.737  0.2868  0.1120  0.1421
28915SOL    HW188358   4.637   2.773   5.691  1.5337  0.3469 -1.4793
28915SOL    HW288359   4.765   2.854   5.693 -0.3027  3.3657 -0.5186
28916SOL     OW88360   5.445   9.687   7.435  0.1317  0.0805 -0.2024
28916SOL    HW188361   5.509   9.617   7.425 -0.7137 -0.4878 -1.9001
28916SOL    HW288362   5.417   9.681   7.526 -0.6110 -2.4247 -0.5218
28917SOL     OW88363   4.686   2.160   3.170  0.0677  0.0398 -0.0256
28917SOL    HW188364   4.690   2.069   3.140 -0.4147 -0.2114  0.6548
28917SOL    HW288365   4.599   2.169   3.208  0.1757  0.7439  0.0578
28918SOL     OW88366   0.272   5.016   5.406 -0.3427  0.3979  0.6202
28918SOL    HW188367   0.269   5.067   5.325  0.5455  2.3175  1.7092
28918SOL    HW288368   0.337   4.948   5.389  0.0178  0.9285 -0.2052
28919SOL     OW88369   2.744   7.253   1.964 -0.8327  0.3340  0.1569
28919SOL    HW188370   2.785   7.231   1.880  0.4696  1.4582  0.4565
28919SOL    HW288371   2.803   7.218   2.030 -2.2045 -1.1588  0.6489
28920SOL     OW88372   2.382   0.178   8.902  0.0013  0.2335 -0.4773
28920SOL    HW188373   2.419   0.266   8.913  1.2174 -0.2219 -0.7047
28920SOL    HW288374   2.297   0.181   8.945 -0.3054  1.7353 -1.1265
28921SOL     OW88375   2.641   6.383   7.906 -1.0355 -0.1486 -0.0860
28921SOL    HW188376   2.557   6.400   7.948 -0.6871  1.4394  0.0221
28921SOL    HW288377   2.664   6.466   7.864  1.5552  0.2238  1.8212
28922SOL     OW88378   3.146   9.169   9.820  0.2817  0.0439 -0.3326
28922SOL    HW188379   3.085   9.240   9.798 -1.6861 -0.9574  1.5377
28922SOL    HW288380   3.108   9.091   9.780  0.2010 -0.6167  0.9561
28923SOL     OW88381   8.659   5.866   6.232 -0.0023 -0.4767  0.1358
28923SOL    HW188382   8.622   5.798   6.289 -4.6159  1.8595  0.4426
28923SOL    HW288383   8.613   5.854   6.149 -0.9174  2.0828  0.2015
28924SOL     OW88384   1.722   8.583   7.637  0.2709 -0.1121 -0.2312
28924SOL    HW188385   1.645   8.632   7.609  0.9652  0.5667 -1.0205
28924SOL    HW288386   1.687   8.501   7.671 -0.7830  0.1005 -0.7489
28925SOL     OW88387   7.591   1.422   8.667 -0.2578  0.2753 -0.1105
28925SOL    HW188388   7.534   1.345   8.678 -1.7741  1.5472  1.5736
28925SOL    HW288389   7.578   1.448   8.576 -2.6955  0.6799  0.2705
28926SOL     OW88390   8.492   5.741   7.169  0.4389  0.5822 -0.1511
28926SOL    HW188391   8.518   5.705   7.084  1.4663  1.1043 -0.0772
28926SOL    HW288392   8.533   5.684   7.233  0.3877  0.6964 -0.0139
28927SOL     OW88393   8.598   8.245   6.299 -0.0105 -1.1400  0.2342
28927SOL    HW188394   8.602   8.339   6.318 -0.7325 -1.3305  1.3891
28927SOL    HW288395   8.687   8.213   6.313  0.3849 -0.5371 -0.7653
28928SOL     OW88396   9.531   4.190   7.327  0.2197  0.0007  0.0204
28928SOL    HW188397   9.523   4.094   7.327 -1.1792  0.0845 -0.1278
28928SOL    HW288398   9.612   4.208   7.374  1.5689 -1.3244 -1.6387
28929SOL     OW88399   5.265   2.961   7.644  0.2164 -0.0274  0.1275
28929SOL    HW188400   5.277   3.000   7.731  1.5048  0.8109 -0.3994
28929SOL    HW288401   5.253   2.868   7.661 -1.0381  0.3158  1.2948
28930SOL     OW88402   2.133   9.114   8.057 -0.1684 -0.1397  0.0065
28930SOL    HW188403   2.219   9.080   8.033 -0.0630  1.0097 -1.4261
28930SOL    HW288404   2.071   9.051   8.019  0.0356 -0.0756 -0.4368
28931SOL     OW88405   5.492   7.252   6.879  0.0640  0.2520 -0.1391
28931SOL    HW188406   5.467   7.242   6.788 -0.2259 -0.0073 -0.0335
28931SOL    HW288407   5.441   7.185   6.925 -0.3385  0.8470  0.3040
28932SOL     OW88408   8.776   4.923   1.871 -0.2072 -0.5381 -0.2572
28932SOL    HW188409   8.771   4.968   1.955  0.4276 -0.6424 -0.1539
28932SOL    HW288410   8.704   4.860   1.872 -0.7218  0.0412 -0.1481
28933SOL     OW88411   5.091   3.324   3.447  0.5502 -0.1120  0.0808
28933SOL    HW188412   5.120   3.256   3.387  2.2098 -0.0841  0.7914
28933SOL    HW288413   5.006   3.353   3.412  1.3252 -0.2703 -2.0723
28934SOL     OW88414   2.454   2.494   4.481  0.1652  0.0828 -0.0747
28934SOL    HW188415   2.543   2.459   4.487 -0.1327 -0.7701 -0.3906
28934SOL    HW288416   2.398   2.416   4.482 -0.7471  0.6405  2.7387
28935SOL     OW88417   5.511   5.259   5.348 -0.6418 -0.2087  0.4519
28935SOL    HW188418   5.554   5.176   5.366  0.1803  0.4168  1.4490
28935SOL    HW288419   5.581   5.318   5.321 -1.0044  0.5426  1.0995
28936SOL     OW88420   5.490   6.178   8.159 -0.8854 -0.1621 -0.4854
28936SOL    HW188421   5.401   6.162   8.189 -1.4025  1.4330 -1.0683
28936SOL    HW288422   5.479   6.231   8.080  0.6088  1.3961  0.3133
28937SOL     OW88423   5.409   4.305   1.387 -0.0472 -0.1580  0.6340
28937SOL    HW188424   5.471   4.374   1.364  0.9652 -1.7467 -1.9279
28937SOL    HW288425   5.458   4.249   1.448  0.5474 -0.5629 -0.1808
28938SOL     OW88426   6.333   4.640   8.375  0.4517 -0.0429  0.3104
28938SOL    HW188427   6.293   4.585   8.307  0.9665 -0.8809  0.6632
28938SOL    HW288428   6.374   4.711   8.327  3.2272 -2.0733 -0.6116
28939SOL     OW88429   3.311   6.713   8.741  0.0856  0.0048  0.1748
28939SOL    HW188430   3.280   6.800   8.767  1.9866  0.5663  0.7427
28939SOL    HW288431   3.286   6.705   8.649  0.4476  1.4451 -0.0764
28940SOL     OW88432   9.042   2.958   9.789  0.5310  0.6027 -0.3241
28940SOL    HW188433   9.109   2.968   9.722 -0.9860  0.6862 -1.9181
28940SOL    HW288434   8.963   2.933   9.740 -0.5719  0.3628  1.4743
28941SOL     OW88435   8.457   9.591   1.038  0.4451  0.1986 -0.1417
28941SOL    HW188436   8.398   9.623   1.107  0.9238  1.7766 -0.4221
28941SOL    HW288437   8.538   9.639   1.052  1.8999 -2.2712  0.5200
28942SOL     OW88438   7.227   0.064   1.386  0.3801 -0.4079 -0.2469
28942SOL    HW188439   7.239  -0.028   1.362 -0.0305 -0.2368 -1.1423
28942SOL    HW288440   7.246   0.112   1.305 -0.3215  0.2355 -0.0366
28943SOL     OW88441   8.126   6.328   0.445 -0.5446  0.4526 -0.5356
28943SOL    HW188442   8.101   6.269   0.374  0.2855  0.5635 -0.9432
28943SOL    HW288443   8.221   6.315   0.453 -0.5862  0.6844  0.3318
28944SOL     OW88444   0.422   0.535   9.217 -0.1436  0.0914  0.3429
28944SOL    HW188445   0.486   0.512   9.150  0.4207 -1.4406  1.3367
28944SOL    HW288446   0.475   0.555   9.295 -0.8245 -1.5850  1.2914
28945SOL     OW88447   9.651   2.782   3.256 -0.0658  0.0035  0.6617
28945SOL    HW188448   9.564   2.800   3.293 -0.0172 -0.7085  1.1509
28945SOL    HW288449   9.711   2.816   3.322  0.0268  0.4418  0.3504
28946SOL     OW88450   1.303   5.780   2.022  0.4321  0.0108 -0.0810
28946SOL    HW188451   1.356   5.828   2.085 -0.0284 -1.6195  1.6291
28946SOL    HW288452   1.226   5.835   2.008  0.5158  0.3838  0.8571
28947SOL     OW88453   6.053   9.616   1.141 -0.1402  0.4003  0.4198
28947SOL    HW188454   6.097   9.540   1.182 -3.8841 -1.7680  0.9080
28947SOL    HW288455   6.066   9.687   1.204  1.4592 -0.4634  1.1492
28948SOL     OW88456   3.357   4.677   5.024 -0.3246 -1.1239 -0.4959
28948SOL    HW188457   3.334   4.603   4.968  0.1614 -1.6340 -0.0307
28948SOL    HW288458   3.431   4.646   5.076  0.4093 -0.0553 -0.8496
28949SOL     OW88459   8.143   5.560   0.611 -0.8006  0.3533 -0.2649
28949SOL    HW188460   8.211   5.628   0.605  0.4248 -0.8032 -0.0411
28949SOL    HW288461   8.075   5.599   0.666 -1.3472  2.3357 -2.1745
28950SOL     OW88462   0.516   9.197   7.853 -0.2543  0.2800 -0.8376
28950SOL    HW188463   0.576   9.272   7.853  0.5243 -0.3013 -2.1187
28950SOL    HW288464   0.468   9.204   7.770 -0.5488 -0.3444 -0.7275
28951SOL     OW88465   8.115   5.074   2.793 -0.8358 -0.1416 -0.2223
28951SOL    HW188466   8.066   4.996   2.816 -0.5410 -0.1999  0.2030
28951SOL    HW288467   8.126   5.122   2.875  2.1086 -1.4149  0.2465
28952SOL     OW88468   1.588   6.498   5.368  0.3026  0.2550 -0.0019
28952SOL    HW188469   1.655   6.565   5.350 -0.3144  0.2042 -2.9953
28952SOL    HW288470   1.520   6.545   5.417  0.2047  1.7300 -1.4375
28953SOL     OW88471   1.377   2.902   6.318 -0.3514 -0.5072 -0.4462
28953SOL    HW188472   1.379   2.981   6.372  0.5396 -1.0160  0.3005
28953SOL    HW288473   1.356   2.831   6.379 -2.5913 -0.6974 -1.3583
28954SOL     OW88474   3.525   8.513   4.264 -0.0574 -0.5108  0.1844
28954SOL    HW188475   3.485   8.563   4.193  1.2990  0.3305 -0.0375
28954SOL    HW288476   3.463   8.520   4.336 -0.2274  0.9519 -0.0667
28955SOL     OW88477   8.395   3.560   5.996 -0.2682  0.1908 -0.2907
28955SOL    HW188478   8.306   3.528   5.983 -0.9765  1.8077  0.3551
28955SOL    HW288479   8.442   3.535   5.916 -0.4366 -3.3023  0.5172
28956SOL     OW88480   6.123   4.395   0.853 -0.4357  0.0836 -0.4555
28956SOL    HW188481   6.066   4.398   0.777 -0.2020  0.4165 -0.6199
28956SOL    HW288482   6.191   4.461   0.835 -0.3718  0.1549  0.0288
28957SOL     OW88483   7.263   6.682   3.338 -0.2499  0.3142  0.1478
28957SOL    HW188484   7.175   6.701   3.371 -0.5566 -1.1338  0.2601
28957SOL    HW288485   7.248   6.634   3.256  0.3244 -1.8641  1.2200
28958SOL     OW88486   0.272   9.566   6.164  0.0364  0.1988  0.2609
28958SOL    HW188487   0.328   9.506   6.114  0.6190 -0.3214  1.5156
28958SOL    HW288488   0.316   9.577   6.248 -2.0014 -0.6843  1.5272
28959SOL     OW88489   8.776   6.319   9.799  0.1130 -0.9594 -0.3697
28959SOL    HW188490   8.800   6.266   9.875  1.4493 -1.1645 -0.9171
28959SOL    HW288491   8.725   6.260   9.743 -2.2150 -0.3961  1.0012
28960SOL     OW88492   6.440   7.954   7.152 -0.4919 -0.2662 -0.2833
28960SOL    HW188493   6.509   7.961   7.086  1.2661 -1.4953  1.3106
28960SOL    HW288494   6.442   8.038   7.197 -0.3938 -0.1054 -0.5849
28961SOL     OW88495   4.145   8.225   6.860  0.1651  0.2051 -0.0264
28961SOL    HW188496   4.075   8.223   6.795 -1.0530  1.8865  1.1588
28961SOL    HW288497   4.114   8.167   6.929 -0.2666  1.2409  0.6691
28962SOL     OW88498   6.760   0.013   9.395 -0.8318  0.0675 -0.2662
28962SOL    HW188499   6.676   0.019   9.441 -0.7456  0.6274 -0.1739
28962SOL    HW288500   6.777   0.102   9.364 -1.0806 -0.3837 -1.7335
28963SOL     OW88501   8.016   8.405   5.356 -0.5765  0.0367 -0.0721
28963SOL    HW188502   7.923   8.387   5.342 -0.3714 -3.2299  1.8738
28963SOL    HW288503   8.017   8.472   5.425 -1.5805 -1.4728  1.4920
28964SOL     OW88504   0.545   2.912   9.714  0.1701  0.5648  0.2619
28964SOL    HW188505   0.567   2.991   9.763  0.1828 -0.0376  1.2499
28964SOL    HW288506   0.454   2.894   9.737  0.3869 -0.1114  0.6149
28965SOL     OW88507   3.822   8.444   9.323  0.4934 -0.2820  0.3776
28965SOL    HW188508   3.903   8.424   9.370  0.5929  1.1806  0.8867
28965SOL    HW288509   3.819   8.540   9.320  0.1485 -0.2935 -2.0314
28966SOL     OW88510   2.192   0.695   5.192 -0.0097 -0.2111  0.4883
28966SOL    HW188511   2.141   0.667   5.268 -0.6829 -0.4009 -0.0258
28966SOL    HW288512   2.142   0.665   5.116  0.9578 -0.5631 -0.0373
28967SOL     OW88513   5.438   3.617   3.891 -0.0684 -0.4025  0.7654
28967SOL    HW188514   5.368   3.552   3.883 -1.1024  0.6305  1.1187
28967SOL    HW288515   5.450   3.627   3.986 -0.8343  0.8359  0.7583
28968SOL     OW88516   3.173   7.461   9.242 -0.1624 -0.0126  0.2651
28968SOL    HW188517   3.102   7.482   9.302 -0.4690 -1.3566  0.4022
28968SOL    HW288518   3.129   7.441   9.159  0.0779 -0.3680  0.2193
28969SOL     OW88519   6.193   0.465   9.548 -0.3431 -0.0024 -0.2772
28969SOL    HW188520   6.149   0.550   9.545 -0.8795 -0.3197 -2.1626
28969SOL    HW288521   6.228   0.460   9.637 -1.6706  1.4913  0.3788
28970SOL     OW88522   4.764   2.719   6.622 -0.1356  0.3613  0.3412
28970SOL    HW188523   4.728   2.708   6.534  1.5245 -0.0917 -0.3242
28970SOL    HW288524   4.727   2.647   6.673 -1.2603  0.7421  0.0755
28971SOL     OW88525   6.207   3.705   1.228 -0.1523  0.0457 -0.3312
28971SOL    HW188526   6.281   3.749   1.269  1.7125 -1.0213 -2.3447
28971SOL    HW288527   6.218   3.613   1.252 -1.1464 -0.0480 -0.2125
28972SOL     OW88528   2.941   4.828   2.053 -0.6631 -0.5929  0.1346
28972SOL    HW188529   2.895   4.890   2.109  0.9197 -1.4639  2.5525
28972SOL    HW288530   2.883   4.752   2.048 -0.4303 -0.8683  1.4037
28973SOL     OW88531   0.303   7.528   7.423 -0.1136 -0.1399 -0.2498
28973SOL    HW188532   0.252   7.515   7.503  0.6431 -0.2931  0.2146
28973SOL    HW288533   0.304   7.623   7.410 -1.6290 -0.1834 -1.0148
28974SOL     OW88534   5.763   3.745   2.737 -0.2538  0.1492 -0.2442
28974SOL    HW188535   5.708   3.754   2.659 -1.5756 -2.2855  0.2918
28974SOL    HW288536   5.702   3.759   2.810  0.7255  1.3167  0.3675
28975SOL     OW88537   8.141   0.182   0.112 -0.0865 -0.1254  0.0749
28975SOL    HW188538   8.232   0.172   0.084 -0.9102 -4.4379 -1.8846
28975SOL    HW288539   8.137   0.136   0.196 -0.1858  1.6085  1.0605
28976SOL     OW88540   0.248   1.750   2.916 -0.5340 -0.5225  0.2225
28976SOL    HW188541   0.332   1.754   2.872 -0.0687 -1.0144  1.0323
28976SOL    HW288542   0.187   1.795   2.857  0.3777  0.2346 -0.1641
28977SOL     OW88543   0.642   9.541   4.878  0.5822 -0.1096  0.7616
28977SOL    HW188544   0.669   9.604   4.811  1.6340  0.7964  1.9787
28977SOL    HW288545   0.570   9.492   4.838 -0.2115  1.8024 -0.2728
28978SOL     OW88546   8.242   3.981   8.758 -0.0027  0.1325  0.7205
28978SOL    HW188547   8.182   3.949   8.825  0.3400 -1.2310  0.4065
28978SOL    HW288548   8.324   3.936   8.776  0.5451  0.9566  0.3262
28979SOL     OW88549   4.279   7.894   1.501  0.2547 -0.2331  0.5765
28979SOL    HW188550   4.245   7.848   1.424 -2.1414  1.4943  0.4894
28979SOL    HW288551   4.311   7.978   1.468  2.4587 -0.8359  1.0353
28980SOL     OW88552   2.315   4.468   1.568 -0.0158 -0.2661 -0.4627
28980SOL    HW188553   2.246   4.447   1.505 -0.4209 -0.1735 -0.0630
28980SOL    HW288554   2.364   4.539   1.528 -0.2706 -0.2077 -0.6747
28981SOL     OW88555   0.914   9.333   7.052 -0.3948 -0.4658 -0.0155
28981SOL    HW188556   0.948   9.262   6.999 -0.8081  0.4325 -1.5478
28981SOL    HW288557   0.881   9.291   7.131 -1.1731 -2.0361 -1.1385
28982SOL     OW88558   4.303   2.806   2.052 -0.0047 -0.2056 -0.4930
28982SOL    HW188559   4.282   2.745   1.981 -0.8962 -0.1669 -0.2646
28982SOL    HW288560   4.311   2.751   2.129 -3.2231  0.1678  0.2165
28983SOL     OW88561   1.525   8.392   4.207  0.1904  0.3339 -0.3131
28983SOL    HW188562   1.541   8.363   4.297  2.0765  0.1356 -0.6813
28983SOL    HW288563   1.544   8.486   4.208 -4.1087  1.4109  0.4458
28984SOL     OW88564   1.851   4.360   2.281 -0.1030 -0.4677  0.4414
28984SOL    HW188565   1.817   4.272   2.265 -0.1327 -0.2933 -0.5131
28984SOL    HW288566   1.794   4.396   2.350 -1.4652 -0.4268 -0.6614
28985SOL     OW88567   0.632   3.626   5.472  0.6064 -0.2086 -0.1610
28985SOL    HW188568   0.586   3.563   5.528  2.7209 -1.9780 -0.2421
28985SOL    HW288569   0.649   3.577   5.391  2.3799  0.4130 -0.1984
28986SOL     OW88570   2.732   4.907   7.379 -0.2475  0.1508 -0.2557
28986SOL    HW188571   2.811   4.958   7.359  0.4220 -0.5116  0.6072
28986SOL    HW288572   2.755   4.817   7.357 -0.9963  0.0403 -0.6142
28987SOL     OW88573   8.327   9.788   9.281 -0.0084  0.2194  0.1390
28987SOL    HW188574   8.254   9.738   9.317  0.3855 -0.9322 -0.6064
28987SOL    HW288575   8.288   9.872   9.256 -0.9422 -0.1417  0.3327
28988SOL     OW88576   5.714   4.325   5.191  0.0251  0.1875 -0.0638
28988SOL    HW188577   5.684   4.245   5.234  0.9483 -0.4976 -0.6416
28988SOL    HW288578   5.639   4.384   5.194 -0.4213 -0.4094  1.0741
28989SOL     OW88579   4.740   7.188   2.170 -0.3505 -0.1739 -0.2627
28989SOL    HW188580   4.650   7.190   2.202  0.0732  2.2924  0.9870
28989SOL    HW288581   4.747   7.263   2.111  0.8841 -0.3266 -0.3464
28990SOL     OW88582   3.982   9.632   9.344 -0.0199 -0.4091 -0.1542
28990SOL    HW188583   4.017   9.607   9.259 -2.6843 -1.7738 -0.9596
28990SOL    HW288584   3.894   9.593   9.346 -0.0837 -0.3505  3.1890
28991SOL     OW88585   9.755   8.735   5.683 -0.1343  0.2496  0.3891
28991SOL    HW188586   9.722   8.707   5.769  3.1871 -1.5084  1.2849
28991SOL    HW288587   9.803   8.816   5.702  0.2532  0.0803  0.1409
28992SOL     OW88588   1.107   1.188   7.397  0.0902  0.1520 -0.3404
28992SOL    HW188589   1.120   1.271   7.353 -0.5010  0.3164 -0.2210
28992SOL    HW288590   1.194   1.161   7.426  0.2025  1.0515  0.1962
28993SOL     OW88591   2.679   5.934   3.835  0.5026  0.2974 -0.4300
28993SOL    HW188592   2.691   5.904   3.744  2.4928  0.9290 -0.4425
28993SOL    HW288593   2.621   6.009   3.828 -0.8634 -0.7618 -0.9301
28994SOL     OW88594   6.331   6.736   6.292 -0.2342 -0.6211  0.3956
28994SOL    HW188595   6.377   6.792   6.355 -0.4846 -0.3468  0.3404
28994SOL    HW288596   6.342   6.781   6.208 -1.3610 -0.0630  0.5258
28995SOL     OW88597   2.042   3.205   8.179  0.0930  0.1266  0.0411
28995SOL    HW188598   1.954   3.208   8.217  0.0651  0.8287 -0.0666
28995SOL    HW288599   2.027   3.192   8.086  0.1147 -0.0154  0.0567
28996SOL     OW88600   1.381   4.774   8.516  0.4484  0.7209  0.1589
28996SOL    HW188601   1.398   4.868   8.506 -0.5708  0.9449  0.4536
28996SOL    HW288602   1.313   4.755   8.452 -0.1068  0.4135  0.8304
28997SOL     OW88603   3.218   9.579   5.426  0.3905  0.0720 -0.1421
28997SOL    HW188604   3.140   9.607   5.378 -0.3801 -2.3397 -0.4362
28997SOL    HW288605   3.291   9.600   5.367 -0.3334 -0.5730 -1.3039
28998SOL     OW88606   8.565   7.648   7.193  0.0853 -0.3945  0.1897
28998SOL    HW188607   8.513   7.610   7.263 -0.8273 -1.1461 -0.8755
28998SOL    HW288608   8.628   7.580   7.170 -0.6208 -0.7533 -0.7465
28999SOL     OW88609   1.650   0.300   0.170 -0.5544 -0.8469  0.1275
28999SOL    HW188610   1.684   0.227   0.119  0.7159 -0.2603  0.1024
28999SOL    HW288611   1.712   0.311   0.241 -0.3054  0.6593 -0.2774
29000SOL     OW88612   1.294   7.568   4.378 -0.0858 -0.1228 -0.0165
29000SOL    HW188613   1.328   7.482   4.403  0.3367 -0.3135 -1.1476
29000SOL    HW288614   1.274   7.611   4.460  0.1835 -1.1157  0.5894
29001SOL     OW88615   4.608   2.847   3.959 -0.0208  0.0026  0.5975
29001SOL    HW188616   4.553   2.911   4.005 -1.0929  0.0574 -0.6956
29001SOL    HW288617   4.686   2.896   3.933 -1.3126  1.1586 -1.3480
29002SOL     OW88618   7.720   0.529   4.018  0.6076  0.5735  0.2812
29002SOL    HW188619   7.773   0.477   3.958 -0.5469  0.0909 -0.3415
29002SOL    HW288620   7.700   0.470   4.090 -0.0466  0.3870 -0.0474
29003SOL     OW88621   5.059   8.206   3.064  0.3896 -0.2889  0.5380
29003SOL    HW188622   4.971   8.245   3.057  0.9791  0.9127 -0.5135
29003SOL    HW288623   5.119   8.280   3.055  1.5294 -1.1704  0.6750
29004SOL     OW88624   9.495   3.247   5.713 -0.1272 -0.3440  0.6278
29004SOL    HW188625   9.514   3.158   5.684  2.3586  0.3317  0.0072
29004SOL    HW288626   9.536   3.254   5.799 -0.9222  0.0219  0.9923
29005SOL     OW88627   0.149   6.628   0.298  0.7442 -0.1595 -0.3211
29005SOL    HW188628   0.090   6.662   0.365  1.2680  0.6878 -0.2837
29005SOL    HW288629   0.148   6.694   0.229 -0.3753 -1.3616 -1.5157
29006SOL     OW88630   6.039   3.757   0.515  0.5806  0.1647 -0.1250
29006SOL    HW188631   6.122   3.790   0.481  1.4769 -0.1773  1.6052
29006SOL    HW288632   6.051   3.663   0.523 -0.3276 -0.0140 -0.7436
29007SOL     OW88633   0.199   7.000   4.960 -0.1016  0.8536 -0.5985
29007SOL    HW188634   0.290   7.001   4.930  0.6663 -0.4777  1.4597
29007SOL    HW288635   0.189   6.916   5.004 -2.2109  1.1706 -0.3568
29008SOL     OW88636   8.528   8.813   6.883 -0.7103  0.8125 -0.7386
29008SOL    HW188637   8.481   8.869   6.821  0.7846 -0.4672 -3.1877
29008SOL    HW288638   8.595   8.869   6.920 -1.2701  1.4606 -0.6915
29009SOL     OW88639   9.750   9.071   6.743 -0.4118 -0.2780  0.0907
29009SOL    HW188640   9.766   9.046   6.834  1.6482 -1.1488 -0.4585
29009SOL    HW288641   9.810   9.144   6.728  1.4578 -2.0268 -1.3582
29010SOL     OW88642   0.420   4.969   0.349 -0.5189  0.4009 -0.8831
29010SOL    HW188643   0.392   4.886   0.310 -0.7302  0.0040  0.0981
29010SOL    HW288644   0.344   4.999   0.400 -0.5398  1.3372 -1.4305
29011SOL     OW88645   5.575   4.152   4.699  0.1997 -0.1681 -0.0851
29011SOL    HW188646   5.665   4.125   4.714 -0.1877 -0.6802  1.4728
29011SOL    HW288647   5.532   4.075   4.662  0.6000  0.3698 -1.7405
29012SOL     OW88648   4.700   7.659   5.537  0.1756 -0.3951 -0.4229
29012SOL    HW188649   4.653   7.577   5.520 -0.2839 -0.2463  0.0870
29012SOL    HW288650   4.672   7.685   5.625  0.1391  0.4204 -0.6660
29013SOL     OW88651   7.314   6.670   4.216 -0.8053 -0.0170 -0.4003
29013SOL    HW188652   7.308   6.593   4.273  0.3719  0.1091 -0.0680
29013SOL    HW288653   7.272   6.643   4.134  0.2122 -1.2799 -0.5474
29014SOL     OW88654   1.203   8.207   2.296 -0.7498 -0.0281  0.3199
29014SOL    HW188655   1.268   8.163   2.351 -1.1720 -1.4437 -0.2668
29014SOL    HW288656   1.243   8.290   2.271 -0.0607  0.0962  1.7486
29015SOL     OW88657   8.278   0.971   7.154  0.3302  0.0334 -0.3873
29015SOL    HW188658   8.293   0.893   7.101 -0.7444 -0.3942 -0.0819
29015SOL    HW288659   8.210   0.946   7.216 -0.3608  1.3362 -0.5796
29016SOL     OW88660   1.757   5.030   0.802 -0.3639 -0.6375 -0.0618
29016SOL    HW188661   1.788   4.943   0.778 -0.3707 -1.2490  1.9501
29016SOL    HW288662   1.676   5.042   0.752 -0.6598 -2.0139  0.0514
29017SOL     OW88663   8.023   6.076   1.159 -0.1446  0.2563  0.1725
29017SOL    HW188664   8.039   6.170   1.147 -0.7174  0.3516  0.1441
29017SOL    HW288665   7.994   6.068   1.249  0.7281 -0.0103  0.4396
29018SOL     OW88666   1.744   6.267   4.160 -0.7997  0.6114 -0.5701
29018SOL    HW188667   1.764   6.229   4.074  1.4401  0.7842 -0.1841
29018SOL    HW288668   1.800   6.344   4.166 -0.3926  0.2183  1.3055
29019SOL     OW88669   8.594   5.882   8.579  0.2355  0.8390 -0.1484
29019SOL    HW188670   8.583   5.812   8.642  0.4780  1.0400  0.1211
29019SOL    HW288671   8.506   5.918   8.568  0.1451  0.6211 -0.1365
29020SOL     OW88672   1.368   4.187   3.531  0.5155  0.8291  0.3446
29020SOL    HW188673   1.319   4.245   3.472  1.7484  0.3151 -1.2477
29020SOL    HW288674   1.370   4.234   3.615 -1.2569  1.6009  0.0026
29021SOL     OW88675   3.848   3.242   8.534 -0.6197  0.0179 -0.6389
29021SOL    HW188676   3.832   3.166   8.590 -0.1785 -0.5354 -1.2650
29021SOL    HW288677   3.878   3.206   8.451 -1.6191  0.8178 -1.3737
29022SOL     OW88678   8.235   9.402   7.983 -0.0055  0.8187  0.1514
29022SOL    HW188679   8.244   9.436   8.072  0.2134  0.3409  0.3118
29022SOL    HW288680   8.308   9.342   7.972 -1.5899 -1.3365  0.6600
29023SOL     OW88681   2.929   7.439   4.217  0.2484  0.2987  0.2846
29023SOL    HW188682   2.985   7.409   4.145 -0.4651 -3.8211  1.2134
29023SOL    HW288683   2.845   7.458   4.175  0.8562  1.6819 -0.3993
29024SOL     OW88684   3.436   2.814   5.522 -0.2659  0.3070  0.0667
29024SOL    HW188685   3.402   2.809   5.612  0.7355  0.5036  0.4658
29024SOL    HW288686   3.452   2.907   5.508  0.6243  0.1675  0.0911
29025SOL     OW88687   6.240   0.194   5.800  0.1426 -0.0709 -0.0803
29025SOL    HW188688   6.286   0.270   5.835  0.3807  0.1437 -0.8366
29025SOL    HW288689   6.248   0.203   5.705 -1.1531 -0.2181 -0.2202
29026SOL     OW88690   5.667   3.712   6.536 -0.5473 -0.2580 -0.5749
29026SOL    HW188691   5.658   3.659   6.616  2.2672  0.3099  0.2602
29026SOL    HW288692   5.611   3.787   6.551  0.0272 -0.0971  0.9927
29027SOL     OW88693   6.381   3.293   7.616  0.1224 -0.3508  0.0295
29027SOL    HW188694   6.443   3.221   7.627  0.7937  0.4820  2.2568
29027SOL    HW288695   6.431   3.371   7.638 -1.2641  0.5314  0.1532
29028SOL     OW88696   3.675   0.521   1.016 -0.1094  0.1476  0.3843
29028SOL    HW188697   3.669   0.427   0.999 -1.2417  0.3156 -0.2461
29028SOL    HW288698   3.684   0.560   0.929  2.3135  0.5360  0.7476
29029SOL     OW88699   2.071   5.167   5.702 -0.4684 -0.6682  0.1095
29029SOL    HW188700   2.067   5.203   5.613 -1.6155 -1.5240 -0.2286
29029SOL    HW288701   2.030   5.081   5.694  0.9092 -1.4626  1.1553
29030SOL     OW88702   2.856   5.531   4.178 -0.0080 -0.1984 -0.3575
29030SOL    HW188703   2.892   5.565   4.260 -1.6750 -0.6587  0.5993
29030SOL    HW288704   2.812   5.606   4.139  1.0395  0.1004 -1.0286
29031SOL     OW88705   5.702   6.681   7.745  0.8268  0.0566 -0.1644
29031SOL    HW188706   5.791   6.708   7.722 -0.0415  0.7225 -3.1548
29031SOL    HW288707   5.695   6.591   7.715  0.5433 -0.0941  0.3298
29032SOL     OW88708   4.357   5.116   4.145  0.6206  0.2698  0.3145
29032SOL    HW188709   4.323   5.065   4.219  2.0828  0.4282  1.1285
29032SOL    HW288710   4.374   5.203   4.182 -0.2353  0.8750 -0.6436
29033SOL     OW88711   8.685   8.106   9.788  0.2042  0.0852  0.8183
29033SOL    HW188712   8.591   8.090   9.798  0.1765  0.1457  0.6585
29033SOL    HW288713   8.725   8.020   9.800  0.3085  0.4033  3.0823
29034SOL     OW88714   3.551   2.093   0.115  0.4261  0.4019  0.0978
29034SOL    HW188715   3.488   2.128   0.053  0.3147 -0.4112 -0.2570
29034SOL    HW288716   3.609   2.167   0.134 -1.1923  1.4593  1.1999
29035SOL     OW88717   8.799   6.948   8.943  0.5763 -0.3289 -0.8708
29035SOL    HW188718   8.727   7.010   8.936  1.1943  0.8519  1.7863
29035SOL    HW288719   8.861   6.975   8.876  0.2129  1.1061 -0.6560
29036SOL     OW88720   4.406   6.961   0.653 -0.4038  0.1665 -0.3228
29036SOL    HW188721   4.380   6.935   0.564  2.0957 -1.4676 -0.6727
29036SOL    HW288722   4.415   6.878   0.700  0.7900  0.8387  0.6926
29037SOL     OW88723   2.645   7.761   6.769  0.4106  0.0489 -0.4491
29037SOL    HW188724   2.677   7.831   6.711  1.2500  1.1638  1.2804
29037SOL    HW288725   2.649   7.799   6.857  1.8772 -2.4815  0.7050
29038SOL     OW88726   7.914   7.403   3.605 -0.0567 -0.3806 -0.1067
29038SOL    HW188727   7.920   7.498   3.590  0.0734 -0.4021 -0.1909
29038SOL    HW288728   7.924   7.394   3.700 -0.3895 -0.2838 -0.0626
29039SOL     OW88729   8.393   1.562   0.709  0.0172  0.5165  0.0363
29039SOL    HW188730   8.319   1.619   0.728 -0.8002 -0.1204 -1.1160
29039SOL    HW288731   8.365   1.510   0.634  1.8377  0.6599 -0.8114
29040SOL     OW88732   9.665   9.138   0.568  0.1116 -0.0595 -0.7880
29040SOL    HW188733   9.659   9.215   0.624  1.2988  1.8105 -3.0603
29040SOL    HW288734   9.728   9.081   0.613  1.8333  1.8460 -0.6203
29041SOL     OW88735   4.172   9.178   6.434  0.1233 -0.0453  0.6760
29041SOL    HW188736   4.141   9.226   6.511 -2.9689 -0.9656  0.1655
29041SOL    HW288737   4.106   9.109   6.422  1.7912 -1.3688 -1.4455
29042SOL     OW88738   6.819   5.149   1.869  0.2882 -0.2562 -0.1075
29042SOL    HW188739   6.729   5.115   1.865 -0.8192  2.3392  0.7762
29042SOL    HW288740   6.837   5.158   1.963  0.3346  1.9146 -0.2808
29043SOL     OW88741   7.000   4.976   2.177 -0.3236 -0.0789  0.0767
29043SOL    HW188742   6.915   4.990   2.137 -0.1248 -1.8459 -1.0839
29043SOL    HW288743   6.981   4.950   2.267 -0.9220  1.0859  0.2949
29044SOL     OW88744   3.813   9.091   9.026 -0.4509 -0.4491 -0.5077
29044SOL    HW188745   3.866   9.017   9.055 -0.5956 -0.2220  0.3732
29044SOL    HW288746   3.735   9.088   9.081 -0.0318  0.9033  0.2203
29045SOL     OW88747   2.633   9.838   8.582 -0.4103  1.1111 -0.2734
29045SOL    HW188748   2.551   9.796   8.555 -0.9853  0.0749  2.6349
29045SOL    HW288749   2.701   9.781   8.547 -0.9530  1.3607 -1.7866
29046SOL     OW88750   8.892   7.719   4.668 -0.2189 -0.1074  0.5447
29046SOL    HW188751   8.831   7.657   4.710 -1.3546  0.7170  0.1809
29046SOL    HW288752   8.835   7.779   4.620  1.0128 -0.7188 -1.8032
29047SOL     OW88753   1.886   9.542   8.448  0.2159 -0.9006 -0.3283
29047SOL    HW188754   1.838   9.502   8.521 -0.0343  0.5069  0.3146
29047SOL    HW288755   1.978   9.531   8.470  0.1445  0.1148  0.5786
29048SOL     OW88756   7.567   0.149   5.134  0.1861 -0.6240 -0.1192
29048SOL    HW188757   7.569   0.161   5.039 -1.6819  1.6126  0.0247
29048SOL    HW288758   7.593   0.234   5.170  0.4869 -1.3168  1.3655
29049SOL     OW88759   9.254   7.186   8.453  0.3984  0.3018 -0.0671
29049SOL    HW188760   9.299   7.263   8.418 -0.8167  0.7735 -0.6903
29049SOL    HW288761   9.257   7.122   8.383  0.3152  0.2495 -0.0225
29050SOL     OW88762   5.985   2.564   2.198 -0.0430 -0.4798 -0.1577
29050SOL    HW188763   6.007   2.654   2.223  0.9595 -0.9800  0.8661
29050SOL    HW288764   6.068   2.524   2.174 -0.6398 -0.8211 -1.7319
29051SOL     OW88765   1.658   0.687   8.575  0.3588 -0.0021 -0.1052
29051SOL    HW188766   1.573   0.660   8.540 -0.3846  0.9485  0.8795
29051SOL    HW288767   1.703   0.729   8.502 -0.4628  0.4409 -0.3707
29052SOL     OW88768   0.015   8.354   7.626 -0.6700  0.4242  0.2687
29052SOL    HW188769   0.023   8.303   7.707 -1.3798  0.7872  0.5802
29052SOL    HW288770   0.102   8.353   7.588 -0.5921 -0.7521  0.4318
29053SOL     OW88771   6.706   7.019   6.357  0.3884 -0.0643 -0.4819
29053SOL    HW188772   6.783   6.970   6.386  0.1206 -1.3558 -1.8293
29053SOL    HW288773   6.719   7.032   6.263 -0.1141  1.4619 -0.3653
29054SOL     OW88774   3.734   7.064   7.580  0.4114  0.3294 -0.2557
29054SOL    HW188775   3.770   7.040   7.665  1.0585 -0.2053 -0.6692
29054SOL    HW288776   3.788   7.017   7.516 -0.2475  0.4766 -0.9507
29055SOL     OW88777   3.998   8.479   5.001  0.3325 -0.5743 -0.2312
29055SOL    HW188778   3.977   8.491   4.909  1.3917 -1.4151 -0.5945
29055SOL    HW288779   3.920   8.510   5.047  1.0317  3.1036 -1.2236
29056SOL     OW88780   4.221   1.263   0.879  0.2592 -0.2446  1.1493
29056SOL    HW188781   4.281   1.305   0.818 -2.8677 -1.2610 -3.0382
29056SOL    HW288782   4.272   1.191   0.917  2.9458  1.7117  1.5440
29057SOL     OW88783   3.593   3.304   3.341  0.2327  0.6592  0.3362
29057SOL    HW188784   3.610   3.259   3.424 -0.5178 -1.2784 -0.4930
29057SOL    HW288785   3.497   3.313   3.339  0.3560  2.1244  0.3704
29058SOL     OW88786   0.633   2.890   5.625 -0.0663  0.0694  0.0795
29058SOL    HW188787   0.632   2.965   5.566 -2.1169  0.9591  1.1257
29058SOL    HW288788   0.605   2.816   5.571 -1.8062  0.8482 -0.1630
29059SOL     OW88789   5.878   9.503   4.840  0.1587 -0.2445 -0.1379
29059SOL    HW188790   5.867   9.464   4.926  0.9893  1.3474  0.7307
29059SOL    HW288791   5.955   9.560   4.849  1.4129 -1.4251 -2.4342
29060SOL     OW88792   5.854   6.007   3.075  0.3321 -0.0799 -0.0310
29060SOL    HW188793   5.846   5.970   3.163 -1.0427 -0.0420 -0.1178
29060SOL    HW288794   5.770   6.050   3.060  0.6972  0.2333 -1.2153
29061SOL     OW88795   0.453   0.338   1.918  0.5043 -0.3101  0.4669
29061SOL    HW188796   0.491   0.261   1.877 -0.4346 -0.0987 -0.8714
29061SOL    HW288797   0.360   0.336   1.892 -0.1317 -0.1193  2.5284
29062SOL     OW88798   2.563   1.853   2.451  0.3084  0.4390  0.4470
29062SOL    HW188799   2.648   1.857   2.493  0.6006  2.4234 -0.2081
29062SOL    HW288800   2.536   1.761   2.457  2.1281 -0.0621  1.3425
29063SOL     OW88801   1.170   4.415   2.273 -0.3037 -0.1160  0.2226
29063SOL    HW188802   1.205   4.463   2.197 -0.4994  1.1366  0.9050
29063SOL    HW288803   1.076   4.429   2.269 -0.2944  0.1183  0.8144
29064SOL     OW88804   2.248   2.707   2.606  0.9885 -0.4308  0.2550
29064SOL    HW188805   2.295   2.680   2.528  2.0301 -1.0513  1.0698
29064SOL    HW288806   2.254   2.803   2.606 -0.2106 -0.3333 -1.1208
29065SOL     OW88807   8.624   5.961   1.128 -0.0652 -0.3760 -0.2166
29065SOL    HW188808   8.559   6.022   1.094  0.3087 -1.2866 -2.8297
29065SOL    HW288809   8.589   5.874   1.105  1.3630 -0.9423 -0.3433
29066SOL     OW88810   3.923   4.348   8.464 -0.2222  0.0187 -0.0248
29066SOL    HW188811   3.973   4.286   8.410 -0.9020  0.9508 -1.8139
29066SOL    HW288812   3.923   4.309   8.552  1.6880 -1.1218 -0.4746
29067SOL     OW88813   1.276   7.541   9.651  0.0137  0.0081 -0.4822
29067SOL    HW188814   1.269   7.581   9.564  1.5856 -0.1566 -0.7190
29067SOL    HW288815   1.301   7.450   9.633  0.6669  0.0559  0.1324
29068SOL     OW88816   7.518   5.919   2.291  0.6261  0.2498  0.1246
29068SOL    HW188817   7.604   5.879   2.282  1.1448  1.4960 -0.6862
29068SOL    HW288818   7.536   6.011   2.310 -0.4555  1.1552 -2.7295
29069SOL     OW88819   7.764   5.483   0.952 -0.0218 -0.4108 -0.4326
29069SOL    HW188820   7.782   5.510   1.042  0.9560  2.3965 -1.3766
29069SOL    HW288821   7.762   5.387   0.956  2.6686 -0.5050  2.1079
29070SOL     OW88822   8.634   8.498   2.905  0.4596 -0.0494 -0.0762
29070SOL    HW188823   8.547   8.536   2.916  0.4071 -0.5300  1.3331
29070SOL    HW288824   8.634   8.464   2.816 -0.5817  0.4911 -0.3019
29071SOL     OW88825   8.176   4.930   8.416  0.1366  0.5614 -0.0023
29071SOL    HW188826   8.105   4.907   8.356 -0.3926 -0.0721  0.8365
29071SOL    HW288827   8.216   4.845   8.438  0.6363  0.8381  0.1645
29072SOL     OW88828   2.683   2.191   6.549 -0.2884  0.3142  0.7894
29072SOL    HW188829   2.738   2.148   6.614 -0.6867 -0.3166  0.7162
29072SOL    HW288830   2.613   2.128   6.531 -0.6441  0.8209  0.3667
29073SOL     OW88831   6.909   8.020   0.881 -0.4970 -1.1736  0.7242
29073SOL    HW188832   6.917   8.048   0.790  2.8597 -2.2466  0.5448
29073SOL    HW288833   6.909   8.101   0.931  1.1241 -0.6123 -0.1147
29074SOL     OW88834   5.629   1.347   7.756  0.3722 -0.7844 -0.6183
29074SOL    HW188835   5.722   1.368   7.753  0.0362  0.7343 -1.6380
29074SOL    HW288836   5.608   1.346   7.850  0.9735  1.1328 -0.4048
29075SOL     OW88837   1.599   1.081   5.863  0.0206 -0.1185  0.4644
29075SOL    HW188838   1.687   1.056   5.891  1.5108  3.3143 -0.5540
29075SOL    HW288839   1.550   1.091   5.945  0.5022 -2.1160  1.0415
29076SOL     OW88840   0.250   6.356   5.226  0.2409 -0.2829 -0.3385
29076SOL    HW188841   0.307   6.301   5.173  1.1538 -1.0589  1.3602
29076SOL    HW288842   0.277   6.446   5.206  1.9042 -0.6210  0.1906
29077SOL     OW88843   7.959   2.737   7.830 -0.2760 -0.5334 -0.1180
29077SOL    HW188844   7.929   2.679   7.760  1.0486 -0.4892 -0.7503
29077SOL    HW288845   8.038   2.778   7.795 -1.4176  2.0599  0.1026
29078SOL     OW88846   7.340   9.236   7.113  0.0726  0.1304  0.2926
29078SOL    HW188847   7.429   9.267   7.130  0.0121 -1.2913  4.0415
29078SOL    HW288848   7.348   9.140   7.109 -1.3216 -0.0871  1.6001
29079SOL     OW88849   7.642   2.112   4.962 -0.4022  0.2552  0.0145
29079SOL    HW188850   7.715   2.158   5.005  0.2908  0.1278 -1.0004
29079SOL    HW288851   7.593   2.074   5.035  0.1543  0.9129  0.7596
29080SOL     OW88852   2.346   6.844   3.574 -0.0168 -0.3399 -0.4671
29080SOL    HW188853   2.295   6.786   3.518 -0.7390 -1.2887  1.1201
29080SOL    HW288854   2.387   6.785   3.638 -0.5607  0.8700  1.0288
29081SOL     OW88855   4.356   0.546   0.800  0.3020 -0.2789 -1.2964
29081SOL    HW188856   4.344   0.583   0.713  3.2732  0.0155 -1.6921
29081SOL    HW288857   4.408   0.467   0.786 -0.9047 -1.3689  0.0672
29082SOL     OW88858   1.659   9.317   3.550  0.2486 -0.6022  0.0526
29082SOL    HW188859   1.635   9.359   3.467 -1.2998  0.4339  0.9610
29082SOL    HW288860   1.584   9.261   3.571  0.0108  0.1427  1.3448
29083SOL     OW88861   1.583   6.229   0.613 -0.0821 -0.7202  0.1336
29083SOL    HW188862   1.495   6.204   0.642 -1.5165  0.2507 -2.9690
29083SOL    HW288863   1.622   6.149   0.580 -0.4616 -0.8464 -0.0112
29084SOL     OW88864   1.147   3.124   7.739  0.6441 -0.3842 -0.0020
29084SOL    HW188865   1.164   3.155   7.828 -1.9878  0.9907  0.1329
29084SOL    HW288866   1.183   3.192   7.682 -1.9065  1.3503  0.2319
29085SOL     OW88867   6.674   8.702   8.064 -0.0966 -0.1773  0.3826
29085SOL    HW188868   6.711   8.681   8.150 -1.4092 -0.7620  0.8332
29085SOL    HW288869   6.592   8.652   8.060  0.2743 -0.7203 -1.4965
29086SOL     OW88870   4.407   8.859   6.510 -0.1483 -0.4797 -0.1706
29086SOL    HW188871   4.342   8.928   6.526 -0.2686 -0.6630  0.1648
29086SOL    HW288872   4.489   8.896   6.543 -0.2190 -0.5048  0.0409
29087SOL     OW88873   8.204   6.297   4.534  0.0086 -0.0662  0.1277
29087SOL    HW188874   8.255   6.218   4.550  1.3517  0.8575  0.5557
29087SOL    HW288875   8.161   6.316   4.617 -0.4371 -0.4222 -0.0185
29088SOL     OW88876   6.421   9.131   5.029 -0.8004  0.0193  0.3534
29088SOL    HW188877   6.423   9.179   4.946 -0.5700  0.4234  0.5929
29088SOL    HW288878   6.428   9.198   5.096 -2.8223 -0.1266  0.7688
29089SOL     OW88879   2.953   1.851   5.592  0.6617 -0.4780 -0.6542
29089SOL    HW188880   2.980   1.940   5.612 -0.3946 -0.6427  1.9674
29089SOL    HW288881   2.890   1.829   5.661 -0.5008 -2.6301 -2.2660
29090SOL     OW88882   9.625   3.001   0.557 -0.1351 -0.1254 -0.1967
29090SOL    HW188883   9.646   3.095   0.561  0.4587 -0.2883  0.8741
29090SOL    HW288884   9.538   2.995   0.595 -0.3757  0.0347 -0.7017
29091SOL     OW88885   3.109   1.140   2.486  0.0601 -0.5022 -0.1142
29091SOL    HW188886   3.143   1.228   2.504  1.2233 -0.7602 -0.9084
29091SOL    HW288887   3.120   1.093   2.569  1.2380 -0.4343 -0.2177
29092SOL     OW88888   0.907   5.132   4.438 -0.3402  0.0251 -0.0817
29092SOL    HW188889   0.917   5.227   4.449  0.3073 -0.1162  0.6055
29092SOL    HW288890   0.850   5.106   4.510 -0.4264 -0.1327 -0.2067
29093SOL     OW88891   5.546   2.071   9.428 -0.0714 -0.0402  1.0089
29093SOL    HW188892   5.638   2.067   9.452 -0.6232 -1.7073  3.1885
29093SOL    HW288893   5.547   2.087   9.334  2.4095  0.5032  1.0510
29094SOL     OW88894   7.762   9.183   2.369  0.2572  0.0898 -0.2668
29094SOL    HW188895   7.677   9.188   2.326 -0.3778 -1.2609  0.7473
29094SOL    HW288896   7.794   9.095   2.348  1.1100  0.3612 -0.1246
29095SOL     OW88897   3.550   0.717   4.516  0.4128 -0.1339  0.0587
29095SOL    HW188898   3.642   0.736   4.502  0.8092 -3.3056 -2.6747
29095SOL    HW288899   3.509   0.729   4.431 -1.6828  0.6933  1.0938
29096SOL     OW88900   5.613   1.394   4.925  0.1081  0.1577 -0.3021
29096SOL    HW188901   5.646   1.452   4.994  1.1845  1.1605 -1.6205
29096SOL    HW288902   5.667   1.315   4.932  0.2355  0.2684 -0.0232
29097SOL     OW88903   7.675   7.850   6.834  0.5598 -0.2267 -0.3552
29097SOL    HW188904   7.682   7.892   6.748  1.9677  0.2956 -0.0095
29097SOL    HW288905   7.656   7.922   6.894  2.8791 -0.0159  0.2263
29098SOL     OW88906   2.783   1.300   7.339  0.4704 -0.0074  0.6682
29098SOL    HW188907   2.732   1.230   7.380  2.9904 -2.0609  0.5644
29098SOL    HW288908   2.760   1.378   7.389 -2.0009 -0.9558  1.1920
29099SOL     OW88909   5.922   5.483   7.368  0.2677 -0.5570 -0.2474
29099SOL    HW188910   5.850   5.449   7.314  0.7870 -0.1059 -1.2505
29099SOL    HW288911   5.998   5.431   7.340  0.5327 -0.3534  0.0977
29100SOL     OW88912   8.004   4.380   6.593  0.3656  0.1305 -0.4059
29100SOL    HW188913   8.053   4.457   6.564  1.8679 -0.4967  0.3407
29100SOL    HW288914   8.055   4.345   6.667  0.0295 -1.8738 -1.0464
29101SOL     OW88915   0.988   9.086   5.816 -0.4856 -0.0346 -0.7176
29101SOL    HW188916   1.056   9.026   5.784 -0.5098 -0.8086  0.5878
29101SOL    HW288917   1.033   9.169   5.828  0.1867 -0.4625 -0.1568
29102SOL     OW88918   2.668   9.814   0.075 -0.0708  0.1517 -0.5281
29102SOL    HW188919   2.629   9.742   0.026 -1.3059  0.7903 -0.5046
29102SOL    HW288920   2.706   9.871   0.008  0.3871 -0.2125 -0.5823
29103SOL     OW88921   9.717   4.945   3.868 -0.3587  0.1405 -0.6074
29103SOL    HW188922   9.678   5.012   3.812 -1.1821  0.9836  0.9137
29103SOL    HW288923   9.642   4.905   3.913  0.3423  0.0643  0.5221
29104SOL     OW88924   3.464   0.907   6.456 -0.5348 -0.2798 -0.0944
29104SOL    HW188925   3.389   0.859   6.418  0.3646 -1.2929 -0.6657
29104SOL    HW288926   3.514   0.935   6.380 -0.5073  0.7174  0.2785
29105SOL     OW88927   7.828   9.208   5.049  0.4625 -0.0429  0.1763
29105SOL    HW188928   7.800   9.295   5.021 -0.5818 -0.2543  0.5355
29105SOL    HW288929   7.754   9.173   5.098  0.3179 -1.6837 -1.0959
29106SOL     OW88930   6.963   3.122   8.141 -0.2001 -0.3413  0.1626
29106SOL    HW188931   6.927   3.073   8.067  1.5888 -0.8411 -0.4235
29106SOL    HW288932   7.023   3.185   8.101 -1.8857  1.9325  0.9426
29107SOL     OW88933   7.353   9.706   5.782 -0.0020 -0.1508  0.1733
29107SOL    HW188934   7.375   9.742   5.696 -0.3588  0.7772  0.4641
29107SOL    HW288935   7.419   9.638   5.797  0.3335 -0.0135 -0.6348
29108SOL     OW88936   8.654   7.505   7.770  0.1385 -0.2918  0.0064
29108SOL    HW188937   8.638   7.452   7.691  1.3695 -1.6375  0.6114
29108SOL    HW288938   8.625   7.593   7.746 -0.8798 -0.9747 -1.4430
29109SOL     OW88939   5.572   4.642   6.980  0.0738 -0.2245 -0.1828
29109SOL    HW188940   5.552   4.550   6.994  0.7942 -0.9719 -3.3457
29109SOL    HW288941   5.496   4.689   7.014 -0.5898 -1.9927  0.8876
29110SOL     OW88942   5.191   6.902   4.135 -0.5704  0.0436  0.1637
29110SOL    HW188943   5.192   6.852   4.054  1.0009  0.5396 -0.1711
29110SOL    HW288944   5.281   6.934   4.144 -1.1052  1.3384  1.2606
29111SOL     OW88945   0.982   8.681   2.665  0.0563  0.1258  0.2539
29111SOL    HW188946   1.044   8.738   2.621 -0.4430  1.4262  1.1838
29111SOL    HW288947   0.947   8.733   2.737 -1.0071 -1.0804  0.6653
29112SOL     OW88948   1.765   7.647   8.490  0.7603  0.0420  0.2692
29112SOL    HW188949   1.767   7.692   8.575 -2.5203 -0.1076  0.5640
29112SOL    HW288950   1.758   7.717   8.425 -1.5434  0.1564  0.5431
29113SOL     OW88951   7.130   7.407   2.599  0.2272 -0.4725  0.6334
29113SOL    HW188952   7.069   7.375   2.532  0.7972  0.5098 -0.3915
29113SOL    HW288953   7.137   7.501   2.583  1.5302 -0.4663  1.1172
29114SOL     OW88954   0.625   5.537   9.154 -0.2491 -0.1765 -0.2563
29114SOL    HW188955   0.595   5.469   9.214 -1.3422  1.2285  0.8614
29114SOL    HW288956   0.652   5.609   9.210 -0.8773  1.0123 -1.4176
29115SOL     OW88957   2.512   4.337   2.528  0.5922 -0.1232  0.3963
29115SOL    HW188958   2.478   4.423   2.551  0.2216 -0.3526  0.7290
29115SOL    HW288959   2.566   4.352   2.450  2.7574  0.8495  1.9753
29116SOL     OW88960   4.343   3.591   2.901 -0.1251  0.2244 -0.0431
29116SOL    HW188961   4.369   3.657   2.966  0.2895 -0.2764  0.3037
29116SOL    HW288962   4.253   3.615   2.877 -0.0555  0.7878  0.2418
29117SOL     OW88963   7.619   1.627   3.564  0.0450 -0.4186 -0.1460
29117SOL    HW188964   7.536   1.603   3.522 -0.3569  0.4093  0.1615
29117SOL    HW288965   7.629   1.563   3.634  1.2819 -2.5548 -2.1116
29118SOL     OW88966   7.517   3.327   5.944  0.4835 -0.2916 -0.1328
29118SOL    HW188967   7.573   3.371   5.881 -0.3763  1.0301 -0.0076
29118SOL    HW288968   7.465   3.266   5.892  0.4780  0.0740 -0.5508
29119SOL     OW88969   1.124   6.042   9.144 -0.3652  0.4190  0.6122
29119SOL    HW188970   1.215   6.071   9.135 -0.6134  1.3249  0.8973
29119SOL    HW288971   1.130   5.964   9.199  0.3664 -0.4200 -0.6069
29120SOL     OW88972   1.401   6.948   5.533 -0.2510  0.3567 -0.2090
29120SOL    HW188973   1.425   6.856   5.526  0.8066  0.4812  1.2069
29120SOL    HW288974   1.404   6.966   5.627 -0.6231  1.7864 -0.4504
29121SOL     OW88975   8.929   6.302   8.680 -0.2014 -0.6637 -0.2671
29121SOL    HW188976   8.912   6.213   8.711 -1.4468 -0.7191 -1.0425
29121SOL    HW288977   8.988   6.339   8.745 -0.7255 -1.6153  0.7842
29122SOL     OW88978   0.571   8.825   2.645  0.0039 -0.1902  0.0351
29122SOL    HW188979   0.514   8.868   2.581  0.3246 -0.9208 -0.7682
29122SOL    HW288980   0.604   8.748   2.599  1.0111 -0.2111  0.7647
29123SOL     OW88981   9.574   4.861   5.172 -0.8183  0.1491 -0.6780
29123SOL    HW188982   9.577   4.904   5.257 -0.0063 -0.0181 -0.6174
29123SOL    HW288983   9.549   4.771   5.192  0.9811 -0.3397 -0.4143
29124SOL     OW88984   4.948   6.978   9.298 -0.1093 -0.6138 -0.3370
29124SOL    HW188985   5.031   6.931   9.288 -0.4620 -1.4134  0.4521
29124SOL    HW288986   4.904   6.968   9.213 -0.1371 -1.6246 -0.2073
29125SOL     OW88987   9.174   3.953   1.335  0.4460 -0.2468 -0.5629
29125SOL    HW188988   9.166   3.957   1.430  0.0323 -0.3298 -0.5923
29125SOL    HW288989   9.141   4.038   1.305 -0.6291 -0.6952 -0.7009
29126SOL     OW88990   8.375   5.557   7.538  0.0273  0.2384 -0.4604
29126SOL    HW188991   8.320   5.575   7.462 -1.5423  0.0783  0.5920
29126SOL    HW288992   8.454   5.609   7.523  0.0581 -0.2890 -2.4939
29127SOL     OW88993   6.936   6.075   5.574 -0.5105 -0.3494  0.6527
29127SOL    HW188994   6.874   6.141   5.546  0.1242  0.3692  0.9135
29127SOL    HW288995   6.942   6.015   5.500 -1.1156 -0.1449  0.4316
29128SOL     OW88996   4.296   5.702   1.688 -0.1558 -0.1351  0.2887
29128SOL    HW188997   4.282   5.750   1.769  0.5994  0.3107  0.1610
29128SOL    HW288998   4.210   5.699   1.646  0.0231  2.2955 -0.3622
29129SOL     OW88999   4.784   7.693   9.795 -0.7218 -0.1720  0.7384
29129SOL    HW189000   4.791   7.783   9.828  2.1015 -0.2032  0.4215
29129SOL    HW289001   4.874   7.660   9.794 -1.7281 -3.2408  1.3670
29130SOL     OW89002   0.310   7.597   8.392 -0.2956 -0.2917  0.5516
29130SOL    HW189003   0.373   7.527   8.409 -1.6914 -1.7582  0.0041
29130SOL    HW289004   0.347   7.675   8.434  1.3127 -1.3567  1.1803
29131SOL     OW89005   1.397   4.399   3.725 -0.1584 -0.1106 -0.1006
29131SOL    HW189006   1.382   4.439   3.811 -0.9728  0.1252 -0.3399
29131SOL    HW289007   1.486   4.425   3.701 -1.0324  2.5938 -0.7758
29132SOL     OW89008   5.298   0.615   9.034  0.0749  0.0961 -0.3343
29132SOL    HW189009   5.291   0.575   8.948 -0.5907 -0.7889  0.1152
29132SOL    HW289010   5.351   0.554   9.085  1.2580  1.0626 -0.3578
29133SOL     OW89011   3.067   6.333   6.421  0.5280  0.3426  0.5251
29133SOL    HW189012   3.150   6.375   6.397  0.7866  0.7600  2.0277
29133SOL    HW289013   3.077   6.314   6.514 -1.0344  0.3174  0.7065
29134SOL     OW89014   2.240   3.009   4.274  0.1268  0.2760 -0.4151
29134SOL    HW189015   2.163   3.057   4.243 -0.4129 -1.1892 -1.4685
29134SOL    HW289016   2.314   3.052   4.232 -0.2781  0.6419 -0.7624
29135SOL     OW89017   8.663   0.009   0.255  0.2312 -0.6234  0.3034
29135SOL    HW189018   8.724   0.043   0.321  0.4225  0.7582 -0.5465
29135SOL    HW289019   8.672  -0.086   0.260  1.4137 -0.4827  1.1566
29136SOL     OW89020   8.851   3.141   2.207  0.0067  0.2058 -0.7961
29136SOL    HW189021   8.919   3.113   2.146  1.5073  0.7400  0.5489
29136SOL    HW289022   8.896   3.201   2.266 -1.5877  0.3606  0.3101
29137SOL     OW89023   1.293   6.444   7.293 -0.5664  0.5860 -0.0346
29137SOL    HW189024   1.363   6.413   7.351  0.4424  1.9919 -0.4521
29137SOL    HW289025   1.218   6.458   7.351  0.3576  1.7519  0.9108
29138SOL     OW89026   6.877   4.151   0.837 -0.1069 -0.5720  0.3747
29138SOL    HW189027   6.965   4.112   0.839 -0.0017 -0.4152 -0.5427
29138SOL    HW289028   6.860   4.177   0.927 -0.0778 -2.5024  0.9856
29139SOL     OW89029   2.967   9.543   7.481 -0.2673 -0.5506 -0.1174
29139SOL    HW189030   2.925   9.566   7.399  0.2777 -1.5980 -0.7032
29139SOL    HW289031   2.980   9.627   7.525 -1.7037 -0.0827 -0.5196
29140SOL     OW89032   8.927   0.250   5.601  0.3563 -0.0192 -0.0653
29140SOL    HW189033   8.900   0.321   5.543  2.0588 -1.3960 -2.7500
29140SOL    HW289034   8.873   0.175   5.575  1.4620 -0.7813 -0.2600
29141SOL     OW89035   6.412   1.480   9.708  0.4515 -0.2222  0.0875
29141SOL    HW189036   6.406   1.554   9.768 -2.3786  0.1931 -0.5705
29141SOL    HW289037   6.399   1.403   9.764  1.2019 -0.0842  0.4598
29142SOL     OW89038   9.459   7.392   2.484 -0.0179 -0.1394  0.2208
29142SOL    HW189039   9.413   7.437   2.413  0.7737  0.5226  0.1147
29142SOL    HW289040   9.444   7.447   2.561  1.3253  0.5745 -0.0037
29143SOL     OW89041   2.579   7.095   0.402 -0.3501 -0.1003  0.1337
29143SOL    HW189042   2.577   7.034   0.476  0.8382  0.2580  0.4902
29143SOL    HW289043   2.577   7.040   0.325  1.7520 -0.7088  0.4397
29144SOL     OW89044   6.063   4.875   2.768 -0.7725 -0.1297  0.3046
29144SOL    HW189045   6.025   4.941   2.709  1.1965 -0.1401 -1.0581
29144SOL    HW289046   6.098   4.808   2.710 -0.5034 -1.1376  1.5817
29145SOL     OW89047   0.108   2.676   4.015  0.5024  0.3881 -0.0424
29145SOL    HW189048   0.043   2.637   4.073  1.5323  0.8213  1.4561
29145SOL    HW289049   0.153   2.601   3.976 -0.6278  0.0902 -0.8096
29146SOL     OW89050   6.252   5.055   2.148 -0.2851 -0.4527 -0.5243
29146SOL    HW189051   6.331   5.015   2.186  0.0065 -0.5999 -1.2742
29146SOL    HW289052   6.261   5.040   2.054  0.5537  2.6407 -1.0237
29147SOL     OW89053   4.207   7.932   7.699 -0.1114  0.2569  0.1258
29147SOL    HW189054   4.240   7.869   7.634  0.0206  0.2781  0.1714
29147SOL    HW289055   4.173   8.004   7.646 -2.2541 -0.7898 -0.0096
29148SOL     OW89056   7.692   2.869   7.332 -0.1408  0.1981 -0.1964
29148SOL    HW189057   7.748   2.841   7.259 -0.1689  0.7602 -0.4376
29148SOL    HW289058   7.753   2.906   7.396 -0.0938 -0.4736  0.1636
29149SOL     OW89059   5.701   5.612   7.850  0.3417 -0.0164  0.3748
29149SOL    HW189060   5.690   5.553   7.924 -0.2430  1.6316  1.6774
29149SOL    HW289061   5.655   5.569   7.778  1.1706 -1.8038  0.8533
29150SOL     OW89062   8.757   1.884   1.351 -0.0520 -0.6039  0.0525
29150SOL    HW189063   8.840   1.897   1.306 -0.9606 -0.7122 -1.7511
29150SOL    HW289064   8.716   1.970   1.353  0.7907 -0.1566  2.5504
29151SOL     OW89065   5.230   2.362   6.777 -0.3049 -0.1049  0.3097
29151SOL    HW189066   5.181   2.345   6.696 -0.2675  1.4863 -0.0858
29151SOL    HW289067   5.294   2.292   6.782 -1.8024 -1.5510  0.1906
29152SOL     OW89068   7.066   8.987   3.177  0.0787 -0.2416  0.0091
29152SOL    HW189069   7.154   9.020   3.194 -0.3975  1.0124  0.1461
29152SOL    HW289070   7.010   9.064   3.183 -1.1856 -1.1913  1.0382
29153SOL     OW89071   7.227   1.026   5.051  0.0404  0.4715 -0.5636
29153SOL    HW189072   7.288   1.090   5.013  2.4208 -1.4760 -0.2521
29153SOL    HW289073   7.184   0.986   4.976  0.7318  0.3750 -0.9105
29154SOL     OW89074   2.809   9.470   6.592 -0.5603 -0.7792 -0.2658
29154SOL    HW189075   2.749   9.404   6.628 -1.1729 -0.1892 -0.1906
29154SOL    HW289076   2.836   9.434   6.508 -1.6777 -0.6846 -0.6845
29155SOL     OW89077   2.739   0.354   0.647  0.0914 -0.0962  0.1852
29155SOL    HW189078   2.757   0.438   0.689  0.0441  0.1852 -0.3514
29155SOL    HW289079   2.791   0.355   0.566  0.3778 -0.7365  0.3533
29156SOL     OW89080   2.288   6.521   9.228  0.3150  0.4827 -0.5408
29156SOL    HW189081   2.310   6.542   9.137  0.1508  2.2458 -0.2231
29156SOL    HW289082   2.343   6.446   9.250  2.7615  1.9610 -1.1524
29157SOL     OW89083   3.057   3.696   8.267 -0.3347  0.3370 -0.4254
29157SOL    HW189084   3.099   3.647   8.338 -0.1511  2.0926  0.7529
29157SOL    HW289085   3.127   3.750   8.231  0.1403 -2.1071 -3.5436
29158SOL     OW89086   4.078   2.830   5.865 -0.3823 -0.1662  0.4656
29158SOL    HW189087   4.012   2.824   5.935 -1.1951  0.2069 -0.2505
29158SOL    HW289088   4.073   2.921   5.836 -1.2870 -0.7305 -1.2482
29159SOL     OW89089   3.781   1.520   7.296 -0.0290 -0.6212  0.3213
29159SOL    HW189090   3.835   1.579   7.349  0.1733 -0.0507 -0.4985
29159SOL    HW289091   3.844   1.458   7.259 -0.0483 -0.4948  0.0723
29160SOL     OW89092   9.255   9.189   5.294  0.3458 -0.8672 -0.1506
29160SOL    HW189093   9.199   9.200   5.217  0.2957  0.1058  0.0117
29160SOL    HW289094   9.344   9.203   5.262  0.4770 -2.0023 -0.3262
29161SOL     OW89095   1.319   6.430   8.910  0.3056 -0.0953  0.1142
29161SOL    HW189096   1.363   6.467   8.834  1.1814 -0.5470  0.3907
29161SOL    HW289097   1.255   6.497   8.936  1.5502  1.0405  0.3298
29162SOL     OW89098   7.623   9.285   0.725 -0.1188  0.0373  0.2423
29162SOL    HW189099   7.546   9.320   0.680  0.1141  0.0387 -0.1618
29162SOL    HW289100   7.685   9.265   0.654  0.3710  0.3218  0.5825
29163SOL     OW89101   0.608   1.331   5.151 -0.4321  0.1635  0.6627
29163SOL    HW189102   0.518   1.309   5.128 -0.1434  0.5713 -1.0353
29163SOL    HW289103   0.659   1.253   5.129 -0.1773  0.4714  0.1347
29164SOL     OW89104   0.405   9.519   6.418 -0.6589  0.1706  0.4331
29164SOL    HW189105   0.414   9.579   6.492 -1.3782 -0.0169  0.6890
29164SOL    HW289106   0.442   9.437   6.449  1.8702  0.8888 -0.4939
29165SOL     OW89107   4.979   6.746   0.691 -0.3932 -0.5001  0.0232
29165SOL    HW189108   5.027   6.680   0.741  0.1947  1.6497  2.5342
29165SOL    HW289109   5.046   6.788   0.636 -0.1369 -0.0543  0.6603
29166SOL     OW89110   9.407   5.601   6.564 -0.5694  0.1862  0.8519
29166SOL    HW189111   9.468   5.674   6.558  0.9055 -1.0773 -0.8138
29166SOL    HW289112   9.356   5.605   6.483  0.9239 -1.7119 -0.2640
29167SOL     OW89113   5.253   1.765   3.814 -0.3899  0.0167  0.5947
29167SOL    HW189114   5.263   1.683   3.863 -0.6224  0.0827  0.7554
29167SOL    HW289115   5.321   1.762   3.747 -0.3771 -0.2925  0.6223
29168SOL     OW89116   9.204   6.133   8.417  0.1004 -0.7166  0.7443
29168SOL    HW189117   9.141   6.205   8.406 -0.1841 -0.9803  0.6376
29168SOL    HW289118   9.185   6.073   8.346  1.3672 -0.1560 -0.1043
29169SOL     OW89119   7.209   7.492   0.041 -0.0274 -0.1901  0.6750
29169SOL    HW189120   7.273   7.431   0.077  0.6423  0.4011  0.4937
29169SOL    HW289121   7.125   7.461   0.076  0.3939 -0.7375  1.2297
29170SOL     OW89122   8.862   7.490   8.729 -0.8686  0.4982 -0.3785
29170SOL    HW189123   8.799   7.464   8.662 -0.6862  0.1194 -0.4054
29170SOL    HW289124   8.947   7.461   8.696 -0.8173 -0.0020  0.1684
29171SOL     OW89125   5.546   7.353   2.095  0.7853 -0.0447 -0.1358
29171SOL    HW189126   5.475   7.329   2.036  2.3477 -0.3559 -1.9832
29171SOL    HW289127   5.605   7.278   2.093  0.8306 -0.1277  2.0020
29172SOL     OW89128   8.373   2.456   3.609 -0.6311  0.4379 -0.7321
29172SOL    HW189129   8.426   2.509   3.669 -1.8617  0.1001  0.7084
29172SOL    HW289130   8.396   2.365   3.630 -3.5264  0.1430  1.7511
29173SOL     OW89131   2.500   5.566   6.501  0.3302  0.2907 -0.4653
29173SOL    HW189132   2.476   5.515   6.424 -0.6506  0.1940 -0.1111
29173SOL    HW289133   2.553   5.506   6.554 -2.6165 -1.2483  1.0129
29174SOL     OW89134   2.478   7.407   3.943 -0.1208 -0.0346 -0.7403
29174SOL    HW189135   2.430   7.366   4.015  0.7377  0.1800 -0.0169
29174SOL    HW289136   2.520   7.333   3.898  0.0559 -0.0966 -0.4764
29175SOL     OW89137   5.443   7.898   8.536  0.3428 -0.4210  0.1531
29175SOL    HW189138   5.363   7.938   8.568 -0.4178  0.7844 -2.8798
29175SOL    HW289139   5.443   7.810   8.573 -2.1065 -0.2550  0.6692
29176SOL     OW89140   8.128   5.338   0.994 -0.1249 -0.4909 -0.3956
29176SOL    HW189141   8.097   5.330   0.904 -3.1472 -0.6496  0.5553
29176SOL    HW289142   8.184   5.261   1.007  0.6357 -0.2836 -2.1949
29177SOL     OW89143   7.561   2.000   1.280 -0.0887 -0.3741 -0.2625
29177SOL    HW189144   7.602   1.914   1.285  1.6694  0.4476  0.1543
29177SOL    HW289145   7.485   1.994   1.337 -1.6970 -2.4814 -2.3991
29178SOL     OW89146   9.276   6.625   3.648 -0.2609 -0.2930 -0.4805
29178SOL    HW189147   9.323   6.697   3.691  0.3808 -0.5095 -0.7990
29178SOL    HW289148   9.249   6.661   3.564  1.0212 -0.7378 -1.1089
29179SOL     OW89149   2.799   0.751   3.348  0.3882  0.8320 -0.0147
29179SOL    HW189150   2.733   0.801   3.299 -0.4922  0.8123  1.1172
29179SOL    HW289151   2.802   0.792   3.434  0.5600 -0.2690  0.5292
29180SOL     OW89152   5.587   8.317   7.253  0.3871 -0.1978 -0.3332
29180SOL    HW189153   5.559   8.367   7.330 -2.7784 -1.4679 -0.5204
29180SOL    HW289154   5.558   8.370   7.179 -2.1681 -1.6936 -0.5301
29181SOL     OW89155   6.571   6.180   5.583 -0.3972 -0.0281 -0.1859
29181SOL    HW189156   6.544   6.167   5.492  0.8599 -1.1040 -0.4386
29181SOL    HW289157   6.552   6.097   5.626  0.0438  0.0862  0.2447
29182SOL     OW89158   6.681   8.328   3.083 -0.3797 -0.2055  0.2087
29182SOL    HW189159   6.711   8.417   3.063  1.5883 -0.9872 -0.5428
29182SOL    HW289160   6.695   8.318   3.177  1.2464 -0.3327 -0.0146
29183SOL     OW89161   1.234   4.350   3.361  0.2775 -0.1271  0.4486
29183SOL    HW189162   1.290   4.427   3.361  0.6274 -0.3803  0.1870
29183SOL    HW289163   1.161   4.373   3.419 -0.4287  0.9766 -0.8214
29184SOL     OW89164   4.996   9.759   4.811  0.3106  0.4437 -0.1754
29184SOL    HW189165   5.091   9.763   4.797  0.2945 -0.2660 -0.5502
29184SOL    HW289166   4.961   9.827   4.754  0.4852 -0.3698 -1.3003
29185SOL     OW89167   7.308   1.843   8.284 -0.1993 -0.3813  0.4969
29185SOL    HW189168   7.221   1.811   8.309 -0.7037 -0.1978 -0.9340
29185SOL    HW289169   7.311   1.833   8.189  1.9001 -1.7019  0.6469
29186SOL     OW89170   8.946   8.067   3.835  0.5101  0.6350 -0.1939
29186SOL    HW189171   9.003   8.010   3.887 -1.1849 -0.7622  0.2274
29186SOL    HW289172   8.977   8.155   3.854  1.8483 -0.0209  0.8286
29187SOL     OW89173   1.793   4.703   6.062  0.6854  0.2602 -0.2450
29187SOL    HW189174   1.885   4.679   6.060  0.8394  0.4961  1.9506
29187SOL    HW289175   1.788   4.787   6.018  1.9747  1.4668  1.7829
29188SOL     OW89176   7.307   3.830   5.011  0.1980  0.2326 -0.2249
29188SOL    HW189177   7.290   3.901   4.948  1.3641  0.4565 -0.3052
29188SOL    HW289178   7.311   3.751   4.957 -1.3981  0.0333 -0.1017
29189SOL     OW89179   6.416   1.961   2.258 -0.4763  0.3186  0.2839
29189SOL    HW189180   6.465   1.893   2.304  0.0229  0.6849  0.3098
29189SOL    HW289181   6.328   1.925   2.248  0.1917 -1.0319 -1.1888
29190SOL     OW89182   8.746   4.469   0.595  0.4877  0.1560  0.3576
29190SOL    HW189183   8.670   4.527   0.599  0.9162  0.8620 -1.0325
29190SOL    HW289184   8.786   4.474   0.681 -1.3510 -0.6881  1.3247
29191SOL     OW89185   1.730   1.428   9.270 -0.2081  0.1260 -0.6698
29191SOL    HW189186   1.796   1.391   9.212  0.0386  1.4670 -1.2931
29191SOL    HW289187   1.780   1.466   9.342 -0.3522  0.3107 -0.6656
29192SOL     OW89188   4.812   9.283   4.209 -0.3624 -0.1008 -0.0769
29192SOL    HW189189   4.851   9.369   4.216  0.6222 -0.6132  0.9909
29192SOL    HW289190   4.732   9.287   4.262 -1.6685  0.8401 -1.9816
29193SOL     OW89191   0.394   2.293   7.084 -0.3949  0.1009 -0.8005
29193SOL    HW189192   0.325   2.326   7.025 -1.8065  0.9519  1.2096
29193SOL    HW289193   0.374   2.334   7.168  2.8682  0.7196 -0.2135
29194SOL     OW89194   1.530   2.127   2.503  0.2564 -0.3716  0.2029
29194SOL    HW189195   1.591   2.099   2.435  0.4820 -1.6288  0.8914
29194SOL    HW289196   1.574   2.201   2.545  0.6835 -0.3889 -0.2051
29195SOL     OW89197   3.518   4.568   0.780  0.3821  0.1943 -0.1558
29195SOL    HW189198   3.515   4.659   0.810  1.6556  0.4692 -0.7780
29195SOL    HW289199   3.609   4.556   0.753  0.1059 -1.1300 -0.5179
29196SOL     OW89200   1.149   7.209   6.070  0.1255  0.4914  0.4341
29196SOL    HW189201   1.134   7.132   6.015  1.3350  1.3886 -1.2559
29196SOL    HW289202   1.113   7.282   6.020 -0.9291  1.0798  1.9694
29197SOL     OW89203   2.225   8.719   5.426 -0.0025  0.1939 -0.0394
29197SOL    HW189204   2.273   8.662   5.486  0.6646 -0.8368 -1.5134
29197SOL    HW289205   2.177   8.660   5.369 -1.4206  1.1836  0.0874
29198SOL     OW89206   1.737   2.834   5.047  1.0625  0.0640  0.0988
29198SOL    HW189207   1.816   2.833   5.102  0.4052  0.2008  1.0708
29198SOL    HW289208   1.735   2.747   5.007  1.3638 -0.1682  0.5779
29199SOL     OW89209   4.619   0.758   6.589 -0.4849  0.8781 -1.0155
29199SOL    HW189210   4.637   0.836   6.640 -0.8905  1.9469 -2.4437
29199SOL    HW289211   4.596   0.691   6.654 -0.2756  1.9720  0.2185
29200SOL     OW89212   8.605   5.641   6.937  0.4800  0.0380  0.5831
29200SOL    HW189213   8.619   5.571   6.872  1.4501  0.8528 -0.1060
29200SOL    HW289214   8.522   5.681   6.911  0.1151 -0.5824  0.7479
29201SOL     OW89215   2.126   8.559   2.431  0.7160 -0.0457 -0.8018
29201SOL    HW189216   2.088   8.639   2.468  0.8891  0.6986 -2.1540
29201SOL    HW289217   2.214   8.554   2.468 -0.4442 -1.5197  1.9788
29202SOL     OW89218   3.652   1.435   2.278 -0.3265  0.4150 -0.7457
29202SOL    HW189219   3.697   1.508   2.237 -0.8376  0.7183 -0.7812
29202SOL    HW289220   3.720   1.369   2.293  0.5421  1.6456  1.0782
29203SOL     OW89221   5.253   0.370   4.661  0.3949  0.1061  0.0761
29203SOL    HW189222   5.269   0.295   4.718  1.5293  0.3540  0.1238
29203SOL    HW289223   5.178   0.415   4.699  0.8046 -0.0280  1.0828
29204SOL     OW89224   9.294   7.276   1.986  0.0689  0.4899  0.4922
29204SOL    HW189225   9.224   7.321   1.938 -0.9850  0.1668  1.6622
29204SOL    HW289226   9.259   7.267   2.075  1.5388  0.1518  1.0566
29205SOL     OW89227   9.430   6.373   6.352 -0.0942  0.1658 -0.0863
29205SOL    HW189228   9.483   6.402   6.278 -1.8640  2.0319 -0.6988
29205SOL    HW289229   9.483   6.305   6.394  2.6532  1.6965 -0.8116
29206SOL     OW89230   7.293   2.271   0.379  0.2477  0.2187 -0.3517
29206SOL    HW189231   7.294   2.305   0.289 -0.6256  0.5141 -0.2608
29206SOL    HW289232   7.219   2.210   0.380 -0.1630  0.7164  0.3438
29207SOL     OW89233   8.911   4.510   7.838  0.0687 -0.5321 -0.0094
29207SOL    HW189234   8.939   4.587   7.887 -2.2907  0.9478 -0.7763
29207SOL    HW289235   8.886   4.446   7.905  1.1437 -0.2951  0.6431
29208SOL     OW89236   1.823   6.294   5.837  0.1399  0.4162 -0.2429
29208SOL    HW189237   1.878   6.365   5.870 -1.3940  1.5439 -0.0640
29208SOL    HW289238   1.795   6.247   5.916  0.4537  0.1122 -0.3069
29209SOL     OW89239   4.761   6.382   2.745  0.1523  0.0184 -0.4861
29209SOL    HW189240   4.845   6.404   2.703 -0.6869 -0.0851 -2.2781
29209SOL    HW289241   4.704   6.456   2.725 -1.1863 -1.4108 -2.2262
29210SOL     OW89242   1.978   3.935   6.836 -0.4156  0.0001 -0.6707
29210SOL    HW189243   1.931   3.906   6.915  0.5698  2.6128  1.0270
29210SOL    HW289244   2.067   3.905   6.849 -0.1091  0.9655 -0.4203
29211SOL     OW89245   7.040   7.974   2.572  0.3592 -0.1356  0.3891
29211SOL    HW189246   6.997   8.006   2.651 -1.6217  1.2016 -1.1310
29211SOL    HW289247   7.133   7.988   2.588  0.0229 -0.0026  2.4890
29212SOL     OW89248   6.238   0.421   0.222  0.2591  0.1580  0.2363
29212SOL    HW189249   6.189   0.356   0.170  2.4875 -1.8804  0.5432
29212SOL    HW289250   6.178   0.445   0.293 -1.6693  0.6541 -1.4436
29213SOL     OW89251   0.545   4.131   4.647 -0.0640  0.0203 -0.2249
29213SOL    HW189252   0.522   4.061   4.708 -2.3680  1.0019  0.1217
29213SOL    HW289253   0.523   4.096   4.561 -0.6764  0.0961 -0.1039
29214SOL     OW89254   8.948   6.438   4.861  0.7549 -0.0352  0.7198
29214SOL    HW189255   8.955   6.499   4.788  0.0556 -1.5230 -0.6496
29214SOL    HW289256   9.026   6.455   4.914  1.9155  0.2595 -1.0066
29215SOL     OW89257   3.540   6.888   4.769  0.3321  0.2262 -0.7494
29215SOL    HW189258   3.614   6.931   4.813  0.4938  0.3891 -1.1813
29215SOL    HW289259   3.500   6.957   4.716  0.4763 -0.1070 -1.2926
29216SOL     OW89260   3.985   1.714   1.752 -0.1202  0.5525 -0.1919
29216SOL    HW189261   4.011   1.727   1.843  2.1593  1.0983 -0.8705
29216SOL    HW289262   4.027   1.632   1.727 -1.1467  0.1389 -0.6527
29217SOL     OW89263   5.847   9.642   2.562 -0.0389 -0.7078  0.8358
29217SOL    HW189264   5.942   9.638   2.554 -0.0146  0.7063  0.1553
29217SOL    HW289265   5.831   9.710   2.629 -0.5689 -1.5777  1.6254
29218SOL     OW89266   5.959   4.960   6.097  0.2445 -0.1274 -0.0935
29218SOL    HW189267   5.960   4.899   6.171  2.2616  0.6080  0.5346
29218SOL    HW289268   5.866   4.967   6.074 -0.5800  0.1950  2.8639
29219SOL     OW89269   6.347   6.897   8.829 -0.5268 -0.0547 -0.1928
29219SOL    HW189270   6.414   6.869   8.767 -0.6977 -0.9730  0.0262
29219SOL    HW289271   6.395   6.943   8.898 -0.2367  0.1497 -0.5330
29220SOL     OW89272   5.650   6.323   8.674  0.1008 -0.0985 -0.3573
29220SOL    HW189273   5.658   6.283   8.587 -1.8886  0.1510 -0.7026
29220SOL    HW289274   5.720   6.389   8.676 -0.0306  0.1301 -1.9003
29221SOL     OW89275   5.832   8.291   0.684  0.6751 -0.1240  0.1962
29221SOL    HW189276   5.799   8.295   0.774  0.4756 -1.9728  0.2522
29221SOL    HW289277   5.780   8.356   0.636 -0.3268 -0.2331  1.1061
29222SOL     OW89278   4.254   9.219   5.991 -0.1745 -0.0917  0.6653
29222SOL    HW189279   4.173   9.242   6.036 -1.0456  0.5087 -1.1129
29222SOL    HW289280   4.306   9.300   5.993  0.8806 -0.7423  2.6716
29223SOL     OW89281   8.582   8.433   8.966  0.4605  0.2244  0.4356
29223SOL    HW189282   8.540   8.501   8.914 -2.0108 -1.7803 -0.3952
29223SOL    HW289283   8.651   8.398   8.910 -1.0335 -0.7313 -0.8826
29224SOL     OW89284   3.046   1.047   4.648 -0.0062  0.8323 -0.9676
29224SOL    HW189285   3.028   0.970   4.702  1.1899  1.2040  0.0092
29224SOL    HW289286   2.967   1.100   4.656  0.2065  0.9707  0.6216
29225SOL     OW89287   0.691   2.622   5.727 -0.1234  0.0391 -0.3106
29225SOL    HW189288   0.616   2.680   5.744  0.5266  0.8481 -0.1090
29225SOL    HW289289   0.652   2.535   5.717 -0.8927 -0.0598  2.4727
29226SOL     OW89290   2.736   9.080   4.388 -0.2948 -0.0954  0.1855
29226SOL    HW189291   2.830   9.063   4.385 -0.4209 -1.1589  1.2667
29226SOL    HW289292   2.695   9.000   4.356 -0.8394 -0.3955  1.5290
29227SOL     OW89293   3.464   0.226   8.083  0.2890  0.1346  0.1029
29227SOL    HW189294   3.391   0.164   8.092  0.4699 -0.2746 -1.0654
29227SOL    HW289295   3.423   0.312   8.090 -0.7702 -0.0036 -3.0368
29228SOL     OW89296   4.241   6.831   3.112 -0.2111 -0.1034 -0.3130
29228SOL    HW189297   4.185   6.887   3.165 -1.2398 -0.2638 -1.2069
29228SOL    HW289298   4.254   6.752   3.165 -0.5949  0.0594  0.0242
29229SOL     OW89299   4.884   2.913   3.840 -0.5907 -0.1313  0.3708
29229SOL    HW189300   4.938   2.964   3.900  1.8340 -0.8844 -0.9957
29229SOL    HW289301   4.878   2.968   3.761  1.5135 -1.5281 -0.8791
29230SOL     OW89302   3.872   6.345   1.877 -0.4822  0.3914 -0.3138
29230SOL    HW189303   3.889   6.389   1.793 -0.5896  0.6545 -0.1971
29230SOL    HW289304   3.777   6.348   1.887 -0.4657  0.3978 -0.1601
29231SOL     OW89305   0.771   4.749   2.857 -0.1801  0.6811  0.1401
29231SOL    HW189306   0.685   4.749   2.815  0.4798  0.8926 -1.2647
29231SOL    HW289307   0.755   4.714   2.944 -2.0367  2.5945  0.6410
29232SOL     OW89308   1.889   9.372   7.074 -0.2475  0.7112 -0.2752
29232SOL    HW189309   1.838   9.311   7.019 -0.9841 -1.0168  2.1396
29232SOL    HW289310   1.826   9.439   7.099 -1.1062 -0.6983  1.6169
29233SOL     OW89311   2.346   4.655   0.419  0.2202  0.3090 -0.7842
29233SOL    HW189312   2.417   4.591   0.409  0.2436  0.2952 -0.5411
29233SOL    HW289313   2.374   4.711   0.491  0.3153  0.7565 -1.1710
29234SOL     OW89314   1.749   2.556   5.189 -0.1738 -0.5237  0.3699
29234SOL    HW189315   1.672   2.554   5.247 -0.3232 -1.4986  0.1460
29234SOL    HW289316   1.809   2.493   5.228  1.6848  2.0871  2.0926
29235SOL     OW89317   7.655   6.482   7.547  0.1404  0.3985  0.5382
29235SOL    HW189318   7.693   6.567   7.525  0.6360  0.1213  0.3125
29235SOL    HW289319   7.694   6.421   7.484 -1.8868  0.3680 -0.7956
29236SOL     OW89320   4.260   8.484   4.980 -0.4093 -0.3832 -0.4731
29236SOL    HW189321   4.300   8.429   4.913 -0.4826  2.0592 -2.7095
29236SOL    HW289322   4.167   8.464   4.976 -0.3450 -0.6302 -0.7513
29237SOL     OW89323   6.933   2.484   3.125  0.4688 -0.0008  0.0158
29237SOL    HW189324   6.977   2.568   3.111  0.2790  0.2697  0.9764
29237SOL    HW289325   6.988   2.439   3.189  0.8506 -0.8311 -0.8876
29238SOL     OW89326   4.949   4.667   6.897 -0.1683 -0.5841  0.0841
29238SOL    HW189327   4.990   4.630   6.819 -0.7084  2.2533 -1.7246
29238SOL    HW289328   4.874   4.610   6.915  0.4596 -1.7701 -0.9469
29239SOL     OW89329   3.045   5.605   6.287 -0.4364  0.1167  0.2175
29239SOL    HW189330   3.004   5.609   6.373 -1.0951 -0.2498 -0.0723
29239SOL    HW289331   3.044   5.695   6.255  0.4130  0.3667  0.8619
29240SOL     OW89332   1.688   2.496   5.897 -0.3445 -0.4944  0.1958
29240SOL    HW189333   1.665   2.579   5.854  4.8152  1.2466  0.1127
29240SOL    HW289334   1.697   2.434   5.825  0.2247  0.1601 -0.3144
29241SOL     OW89335   8.743   0.053   9.095  0.3164  0.1387 -0.5944
29241SOL    HW189336   8.750   0.146   9.112 -1.9674  0.3549 -0.4780
29241SOL    HW289337   8.747   0.012   9.181  1.2076  0.1124 -0.6372
29242SOL     OW89338   8.842   5.161   5.654 -0.0502 -0.5575 -0.1625
29242SOL    HW189339   8.772   5.171   5.590 -0.0284 -2.0251 -0.4495
29242SOL    HW289340   8.908   5.108   5.609 -0.3768 -2.3184  1.2817
29243SOL     OW89341   2.131   7.855   3.759 -0.0978  0.2529  0.2758
29243SOL    HW189342   2.088   7.935   3.727 -0.4003  0.0236  0.1019
29243SOL    HW289343   2.105   7.787   3.697  1.6377  0.3742 -0.6404
29244SOL     OW89344   3.485   6.104   0.075 -0.2249 -0.4482  0.4557
29244SOL    HW189345   3.427   6.156   0.021 -1.3232  0.5483  2.4941
29244SOL    HW289346   3.566   6.097   0.024 -0.9253  1.1207 -0.9402
29245SOL     OW89347   2.794   7.395   7.931  0.1683 -0.4797 -0.4072
29245SOL    HW189348   2.828   7.485   7.927  0.0044 -0.4268 -0.6662
29245SOL    HW289349   2.701   7.405   7.950  0.1536 -0.5959 -0.4196
29246SOL     OW89350   1.066   1.053   0.558 -0.4302 -0.6684 -0.0104
29246SOL    HW189351   1.157   1.058   0.586 -0.2871 -0.4852 -0.4982
29246SOL    HW289352   1.034   0.970   0.592  0.3482 -1.4303 -1.0924
29247SOL     OW89353   8.395   0.254   0.769 -0.1235  1.1022 -0.4736
29247SOL    HW189354   8.438   0.319   0.713  1.2775 -1.1198 -2.1278
29247SOL    HW289355   8.467   0.205   0.808 -1.0409 -1.2469 -1.5260
29248SOL     OW89356   8.561   6.824   8.330  0.2669  0.6925 -0.6753
29248SOL    HW189357   8.564   6.919   8.344  0.8941  0.3265  2.2350
29248SOL    HW289358   8.612   6.787   8.402 -1.7156 -1.9782 -0.4867
29249SOL     OW89359   9.599   8.884   0.363  0.0356 -0.6144 -0.3557
29249SOL    HW189360   9.534   8.938   0.408 -0.1473 -0.1524 -1.1736
29249SOL    HW289361   9.582   8.795   0.396  1.1753 -0.0494  2.0035
29250SOL     OW89362   9.002   3.510   5.581 -0.2210 -0.1841  0.4217
29250SOL    HW189363   9.085   3.557   5.578  0.6794 -1.7331 -0.7959
29250SOL    HW289364   9.027   3.421   5.608 -1.4689 -0.6787 -0.0114
29251SOL     OW89365   9.670   9.016   6.480  0.0655 -0.3022 -0.1271
29251SOL    HW189366   9.616   8.937   6.481 -0.8032  0.1428 -2.7010
29251SOL    HW289367   9.688   9.034   6.572 -1.4117 -2.3319  0.6465
29252SOL     OW89368   3.229   6.873   7.084 -0.5632 -1.0339  0.4527
29252SOL    HW189369   3.258   6.844   6.997  1.6789  0.2842  0.6813
29252SOL    HW289370   3.220   6.793   7.135 -1.2984 -1.7823 -0.7728
29253SOL     OW89371   8.637   6.522   2.008  0.3918  0.3693  0.5361
29253SOL    HW189372   8.709   6.526   2.071  0.8244  0.1157  0.0628
29253SOL    HW289373   8.564   6.565   2.053  1.2218  1.8760  0.5079
29254SOL     OW89374   5.056   2.485   0.995 -0.4229  0.4839 -0.3897
29254SOL    HW189375   5.133   2.430   1.007 -0.4992  0.5189  0.2967
29254SOL    HW289376   5.035   2.518   1.083 -2.4877 -1.2135 -0.1500
29255SOL     OW89377   6.292   5.527   7.950  0.2265 -0.0943  0.0708
29255SOL    HW189378   6.278   5.488   8.036  0.9167  1.2481  0.8378
29255SOL    HW289379   6.204   5.536   7.912 -0.2837  0.9358  1.4186
29256SOL     OW89380   4.149   7.536   4.577  0.1098  0.1302 -0.1931
29256SOL    HW189381   4.108   7.453   4.553  1.9295 -0.9625  0.3171
29256SOL    HW289382   4.127   7.596   4.505 -1.4556 -0.6873 -0.4319
29257SOL     OW89383   6.941   2.281   6.945  0.3334  0.0315  0.1334
29257SOL    HW189384   6.885   2.224   6.892  1.2412 -0.6292 -0.1531
29257SOL    HW289385   6.914   2.266   7.035 -0.2876  0.1126 -0.0376
29258SOL     OW89386   5.364   5.022   7.113  0.3058 -0.8501 -0.0778
29258SOL    HW189387   5.425   5.044   7.183 -1.4488 -0.3201  1.3597
29258SOL    HW289388   5.419   4.987   7.043  2.2453 -0.2840  1.0928
29259SOL     OW89389   5.154   6.898   3.842 -0.0233 -0.3991  0.0528
29259SOL    HW189390   5.175   6.805   3.849  1.5586 -0.0285  0.6707
29259SOL    HW289391   5.235   6.939   3.810  0.0364  1.0407  1.9049
29260SOL     OW89392   2.498   3.089   2.060  0.5913 -0.3108  0.1804
29260SOL    HW189393   2.584   3.084   2.017  0.5607  1.1760 -0.1036
29260SOL    HW289394   2.519   3.106   2.152  0.6566  2.6714 -0.2817
29261SOL     OW89395   8.452   8.770   4.733 -0.6583 -0.1786  0.3216
29261SOL    HW189396   8.402   8.838   4.778 -1.2532 -0.1996 -0.2841
29261SOL    HW289397   8.386   8.718   4.687 -0.2440 -1.3946  1.0642
29262SOL     OW89398   9.732   4.563   5.198 -0.4739 -0.9586 -0.1599
29262SOL    HW189399   9.820   4.528   5.186  0.5324  1.3950 -0.0557
29262SOL    HW289400   9.734   4.608   5.282 -1.7813 -0.8436 -0.1599
29263SOL     OW89401   5.776   0.527   5.760 -0.2021 -0.0963 -0.3009
29263SOL    HW189402   5.710   0.476   5.807 -1.9273  3.4180  1.4993
29263SOL    HW289403   5.843   0.547   5.826 -0.0385  0.7051 -0.6883
29264SOL     OW89404   6.046   8.104   4.148  0.0179  0.3596  0.4557
29264SOL    HW189405   6.009   8.064   4.070  1.0355  2.1148 -1.0136
29264SOL    HW289406   6.060   8.031   4.209  0.2019 -1.2380 -1.4066
29265SOL     OW89407   8.511   2.607   8.021 -0.1822  0.4607  0.5324
29265SOL    HW189408   8.417   2.591   8.009 -0.4146  1.7354  0.5144
29265SOL    HW289409   8.544   2.526   8.061 -1.2975  0.0299  0.6255
29266SOL     OW89410   9.525   0.958   3.543  0.0265 -0.2278  0.5750
29266SOL    HW189411   9.606   0.981   3.588 -0.2488  1.7104  0.1555
29266SOL    HW289412   9.545   0.967   3.450 -0.6551  0.2530  0.4661
29267SOL     OW89413   9.564   2.981   1.131  0.2770 -0.4995  0.5819
29267SOL    HW189414   9.566   2.997   1.037  1.6297 -0.1647  0.6467
29267SOL    HW289415   9.568   2.885   1.139 -1.0331 -0.5874  0.2936
29268SOL     OW89416   5.489   2.469   3.602 -0.1670 -0.1083 -0.2475
29268SOL    HW189417   5.489   2.507   3.690  0.6874  0.9232 -0.6698
29268SOL    HW289418   5.444   2.534   3.548  0.6659 -0.0200 -0.8537
29269SOL     OW89419   1.404   0.998   3.314 -0.0678  0.3893 -0.0815
29269SOL    HW189420   1.312   1.000   3.341 -0.2133  1.0407 -0.6032
29269SOL    HW289421   1.404   0.947   3.233 -0.1650  1.4643 -0.7691
29270SOL     OW89422   5.489   1.592   3.247 -0.1370  0.2992  0.2325
29270SOL    HW189423   5.451   1.543   3.320 -0.5901  0.4157  0.0792
29270SOL    HW289424   5.482   1.684   3.273 -0.5293  0.3542 -0.0664
29271SOL     OW89425   3.945   4.674   7.629  0.6245  0.1029 -0.6387
29271SOL    HW189426   3.910   4.611   7.691  3.5392  0.0755  1.1904
29271SOL    HW289427   3.927   4.636   7.543  0.8723 -2.4482  0.3450
29272SOL     OW89428   8.857   2.476   2.836  0.6727 -0.8479  0.3160
29272SOL    HW189429   8.895   2.433   2.913  1.6871  1.8170  1.4044
29272SOL    HW289430   8.931   2.500   2.782  0.1799 -0.0673 -0.0331
29273SOL     OW89431   9.173   7.961   7.741 -0.0316 -0.3030  0.1119
29273SOL    HW189432   9.222   8.042   7.727  0.7612 -0.7088  0.4644
29273SOL    HW289433   9.092   7.989   7.784 -0.4481  0.4534 -1.1095
29274SOL     OW89434   8.707   1.947   7.927  0.4428  0.1195 -0.0906
29274SOL    HW189435   8.671   1.908   8.007 -1.1747 -0.6354 -1.1299
29274SOL    HW289436   8.729   1.872   7.872 -1.0499  0.6096 -1.4239
29275SOL     OW89437   5.325   5.648   2.976 -0.6338 -0.0532  0.5318
29275SOL    HW189438   5.264   5.681   3.042 -0.3414 -0.8500  1.2230
29275SOL    HW289439   5.317   5.552   2.982 -0.5960 -0.1399 -0.5862
29276SOL     OW89440   5.641   6.270   9.666  0.7410  0.0941 -0.0020
29276SOL    HW189441   5.598   6.275   9.581 -2.4044 -1.5066  1.3204
29276SOL    HW289442   5.734   6.268   9.646  0.1749  0.8036 -3.2954
29277SOL     OW89443   6.961   8.558   6.551 -0.1203 -0.1614 -0.4327
29277SOL    HW189444   6.916   8.540   6.469 -0.1390 -1.0185 -0.2450
29277SOL    HW289445   7.020   8.484   6.563 -0.4611 -0.2861  0.5611
29278SOL     OW89446   5.590   3.333   8.024  0.2356 -0.1364  0.7932
29278SOL    HW189447   5.557   3.284   7.949  2.6450  0.0197 -0.4468
29278SOL    HW289448   5.553   3.421   8.014  2.0735  0.4605 -1.3884
29279SOL     OW89449   2.244   4.939   6.288 -0.1450  0.0387  0.7168
29279SOL    HW189450   2.233   4.897   6.373  1.2010 -1.0248  0.3981
29279SOL    HW289451   2.240   4.866   6.225 -1.1022  0.8033 -0.1425
29280SOL     OW89452   2.254   0.546   4.454 -0.0877  0.2997 -0.2552
29280SOL    HW189453   2.308   0.598   4.514  0.5692 -1.0194  0.3324
29280SOL    HW289454   2.200   0.611   4.409  0.2090  1.4337  0.9412
29281SOL     OW89455   1.609   6.679   0.706  0.3510 -0.3267 -0.4979
29281SOL    HW189456   1.649   6.603   0.747  0.9161  0.4452  0.4205
29281SOL    HW289457   1.566   6.644   0.628 -1.8354 -2.0903  1.3315
29282SOL     OW89458   9.175   4.039   9.684 -0.2052 -0.3163 -0.2261
29282SOL    HW189459   9.182   4.101   9.612 -1.0804  0.3566  0.2456
29282SOL    HW289460   9.265   4.010   9.700  0.3953  1.6569  0.2422
29283SOL     OW89461   7.472   8.934   0.434  0.3493  0.6074 -0.0405
29283SOL    HW189462   7.384   8.948   0.469  0.1445 -0.4704 -0.0840
29283SOL    HW289463   7.488   8.841   0.446  0.8415  0.4802 -1.4839
29284SOL     OW89464   4.531   6.765   0.859 -0.1330 -0.3003  0.6013
29284SOL    HW189465   4.621   6.742   0.885 -0.0536  0.0480  0.6348
29284SOL    HW289466   4.516   6.850   0.899 -0.2181 -0.0194 -0.0238
29285SOL     OW89467   7.930   0.545   9.350 -0.2184  0.2721  0.3577
29285SOL    HW189468   7.936   0.455   9.381 -0.9037 -0.7063 -2.0963
29285SOL    HW289469   7.841   0.572   9.372  0.1743  0.6151  1.6303
29286SOL     OW89470   8.459   5.374   0.999  0.1350  0.2876 -0.0093
29286SOL    HW189471   8.550   5.353   0.976 -0.7303 -2.9904 -0.9391
29286SOL    HW289472   8.409   5.351   0.921 -1.5079  2.4985  0.3166
29287SOL     OW89473   2.937   7.840   3.701  0.3737 -0.5058 -0.7482
29287SOL    HW189474   2.990   7.920   3.703  0.8269 -0.8104  0.0265
29287SOL    HW289475   2.876   7.852   3.628  0.4820  0.5128 -0.6731
29288SOL     OW89476   2.400   8.549   2.517 -0.1724 -0.2709  0.9160
29288SOL    HW189477   2.411   8.629   2.467  0.3493 -1.7181 -1.3995
29288SOL    HW289478   2.489   8.517   2.533 -0.3950 -1.6977 -0.4712
29289SOL     OW89479   7.155   7.411   1.157 -0.2585  0.5114  0.0433
29289SOL    HW189480   7.067   7.449   1.153 -0.8024 -0.6782  0.4038
29289SOL    HW289481   7.183   7.426   1.248 -0.4050  0.2037  0.1397
29290SOL     OW89482   0.223   3.598   8.660  0.6822 -0.0018  0.5460
29290SOL    HW189483   0.274   3.672   8.625 -1.1535  0.7457 -0.7157
29290SOL    HW289484   0.281   3.523   8.651  2.3071  1.1191  1.0840
29291SOL     OW89485   3.077   6.509   7.778 -0.0964 -0.4609  0.2005
29291SOL    HW189486   3.132   6.434   7.801  1.4989  0.7141  0.4130
29291SOL    HW289487   3.058   6.497   7.685  0.8656 -0.6933  0.0230
29292SOL     OW89488   4.518   4.411   2.942  0.0598 -0.0226  0.4424
29292SOL    HW189489   4.580   4.410   2.869  1.5126 -0.8569  1.6150
29292SOL    HW289490   4.444   4.463   2.911  0.4242 -0.7479 -1.7581
29293SOL     OW89491   2.185   2.212   7.848  0.7024  0.2630  0.7160
29293SOL    HW189492   2.233   2.141   7.806 -0.4277  0.0639 -0.2904
29293SOL    HW289493   2.141   2.171   7.922 -1.5031 -0.5853 -0.9557
29294SOL     OW89494   3.764   5.777   9.057 -0.2228  0.3358 -0.2725
29294SOL    HW189495   3.733   5.857   9.100 -0.9288 -0.1225  0.1050
29294SOL    HW289496   3.859   5.780   9.067 -0.1966  1.3665 -0.7024
29295SOL     OW89497   2.042   2.385   3.198  0.2828 -0.2372  0.0381
29295SOL    HW189498   2.052   2.355   3.107 -1.2342  0.5055 -0.3997
29295SOL    HW289499   2.095   2.323   3.249 -1.1972 -2.5160 -1.0280
29296SOL     OW89500   9.587   9.338   1.615  0.4704  0.2054  0.1728
29296SOL    HW189501   9.656   9.331   1.681  1.2138 -0.8803 -0.6792
29296SOL    HW289502   9.539   9.418   1.638  3.8206  2.7717 -0.9082
29297SOL     OW89503   9.083   9.376   2.409 -0.0613 -0.3463  0.0367
29297SOL    HW189504   9.101   9.318   2.483 -3.1707 -1.8448 -0.2042
29297SOL    HW289505   9.042   9.454   2.448 -2.1027 -1.3218 -0.0173
29298SOL     OW89506   9.720   3.703   8.350 -0.4924  0.1397 -0.0781
29298SOL    HW189507   9.724   3.626   8.294  0.0791 -0.2828  0.5181
29298SOL    HW289508   9.809   3.737   8.351 -0.6946  0.6800 -0.1624
29299SOL     OW89509   8.726   2.851   6.913  0.2583  0.2072 -0.4520
29299SOL    HW189510   8.715   2.863   7.007  1.3486 -1.8723 -0.0093
29299SOL    HW289511   8.646   2.809   6.884 -0.7344  2.2051 -0.7970
29300SOL     OW89512   6.172   7.925   7.518  0.1483 -0.3769  0.8069
29300SOL    HW189513   6.265   7.933   7.541  0.1912  2.0744  0.1354
29300SOL    HW289514   6.169   7.854   7.454  1.7267  0.0856  0.1692
29301SOL     OW89515   1.829   2.114   8.623 -0.8416  0.2528 -0.1576
29301SOL    HW189516   1.901   2.082   8.677 -0.5305  0.4309 -0.4593
29301SOL    HW289517   1.861   2.106   8.533 -0.5621  1.8383 -0.2320
29302SOL     OW89518   8.817   6.888   4.391  0.1206  0.2482 -0.1993
29302SOL    HW189519   8.757   6.824   4.430 -2.5285  1.6395 -1.6996
29302SOL    HW289520   8.847   6.941   4.464 -0.9662 -0.1452  0.5543
29303SOL     OW89521   2.388   1.570   9.369 -0.0565  0.4054  0.0545
29303SOL    HW189522   2.414   1.519   9.292 -0.1703 -0.2463  0.4370
29303SOL    HW289523   2.305   1.531   9.396  0.7665 -0.4587  1.4561
29304SOL     OW89524   7.131   0.098   3.705 -0.5019  0.4343 -0.2111
29304SOL    HW189525   7.109   0.127   3.616 -0.9098 -0.9503 -0.5896
29304SOL    HW289526   7.146   0.004   3.696 -0.2330  0.3337  1.1360
29305SOL     OW89527   0.645   7.830   3.416  0.1418 -0.2458 -0.5169
29305SOL    HW189528   0.718   7.775   3.442  0.5938  0.5372 -0.0978
29305SOL    HW289529   0.576   7.811   3.480  0.9880  1.1150  0.8600
29306SOL     OW89530   8.240   2.546   6.372 -0.8211  0.0205 -0.5123
29306SOL    HW189531   8.305   2.611   6.400 -0.1760 -0.1082 -1.6564
29306SOL    HW289532   8.282   2.498   6.301 -0.7742 -2.5677  1.1309
29307SOL     OW89533   4.986   2.959   9.278 -0.7721  0.5797  0.6394
29307SOL    HW189534   4.935   2.928   9.203 -0.7491  0.0268  0.8510
29307SOL    HW289535   4.924   2.966   9.349 -0.5870  0.0686  0.8527
29308SOL     OW89536   3.851   6.635   5.702  0.3803 -0.0028 -0.0279
29308SOL    HW189537   3.807   6.659   5.621 -1.1570 -1.2466  0.3868
29308SOL    HW289538   3.942   6.620   5.676  0.4631  1.9801 -1.0369
29309SOL     OW89539   4.160   7.533   8.463 -0.2362  0.2276  0.2557
29309SOL    HW189540   4.081   7.586   8.473 -0.0870  0.1289  2.8188
29309SOL    HW289541   4.156   7.500   8.374 -2.3814  1.3290 -0.1230
29310SOL     OW89542   0.193   1.825   3.178  0.4247 -0.4918  0.5272
29310SOL    HW189543   0.203   1.919   3.196 -0.5740 -0.3323  0.2929
29310SOL    HW289544   0.219   1.816   3.086 -1.0480 -0.1497  0.0476
29311SOL     OW89545   4.787   5.821   1.454  0.4601  0.3541  0.5868
29311SOL    HW189546   4.817   5.909   1.475 -2.2600  1.8194 -0.9766
29311SOL    HW289547   4.700   5.815   1.494  0.0367 -1.0751 -0.4425
29312SOL     OW89548   6.668   3.971   4.244 -0.0554 -0.4071 -0.2140
29312SOL    HW189549   6.724   3.899   4.273 -2.1386 -1.7617  0.7012
29312SOL    HW289550   6.669   3.965   4.148  1.4127 -0.2912 -0.2328
29313SOL     OW89551   2.189   1.126   8.488 -0.5703 -0.4741  0.0244
29313SOL    HW189552   2.254   1.091   8.427 -1.4978 -2.0919 -0.0761
29313SOL    HW289553   2.121   1.164   8.433 -0.3250  0.1204  0.1153
29314SOL     OW89554   9.345   4.573   3.180 -0.2980 -0.1791  0.2594
29314SOL    HW189555   9.272   4.566   3.118 -1.0606 -2.0365  1.2935
29314SOL    HW289556   9.354   4.485   3.216  0.1609  0.8272  2.7710
29315SOL     OW89557   2.476   0.613   0.747 -0.7671  0.1438  0.1205
29315SOL    HW189558   2.493   0.552   0.819 -1.8280 -1.3086 -0.7911
29315SOL    HW289559   2.395   0.581   0.707 -0.7027  1.4504 -1.1589
29316SOL     OW89560   1.068   5.492   3.360 -0.1432  0.4293 -0.0468
29316SOL    HW189561   1.117   5.556   3.411  2.2211  1.3533 -3.1758
29316SOL    HW289562   1.133   5.428   3.333 -1.3652 -0.2599 -1.5092
29317SOL     OW89563   2.418   7.092   3.162 -0.1595 -0.2649 -0.0064
29317SOL    HW189564   2.422   7.188   3.163 -0.8694 -0.2239 -0.2548
29317SOL    HW289565   2.404   7.070   3.070 -0.6319 -0.5712  0.1329
29318SOL     OW89566   5.142   0.169   4.448  0.1617  0.0300  0.3842
29318SOL    HW189567   5.084   0.236   4.484 -0.5157 -0.8173  0.9088
29318SOL    HW289568   5.091   0.088   4.453  1.1693 -0.6277  0.2888
29319SOL     OW89569   1.597   9.818   5.264  0.0909 -0.6285  0.0823
29319SOL    HW189570   1.506   9.788   5.272 -0.6669  1.8367  3.0303
29319SOL    HW289571   1.628   9.782   5.181 -2.8797 -3.2876 -0.0524
29320SOL     OW89572   8.006   3.165   6.274 -0.7042  0.5028  0.3655
29320SOL    HW189573   7.928   3.129   6.233 -0.8806 -0.2609  1.3473
29320SOL    HW289574   8.079   3.123   6.228 -0.8763  0.7075 -0.0969
29321SOL     OW89575   4.585   1.164   2.173 -0.0358  0.3327 -0.4784
29321SOL    HW189576   4.515   1.101   2.191 -0.7727  1.1481 -0.4287
29321SOL    HW289577   4.607   1.201   2.259  1.3973 -0.8636 -0.2955
29322SOL     OW89578   8.262   8.446   6.438  0.0341 -0.0163  0.0520
29322SOL    HW189579   8.309   8.492   6.369 -0.6103  1.3077  0.4484
29322SOL    HW289580   8.171   8.446   6.408 -0.2389  0.5124  0.8448
29323SOL     OW89581   6.487   5.783   0.444  0.2470  0.0756 -0.2125
29323SOL    HW189582   6.421   5.847   0.418  1.1706  0.8884 -0.6126
29323SOL    HW289583   6.438   5.717   0.492 -0.6028  1.5472  1.0303
29324SOL     OW89584   5.550   1.884   2.909 -0.1526  0.1089 -0.0661
29324SOL    HW189585   5.589   1.959   2.864 -0.7724  0.9127  0.6903
29324SOL    HW289586   5.484   1.851   2.848 -0.4859  0.7352 -0.0498
29325SOL     OW89587   4.352   7.881   3.171 -0.6174 -0.4808 -0.2736
29325SOL    HW189588   4.396   7.906   3.252  0.6962 -1.0686 -0.7836
29325SOL    HW289589   4.309   7.962   3.142  2.7952  1.1254 -1.4117
29326SOL     OW89590   2.915   1.642   1.698 -0.3344  0.2974 -0.5169
29326SOL    HW189591   2.863   1.594   1.762 -1.3342 -0.1933 -1.6476
29326SOL    HW289592   2.939   1.576   1.632  2.7466  0.2338  0.5098
29327SOL     OW89593   2.713   0.956   4.139  0.1284  0.4426 -1.1217
29327SOL    HW189594   2.804   0.930   4.152 -0.1234 -0.6278 -1.4140
29327SOL    HW289595   2.674   0.884   4.089 -0.8312  0.9749 -1.1707
29328SOL     OW89596   8.162   2.204   0.813 -0.0265  0.0686 -0.3804
29328SOL    HW189597   8.067   2.192   0.811  0.1543 -2.3084  1.2805
29328SOL    HW289598   8.183   2.215   0.906  1.3640  0.3946 -0.7061
29329SOL     OW89599   3.649   5.235   7.979 -0.4333 -0.1319  0.4671
29329SOL    HW189600   3.698   5.221   8.060  0.0570 -0.1813  0.1703
29329SOL    HW289601   3.712   5.216   7.910 -0.6581  0.5514  0.0689
29330SOL     OW89602   8.823   1.898   9.148  0.4781  0.2200 -0.2572
29330SOL    HW189603   8.803   1.867   9.060  2.0382  0.2704 -0.6502
29330SOL    HW289604   8.788   1.831   9.206  0.7223 -0.5223 -0.9603
29331SOL     OW89605   4.786   9.193   8.189  0.3112  0.3297 -0.3237
29331SOL    HW189606   4.856   9.189   8.124  2.5088  2.1540  1.7227
29331SOL    HW289607   4.764   9.102   8.206  1.7424 -0.2908 -1.5412
29332SOL     OW89608   5.067   1.613   9.574  0.3051 -0.2503 -0.0180
29332SOL    HW189609   5.111   1.550   9.517 -1.3954 -2.4735  0.9369
29332SOL    HW289610   5.085   1.582   9.663  2.2991  2.7108  0.7687
29333SOL     OW89611   9.459   2.799   3.473 -0.5064 -0.4689  0.1230
29333SOL    HW189612   9.515   2.727   3.505 -1.0939 -2.3011 -2.5977
29333SOL    HW289613   9.395   2.812   3.543 -0.8126 -3.1343  0.4718
29334SOL     OW89614   8.546   0.272   5.197 -0.0063 -0.3384  0.1596
29334SOL    HW189615   8.472   0.256   5.255  1.7473 -0.2557  2.5716
29334SOL    HW289616   8.583   0.354   5.228 -0.4448  1.1004 -2.7957
29335SOL     OW89617   1.074   3.436   6.440  0.0578 -0.2036  0.3708
29335SOL    HW189618   1.123   3.465   6.517 -0.1564  1.6317 -0.1225
29335SOL    HW289619   1.123   3.361   6.407  0.3620 -0.7927  2.0597
29336SOL     OW89620   5.009   2.428   5.653 -0.7950 -0.0465  0.4273
29336SOL    HW189621   5.105   2.423   5.647 -0.6245  1.9450  0.7828
29336SOL    HW289622   4.992   2.464   5.740 -1.7482  1.4197 -0.3179
29337SOL     OW89623   0.210   6.798   0.680  0.0199 -0.2121 -0.3507
29337SOL    HW189624   0.143   6.768   0.620 -0.0609 -1.5090  0.3556
29337SOL    HW289625   0.250   6.718   0.714  2.7476  0.4942 -1.6027
29338SOL     OW89626   1.413   6.216   4.715 -0.0871  0.3818  0.3446
29338SOL    HW189627   1.465   6.287   4.677  0.2041  1.2980  2.3719
29338SOL    HW289628   1.445   6.137   4.670  1.4793  1.1979 -0.0511
29339SOL     OW89629   6.904   7.997   8.096  0.0492  0.3032  0.4451
29339SOL    HW189630   6.908   8.059   8.023 -0.1763 -1.2385 -0.9334
29339SOL    HW289631   6.964   8.033   8.161  0.5462  1.5409 -0.6455
29340SOL     OW89632   0.538   5.542   3.189  0.4124  0.6775  0.8780
29340SOL    HW189633   0.601   5.560   3.119 -0.9378 -0.2569 -0.6428
29340SOL    HW289634   0.549   5.448   3.207  0.5819  0.8594  1.7652
29341SOL     OW89635   7.413   6.472   8.358  0.0474  0.2386  0.1133
29341SOL    HW189636   7.440   6.554   8.401  0.4206 -0.5553  1.4507
29341SOL    HW289637   7.365   6.424   8.426  0.8716 -1.1801 -0.2755
29342SOL     OW89638   0.897   7.561   1.881 -0.8860  0.1140  0.4444
29342SOL    HW189639   0.968   7.519   1.929  0.3668  0.3260 -1.1240
29342SOL    HW289640   0.869   7.494   1.818 -1.7984  0.1919  0.7545
29343SOL     OW89641   6.373   7.827   6.106 -0.6156  0.1784  0.0889
29343SOL    HW189642   6.389   7.886   6.179  0.8195  0.0320 -0.0750
29343SOL    HW289643   6.460   7.794   6.082 -1.1488 -0.3979 -1.1567
29344SOL     OW89644   7.356   5.060   7.507 -0.3428  0.3597 -0.5112
29344SOL    HW189645   7.344   5.051   7.602  0.3138 -0.8487 -0.5268
29344SOL    HW289646   7.269   5.083   7.475 -1.1240 -1.4749  0.1458
29345SOL     OW89647   6.712   4.137   7.012 -0.8191 -0.4480 -0.0012
29345SOL    HW189648   6.791   4.169   6.969 -0.6048 -0.5686  0.3003
29345SOL    HW289649   6.641   4.187   6.972 -0.4699  0.5698  0.6208
29346SOL     OW89650   8.994   2.938   8.457 -0.5325  0.3447  0.2759
29346SOL    HW189651   9.050   2.863   8.436 -0.0072  0.5580  0.8770
29346SOL    HW289652   8.969   2.923   8.548 -0.5385  0.8288  0.3564
29347SOL     OW89653   2.118   7.640   1.895  0.2654 -0.0885  0.0139
29347SOL    HW189654   2.077   7.560   1.926  1.8376  0.0784  2.8088
29347SOL    HW289655   2.055   7.709   1.916  0.9427 -0.0838  2.2259
29348SOL     OW89656   4.518   1.316   4.801 -0.0717  0.1614  0.0906
29348SOL    HW189657   4.508   1.404   4.837  0.5625  0.0168  0.6297
29348SOL    HW289658   4.566   1.329   4.719 -0.3822  0.3623 -0.0617
29349SOL     OW89659   7.943   7.267   9.022  0.4776  0.5622 -0.1462
29349SOL    HW189660   7.886   7.199   9.059 -2.5222  2.1341 -1.5771
29349SOL    HW289661   7.950   7.244   8.929 -0.1349  1.9097 -0.5363
29350SOL     OW89662   3.882   2.820   9.159 -0.4307 -0.1815 -0.0360
29350SOL    HW189663   3.911   2.750   9.217  0.3502  0.5189  0.4381
29350SOL    HW289664   3.796   2.791   9.127 -1.3482 -0.1596  2.2292
29351SOL     OW89665   0.741   1.364   3.793  0.2130 -0.3287  0.2547
29351SOL    HW189666   0.835   1.381   3.789 -0.0459  1.7500  1.3971
29351SOL    HW289667   0.733   1.285   3.847  1.2521  2.0199  4.2794
29352SOL     OW89668   1.270   7.892   2.441  0.3809  0.1513  0.0623
29352SOL    HW189669   1.310   7.868   2.524  0.5871  0.8830  0.1773
29352SOL    HW289670   1.199   7.952   2.464  0.7660  0.7684 -0.3194
29353SOL     OW89671   8.237   0.192   8.083 -0.1674 -0.2180  0.3093
29353SOL    HW189672   8.148   0.157   8.084  0.2092 -1.2368 -0.1304
29353SOL    HW289673   8.264   0.192   8.175 -0.7202  0.3827  0.4770
29354SOL     OW89674   1.961   5.619   1.835 -0.7576  0.0878 -0.1930
29354SOL    HW189675   1.928   5.650   1.919  0.2288 -0.8103  0.5548
29354SOL    HW289676   1.909   5.666   1.770 -2.3961 -0.1256  0.9062
29355SOL     OW89677   0.420   5.185   0.032 -0.1547  0.1314 -0.2785
29355SOL    HW189678   0.475   5.255   0.068  0.0463 -0.0078 -0.3105
29355SOL    HW289679   0.480   5.111   0.020 -0.9493 -1.2148  2.9326
29356SOL     OW89680   0.729   8.479   6.747  0.2042 -0.6099 -0.2623
29356SOL    HW189681   0.803   8.420   6.732  0.6658 -0.3937  1.0526
29356SOL    HW289682   0.660   8.422   6.780 -0.2117 -0.7989 -1.4117
29357SOL     OW89683   7.967   4.234   1.275  0.2758  0.4964  0.2864
29357SOL    HW189684   8.043   4.291   1.287  0.1630  0.8205 -0.4829
29357SOL    HW289685   7.905   4.287   1.224  0.5317 -0.6120 -1.2386
29358SOL     OW89686   8.011   7.290   7.893 -0.0588 -0.0957  0.4863
29358SOL    HW189687   8.039   7.231   7.824 -0.0894  0.6381 -0.1669
29358SOL    HW289688   7.936   7.337   7.857  0.2151  0.6346  0.8276
29359SOL     OW89689   2.340   4.836   9.543  0.2022  0.3821 -0.2205
29359SOL    HW189690   2.386   4.823   9.626 -0.6637  1.7288  0.5026
29359SOL    HW289691   2.389   4.783   9.480  1.2453 -0.1784  1.0175
29360SOL     OW89692   7.998   4.419   9.548  0.3480 -0.0462 -0.0604
29360SOL    HW189693   7.913   4.447   9.582  0.3404  0.5262 -0.5157
29360SOL    HW289694   7.980   4.339   9.499  0.0680  0.0607 -0.1349
29361SOL     OW89695   7.582   8.163   0.467  0.8383 -0.2764 -0.7529
29361SOL    HW189696   7.656   8.123   0.513  0.3193 -0.5013 -0.0967
29361SOL    HW289697   7.528   8.088   0.441 -0.0924 -0.0292  0.3942
29362SOL     OW89698   5.528   4.962   2.006 -0.3337  0.0800  0.2096
29362SOL    HW189699   5.491   4.935   2.090 -2.4861  0.5462 -0.5260
29362SOL    HW289700   5.466   4.931   1.941 -1.3487  3.8865 -0.8985
29363SOL     OW89701   3.798   1.195   4.533 -0.7713 -0.3542  0.1955
29363SOL    HW189702   3.872   1.135   4.542 -1.0529 -0.6784  0.4141
29363SOL    HW289703   3.749   1.185   4.615 -1.3065 -0.4926 -0.1295
29364SOL     OW89704   8.566   3.531   2.158  0.3318  0.4791  0.4310
29364SOL    HW189705   8.587   3.585   2.233  2.9274  1.5496 -0.9289
29364SOL    HW289706   8.493   3.575   2.115 -0.0036  0.8214  1.3397
29365SOL     OW89707   0.179   3.695   4.498  0.4178  0.1803 -0.1625
29365SOL    HW189708   0.109   3.635   4.523  0.4098  0.5772  0.8146
29365SOL    HW289709   0.211   3.661   4.415  0.2478 -1.0321  0.2463
29366SOL     OW89710   5.492   8.698   1.943 -0.3649 -0.4472  0.2679
29366SOL    HW189711   5.469   8.699   1.850  1.1508  0.3313 -0.1189
29366SOL    HW289712   5.494   8.790   1.968 -2.1593 -0.6769  1.4826
29367SOL     OW89713   6.630   6.682   1.152  0.4011  0.2280 -0.1049
29367SOL    HW189714   6.638   6.648   1.062  2.5963  2.5823 -0.9372
29367SOL    HW289715   6.673   6.617   1.206  0.8558 -0.2878 -1.0617
29368SOL     OW89716   1.605   7.423   8.536 -0.1437  0.2097 -0.0841
29368SOL    HW189717   1.556   7.473   8.601 -1.1389  0.5011 -1.0428
29368SOL    HW289718   1.675   7.482   8.509 -0.6185  0.6513 -0.3632
29369SOL     OW89719   5.555   0.126   2.608  0.4715  0.1274 -0.3439
29369SOL    HW189720   5.649   0.109   2.616  1.1717  2.7703 -1.8297
29369SOL    HW289721   5.547   0.221   2.616 -1.8395  0.1551 -2.0000
29370SOL     OW89722   6.261   2.339   8.716 -0.5454  0.1053  0.0044
29370SOL    HW189723   6.199   2.267   8.712  0.8072 -1.2152  1.1938
29370SOL    HW289724   6.331   2.314   8.655 -1.6005  2.1141 -2.2120
29371SOL     OW89725   0.477   9.704   9.493  0.1587 -0.3442  0.4387
29371SOL    HW189726   0.441   9.787   9.523  2.2752  1.4268 -1.5492
29371SOL    HW289727   0.530   9.673   9.567 -2.0208 -0.8923  1.8381
29372SOL     OW89728   3.371   6.490   6.145  0.1849 -0.1630 -0.1485
29372SOL    HW189729   3.320   6.437   6.083 -0.0398 -1.3338  0.9919
29372SOL    HW289730   3.448   6.437   6.164  0.0431 -0.0050  0.8903
29373SOL     OW89731   6.878   5.622   1.826 -0.3576  0.1004 -0.3276
29373SOL    HW189732   6.808   5.600   1.765 -0.2351  0.1315 -0.4792
29373SOL    HW289733   6.902   5.539   1.867 -1.0311  0.2102  0.3093
29374SOL     OW89734   4.085   9.794   8.884 -0.5747 -0.2533 -0.2265
29374SOL    HW189735   4.020   9.800   8.954  0.5270  1.6955  0.6935
29374SOL    HW289736   4.143   9.723   8.912 -0.0689  0.5996  0.9210
29375SOL     OW89737   3.426   3.212   4.322 -0.0408 -0.1682 -0.4678
29375SOL    HW189738   3.456   3.233   4.233 -0.0127  4.0085  0.3011
29375SOL    HW289739   3.330   3.207   4.314  0.0683 -1.6363 -0.9962
29376SOL     OW89740   5.297   7.933   6.163  0.0674  0.0107 -0.4171
29376SOL    HW189741   5.211   7.958   6.197  0.2821 -0.1844  0.2678
29376SOL    HW289742   5.281   7.917   6.070 -0.4832  0.7370 -0.4612
29377SOL     OW89743   0.995   6.626   5.607 -0.1625  0.0502 -0.2942
29377SOL    HW189744   0.910   6.584   5.611 -1.0435  1.7098 -0.7099
29377SOL    HW289745   1.039   6.585   5.532 -0.6953 -0.5975 -0.2586
29378SOL     OW89746   3.862   8.989   3.508 -0.7856 -0.1255 -0.0522
29378SOL    HW189747   3.780   8.967   3.464 -0.8911  2.2547 -1.1807
29378SOL    HW289748   3.862   9.085   3.512  3.4193  0.2749 -3.1076
29379SOL     OW89749   7.952   6.507   1.639 -0.0265  0.1279 -0.6415
29379SOL    HW189750   8.037   6.516   1.682  0.8976 -0.1529 -2.3055
29379SOL    HW289751   7.949   6.416   1.610 -1.3907 -0.1638  0.3131
29380SOL     OW89752   4.210   0.755   8.236  0.6674 -0.0251 -0.1069
29380SOL    HW189753   4.168   0.675   8.266  1.1212 -1.3360 -2.6841
29380SOL    HW289754   4.296   0.754   8.277 -0.1495  0.4268  1.7361
29381SOL     OW89755   3.322   3.684   2.668  0.6238 -0.2238 -0.3912
29381SOL    HW189756   3.239   3.728   2.688  1.6936  1.2970  0.9751
29381SOL    HW289757   3.331   3.695   2.573  0.0049  1.0073 -0.3361
29382SOL     OW89758   1.755   0.070   8.152  0.1204  0.1167  0.2227
29382SOL    HW189759   1.788   0.013   8.221  2.7565  2.0177  0.6751
29382SOL    HW289760   1.833   0.096   8.103 -1.1851  2.0051 -0.9992
29383SOL     OW89761   7.858   3.048   3.305  0.7673 -0.2216  0.3137
29383SOL    HW189762   7.856   3.006   3.391  2.5522 -1.2584 -0.0853
29383SOL    HW289763   7.941   3.097   3.304  0.4321  0.3609 -0.5609
29384SOL     OW89764   8.009   0.948   1.620  0.0563 -0.2798  0.0948
29384SOL    HW189765   8.000   0.926   1.713  0.6262  0.2264  0.2763
29384SOL    HW289766   7.987   1.041   1.615  0.8392 -0.0938 -0.1288
29385SOL     OW89767   5.222   7.199   9.630 -0.0497 -0.4068 -0.5630
29385SOL    HW189768   5.257   7.247   9.555  1.8638  0.0809  0.5704
29385SOL    HW289769   5.198   7.113   9.595  2.9101 -1.0064 -1.3911
29386SOL     OW89770   9.251   9.594   1.326  0.1651  0.7238  0.6905
29386SOL    HW189771   9.206   9.551   1.398  1.8018 -0.8696  0.8298
29386SOL    HW289772   9.263   9.526   1.260  3.0737  0.7717  1.0317
29387SOL     OW89773   8.733   0.435   2.866 -0.3794 -0.2476  0.2756
29387SOL    HW189774   8.774   0.352   2.844 -0.1384  0.1327 -0.7992
29387SOL    HW289775   8.783   0.468   2.941 -0.0523 -0.7591  0.2847
29388SOL     OW89776   2.963   8.705   5.152 -0.3346 -0.3318 -0.4082
29388SOL    HW189777   2.953   8.718   5.246 -0.2108 -0.2769 -0.4029
29388SOL    HW289778   3.043   8.654   5.143 -0.8220 -1.1102 -0.4286
29389SOL     OW89779   7.089   0.225   8.217  0.0902  0.4485  0.2939
29389SOL    HW189780   7.120   0.241   8.127  1.1319 -0.7172  0.4190
29389SOL    HW289781   7.025   0.154   8.207  1.5057 -0.9277  0.6362
29390SOL     OW89782   4.184   0.823   0.634 -0.1559 -0.1686  0.0231
29390SOL    HW189783   4.205   0.890   0.569 -1.0867  0.6265  0.5251
29390SOL    HW289784   4.232   0.745   0.604 -1.5061 -0.1904 -2.3216
29391SOL     OW89785   1.202   6.941   9.348  0.4757 -0.4907 -0.3368
29391SOL    HW189786   1.274   6.999   9.320  0.1357  0.6254  0.9705
29391SOL    HW289787   1.246   6.859   9.370  1.1393 -0.3581 -1.1022
29392SOL     OW89788   1.675   4.070   2.541 -0.6266 -0.4312  0.4779
29392SOL    HW189789   1.662   3.999   2.478 -0.4644 -0.6262  0.6632
29392SOL    HW289790   1.737   4.035   2.604  0.8522  0.5056 -0.4006
29393SOL     OW89791   0.192   0.380   6.687  0.1699 -0.3578  0.1676
29393SOL    HW189792   0.171   0.474   6.682 -0.1425 -0.3292  1.6835
29393SOL    HW289793   0.287   0.376   6.675  0.1659  0.1269 -0.0680
29394SOL     OW89794   8.578   3.984   1.971  0.0281 -0.0331  0.3502
29394SOL    HW189795   8.659   4.034   1.982 -0.6249  0.7514  2.0454
29394SOL    HW289796   8.559   3.988   1.878  0.8745  1.5088  0.2166
29395SOL     OW89797   8.618   1.940   5.929 -0.3796  0.4202  0.0868
29395SOL    HW189798   8.523   1.939   5.918 -0.4260 -1.2055  0.3434
29395SOL    HW289799   8.636   2.021   5.977 -1.6816  0.5147  0.4478
29396SOL     OW89800   4.672   8.637   0.547  0.3599 -0.0720  0.0088
29396SOL    HW189801   4.699   8.692   0.621 -0.4899  0.3529  0.0087
29396SOL    HW289802   4.601   8.583   0.582  1.5754 -1.6386  0.1871
29397SOL     OW89803   8.824   5.909   9.794 -0.5300  0.0025 -0.1750
29397SOL    HW189804   8.747   5.894   9.739 -2.4599  1.9446  1.8008
29397SOL    HW289805   8.789   5.917   9.882  2.0693  0.1788  0.9219
29398SOL     OW89806   3.913   2.874   2.456  0.4769  0.3663  0.3666
29398SOL    HW189807   3.876   2.822   2.527 -1.5222  3.0078  1.4116
29398SOL    HW289808   4.006   2.850   2.454 -0.5330 -4.4331 -0.4498
29399SOL     OW89809   4.247   5.164   2.580  0.3117  0.2301  0.3182
29399SOL    HW189810   4.300   5.118   2.515  0.2816 -2.4290  2.0275
29399SOL    HW289811   4.182   5.211   2.529  1.3867 -0.3132 -1.6403
29400SOL     OW89812   5.604   1.329   1.805 -0.1074 -0.4684 -0.1273
29400SOL    HW189813   5.695   1.358   1.797 -0.5080  1.1712  0.7967
29400SOL    HW289814   5.599   1.292   1.893 -0.5121  0.2066  0.1411
29401SOL     OW89815   1.232   5.207   8.637 -0.0492 -0.1704 -0.1277
29401SOL    HW189816   1.299   5.138   8.634 -0.9799 -1.3658  2.9285
29401SOL    HW289817   1.149   5.161   8.625 -0.5401  0.9955 -1.6128
29402SOL     OW89818   3.787   1.363   5.197 -0.4114  0.0650 -0.0816
29402SOL    HW189819   3.776   1.425   5.125 -1.2085  1.0724  0.8632
29402SOL    HW289820   3.704   1.316   5.201 -0.0882 -0.5305 -0.3064
29403SOL     OW89821   3.891   5.246   0.103  0.1554  0.1270 -0.4116
29403SOL    HW189822   3.965   5.292   0.064  0.1405 -0.0094 -0.6051
29403SOL    HW289823   3.923   5.157   0.120 -0.0187  0.0103 -0.6752
29404SOL     OW89824   2.970   7.539   9.812 -0.0949  0.1096  0.5461
29404SOL    HW189825   2.968   7.594   9.891 -0.5346 -0.5023  0.9677
29404SOL    HW289826   3.063   7.521   9.799  0.0003  0.3967  0.7986
29405SOL     OW89827   8.098   3.203   3.255  0.5616  0.1292 -0.0728
29405SOL    HW189828   8.126   3.141   3.188 -2.9896 -0.5877 -1.0833
29405SOL    HW289829   8.135   3.287   3.227  0.0264 -0.3506 -2.4179
29406SOL     OW89830   7.207   1.886   7.209  0.6460 -0.1531 -0.0549
29406SOL    HW189831   7.201   1.803   7.256  0.4557 -1.0094 -1.5417
29406SOL    HW289832   7.301   1.900   7.195  0.6787 -0.0971  0.2136
29407SOL     OW89833   0.822   0.421   4.935 -0.0614 -0.1581  0.1297
29407SOL    HW189834   0.879   0.360   4.981 -1.0358 -1.1611  0.0497
29407SOL    HW289835   0.741   0.421   4.985 -0.4230  0.2856 -0.4419
29408SOL     OW89836   3.892   2.214   3.947 -0.1408  0.4038  0.0027
29408SOL    HW189837   3.872   2.246   4.035 -0.6191 -0.0525  0.0659
29408SOL    HW289838   3.961   2.149   3.959  0.4762  1.0303 -0.0714
29409SOL     OW89839   8.477   7.346   9.300  0.2758 -0.0932  0.6070
29409SOL    HW189840   8.412   7.276   9.288 -1.0554  1.1443  0.3706
29409SOL    HW289841   8.534   7.338   9.223 -0.3463 -0.4227  0.1698
29410SOL     OW89842   0.496   8.768   6.131 -0.1148  0.4935 -0.5093
29410SOL    HW189843   0.545   8.781   6.212 -1.2669  3.5120 -0.1656
29410SOL    HW289844   0.404   8.780   6.156 -0.4694  1.9896 -2.2706
29411SOL     OW89845   6.789   8.631   3.305  0.7169  0.1404 -0.8315
29411SOL    HW189846   6.812   8.568   3.373 -1.5402  0.1581  0.0245
29411SOL    HW289847   6.814   8.589   3.223  0.4742 -1.2904 -0.1933
29412SOL     OW89848   5.653   9.627   2.863  0.0458  0.9697  0.1464
29412SOL    HW189849   5.599   9.666   2.794  0.4545  1.0376 -0.1421
29412SOL    HW289850   5.707   9.699   2.895  0.3003  0.7984  0.1042
29413SOL     OW89851   1.752   4.420   1.829 -0.4490 -0.3201 -0.5014
29413SOL    HW189852   1.842   4.402   1.858 -0.4810 -0.1637 -0.3053
29413SOL    HW289853   1.703   4.435   1.909 -0.3664  0.8962 -0.6665
29414SOL     OW89854   5.739   3.475   8.472 -0.1821 -0.7890 -0.2544
29414SOL    HW189855   5.772   3.450   8.559  0.9022 -1.8313 -0.9379
29414SOL    HW289856   5.812   3.523   8.432  0.1046 -2.0943 -1.3549
29415SOL     OW89857   5.290   4.131   2.779 -0.3095 -0.5944 -0.2745
29415SOL    HW189858   5.318   4.218   2.805  0.2551 -0.6327 -0.7429
29415SOL    HW289859   5.293   4.079   2.860  0.2383 -0.4083 -0.1775
29416SOL     OW89860   8.370   2.195   0.629 -0.1071  0.2643 -0.1024
29416SOL    HW189861   8.327   2.214   0.546  1.4539  1.3161 -0.7229
29416SOL    HW289862   8.299   2.191   0.693 -1.5280 -2.1337 -1.6842
29417SOL     OW89863   9.834   7.482   1.299  0.4138 -0.4603  0.2658
29417SOL    HW189864   9.865   7.419   1.234 -0.1787  0.3331 -0.8278
29417SOL    HW289865   9.753   7.516   1.262 -0.2085 -0.3386  1.6691
29418SOL     OW89866   2.482   4.447   8.375  0.4391  0.1743  0.2947
29418SOL    HW189867   2.460   4.431   8.283 -0.4477 -2.0483  0.8143
29418SOL    HW289868   2.574   4.422   8.382  0.3527 -0.2124  0.1088
29419SOL     OW89869   4.223   1.012   2.878  0.4300  0.1494  0.2167
29419SOL    HW189870   4.176   1.031   2.960  1.9260 -0.1771  1.1766
29419SOL    HW289871   4.314   1.033   2.897  0.8236 -0.0620 -1.3393
29420SOL     OW89872   9.356   3.694   4.426 -0.4692 -0.6234 -0.6292
29420SOL    HW189873   9.376   3.639   4.502  1.0956 -0.5684 -0.9591
29420SOL    HW289874   9.263   3.715   4.435 -0.6960 -1.9289  0.4016
29421SOL     OW89875   6.002   6.936   9.765 -0.0418  0.5509  0.2444
29421SOL    HW189876   6.068   6.889   9.815  0.8876  0.6677 -0.8351
29421SOL    HW289877   5.919   6.906   9.801  0.5614 -0.7137  0.6398
29422SOL     OW89878   3.614   5.288   7.108 -0.4352  0.3393 -0.1084
29422SOL    HW189879   3.609   5.306   7.202 -0.5207 -0.9698  0.1545
29422SOL    HW289880   3.613   5.375   7.067 -0.0823  0.9408  1.1061
29423SOL     OW89881   7.378   7.622   1.708  0.0413 -0.6890  0.2320
29423SOL    HW189882   7.348   7.664   1.789  0.0061 -1.3463  0.5629
29423SOL    HW289883   7.411   7.695   1.654 -0.4512 -0.1827  0.6064
29424SOL     OW89884   5.998   9.063   5.455 -0.2495  0.4480  0.1230
29424SOL    HW189885   6.028   9.077   5.365 -0.7108 -0.3499 -0.1606
29424SOL    HW289886   5.910   9.027   5.445 -0.3825  0.5519  0.9028
29425SOL     OW89887   1.598   7.321   4.237  0.6206  0.3411  0.5238
29425SOL    HW189888   1.685   7.284   4.245  0.5131 -1.1926 -3.2410
29425SOL    HW289889   1.606   7.388   4.169 -1.1555  0.0587 -0.0294
29426SOL     OW89890   1.004   8.488   0.129  0.1098 -0.3888 -0.5994
29426SOL    HW189891   0.908   8.479   0.129 -0.4469  3.7536 -1.6872
29426SOL    HW289892   1.025   8.513   0.219  0.1609 -0.9698 -0.4443
29427SOL     OW89893   6.476   8.600   4.714 -0.6812 -0.8678 -0.1336
29427SOL    HW189894   6.480   8.651   4.633 -2.2194  0.1723  0.3943
29427SOL    HW289895   6.482   8.509   4.686  2.0532 -0.4751 -1.1169
29428SOL     OW89896   5.600   3.832   9.267 -0.2592  0.1193  0.6987
29428SOL    HW189897   5.515   3.826   9.310 -0.5902 -1.9372 -0.1312
29428SOL    HW289898   5.652   3.762   9.307  0.7749  0.7935  0.5765
29429SOL     OW89899   8.401   5.786   1.041  0.1201 -0.2390 -0.0902
29429SOL    HW189900   8.330   5.722   1.047  0.0560 -0.2975 -1.3630
29429SOL    HW289901   8.360   5.863   1.003  0.1958  0.5948  1.4313
29430SOL     OW89902   4.704   1.607   5.797  0.0502  0.1539 -0.4538
29430SOL    HW189903   4.759   1.588   5.722  0.0065  0.4977 -0.5708
29430SOL    HW289904   4.623   1.558   5.781  0.5448 -0.8687  0.0200
29431SOL     OW89905   2.832   9.066   0.091 -0.1639 -0.7209 -0.0475
29431SOL    HW189906   2.755   9.045   0.145  0.0897  0.2849  0.7340
29431SOL    HW289907   2.903   9.016   0.131  0.0410  0.0869  0.6292
29432SOL     OW89908   4.114   5.023   7.948 -0.7229  0.1429 -0.3795
29432SOL    HW189909   4.112   4.955   7.881 -0.5660  0.4798 -0.7305
29432SOL    HW289910   4.190   5.000   8.002 -0.1169  0.5406 -1.0407
29433SOL     OW89911   3.126   7.060   0.032 -0.2402  0.1280  0.5166
29433SOL    HW189912   3.133   7.071  -0.063 -0.3304  1.4352  0.6404
29433SOL    HW289913   3.214   7.037   0.061 -0.1878 -0.1630  0.1339
29434SOL     OW89914   0.456   6.968   9.518  0.9585 -0.2476 -0.4066
29434SOL    HW189915   0.371   7.010   9.505 -0.0997 -2.1431 -0.0650
29434SOL    HW289916   0.509   7.033   9.564 -0.0182  1.2698 -1.3583
29435SOL     OW89917   7.400   3.138   8.232 -0.2638  0.1787  0.2828
29435SOL    HW189918   7.308   3.163   8.232 -0.3705  0.6313 -4.2232
29435SOL    HW289919   7.444   3.208   8.184  1.7193 -1.8843 -1.1012
29436SOL     OW89920   0.839   1.026   8.431 -0.1704 -0.1513  0.1127
29436SOL    HW189921   0.762   0.970   8.435  0.4145 -1.0111 -0.3805
29436SOL    HW289922   0.838   1.064   8.344  0.0500 -0.3012  0.0423
29437SOL     OW89923   6.759   7.824   2.218 -0.0139 -0.0410 -0.0571
29437SOL    HW189924   6.755   7.841   2.124 -0.3145 -0.5433 -0.1347
29437SOL    HW289925   6.767   7.911   2.257 -1.4824  0.3026 -0.4536
29438SOL     OW89926   8.697   0.548   6.717  0.1768  0.2494  0.2933
29438SOL    HW189927   8.651   0.464   6.724 -1.5525  1.0323 -0.8675
29438SOL    HW289928   8.735   0.547   6.629 -1.8753  1.5755 -0.6836
29439SOL     OW89929   3.359   4.163   7.517 -0.6348 -0.3428 -0.0695
29439SOL    HW189930   3.313   4.152   7.601  1.3699  0.8472  1.2718
29439SOL    HW289931   3.331   4.249   7.486  0.3896  0.2610  0.6108
29440SOL     OW89932   9.837   5.897   2.358  0.2425  0.3286  0.2483
29440SOL    HW189933   9.879   5.827   2.308 -0.6363  1.3642 -2.1057
29440SOL    HW289934   9.764   5.855   2.403 -0.1347 -0.3489 -0.9543
29441SOL     OW89935   1.002   4.800   1.976 -0.2898  0.1991  0.0378
29441SOL    HW189936   0.908   4.781   1.968 -0.0405 -1.1266  0.0815
29441SOL    HW289937   1.033   4.805   1.886 -0.2190 -0.3270  0.0330
29442SOL     OW89938   7.931   9.273   4.312  0.3466  0.3275  0.0638
29442SOL    HW189939   7.994   9.282   4.241  1.7873 -0.5808  1.1807
29442SOL    HW289940   7.851   9.243   4.269  0.2542  2.6687 -1.5394
29443SOL     OW89941   5.804   1.960   1.235  0.3152  0.5074  0.3208
29443SOL    HW189942   5.739   2.001   1.179  0.1626 -0.3206 -0.1365
29443SOL    HW289943   5.775   1.869   1.242  1.6724 -0.0198 -0.3262
29444SOL     OW89944   5.401   3.509   1.343  0.1540  0.5898 -0.0124
29444SOL    HW189945   5.429   3.498   1.434 -1.4176  1.5276  0.6118
29444SOL    HW289946   5.472   3.469   1.292  1.6263  1.0712  1.5515
29445SOL     OW89947   7.578   6.671   5.851  0.2215 -0.7047 -0.2382
29445SOL    HW189948   7.514   6.694   5.784  1.2140  0.8408 -0.6916
29445SOL    HW289949   7.541   6.704   5.933 -0.0347 -0.7579 -0.3327
29446SOL     OW89950   9.281   4.079   5.693  0.8416 -0.0016  0.2659
29446SOL    HW189951   9.236   4.163   5.706 -0.3506 -0.3910 -1.1251
29446SOL    HW289952   9.242   4.021   5.759 -1.0476 -0.4284 -1.1305
29447SOL     OW89953   1.085   2.240   3.870 -0.6129 -0.0441  0.1682
29447SOL    HW189954   1.011   2.270   3.922  0.5392 -1.0230  2.5132
29447SOL    HW289955   1.076   2.144   3.869  0.0752 -0.1140 -0.3948
29448SOL     OW89956   4.591   4.192   0.598 -0.3068  0.5502  0.4800
29448SOL    HW189957   4.595   4.286   0.582  0.9922  0.3296 -0.6141
29448SOL    HW289958   4.675   4.171   0.639  1.8139 -0.9100 -4.0286
29449SOL     OW89959   8.738   6.703   8.497 -0.5636 -0.5990 -0.2950
29449SOL    HW189960   8.747   6.663   8.584  1.6264  1.2037  0.4106
29449SOL    HW289961   8.815   6.673   8.449  0.6955  1.9268 -0.0218
29450SOL     OW89962   5.610   9.202   9.570  0.1564  0.4321  0.1592
29450SOL    HW189963   5.654   9.153   9.501 -0.1116 -0.9104  0.9024
29450SOL    HW289964   5.544   9.254   9.524 -1.5540 -2.0978 -0.4876
29451SOL     OW89965   3.130   7.969   8.845 -0.6038 -0.1883  0.0298
29451SOL    HW189966   3.219   7.938   8.827 -0.5899 -0.3629  0.3796
29451SOL    HW289967   3.138   8.064   8.853 -0.3008 -0.2766  0.8675
29452SOL     OW89968   3.722   5.156   2.403  0.0408  0.2420 -0.3455
29452SOL    HW189969   3.656   5.088   2.413  0.5081 -0.2552 -0.6307
29452SOL    HW289970   3.702   5.198   2.320  0.2873 -0.1349 -0.5973
29453SOL     OW89971   9.306   6.862   5.882 -0.2159 -0.3570 -0.3067
29453SOL    HW189972   9.243   6.793   5.901 -0.2540 -0.0524  0.7447
29453SOL    HW289973   9.370   6.821   5.824 -1.0296 -0.8459 -0.8717
29454SOL     OW89974   1.903   6.398   3.532 -0.0078 -0.2812  0.0880
29454SOL    HW189975   1.845   6.457   3.485 -0.0216 -0.4029 -0.0501
29454SOL    HW289976   1.923   6.443   3.614 -1.6474 -0.9448  0.8935
29455SOL     OW89977   1.382   6.149   3.115  0.3432  0.0565 -0.6432
29455SOL    HW189978   1.342   6.110   3.036  0.4581  0.2744 -0.8082
29455SOL    HW289979   1.309   6.191   3.160 -0.0107 -1.2834  0.1179
29456SOL     OW89980   7.876   1.932   5.210 -0.2153 -0.1848  0.2302
29456SOL    HW189981   7.921   1.859   5.252 -1.7005 -1.5176 -0.3776
29456SOL    HW289982   7.851   1.898   5.123  0.3162  1.5432 -0.6428
29457SOL     OW89983   2.569   2.386   5.396 -0.5821 -0.5519 -0.8862
29457SOL    HW189984   2.643   2.443   5.415  0.0461 -1.3196 -0.9734
29457SOL    HW289985   2.536   2.361   5.482 -0.3583 -0.6880 -0.8387
29458SOL     OW89986   5.638   0.969   4.556  0.4613 -0.1353 -0.1540
29458SOL    HW189987   5.711   1.026   4.532  2.5942 -2.9434 -0.8454
29458SOL    HW289988   5.652   0.951   4.649  1.1575 -1.2500 -0.4505
29459SOL     OW89989   9.832   3.167   8.749  0.6180  0.0807 -0.1240
29459SOL    HW189990   9.900   3.184   8.814 -0.5995  0.0905  1.2201
29459SOL    HW289991   9.796   3.253   8.729 -0.5592 -0.1176  0.9988
29460SOL     OW89992   5.926   3.493   9.063 -0.2987 -0.0897  0.7103
29460SOL    HW189993   5.844   3.453   9.036  0.4826 -0.9889 -0.4273
29460SOL    HW289994   5.900   3.569   9.115 -1.8259 -1.0682  1.4375
29461SOL     OW89995   3.475   0.590   9.585 -0.8501 -0.1548  0.2300
29461SOL    HW189996   3.458   0.684   9.596  0.8288  0.0906  0.9492
29461SOL    HW289997   3.441   0.550   9.665 -2.7750 -0.3764 -0.6369
29462SOL     OW89998   2.886   8.786   7.881 -0.1241  0.0620 -0.1345
29462SOL    HW189999   2.819   8.721   7.860 -0.0407  0.1481 -0.6760
29462SOL    HW290000   2.966   8.734   7.895  0.2058  0.1089 -1.6564
29463SOL     OW90001   5.380   2.782   7.164 -0.3922 -0.1482 -0.3912
29463SOL    HW190002   5.289   2.786   7.194 -1.1211  1.6448 -2.5567
29463SOL    HW290003   5.373   2.761   7.070  1.3698  0.8176 -0.7847
29464SOL     OW90004   6.400   4.390   3.957 -0.6115 -0.2197 -0.2082
29464SOL    HW190005   6.402   4.353   3.869 -1.5574  0.2994 -0.4654
29464SOL    HW290006   6.492   4.407   3.978 -0.1379 -2.7023 -0.0577
29465SOL     OW90007   0.008   6.803   1.609  0.0504 -0.2900  0.4877
29465SOL    HW190008   0.097   6.819   1.578  0.8900  0.0333  2.8211
29465SOL    HW290009   0.014   6.814   1.704 -2.1757 -1.7059  0.8591
29466SOL     OW90010   3.168   0.421   6.147  0.0350 -0.0613 -0.0434
29466SOL    HW190011   3.076   0.447   6.149 -0.3525 -1.1974 -1.5319
29466SOL    HW290012   3.167   0.330   6.118  1.6802  0.2820 -1.3369
29467SOL     OW90013   0.634   2.282   9.596  0.8295  0.0493  0.1945
29467SOL    HW190014   0.584   2.256   9.518 -0.6944 -0.6736  1.3597
29467SOL    HW290015   0.674   2.201   9.627  1.7590  0.4087 -0.0423
29468SOL     OW90016   8.723   6.341   0.700  0.2439  0.1505  0.0650
29468SOL    HW190017   8.784   6.407   0.732  0.8800 -0.4642  0.1604
29468SOL    HW290018   8.719   6.276   0.770  0.5241 -0.4759 -0.4796
29469SOL     OW90019   7.296   1.752   2.995  0.4153  0.5580 -0.3781
29469SOL    HW190020   7.376   1.796   2.965  1.8116 -1.3809  0.2856
29469SOL    HW290021   7.284   1.679   2.935 -0.9939  0.9102 -0.5633
29470SOL     OW90022   7.698   4.609   2.003 -0.2308  0.0391 -0.4425
29470SOL    HW190023   7.701   4.685   1.945 -1.6918  0.8084  0.4242
29470SOL    HW290024   7.682   4.535   1.945  0.9286  0.4165 -1.2707
29471SOL     OW90025   7.700   5.052   4.487 -0.1589  0.0862 -0.1112
29471SOL    HW190026   7.758   4.992   4.440  1.8705  1.9770 -0.2019
29471SOL    HW290027   7.619   5.051   4.437  0.1655 -1.8055 -0.6553
29472SOL     OW90028   2.764   8.780   6.572  0.0882  0.0961  0.6208
29472SOL    HW190029   2.715   8.856   6.604 -2.3461 -0.2688 -1.9089
29472SOL    HW290030   2.789   8.803   6.483 -0.6301 -1.9765 -0.1788
29473SOL     OW90031   1.032   1.667   2.406  0.0899 -0.0726  0.0270
29473SOL    HW190032   0.939   1.658   2.384 -0.2002 -2.7655  1.9768
29473SOL    HW290033   1.033   1.731   2.477 -0.3927 -0.7238  0.6315
29474SOL     OW90034   8.936   0.829   5.274  0.3083 -0.3288 -0.0788
29474SOL    HW190035   8.988   0.777   5.336 -0.3819  0.1698  0.9604
29474SOL    HW290036   8.999   0.891   5.237  0.4886  0.2630  1.1511
29475SOL     OW90037   8.814   4.117   2.169 -0.1863 -0.0040  0.8680
29475SOL    HW190038   8.882   4.178   2.197  0.2806  0.8158 -1.7444
29475SOL    HW290039   8.812   4.126   2.073 -2.9310 -1.1184  0.7314
29476SOL     OW90040   8.096   0.422   6.711 -0.4529  0.1945 -0.0737
29476SOL    HW190041   8.095   0.330   6.736  0.4256  0.4163  0.8512
29476SOL    HW290042   8.124   0.468   6.790 -2.4950  1.4290  0.0266
29477SOL     OW90043   7.674   8.409   2.702 -0.2371  0.0715  0.1791
29477SOL    HW190044   7.700   8.370   2.618 -1.5672 -0.2706 -0.0901
29477SOL    HW290045   7.744   8.471   2.722  1.3688 -1.6074  0.0575
29478SOL     OW90046   3.268   6.110   9.412 -0.0981 -0.4272  0.1227
29478SOL    HW190047   3.200   6.071   9.467  0.3148  0.6936  1.4749
29478SOL    HW290048   3.220   6.155   9.343 -0.6358 -1.5667 -0.2694
29479SOL     OW90049   5.033   5.981   1.246  0.1594 -0.0432  0.2743
29479SOL    HW190050   5.091   5.939   1.310 -0.4016 -0.4052  0.5636
29479SOL    HW290051   4.977   6.038   1.299  0.1802  0.2224  0.0118
29480SOL     OW90052   7.207   9.059   8.327 -0.2410 -0.1450  0.5804
29480SOL    HW190053   7.131   9.101   8.285 -1.1161 -1.6501  0.5926
29480SOL    HW290054   7.180   8.968   8.339  1.6965 -0.7831  0.3334
29481SOL     OW90055   0.551   4.940   9.788 -0.1996 -0.3709 -0.4127
29481SOL    HW190056   0.564   4.968   9.697 -0.0806  0.0214 -0.2766
29481SOL    HW290057   0.630   4.968   9.834 -0.1037 -0.8827 -0.2583
29482SOL     OW90058   4.226   3.755   3.404  0.0164 -0.3029  0.4781
29482SOL    HW190059   4.200   3.783   3.316 -0.6473  0.5150  0.9200
29482SOL    HW290060   4.294   3.689   3.389 -0.2901 -0.3821 -0.6489
29483SOL     OW90061   9.311   3.511   9.372  0.1027  0.0704 -0.2673
29483SOL    HW190062   9.352   3.576   9.430  1.1047  1.8725 -2.8060
29483SOL    HW290063   9.259   3.563   9.311  0.2471 -1.5958 -1.8839
29484SOL     OW90064   0.290   2.684   8.037 -0.1961 -0.1954 -0.0041
29484SOL    HW190065   0.237   2.635   8.100 -0.5079 -2.1428 -1.6497
29484SOL    HW290066   0.226   2.732   7.984 -0.0547  0.1526  0.1385
29485SOL     OW90067   3.479   9.688   5.303 -0.0340  0.4215  0.1300
29485SOL    HW190068   3.531   9.636   5.365  0.4682  0.8608  0.0875
29485SOL    HW290069   3.541   9.711   5.234  0.0749  2.0300  0.7123
29486SOL     OW90070   0.225   6.411   7.668  0.2656 -0.5092  0.3616
29486SOL    HW190071   0.224   6.506   7.664  0.6900 -0.5208 -0.1242
29486SOL    HW290072   0.257   6.391   7.756  0.5305 -0.1975  0.3391
29487SOL     OW90073   6.442   2.568   6.327 -0.1623 -0.0226 -0.0527
29487SOL    HW190074   6.350   2.585   6.346 -0.6554  0.5521 -2.6346
29487SOL    HW290075   6.453   2.474   6.341  0.1335  0.4394  4.7136
29488SOL     OW90076   9.187   9.353   3.918  0.3459  0.4077  0.0859
29488SOL    HW190077   9.241   9.431   3.926  1.7533 -0.4529 -0.7779
29488SOL    HW290078   9.237   9.284   3.963  0.3618 -0.5728 -1.3662
29489SOL     OW90079   9.158   4.349   5.697 -0.6732 -0.0433  0.5069
29489SOL    HW190080   9.181   4.423   5.641 -2.1368 -0.1871 -0.3471
29489SOL    HW290081   9.163   4.382   5.786  0.9127  0.4220  0.2726
29490SOL     OW90082   0.200   8.385   9.210  0.1712  0.0509 -0.3856
29490SOL    HW190083   0.187   8.337   9.128  0.2053 -0.7439  0.0648
29490SOL    HW290084   0.257   8.459   9.187  0.4307 -0.3452 -1.0100
29491SOL     OW90085   2.074   7.033   2.500  0.2163  0.4701  0.4236
29491SOL    HW190086   2.031   7.074   2.424  0.7734  0.4142  0.0689
29491SOL    HW290087   2.012   6.968   2.531  1.0888 -1.5949 -1.7728
29492SOL     OW90088   1.739   7.386   2.068  0.0224 -0.0028  0.6314
29492SOL    HW190089   1.744   7.450   2.139 -1.4449 -1.2576  1.9470
29492SOL    HW290090   1.677   7.320   2.099 -0.2929 -0.8798 -1.6232
29493SOL     OW90091   8.191   9.773   0.519  0.0699 -0.6200 -0.1585
29493SOL    HW190092   8.286   9.783   0.518  0.1133 -1.0368 -0.7515
29493SOL    HW290093   8.173   9.717   0.596  0.0763  1.4089  1.3947
29494SOL     OW90094   7.892   3.421   9.071 -0.0467  0.0465 -0.2206
29494SOL    HW190095   7.869   3.400   9.162 -0.0473 -1.2572 -0.4973
29494SOL    HW290096   7.974   3.470   9.077  1.4736 -2.4145  0.3747
29495SOL     OW90097   3.284   6.870   0.187  0.6461  0.1385 -0.0729
29495SOL    HW190098   3.205   6.825   0.157  0.7130 -0.1144  0.1302
29495SOL    HW290099   3.276   6.870   0.282 -0.3801  2.3873 -0.0987
29496SOL     OW90100   1.872   2.004   1.340  1.5178 -0.2650 -0.2008
29496SOL    HW190101   1.873   2.043   1.428  0.2977 -0.3476 -0.1293
29496SOL    HW290102   1.877   2.079   1.281  3.0628 -0.2490 -0.0777
29497SOL     OW90103   5.912   7.251   8.146  0.1723  0.4358  0.2874
29497SOL    HW190104   5.914   7.255   8.242 -2.1241  1.9469  0.3503
29497SOL    HW290105   5.841   7.310   8.121  0.0156 -0.7205 -2.3240
29498SOL     OW90106   5.117   3.327   0.648  0.7278 -0.2736 -0.0819
29498SOL    HW190107   5.027   3.296   0.661 -0.0362  1.3803 -1.1839
29498SOL    HW290108   5.163   3.252   0.611 -0.7197 -0.5415 -1.4192
29499SOL     OW90109   0.079   5.425   1.588 -0.2321 -0.3541  0.4230
29499SOL    HW190110  -0.014   5.406   1.586 -0.0316 -1.5097 -2.7974
29499SOL    HW290111   0.121   5.343   1.562  1.4888  0.8877 -0.9158
29500SOL     OW90112   5.984   4.446   5.170 -0.2537 -0.3484 -0.4323
29500SOL    HW190113   6.026   4.397   5.241 -1.3367  1.8082  1.8393
29500SOL    HW290114   5.892   4.418   5.173 -0.6797  1.0511  0.2790
29501SOL     OW90115   7.174   6.922   5.059  0.3613  0.0836  0.9853
29501SOL    HW190116   7.185   6.997   5.118  0.5205 -0.6371  1.8831
29501SOL    HW290117   7.157   6.848   5.116 -0.5237 -0.4467  0.0609
29502SOL     OW90118   2.817   4.302   0.816  0.6003  0.0735 -0.5026
29502SOL    HW190119   2.851   4.213   0.807  1.5072  0.3474  0.0299
29502SOL    HW290120   2.875   4.343   0.881 -1.0119  0.4462  0.7547
29503SOL     OW90121   1.485   0.852   2.090 -0.4804 -0.8609  0.3270
29503SOL    HW190122   1.573   0.834   2.056 -0.8667  0.6775 -1.7330
29503SOL    HW290123   1.500   0.884   2.179  1.0850 -0.4688 -0.0373
29504SOL     OW90124   8.303   6.133   8.095  0.0736 -0.9525 -0.3766
29504SOL    HW190125   8.384   6.169   8.058  0.2412 -0.0197  0.8311
29504SOL    HW290126   8.330   6.050   8.135  0.5119 -0.5178  0.2576
29505SOL     OW90127   4.912   1.603   8.296 -0.2396  0.3156  0.4211
29505SOL    HW190128   4.947   1.566   8.378 -1.1194 -0.4419  0.4763
29505SOL    HW290129   4.853   1.673   8.325  0.0198  0.5408  0.4033
29506SOL     OW90130   8.701   4.888   6.354  0.7846  0.0136 -0.6280
29506SOL    HW190131   8.662   4.830   6.419 -0.3190  1.2330 -0.1625
29506SOL    HW290132   8.795   4.882   6.370  0.5223  0.7148  1.5183
29507SOL     OW90133   4.894   7.924   3.853  0.1597 -0.3580 -0.3228
29507SOL    HW190134   4.901   7.881   3.768  0.2147 -0.3733 -0.3107
29507SOL    HW290135   4.985   7.941   3.879  0.2207 -1.4612  0.2935
29508SOL     OW90136   9.153   0.763   5.439  0.8549 -0.6319  0.1714
29508SOL    HW190137   9.158   0.859   5.436 -2.2435 -0.2392  2.4886
29508SOL    HW290138   9.220   0.738   5.503  0.5464  0.1851  0.8431
29509SOL     OW90139   1.380   2.264   9.026  0.3389  0.1680 -0.4480
29509SOL    HW190140   1.290   2.295   9.020 -0.2121 -0.6261  2.3575
29509SOL    HW290141   1.384   2.190   8.965 -0.4632  1.0675 -1.6297
29510SOL     OW90142   5.434   8.789   3.421 -0.4850  0.1547  0.4715
29510SOL    HW190143   5.452   8.819   3.510  2.3946  1.0646 -0.2941
29510SOL    HW290144   5.341   8.807   3.408 -0.4628  2.2546  2.4839
29511SOL     OW90145   6.233   6.132   6.583  0.1004  0.7240 -0.3753
29511SOL    HW190146   6.158   6.081   6.613  1.0183  0.6088  1.9342
29511SOL    HW290147   6.283   6.072   6.528  0.1460 -0.2634  0.7122
29512SOL     OW90148   7.591   4.915   5.004 -0.1285 -0.5998 -0.1477
29512SOL    HW190149   7.603   4.941   4.913 -1.3446 -0.2029 -0.2187
29512SOL    HW290150   7.674   4.874   5.029  1.2820  1.8571 -0.5328
29513SOL     OW90151   4.975   1.067   5.628  0.4917 -0.2520  0.3517
29513SOL    HW190152   5.038   1.002   5.596 -0.8802 -1.9410  0.8906
29513SOL    HW290153   4.987   1.066   5.723 -0.1300 -0.3696  0.4300
29514SOL     OW90154   7.260   5.912   9.089  0.6502 -0.3849 -0.3834
29514SOL    HW190155   7.278   5.906   9.183  0.4448  1.1564 -0.2207
29514SOL    HW290156   7.332   5.865   9.047 -0.9016 -4.0080  0.5847
29515SOL     OW90157   3.453   2.831   9.594 -0.8927  0.6537 -0.4255
29515SOL    HW190158   3.512   2.756   9.591 -1.7922 -0.0526 -0.7223
29515SOL    HW290159   3.496   2.897   9.540 -1.2905 -0.5565 -2.3162
29516SOL     OW90160   0.431   9.080   9.165  0.1229 -0.2483  0.8747
29516SOL    HW190161   0.486   9.021   9.216  1.1960 -0.1222 -0.0781
29516SOL    HW290162   0.486   9.158   9.152  0.0461 -0.4338 -0.7855
29517SOL     OW90163   8.998   0.121   4.990  0.4570  0.1114  0.2627
29517SOL    HW190164   8.964   0.200   4.948 -1.5482 -0.7956  0.0582
29517SOL    HW290165   8.934   0.100   5.058  0.9270 -1.3440  0.3044
29518SOL     OW90166   5.503   0.371   6.761 -0.6293 -0.1385  0.5397
29518SOL    HW190167   5.505   0.389   6.855 -0.0841  1.7854  0.1911
29518SOL    HW290168   5.591   0.339   6.740 -0.9062 -1.0760  0.7500
29519SOL     OW90169   1.771   5.436   2.634 -0.3035  0.4589  0.1356
29519SOL    HW190170   1.679   5.416   2.650 -0.7445  1.7644 -0.5866
29519SOL    HW290171   1.769   5.507   2.570  1.0561  3.0152  2.6753
29520SOL     OW90172   3.935   5.244   0.746  0.1649 -0.1248  0.0983
29520SOL    HW190173   3.912   5.282   0.662 -0.6742  0.7487  0.7039
29520SOL    HW290174   3.906   5.309   0.810  2.8906  0.3203  0.9951
29521SOL     OW90175   8.431   5.336   1.984  0.0568 -0.3774 -0.5209
29521SOL    HW190176   8.450   5.419   1.939  0.2951 -0.2447 -0.1854
29521SOL    HW290177   8.434   5.270   1.915  0.4940 -0.1852 -0.6933
29522SOL     OW90178   2.349   7.636   4.847 -0.3537 -0.1720  0.5894
29522SOL    HW190179   2.296   7.586   4.909 -0.9702  0.7153  0.8007
29522SOL    HW290180   2.406   7.689   4.903  0.6315 -0.9636  0.3640
29523SOL     OW90181   5.337   0.531   3.489  0.4608  0.6662 -0.2045
29523SOL    HW190182   5.274   0.578   3.544  0.5918 -0.4838  0.9658
29523SOL    HW290183   5.285   0.494   3.418 -0.3124 -0.6582  1.0001
29524SOL     OW90184   5.145   8.056   2.637  0.0684 -0.1529  0.0489
29524SOL    HW190185   5.153   7.972   2.683 -0.8134  0.2712  1.0076
29524SOL    HW290186   5.069   8.045   2.580  0.6252 -0.3659 -0.6827
29525SOL     OW90187   7.493   2.543   0.442  0.1806  0.6098  0.1885
29525SOL    HW190188   7.584   2.538   0.470 -0.0698  0.4732  1.0333
29525SOL    HW290189   7.450   2.471   0.489 -0.3536  0.6485 -0.2321
29526SOL     OW90190   9.775   0.123   9.179  0.3259  0.0993  0.2305
29526SOL    HW190191   9.750   0.144   9.089  0.8643  1.2450  0.3425
29526SOL    HW290192   9.739   0.194   9.232  2.8578  1.2687  0.5205
29527SOL     OW90193   1.239   8.035   6.107  0.3858  0.0782  0.1058
29527SOL    HW190194   1.258   8.107   6.047  0.6383  0.1677  0.2914
29527SOL    HW290195   1.201   7.967   6.051 -0.3441  0.5525  0.0135
29528SOL     OW90196   0.718   8.896   3.772 -0.3949  0.3029  0.2345
29528SOL    HW190197   0.728   8.895   3.677 -1.4072 -2.9705  0.0308
29528SOL    HW290198   0.802   8.865   3.806 -0.8017 -0.8615  0.2178
29529SOL     OW90199   1.497   2.561   2.594  0.2866  0.4992  0.1543
29529SOL    HW190200   1.579   2.605   2.572 -0.6040  2.4407  0.5424
29529SOL    HW290201   1.462   2.530   2.511  0.6928  0.9595 -0.1882
29530SOL     OW90202   0.358   4.693   0.594  0.4448  0.2832 -0.3708
29530SOL    HW190203   0.447   4.713   0.621  0.2496  1.4164 -0.5143
29530SOL    HW290204   0.349   4.732   0.507  0.3878 -1.4578 -1.2127
29531SOL     OW90205   1.328   6.568   9.723 -0.0044  0.1577  0.0733
29531SOL    HW190206   1.317   6.517   9.803 -0.4705 -1.2580 -0.8492
29531SOL    HW290207   1.349   6.656   9.753 -1.3827 -0.0402  1.7729
29532SOL     OW90208   0.042   6.501   2.584 -0.3881 -0.5220  0.4110
29532SOL    HW190209   0.016   6.532   2.498  0.3936  1.7891  0.9244
29532SOL    HW290210   0.030   6.577   2.641  2.7516 -0.7436  1.5874
29533SOL     OW90211   5.464   2.190   1.736  0.2984 -0.0829 -0.6826
29533SOL    HW190212   5.418   2.237   1.666  1.3635  0.4521 -1.0502
29533SOL    HW290213   5.555   2.218   1.727  0.8688 -1.8175 -0.5720
29534SOL     OW90214   7.005   9.831   6.777  0.2111 -0.7277  0.1824
29534SOL    HW190215   7.027   9.738   6.781  2.7634 -0.1804  0.7666
29534SOL    HW290216   6.944   9.837   6.704 -1.1336 -3.0188  1.0063
29535SOL     OW90217   3.076   4.653   8.210 -0.0367 -0.4815  0.0256
29535SOL    HW190218   3.164   4.689   8.204  0.3867 -1.1013  1.7578
29535SOL    HW290219   3.019   4.723   8.178  0.8783  1.1789  1.7971
29536SOL     OW90220   2.141   8.796   7.109  0.2544  0.7491 -0.1714
29536SOL    HW190221   2.099   8.841   7.036 -0.5633 -1.1834 -0.9774
29536SOL    HW290222   2.076   8.800   7.180 -1.0921 -1.5313 -1.1583
29537SOL     OW90223   5.233   7.997   3.724  0.5627  0.4189  0.0159
29537SOL    HW190224   5.289   7.972   3.797  0.1567 -0.1015  0.1556
29537SOL    HW290225   5.157   8.039   3.765  0.5806  0.6051 -0.1371
29538SOL     OW90226   0.501   8.921   5.560  0.4327  0.5179 -0.0813
29538SOL    HW190227   0.511   8.903   5.654  0.1060  1.9639  0.2505
29538SOL    HW290228   0.421   8.874   5.535  0.2641  0.5005  0.4723
29539SOL     OW90229   9.758   3.088   2.151  0.3969  0.0649  0.1876
29539SOL    HW190230   9.664   3.088   2.165  0.3217  0.3746 -0.3051
29539SOL    HW290231   9.795   3.075   2.238 -0.0953  0.0670  0.4002
29540SOL     OW90232   9.628   7.547   8.263  0.6873  0.3454  0.2960
29540SOL    HW190233   9.581   7.490   8.202 -0.6753  1.3707  0.3261
29540SOL    HW290234   9.712   7.565   8.221 -0.2281  1.0370 -1.3039
29541SOL     OW90235   4.843   8.946   6.654  0.3283  0.2404  0.6468
29541SOL    HW190236   4.893   9.002   6.713  1.5089 -0.6577  0.5449
29541SOL    HW290237   4.884   8.959   6.568 -0.8819  0.9534  0.1608
29542SOL     OW90238   9.429   5.570   9.516 -0.1679  0.2946  0.3290
29542SOL    HW190239   9.510   5.614   9.542 -0.1061  0.6789 -0.4913
29542SOL    HW290240   9.430   5.571   9.420 -0.3791 -1.1059  0.2769
29543SOL     OW90241   2.164   0.698   6.097  0.0485 -0.1727  0.1812
29543SOL    HW190242   2.075   0.721   6.124  1.0504  1.0009  2.7972
29543SOL    HW290243   2.205   0.781   6.073  1.1896 -0.3004  1.5555
29544SOL     OW90244   7.456   8.969   7.056 -0.0748  0.7826  0.0197
29544SOL    HW190245   7.428   8.892   7.007  0.4292  0.0591  0.8268
29544SOL    HW290246   7.532   9.002   7.007  0.1678  0.3160  0.0724
29545SOL     OW90247   6.582   4.995   1.859  0.0347  0.2157 -0.3780
29545SOL    HW190248   6.605   4.909   1.894  0.1445 -0.0008 -0.9671
29545SOL    HW290249   6.493   5.010   1.890 -1.0719 -1.3561 -2.4804
29546SOL     OW90250   7.612   3.233   9.468  0.4991 -0.5756  0.1225
29546SOL    HW190251   7.653   3.194   9.390  0.9519  0.3962 -0.1392
29546SOL    HW290252   7.680   3.228   9.535  0.9477  0.7000 -0.2091
29547SOL     OW90253   0.762   8.143   6.576  0.2602  0.1152  0.2625
29547SOL    HW190254   0.707   8.152   6.654  0.7050 -1.3234  0.7526
29547SOL    HW290255   0.704   8.167   6.503 -0.4264  0.5372  0.9361
29548SOL     OW90256   5.643   1.392   2.554 -0.5760 -0.3585 -0.3615
29548SOL    HW190257   5.589   1.394   2.634  1.4962  0.2606  1.0911
29548SOL    HW290258   5.579   1.393   2.483 -2.5408  2.6954  1.2071
29549SOL     OW90259   5.346   3.856   9.360  0.2200  0.3567  0.0121
29549SOL    HW190260   5.316   3.770   9.388  2.9103 -0.3693  0.9652
29549SOL    HW290261   5.341   3.910   9.440  1.2888  0.2452  0.1645
29550SOL     OW90262   6.935   7.230   9.514  0.0947  0.3777  0.1323
29550SOL    HW190263   6.943   7.199   9.604 -0.6997 -0.4549 -0.0644
29550SOL    HW290264   7.009   7.290   9.502 -0.5900  1.5883  1.7500
29551SOL     OW90265   6.128   3.299   7.781  0.2459  0.0484  0.1897
29551SOL    HW190266   6.141   3.390   7.809 -0.9609  0.4849 -0.5810
29551SOL    HW290267   6.178   3.292   7.699  1.8282 -0.5346  1.1728
29552SOL     OW90268   7.396   8.160   8.528  0.5259  0.1623  0.6761
29552SOL    HW190269   7.471   8.140   8.584 -0.8015 -0.1359  2.4210
29552SOL    HW290270   7.332   8.199   8.586  0.2645  2.9671 -1.2681
29553SOL     OW90271   0.849   1.211   3.394 -0.4162 -0.3042  0.1560
29553SOL    HW190272   0.920   1.274   3.399 -1.2997  0.6589  1.0840
29553SOL    HW290273   0.769   1.264   3.399 -1.2141 -1.3574 -0.7018
29554SOL     OW90274   7.088   8.507   1.385 -0.3214 -0.0076 -0.5742
29554SOL    HW190275   7.008   8.555   1.364 -0.3215 -0.8849 -2.9516
29554SOL    HW290276   7.057   8.421   1.414 -0.2555  0.3090  0.4677
29555SOL     OW90277   3.576   0.045   0.824  0.3211  0.2757  0.1637
29555SOL    HW190278   3.649   0.069   0.767 -0.8675  0.1450 -1.4843
29555SOL    HW290279   3.499   0.044   0.766 -0.9711  0.2402  1.7955
29556SOL     OW90280   7.681   4.713   6.124  0.0243 -0.2083 -0.0934
29556SOL    HW190281   7.657   4.621   6.116  1.4243 -0.5394 -0.8602
29556SOL    HW290282   7.600   4.758   6.146 -0.5229 -1.7325  1.1460
29557SOL     OW90283   7.254   7.056   2.105 -0.0596 -0.1374  0.1912
29557SOL    HW190284   7.212   7.065   2.019  1.1738  0.5839 -0.3715
29557SOL    HW290285   7.266   6.962   2.116 -0.6528 -0.2675 -0.2157
29558SOL     OW90286   9.214   9.388   8.545  0.3790  0.5863  0.3446
29558SOL    HW190287   9.131   9.374   8.498  1.3100  1.4546 -1.6998
29558SOL    HW290288   9.251   9.300   8.555 -0.3961  0.2707  0.5418
29559SOL     OW90289   5.859   0.453   2.149 -0.5089  0.6379  0.2048
29559SOL    HW190290   5.816   0.535   2.124  1.4599  1.3811 -1.0383
29559SOL    HW290291   5.838   0.392   2.078 -0.8190  0.4861  0.4227
29560SOL     OW90292   6.493   4.150   0.056  0.0013  0.0975  0.2201
29560SOL    HW190293   6.466   4.157   0.148  1.1158 -0.9524  0.6481
29560SOL    HW290294   6.480   4.058   0.034  1.0226  0.0501 -0.2509
29561SOL     OW90295   7.436   7.014   7.769  0.2117 -0.2935 -0.2500
29561SOL    HW190296   7.494   6.938   7.772  0.2449 -0.2422  0.7738
29561SOL    HW290297   7.368   6.996   7.834  0.1603  0.5033 -0.0665
29562SOL     OW90298   0.250   0.156   4.454 -0.0885 -0.2296  0.2783
29562SOL    HW190299   0.245   0.068   4.416 -0.4967  0.5072 -1.5016
29562SOL    HW290300   0.163   0.171   4.491 -0.1604 -0.3972  0.1800
29563SOL     OW90301   9.272   8.057   7.379  0.1600 -0.2922  0.1270
29563SOL    HW190302   9.359   8.096   7.380  0.0455  0.0390 -1.1202
29563SOL    HW290303   9.279   7.982   7.319 -0.0124 -1.2883  1.3061
29564SOL     OW90304   0.840   3.032   1.996 -0.1261  0.0357  0.0297
29564SOL    HW190305   0.780   3.030   1.921 -0.4774 -0.6507  0.3123
29564SOL    HW290306   0.828   3.119   2.033 -0.3460  0.1953 -0.3994
29565SOL     OW90307   5.426   3.053   1.678 -0.1127 -0.0051  0.1351
29565SOL    HW190308   5.498   3.003   1.717  0.4903  0.4996 -0.3107
29565SOL    HW290309   5.395   3.109   1.749  0.6779  0.5821  0.0268
29566SOL     OW90310   4.104   5.550   0.972  0.2440  0.4800  0.2469
29566SOL    HW190311   4.198   5.545   0.987 -0.0329 -1.0492  1.7523
29566SOL    HW290312   4.094   5.620   0.908  2.3818  0.7836  0.1683
29567SOL     OW90313   8.929   0.812   7.448 -0.0164 -0.3386  0.3232
29567SOL    HW190314   8.937   0.903   7.475 -0.1547 -0.3202  0.3027
29567SOL    HW290315   8.923   0.763   7.530 -1.7681 -0.1642  0.3317
29568SOL     OW90316   3.861   7.354   5.492 -0.2847  0.1097 -0.3453
29568SOL    HW190317   3.948   7.356   5.531 -0.7269  2.3169  0.6886
29568SOL    HW290318   3.810   7.297   5.548  0.6597 -1.9275 -1.4655
29569SOL     OW90319   6.202   8.485   0.291  0.5548  0.4070 -0.5976
29569SOL    HW190320   6.244   8.405   0.259 -1.7574 -1.4399  0.6434
29569SOL    HW290321   6.112   8.459   0.309 -0.5450  3.5506 -0.9354
29570SOL     OW90322   9.715   4.571   3.042 -0.3799  0.2558 -0.0136
29570SOL    HW190323   9.719   4.536   2.953 -2.6770 -1.4770  0.4626
29570SOL    HW290324   9.651   4.642   3.037 -2.5870 -1.5975  0.6864
29571SOL     OW90325   3.683   9.131   9.773  0.3476  0.8989  0.1484
29571SOL    HW190326   3.661   9.224   9.760  0.7633  1.0504  0.4929
29571SOL    HW290327   3.744   9.132   9.847 -1.2306  0.1677  1.5239
29572SOL     OW90328   2.371   5.907   3.949 -0.6139 -0.1958  0.6667
29572SOL    HW190329   2.389   5.821   3.911 -1.0185 -0.1738  0.4259
29572SOL    HW290330   2.389   5.969   3.878  1.0197  0.0350  1.2355
29573SOL     OW90331   4.244   4.136   1.440  0.7283  0.0360 -0.8312
29573SOL    HW190332   4.295   4.060   1.468  0.1650  0.6442  2.1494
29573SOL    HW290333   4.153   4.109   1.450  0.4557  0.2090 -2.5166
29574SOL     OW90334   7.497   4.435   8.655 -0.0020  0.4756  0.3458
29574SOL    HW190335   7.436   4.509   8.653 -0.4382  0.1105 -0.1987
29574SOL    HW290336   7.463   4.374   8.590  0.2723 -0.2722  0.8899
29575SOL     OW90337   0.181   7.907   4.471 -0.2198 -0.2691 -0.0166
29575SOL    HW190338   0.270   7.935   4.451  0.0823 -1.1359  0.0789
29575SOL    HW290339   0.183   7.811   4.460 -1.0088 -0.3480  0.4753
29576SOL     OW90340   0.045   3.252   5.932 -0.2132  0.1172  0.7435
29576SOL    HW190341  -0.044   3.235   5.902  0.2863 -1.1108 -0.1046
29576SOL    HW290342   0.042   3.340   5.968 -1.9781 -0.2460  1.5525
29577SOL     OW90343   5.696   2.264   4.507 -0.3633 -0.4017 -0.3380
29577SOL    HW190344   5.757   2.209   4.458  0.5633  0.5473 -0.2733
29577SOL    HW290345   5.684   2.219   4.590 -0.4429 -1.0345 -0.6851
29578SOL     OW90346   1.848   0.201   4.365 -0.2480 -0.2202 -0.5127
29578SOL    HW190347   1.776   0.150   4.327  1.5593 -1.8694 -1.9360
29578SOL    HW290348   1.841   0.186   4.459  0.1570 -3.1346 -0.8691
29579SOL     OW90349   8.669   2.974   9.431 -0.5320  0.6247 -0.0453
29579SOL    HW190350   8.682   3.037   9.360  0.5528  0.8658  0.3404
29579SOL    HW290351   8.655   2.890   9.387  2.7902  0.2345 -0.6147
29580SOL     OW90352   4.336   5.292   5.053 -0.2765  0.2192 -0.3799
29580SOL    HW190353   4.316   5.199   5.042  0.1420  0.1606 -0.6603
29580SOL    HW290354   4.335   5.328   4.964  0.4115  0.3080 -0.3522
29581SOL     OW90355   8.363   3.742   2.935 -0.3320 -0.0370 -0.0647
29581SOL    HW190356   8.395   3.823   2.976 -0.0324 -0.5857  0.8065
29581SOL    HW290357   8.281   3.723   2.980 -0.8331  0.2321 -0.8554
29582SOL     OW90358   2.263   9.756   9.000  0.2170  1.0337 -0.4714
29582SOL    HW190359   2.334   9.812   8.969  1.5865 -0.9128 -1.0185
29582SOL    HW290360   2.204   9.748   8.925 -1.0576  3.2448  0.2045
29583SOL     OW90361   7.935   7.783   0.491  0.7398 -0.4828 -0.6659
29583SOL    HW190362   7.991   7.779   0.413  1.4484  1.4577 -0.3120
29583SOL    HW290363   7.996   7.774   0.564  0.1664 -1.5694 -0.3102
29584SOL     OW90364   7.028   5.750   8.134  0.3615  0.2376  0.4780
29584SOL    HW190365   7.066   5.784   8.215 -0.9512 -0.3037  1.3588
29584SOL    HW290366   7.102   5.738   8.075  1.6442 -1.4199  2.3306
29585SOL     OW90367   6.624   6.060   7.901 -0.3377  0.1962  0.0773
29585SOL    HW190368   6.559   5.992   7.887 -0.1472  0.0715 -0.2203
29585SOL    HW290369   6.624   6.076   7.995  1.0801 -1.6660  0.4398
29586SOL     OW90370   3.350   7.278   4.277  0.0534 -0.0956 -0.2265
29586SOL    HW190371   3.256   7.265   4.262  0.2249 -0.0862 -1.4844
29586SOL    HW290372   3.361   7.373   4.279 -0.0429 -0.0954  0.5642
29587SOL     OW90373   0.870   6.694   6.740 -0.7381 -0.9248 -0.5421
29587SOL    HW190374   0.833   6.743   6.814 -0.2786 -1.9288  0.3755
29587SOL    HW290375   0.926   6.757   6.696 -0.5392 -0.4669  0.3289
29588SOL     OW90376   6.758   0.872   1.906  0.2301 -0.2294 -0.3957
29588SOL    HW190377   6.785   0.788   1.868  0.6281 -0.5322  0.5159
29588SOL    HW290378   6.662   0.868   1.906  0.2426 -0.6757 -0.3974
29589SOL     OW90379   4.109   7.280   6.149  0.0355  0.6180  0.4682
29589SOL    HW190380   4.068   7.336   6.215  1.5551  0.3593  1.6880
29589SOL    HW290381   4.038   7.222   6.119 -0.5277  0.2034  2.4578
29590SOL     OW90382   6.825   8.418   2.339  0.1962  0.0614 -0.3635
29590SOL    HW190383   6.737   8.414   2.376  0.4778  1.6903  0.5896
29590SOL    HW290384   6.817   8.476   2.263  0.2534 -0.6696 -0.9392
29591SOL     OW90385   4.492   4.283   4.315 -0.3505  0.0616 -0.2796
29591SOL    HW190386   4.423   4.259   4.376  1.5663 -0.4322  1.8347
29591SOL    HW290387   4.486   4.219   4.244 -0.8891 -1.1420  0.8229
29592SOL     OW90388   1.068   5.420   7.762  0.0023  0.3626 -0.7636
29592SOL    HW190389   1.020   5.395   7.841  0.0925 -1.3550 -1.2181
29592SOL    HW290390   1.148   5.462   7.795  0.2768 -0.7786  0.0835
29593SOL     OW90391   1.280   8.045   9.517  0.3743  0.6774 -0.2889
29593SOL    HW190392   1.334   7.994   9.578 -0.6842  1.5218  1.4421
29593SOL    HW290393   1.232   7.980   9.466  0.6003 -0.0590  0.4205
29594SOL     OW90394   7.956   0.942   0.487  0.1243 -0.1728 -0.2522
29594SOL    HW190395   8.009   0.958   0.566  1.8811 -1.4056 -1.1166
29594SOL    HW290396   8.020   0.933   0.417 -1.3868  0.5056 -1.7880
29595SOL     OW90397   9.787   0.755   1.028  0.1874 -0.3006  0.1727
29595SOL    HW190398   9.881   0.764   1.042  0.1993 -1.5692  1.0960
29595SOL    HW290399   9.768   0.664   1.049 -1.3345  0.0540  0.4903
29596SOL     OW90400   2.504   7.245   5.822  0.0626  0.3122  0.1248
29596SOL    HW190401   2.533   7.191   5.748  0.5719  0.1486  0.4378
29596SOL    HW290402   2.447   7.187   5.873  3.0475 -1.0801  2.1881
29597SOL     OW90403   6.511   5.012   9.671  0.0609 -0.0679  0.1244
29597SOL    HW190404   6.573   5.026   9.742 -0.2562 -1.4594  0.7194
29597SOL    HW290405   6.435   4.971   9.713  0.8852 -3.4104 -1.3218
29598SOL     OW90406   5.774   3.855   5.728 -0.6127  0.1838  0.1329
29598SOL    HW190407   5.768   3.813   5.814 -0.3812  0.9168  0.5159
29598SOL    HW290408   5.801   3.785   5.668 -1.8703 -0.5982  0.4410
29599SOL     OW90409   1.944   4.704   1.045 -0.1060 -0.2510 -0.1745
29599SOL    HW190410   1.961   4.760   1.120  1.6585 -2.6528  1.3532
29599SOL    HW290411   1.910   4.764   0.978  0.3473  2.3564  1.7602
29600SOL     OW90412   2.632   4.307   9.801  0.1619 -0.2768 -0.2080
29600SOL    HW190413   2.584   4.234   9.841  0.8161 -1.5081 -1.5674
29600SOL    HW290414   2.615   4.298   9.707  0.0327  1.5112 -0.3970
29601SOL     OW90415   0.728   1.854   8.521 -0.1897 -0.3046  0.1324
29601SOL    HW190416   0.772   1.825   8.440  2.0014 -1.2562  1.5627
29601SOL    HW290417   0.760   1.943   8.534  1.3862 -0.9725  1.1360
29602SOL     OW90418   3.090   4.855   4.158 -0.6397 -0.2160 -0.1325
29602SOL    HW190419   3.085   4.857   4.062  0.4463 -0.4625 -0.2116
29602SOL    HW290420   3.045   4.934   4.186  0.9622  1.0536 -0.9629
29603SOL     OW90421   2.138   7.227   8.562  0.2409 -0.1054 -0.4366
29603SOL    HW190422   2.111   7.165   8.494  0.6616  1.5128 -2.1611
29603SOL    HW290423   2.060   7.282   8.576  1.0242  1.4928 -1.9049
29604SOL     OW90424   8.807   5.337   3.325 -0.6825  0.2473  0.4343
29604SOL    HW190425   8.777   5.297   3.406 -2.6549 -1.0339 -0.8629
29604SOL    HW290426   8.736   5.395   3.298  0.2086  1.1351 -0.1106
29605SOL     OW90427   8.178   8.497   5.614 -0.3356 -0.2775  0.3107
29605SOL    HW190428   8.118   8.489   5.689  1.3032 -0.3866  1.6671
29605SOL    HW290429   8.171   8.414   5.569 -0.0978 -0.8810  1.3491
29606SOL     OW90430   3.106   3.294   1.844  0.3943 -0.0377  0.5996
29606SOL    HW190431   3.155   3.360   1.794  0.1371 -2.0281 -2.5654
29606SOL    HW290432   3.163   3.217   1.843 -0.7496 -0.9084  1.1239
29607SOL     OW90433   8.201   2.454   1.374 -0.0136 -1.5244  0.1537
29607SOL    HW190434   8.219   2.399   1.450 -1.4760 -0.8063  1.0576
29607SOL    HW290435   8.109   2.477   1.382  0.6057  1.3580  0.0399
29608SOL     OW90436   8.421   0.740   6.537 -0.1759  0.2164 -0.3724
29608SOL    HW190437   8.511   0.755   6.567  0.4420  0.2844 -2.1483
29608SOL    HW290438   8.367   0.756   6.614  1.3817 -0.6416  0.9536
29609SOL     OW90439   6.039   5.131   4.133 -0.1286 -0.5578 -0.1168
29609SOL    HW190440   6.064   5.197   4.069  1.6789 -0.8890  0.2034
29609SOL    HW290441   6.122   5.102   4.172 -1.0602 -1.3875  1.3564
29610SOL     OW90442   2.527   5.457   2.968  0.1119  0.0757 -0.0323
29610SOL    HW190443   2.528   5.415   2.882 -0.8950 -0.7962  0.3584
29610SOL    HW290444   2.472   5.534   2.956 -0.6823 -0.4699 -0.0036
29611SOL     OW90445   6.856   5.311   0.659  0.1510 -0.3499  0.1627
29611SOL    HW190446   6.808   5.245   0.609  1.2733 -0.6539 -0.5406
29611SOL    HW290447   6.891   5.263   0.734 -0.2197 -0.2333  0.4140
29612SOL     OW90448   2.989   1.167   5.155  0.4291  0.2783  0.1840
29612SOL    HW190449   2.960   1.256   5.174  1.8643  0.6794  0.5904
29612SOL    HW290450   3.064   1.177   5.096  1.3585 -0.5893  1.1705
29613SOL     OW90451   2.172   3.699   7.217  0.2392  0.2993  0.1172
29613SOL    HW190452   2.256   3.658   7.237 -0.0389 -1.8308 -2.5005
29613SOL    HW290453   2.108   3.647   7.265  0.1041 -0.8706 -1.2678
29614SOL     OW90454   5.404   6.751   2.548  0.0692  0.7277 -0.4001
29614SOL    HW190455   5.322   6.779   2.506 -0.6301 -0.8812 -0.2044
29614SOL    HW290456   5.463   6.732   2.476 -0.8068 -1.0997 -0.7045
29615SOL     OW90457   0.922   9.585   0.934  0.7294  0.2104  0.4777
29615SOL    HW190458   0.894   9.632   0.855  4.4787  2.6408  0.3259
29615SOL    HW290459   0.893   9.639   1.007  0.7752  0.1356  0.5524
29616SOL     OW90460   5.415   9.173   4.600  0.3866  0.7230 -0.2064
29616SOL    HW190461   5.484   9.126   4.552 -1.2795  0.1247 -2.1823
29616SOL    HW290462   5.443   9.264   4.597  1.1891  0.4802 -0.8258
29617SOL     OW90463   8.464   0.136   2.072 -0.2148 -0.1137 -0.0178
29617SOL    HW190464   8.397   0.182   2.022  0.9509  0.5862 -0.9957
29617SOL    HW290465   8.531   0.114   2.008  2.0064  2.0677  1.3606
29618SOL     OW90466   5.640   4.152   1.512 -0.1564 -0.3378 -0.4174
29618SOL    HW190467   5.595   4.090   1.454  0.1101 -0.5534 -0.3966
29618SOL    HW290468   5.621   4.121   1.600  0.1911 -0.5430 -0.4131
29619SOL     OW90469   1.873   4.055   4.225 -0.0659  0.5171 -0.0077
29619SOL    HW190470   1.926   4.060   4.145 -0.0984 -1.7226 -0.2388
29619SOL    HW290471   1.783   4.042   4.193 -0.0133 -0.9103  0.3278
29620SOL     OW90472   4.890   1.950   7.386 -0.1329 -0.4673 -0.2170
29620SOL    HW190473   4.936   2.030   7.408 -0.8869 -0.2800  0.7627
29620SOL    HW290474   4.893   1.946   7.291  2.6730 -0.9567 -0.1908
29621SOL     OW90475   3.689   2.258   4.585  0.0615  0.3971  0.0165
29621SOL    HW190476   3.772   2.233   4.544 -0.1282  0.2180 -0.2544
29621SOL    HW290477   3.684   2.353   4.575 -0.4369  0.2513 -1.2149
29622SOL     OW90478   8.416   1.024   6.814  0.3199 -0.4056  0.2007
29622SOL    HW190479   8.508   1.004   6.830  0.0487 -0.7658  1.4741
29622SOL    HW290480   8.410   1.119   6.821  1.1230  0.0062 -3.0911
29623SOL     OW90481   0.764   8.088   2.830 -0.5516 -0.2353 -0.4157
29623SOL    HW190482   0.794   8.139   2.755 -1.4038  0.8120 -0.0676
29623SOL    HW290483   0.844   8.069   2.880  0.0518 -1.1315 -1.6761
29624SOL     OW90484   5.389   7.284   0.184  0.0973  0.1425 -0.8436
29624SOL    HW190485   5.307   7.313   0.145 -1.0616 -1.0169  0.6024
29624SOL    HW290486   5.380   7.189   0.192  1.4121  0.0368 -0.2700
29625SOL     OW90487   0.923   1.806   6.067 -0.1218 -0.5677  0.0513
29625SOL    HW190488   0.885   1.894   6.074 -1.0238 -0.7887 -1.5973
29625SOL    HW290489   0.934   1.778   6.158  1.4409  1.7359  0.6977
29626SOL     OW90490   4.752   2.986   0.523 -0.2223  0.2378  0.6396
29626SOL    HW190491   4.730   2.985   0.617 -2.1262  0.5296  0.2262
29626SOL    HW290492   4.687   3.043   0.483  0.4353 -0.0454 -0.9101
29627SOL     OW90493   3.433   8.860   3.486  0.1967 -0.4866 -0.1075
29627SOL    HW190494   3.413   8.767   3.484  0.8574 -0.6383  0.1488
29627SOL    HW290495   3.402   8.890   3.571  1.9996 -0.9507  0.7546
29628SOL     OW90496   3.166   9.323   4.053 -0.2883 -0.4494 -0.5735
29628SOL    HW190497   3.189   9.415   4.039  2.1129 -1.1347 -1.7311
29628SOL    HW290498   3.104   9.324   4.126  1.8564  1.8825  1.4017
29629SOL     OW90499   4.142   9.364   4.181 -0.2375 -0.2916 -0.1856
29629SOL    HW190500   4.056   9.405   4.194  0.5028  1.5594 -0.6992
29629SOL    HW290501   4.174   9.349   4.270  0.0104  1.6002  0.1052
29630SOL     OW90502   6.386   7.687   2.438  0.3716 -0.3880  0.2603
29630SOL    HW190503   6.325   7.756   2.412 -0.1039 -0.6947  0.5404
29630SOL    HW290504   6.469   7.711   2.398  0.4459  0.8281  1.1021
29631SOL     OW90505   8.164   6.027   9.067 -0.1416 -0.9590 -0.4763
29631SOL    HW190506   8.247   6.063   9.097  0.2084  0.3247 -2.7090
29631SOL    HW290507   8.122   6.101   9.022 -0.7027 -2.5877 -2.7944
29632SOL     OW90508   3.278   7.397   7.601  0.1444 -0.4703 -0.5295
29632SOL    HW190509   3.266   7.315   7.648  0.1640 -0.9338 -1.3021
29632SOL    HW290510   3.338   7.448   7.655  1.8404 -1.8329 -1.0372
29633SOL     OW90511   7.979   0.033   3.543 -0.7529 -0.2627 -0.3233
29633SOL    HW190512   7.955  -0.039   3.602 -1.2839  0.1623 -0.0181
29633SOL    HW290513   7.935   0.012   3.461 -1.5274  0.1081 -0.0029
29634SOL     OW90514   1.948   4.159   7.823 -0.1639  0.0205 -0.2452
29634SOL    HW190515   1.905   4.073   7.826 -1.2007  0.5387  1.0753
29634SOL    HW290516   1.964   4.180   7.915  3.1959 -0.2171 -0.6569
29635SOL     OW90517   1.440   0.498   3.236 -0.3164 -0.7496  0.6851
29635SOL    HW190518   1.361   0.551   3.246  0.2597  0.0560  1.0838
29635SOL    HW290519   1.461   0.504   3.143  0.5205  0.9130  0.9380
29636SOL     OW90520   7.834   8.909   8.271 -0.6023 -0.5332  0.4195
29636SOL    HW190521   7.908   8.848   8.276 -1.6164 -2.0459 -1.7234
29636SOL    HW290522   7.856   8.969   8.200 -0.0735  1.0732  1.8591
29637SOL     OW90523   6.762   2.035   9.649 -0.0196  0.2132 -0.1174
29637SOL    HW190524   6.832   2.010   9.709 -0.2124 -0.3388 -0.1204
29637SOL    HW290525   6.705   1.959   9.646 -1.4922  1.2125  1.1257
29638SOL     OW90526   5.437   0.728   6.856  0.1837 -0.3242  0.1466
29638SOL    HW190527   5.468   0.680   6.780  0.5432 -1.6514  1.0816
29638SOL    HW290528   5.512   0.779   6.885  0.3778 -0.6643  0.2445
29639SOL     OW90529   4.489   8.639   9.316 -0.2845 -0.3384 -0.5003
29639SOL    HW190530   4.525   8.705   9.257 -0.5496  2.6748  2.4219
29639SOL    HW290531   4.562   8.617   9.375 -1.3841  1.0130  1.4754
29640SOL     OW90532   6.130   1.895   6.305 -0.3527  0.3852  0.0233
29640SOL    HW190533   6.192   1.968   6.300 -0.8723  0.8508  0.3487
29640SOL    HW290534   6.143   1.848   6.222  1.2431 -0.1868  0.5556
29641SOL     OW90535   0.061   5.079   2.690 -0.2657 -0.5580  0.0169
29641SOL    HW190536   0.118   5.133   2.745 -2.6457  0.6293  1.5148
29641SOL    HW290537   0.033   5.008   2.747 -2.1235  0.2287  0.1619
29642SOL     OW90538   7.863   6.151   6.513 -0.4740 -0.2519  0.9213
29642SOL    HW190539   7.959   6.155   6.512 -0.4335 -0.6404 -0.6900
29642SOL    HW290540   7.837   6.181   6.425 -1.8358 -0.0100  1.3815
29643SOL     OW90541   7.881   2.380   1.622  0.1879  0.5172  0.1097
29643SOL    HW190542   7.910   2.291   1.642 -0.5332  0.6114  1.7068
29643SOL    HW290543   7.874   2.382   1.526  0.0254 -1.2076  0.0570
29644SOL     OW90544   4.650   8.134   6.692  0.6284  0.0282  0.4958
29644SOL    HW190545   4.609   8.204   6.743 -0.9347 -0.0902 -0.5106
29644SOL    HW290546   4.610   8.141   6.605  1.2571 -1.4135  0.0504
29645SOL     OW90547   3.057   3.209   6.848 -0.5643 -0.0736 -0.0812
29645SOL    HW190548   2.969   3.174   6.833 -0.0249 -0.9277 -1.4789
29645SOL    HW290549   3.101   3.141   6.898 -0.2191 -0.3923 -0.7994
29646SOL     OW90550   5.155   3.758   0.104  0.2820  0.3660  0.4201
29646SOL    HW190551   5.203   3.701   0.164  0.1038 -0.4635 -0.2094
29646SOL    HW290552   5.221   3.791   0.044  0.2651  0.2325  0.3287
29647SOL     OW90553   0.963   8.238   2.380  0.0013 -0.3007  0.0609
29647SOL    HW190554   0.897   8.206   2.318 -0.0661 -0.5798  0.2759
29647SOL    HW290555   1.046   8.220   2.337 -0.0419 -0.5865  0.0982
29648SOL     OW90556   0.395   5.039   9.355 -0.0133  0.3027  0.0758
29648SOL    HW190557   0.332   4.972   9.328 -0.7180  0.6369  0.8431
29648SOL    HW290558   0.365   5.119   9.311 -0.2440  0.5028  0.5865
29649SOL     OW90559   6.165   0.229   8.112  0.7150 -0.5878 -0.2675
29649SOL    HW190560   6.199   0.141   8.096 -0.2714 -1.0052 -0.1006
29649SOL    HW290561   6.108   0.247   8.037 -0.1852 -0.6598  0.3861
29650SOL     OW90562   1.923   3.881   7.826  0.0227 -0.5374  0.4523
29650SOL    HW190563   1.841   3.873   7.777 -0.3046  0.5766  0.7910
29650SOL    HW290564   1.952   3.791   7.838 -1.7290 -1.0369  1.2682
29651SOL     OW90565   1.244   4.289   3.087  0.0186 -0.4864 -0.1281
29651SOL    HW190566   1.230   4.204   3.045 -1.4656 -0.6268  0.6098
29651SOL    HW290567   1.223   4.274   3.179 -1.1282  0.8945 -0.1405
29652SOL     OW90568   6.733   7.422   6.001 -0.4179 -0.0136  0.3488
29652SOL    HW190569   6.713   7.339   5.957 -0.0186  0.2454 -0.3279
29652SOL    HW290570   6.766   7.479   5.932  2.1349 -0.2191  1.2798
29653SOL     OW90571   7.679   7.012   6.027  0.2584  0.2789  0.4533
29653SOL    HW190572   7.722   6.999   5.943  2.3875  1.0329  1.3547
29653SOL    HW290573   7.683   6.926   6.069  2.9336  0.7311  1.3556
29654SOL     OW90574   3.855   2.772   9.772 -0.0552 -0.6157  0.2081
29654SOL    HW190575   3.946   2.795   9.792  0.3252 -1.1921 -0.7997
29654SOL    HW290576   3.805   2.806   9.847  1.0808 -1.0754  1.2098
29655SOL     OW90577   3.492   1.814   9.410 -0.1973 -0.0571  0.0154
29655SOL    HW190578   3.419   1.790   9.353 -0.9794  0.3271  0.8250
29655SOL    HW290579   3.525   1.731   9.443 -1.1240 -0.1811  0.6669
29656SOL     OW90580   6.399   3.626   8.926  0.3635 -0.1113 -0.1372
29656SOL    HW190581   6.374   3.599   8.838 -0.0782  2.9436 -1.0482
29656SOL    HW290582   6.381   3.549   8.980  0.2750 -1.9468 -2.6093
29657SOL     OW90583   3.492   2.514   8.793 -0.6117 -0.1467  0.2992
29657SOL    HW190584   3.563   2.470   8.746  0.2615  0.7468  0.7629
29657SOL    HW290585   3.412   2.479   8.752  0.1021  0.7145 -1.9900
29658SOL     OW90586   9.309   9.831   2.035  0.1118  0.1089 -0.2132
29658SOL    HW190587   9.333   9.738   2.035  0.9605  0.3050  0.6025
29658SOL    HW290588   9.393   9.877   2.033 -0.1868  0.8424  1.8794
29659SOL     OW90589   2.187   5.502   0.205 -0.5509 -0.5566  0.3064
29659SOL    HW190590   2.154   5.468   0.122  0.7557 -0.7473 -0.1529
29659SOL    HW290591   2.214   5.592   0.186  1.8463 -1.2810 -0.1068
29660SOL     OW90592   7.259   7.370   3.346  0.0550  0.5733  0.4935
29660SOL    HW190593   7.243   7.440   3.283 -1.3697 -0.4040 -0.2852
29660SOL    HW290594   7.327   7.316   3.305 -0.6129  0.1388 -0.0579
29661SOL     OW90595   0.204   4.070   6.299 -0.4481  0.1469 -0.5028
29661SOL    HW190596   0.134   4.083   6.235 -0.7761 -0.1008 -0.2043
29661SOL    HW290597   0.170   4.002   6.358  0.3407 -0.5031 -0.7805
29662SOL     OW90598   3.041   1.539   6.747 -0.7994 -0.1582 -0.0946
29662SOL    HW190599   3.047   1.600   6.673 -2.3435  0.6847  0.4300
29662SOL    HW290600   3.132   1.517   6.767 -0.0436  3.1603  0.6498
29663SOL     OW90601   5.124   5.191   5.104  0.4629  0.1833 -0.0609
29663SOL    HW190602   5.097   5.123   5.042 -0.2687 -0.0926  0.5516
29663SOL    HW290603   5.207   5.159   5.139 -0.2492 -0.8037  0.8044
29664SOL     OW90604   7.802   1.528   7.056  0.2020 -0.2735 -0.2931
29664SOL    HW190605   7.709   1.528   7.078 -0.4251 -0.0643 -2.7058
29664SOL    HW290606   7.829   1.619   7.065 -0.4046  0.0638 -1.6587
29665SOL     OW90607   1.632   6.699   1.954  0.1586  0.8041  0.0105
29665SOL    HW190608   1.721   6.694   1.990 -0.3742  1.1809  1.4419
29665SOL    HW290609   1.575   6.684   2.030 -1.0243  1.8537 -0.6445
29666SOL     OW90610   2.722   2.060   2.766 -0.2239 -0.1230 -0.1009
29666SOL    HW190611   2.758   2.128   2.709  0.3036 -0.6254 -0.3836
29666SOL    HW290612   2.796   2.032   2.820  0.0174 -1.6505 -1.1580
29667SOL     OW90613   0.497   3.115   7.988  0.5263 -0.4354  0.1970
29667SOL    HW190614   0.533   3.085   8.071  0.8262  0.1790  0.2973
29667SOL    HW290615   0.554   3.076   7.921  0.2723 -0.9452  0.2780
29668SOL     OW90616   8.468   0.204   6.572  0.0313  0.0004 -0.0858
29668SOL    HW190617   8.558   0.173   6.580 -0.2880 -1.9368 -2.6583
29668SOL    HW290618   8.472   0.296   6.597  2.2138 -0.5944  2.2022
29669SOL     OW90619   7.902   1.588   9.404  0.5320 -0.2342  0.3961
29669SOL    HW190620   7.912   1.668   9.351 -0.0469 -1.2312 -1.3017
29669SOL    HW290621   7.809   1.585   9.427  0.6696 -0.1167  0.9895
29670SOL     OW90622   0.625   6.438   7.207 -0.3534  0.1563 -0.5544
29670SOL    HW190623   0.579   6.519   7.184 -0.1625  0.5129  0.2742
29670SOL    HW290624   0.561   6.388   7.258 -0.0525  0.3480  0.0132
29671SOL     OW90625   2.561   0.719   6.163  0.2274 -0.4585 -0.1351
29671SOL    HW190626   2.629   0.763   6.214  1.1748 -0.5045 -1.3191
29671SOL    HW290627   2.485   0.776   6.171  0.2139 -0.6738  1.6503
29672SOL     OW90628   8.752   0.951   9.736  0.0735 -0.3849  0.3584
29672SOL    HW190629   8.737   0.856   9.738 -1.4133 -0.1798  1.0354
29672SOL    HW290630   8.685   0.984   9.676 -1.0349  0.4231  1.9475
29673SOL     OW90631   2.138   4.513   1.030 -0.4453 -0.5368 -0.2542
29673SOL    HW190632   2.051   4.555   1.032 -0.1744  0.1347  2.8825
29673SOL    HW290633   2.180   4.549   0.952 -1.7735  1.8105  0.0050
29674SOL     OW90634   8.074   1.194   1.902 -0.3356 -0.2253  0.7809
29674SOL    HW190635   8.158   1.225   1.866 -0.5437  0.7375  1.0893
29674SOL    HW290636   8.095   1.163   1.990 -0.5484  1.5527  1.4993
29675SOL     OW90637   4.739   6.993   8.443 -0.5335  0.3312  0.3284
29675SOL    HW190638   4.655   7.032   8.419 -0.5226  0.2894  0.2208
29675SOL    HW290639   4.787   7.063   8.487 -1.1662 -0.0375  1.6567
29676SOL     OW90640   5.498   3.055   8.451  0.0794 -0.0787 -0.5669
29676SOL    HW190641   5.404   3.072   8.444 -0.1102 -1.4005 -1.6344
29676SOL    HW290642   5.539   3.136   8.424 -0.6636  1.8045  3.2143
29677SOL     OW90643   1.023   0.239   4.664  0.8002 -0.0033 -0.5047
29677SOL    HW190644   0.968   0.299   4.714 -1.0057 -1.2626 -0.9050
29677SOL    HW290645   1.096   0.294   4.635  0.3862  1.4521  0.9992
29678SOL     OW90646   4.467   3.174   2.814 -0.2662  0.3265  0.2839
29678SOL    HW190647   4.526   3.098   2.824  1.1473  1.2462 -0.6468
29678SOL    HW290648   4.440   3.195   2.904  0.2855 -0.5492  0.6710
29679SOL     OW90649   7.146   9.019   1.052 -0.4945  0.2888 -0.1486
29679SOL    HW190650   7.090   9.057   1.119  0.0826  0.3149  0.3346
29679SOL    HW290651   7.204   8.959   1.100 -0.0635  0.3110 -0.6207
29680SOL     OW90652   8.549   7.374   6.343 -0.0297  0.0399 -0.1064
29680SOL    HW190653   8.483   7.430   6.383  0.2293 -0.2305  0.7128
29680SOL    HW290654   8.519   7.285   6.361  0.5954 -0.0844  0.3578
29681SOL     OW90655   7.179   6.638   6.709 -0.0848 -0.2495 -1.0024
29681SOL    HW190656   7.184   6.558   6.655 -2.0218 -0.6055 -0.7189
29681SOL    HW290657   7.210   6.708   6.651  4.9164 -1.4670 -0.3112
29682SOL     OW90658   5.327   3.573   9.306 -0.0136  0.6183  0.0455
29682SOL    HW190659   5.292   3.528   9.230 -1.2736  0.1498  0.8629
29682SOL    HW290660   5.413   3.533   9.320 -1.5783 -2.6128  1.5118
29683SOL     OW90661   6.067   1.296   9.103  0.2806  0.6503 -0.0928
29683SOL    HW190662   5.985   1.284   9.053 -1.0461  0.6903  1.9539
29683SOL    HW290663   6.090   1.388   9.089 -0.2151  0.7277 -0.4257
29684SOL     OW90664   8.553   9.478   7.845 -0.0663 -0.3959 -0.3062
29684SOL    HW190665   8.536   9.572   7.852 -0.8010 -0.5764  0.5527
29684SOL    HW290666   8.630   9.471   7.788 -0.3928  0.6828 -0.8949
29685SOL     OW90667   8.732   9.438   2.407  0.7026 -0.6062  0.6456
29685SOL    HW190668   8.675   9.511   2.431 -0.1973 -0.3159 -2.0481
29685SOL    HW290669   8.820   9.474   2.407  0.2721  0.5364 -0.6221
29686SOL     OW90670   9.713   4.332   5.509 -0.0742 -0.8603  0.3813
29686SOL    HW190671   9.652   4.259   5.518 -0.5722 -0.2753  2.0820
29686SOL    HW290672   9.669   4.406   5.552  1.6146 -0.2911  1.2279
29687SOL     OW90673   2.381   6.903   7.587 -0.3952  0.0992  1.1371
29687SOL    HW190674   2.298   6.950   7.592 -1.3808 -1.1503 -1.4349
29687SOL    HW290675   2.367   6.824   7.640  0.1893  1.1541  2.9483
29688SOL     OW90676   7.994   7.125   2.386  0.8768 -0.5834  0.0959
29688SOL    HW190677   7.918   7.169   2.424  0.3536 -1.5785  0.2064
29688SOL    HW290678   8.057   7.121   2.458  0.4463 -1.1329  0.4520
29689SOL     OW90679   5.313   9.121   3.294  0.4218 -0.4775  0.2213
29689SOL    HW190680   5.267   9.040   3.273 -0.6932  0.3785 -0.7180
29689SOL    HW290681   5.288   9.182   3.225  0.2847  1.0322  1.5417
29690SOL     OW90682   7.313   9.420   3.147  0.2638  0.1241 -0.5142
29690SOL    HW190683   7.249   9.390   3.083  0.3659  1.4203 -1.2559
29690SOL    HW290684   7.398   9.401   3.107  0.3761 -1.3171  0.3372
29691SOL     OW90685   3.928   6.752   2.316  0.1163 -0.1199 -0.4129
29691SOL    HW190686   3.986   6.688   2.357  1.0752 -0.2757 -1.9427
29691SOL    HW290687   3.867   6.700   2.263  0.1439  0.1582 -0.7274
29692SOL     OW90688   2.772   2.269   4.058 -0.0931  0.0159 -0.3549
29692SOL    HW190689   2.750   2.363   4.052  0.9602  0.4432  1.5303
29692SOL    HW290690   2.725   2.240   4.137 -1.5062 -1.4183 -1.6739
29693SOL     OW90691   1.058   2.986   6.203 -0.7493 -0.4920 -0.2243
29693SOL    HW190692   1.074   3.048   6.274 -3.0975  1.0072 -0.8949
29693SOL    HW290693   1.114   3.015   6.132 -1.6954  0.8021 -0.4696
29694SOL     OW90694   9.129   5.035   6.329  0.6800 -0.0902  0.6269
29694SOL    HW190695   9.086   4.949   6.331  1.0055 -0.2477  2.2578
29694SOL    HW290696   9.066   5.092   6.284  0.0040 -0.9511  0.4514
29695SOL     OW90697   3.735   9.714   8.662  0.0315  0.5261  0.6560
29695SOL    HW190698   3.820   9.756   8.644  0.4279 -0.7247 -0.5561
29695SOL    HW290699   3.755   9.647   8.727  0.1916 -0.4371 -0.3614
29696SOL     OW90700   1.390   0.764   6.225 -0.1626 -0.2561 -0.2445
29696SOL    HW190701   1.327   0.777   6.153  0.7403  0.0086 -1.0132
29696SOL    HW290702   1.345   0.707   6.286 -1.0369 -0.3329 -0.9335
29697SOL     OW90703   9.094   6.009   9.343 -0.0739  0.3316 -0.2133
29697SOL    HW190704   9.149   5.940   9.380 -0.4077  0.0281 -0.2708
29697SOL    HW290705   9.149   6.087   9.344  0.6111 -0.1217 -0.9438
29698SOL     OW90706   4.853   3.212   2.962  0.3389  0.2719  0.0051
29698SOL    HW190707   4.779   3.184   3.016 -1.2164 -0.7355 -2.4781
29698SOL    HW290708   4.824   3.292   2.920  0.9058  0.2084 -0.5282
29699SOL     OW90709   3.260   0.336   0.278 -0.0866  0.1912  0.2828
29699SOL    HW190710   3.204   0.324   0.354 -0.4364  0.5484  0.0871
29699SOL    HW290711   3.208   0.306   0.204  0.4224 -0.5840  0.2332
29700SOL     OW90712   0.464   0.101   3.718 -0.1234  0.2025 -0.1518
29700SOL    HW190713   0.397   0.159   3.753  0.4755  0.5973  0.3584
29700SOL    HW290714   0.525   0.159   3.671  1.0783  0.1777  1.2785
29701SOL     OW90715   9.811   2.801   2.633 -0.3113  0.3348  0.5199
29701SOL    HW190716   9.822   2.727   2.693  1.9043 -0.6468 -0.9604
29701SOL    HW290717   9.884   2.860   2.654 -0.2628  0.5917 -0.3185
29702SOL     OW90718   2.413   9.428   9.481 -0.3046  0.2631  0.7113
29702SOL    HW190719   2.434   9.396   9.569 -1.4790  0.3887  1.0582
29702SOL    HW290720   2.461   9.370   9.422 -1.0893 -1.1213  1.3814
29703SOL     OW90721   6.894   9.829   1.614 -0.2173 -0.0691  0.3243
29703SOL    HW190722   6.844   9.818   1.533  0.0565  0.5451  0.0658
29703SOL    HW290723   6.890   9.743   1.656  2.0157 -1.3096 -1.7061
29704SOL     OW90724   0.539   8.801   1.664  0.0379  0.1436 -0.7881
29704SOL    HW190725   0.588   8.871   1.621  0.1266  0.7301  0.2413
29704SOL    HW290726   0.460   8.844   1.697  0.0750 -0.2442 -0.1823
29705SOL     OW90727   0.053   4.283   9.615  0.5314  0.1510  0.0169
29705SOL    HW190728  -0.024   4.326   9.579  0.0875 -1.6102 -1.2965
29705SOL    HW290729   0.027   4.191   9.623  1.2695  0.1185  3.1128
29706SOL     OW90730   1.999   5.099   6.500  0.3796 -0.0142 -0.7425
29706SOL    HW190731   2.066   5.042   6.538 -0.5496 -0.7915 -0.2335
29706SOL    HW290732   1.923   5.088   6.557  0.1483  1.7276 -0.6353
29707SOL     OW90733   3.705   9.456   8.468  0.2455 -0.4472  0.6956
29707SOL    HW190734   3.626   9.492   8.428  0.5339 -0.4792  0.0842
29707SOL    HW290735   3.719   9.509   8.546 -0.6692 -0.7716  1.0855
29708SOL     OW90736   3.931   7.887   5.646 -0.2245 -0.1407  0.6995
29708SOL    HW190737   3.894   7.799   5.642 -0.7303 -0.0061  2.0583
29708SOL    HW290738   4.026   7.874   5.637 -0.3661 -0.7094 -0.1340
29709SOL     OW90739   7.553   6.173   8.324 -0.0425  0.0444 -0.3242
29709SOL    HW190740   7.472   6.142   8.364  0.0807 -1.1402 -0.9435
29709SOL    HW290741   7.604   6.208   8.398 -0.7548 -0.0004  0.1997
29710SOL     OW90742   0.472   2.951   7.156 -0.6857  0.0058 -0.0878
29710SOL    HW190743   0.398   2.941   7.097  1.6359 -1.7691 -2.9947
29710SOL    HW290744   0.475   3.044   7.176 -1.9171  0.6259 -2.4209
29711SOL     OW90745   8.283   5.122   1.040 -0.1057 -0.1700  0.0238
29711SOL    HW190746   8.309   5.030   1.036 -1.0925 -0.4451 -0.5715
29711SOL    HW290747   8.366   5.170   1.036  0.5250 -1.0275  1.7447
29712SOL     OW90748   1.305   9.037   7.942  0.2701  0.4764 -0.2902
29712SOL    HW190749   1.224   9.015   7.988  0.2853 -0.2726 -0.6015
29712SOL    HW290750   1.277   9.094   7.870  0.1540  1.0375  0.1905
29713SOL     OW90751   1.445   6.418   3.377  0.1375  0.3911  0.5568
29713SOL    HW190752   1.384   6.478   3.419  0.7161  1.8253 -0.5821
29713SOL    HW290753   1.518   6.409   3.440 -0.0527  0.6886  0.8194
29714SOL     OW90754   2.401   2.260   3.873  0.7846 -0.0082 -0.4363
29714SOL    HW190755   2.346   2.181   3.873  1.1466 -0.2874  0.8272
29714SOL    HW290756   2.388   2.298   3.960  3.0656 -0.4362  0.1514
29715SOL     OW90757   0.715   2.969   8.518 -0.0885  0.1064 -0.2463
29715SOL    HW190758   0.644   2.907   8.534 -0.9681  1.5831  1.9824
29715SOL    HW290759   0.770   2.963   8.596 -0.6403  2.6392  0.4237
29716SOL     OW90760   8.704   0.668   7.863  0.0061  0.1484 -0.8257
29716SOL    HW190761   8.631   0.607   7.862  0.2778 -0.2237  0.3448
29716SOL    HW290762   8.734   0.669   7.954  0.4208  1.5346 -0.9403
29717SOL     OW90763   4.576   6.059   1.986  0.1927 -0.1270 -0.3815
29717SOL    HW190764   4.593   6.070   1.893  2.9035  1.5709  0.1826
29717SOL    HW290765   4.517   6.130   2.009  1.3366  0.8577 -0.4315
29718SOL     OW90766   0.900   6.768   2.821 -0.0099 -0.1175 -0.3111
29718SOL    HW190767   0.928   6.854   2.852  2.3573 -1.0292  0.2373
29718SOL    HW290768   0.928   6.765   2.729  2.0297 -1.0911  0.2829
29719SOL     OW90769   1.520   1.695   9.241  0.3902 -0.6898  0.4542
29719SOL    HW190770   1.491   1.751   9.169 -1.0521 -2.4593 -0.4373
29719SOL    HW290771   1.593   1.645   9.204 -0.4161 -1.6711  0.1315
29720SOL     OW90772   7.537   9.352   9.009 -0.0688  0.0480  0.8747
29720SOL    HW190773   7.449   9.315   9.001 -0.2495  0.6736 -0.1947
29720SOL    HW290774   7.534   9.432   8.957  1.1253  0.1083  0.8750
29721SOL     OW90775   4.334   3.381   8.863 -0.0860 -0.0457 -0.0069
29721SOL    HW190776   4.273   3.413   8.797 -0.3261 -2.2634 -0.9193
29721SOL    HW290777   4.301   3.295   8.887 -0.4189  0.8794  3.5777
29722SOL     OW90778   4.956   2.813   0.408 -0.4382 -0.4867  0.6173
29722SOL    HW190779   4.890   2.862   0.457  0.7428  2.3419 -0.3813
29722SOL    HW290780   4.909   2.779   0.332 -1.3389 -1.0747  1.4223
29723SOL     OW90781   4.778   1.728   2.561  0.5784  0.4675 -0.1349
29723SOL    HW190782   4.818   1.805   2.601 -1.2610  0.7747  1.2616
29723SOL    HW290783   4.768   1.665   2.633 -1.2852  0.3916 -0.3985
29724SOL     OW90784   5.147   1.482   7.048  0.4290 -0.0456 -0.1020
29724SOL    HW190785   5.169   1.563   7.093 -0.2046  0.3994 -0.5660
29724SOL    HW290786   5.231   1.444   7.023  0.7217  0.6648 -0.2105
29725SOL     OW90787   0.213   1.005   4.480  0.0125  0.5058 -0.3476
29725SOL    HW190788   0.282   1.070   4.467 -0.1175  0.8740  0.6626
29725SOL    HW290789   0.145   1.053   4.527  1.2433 -1.0512  3.4162
29726SOL     OW90790   2.298   5.658   6.788 -0.2252  0.1603  0.4087
29726SOL    HW190791   2.264   5.583   6.740  0.8756 -0.2285  0.2077
29726SOL    HW290792   2.358   5.701   6.727 -0.4406  0.9088  0.7071
29727SOL     OW90793   7.182   4.570   0.595 -0.6562  0.2732  0.0063
29727SOL    HW190794   7.116   4.598   0.532 -0.1308 -2.1966 -1.7982
29727SOL    HW290795   7.262   4.616   0.568 -0.4261 -0.7875 -1.2217
29728SOL     OW90796   5.007   2.023   4.249  0.9674  0.3200 -0.5954
29728SOL    HW190797   5.082   2.077   4.222  1.5982  0.4800  1.3068
29728SOL    HW290798   4.943   2.087   4.281  1.1399  0.0314  0.3395
29729SOL     OW90799   0.956   7.843   7.924 -0.5671  0.0907 -0.2595
29729SOL    HW190800   1.035   7.798   7.955 -0.5838 -1.6469 -2.5015
29729SOL    HW290801   0.909   7.866   8.004  1.2813 -0.5200  1.0770
29730SOL     OW90802   9.456   3.356   3.913 -0.1629  0.0034  0.5340
29730SOL    HW190803   9.463   3.308   3.996 -0.1891  1.8048  1.6527
29730SOL    HW290804   9.363   3.355   3.892 -0.2156 -0.0888  0.7687
29731SOL     OW90805   0.764   6.476   5.652  0.2531 -0.1845  0.2262
29731SOL    HW190806   0.751   6.382   5.638  1.2350 -0.1892 -0.7888
29731SOL    HW290807   0.726   6.493   5.738 -1.4128 -1.1795 -0.2851
29732SOL     OW90808   1.363   1.275   8.423  0.4237  0.0291  0.1964
29732SOL    HW190809   1.338   1.186   8.395  0.3002  0.3430 -0.7336
29732SOL    HW290810   1.301   1.332   8.378  0.5600  0.5978  0.7254
29733SOL     OW90811   4.252   1.977   0.829 -0.1037  0.2710 -0.0551
29733SOL    HW190812   4.282   1.917   0.760 -0.9481 -1.1108  0.7363
29733SOL    HW290813   4.332   2.003   0.874  0.1845 -1.5106  0.5560
29734SOL     OW90814   7.453   6.627   0.412  0.0771 -0.3511  0.8559
29734SOL    HW190815   7.419   6.703   0.366  0.4591 -1.4416 -1.3682
29734SOL    HW290816   7.377   6.570   0.423  0.4262 -1.2294 -0.8942
29735SOL     OW90817   7.797   4.851   6.828 -0.5277 -0.3647 -0.1313
29735SOL    HW190818   7.892   4.840   6.836 -0.6762 -0.2674  3.1252
29735SOL    HW290819   7.760   4.786   6.889 -2.3831  1.7182  1.1187
29736SOL     OW90820   2.118   4.668   5.712  0.2140 -0.0456 -0.5133
29736SOL    HW190821   2.101   4.760   5.688  1.3708  0.4977  0.6075
29736SOL    HW290822   2.043   4.620   5.679 -0.7272  1.4102 -0.5659
29737SOL     OW90823   3.755   0.567   7.133 -0.2949  0.0338  0.2646
29737SOL    HW190824   3.692   0.501   7.161 -0.9227  0.4712 -0.0891
29737SOL    HW290825   3.839   0.521   7.131 -0.5334 -0.4577  1.1077
29738SOL     OW90826   5.892   7.835   8.103 -0.4039  0.1553  0.0250
29738SOL    HW190827   5.897   7.747   8.141 -0.4324 -0.0651 -0.4699
29738SOL    HW290828   5.856   7.889   8.173 -0.7863 -0.3148  0.2026
29739SOL     OW90829   8.406   5.152   5.075 -0.2325 -0.4494  0.1717
29739SOL    HW190830   8.378   5.090   5.142 -0.9490  0.6489  0.9273
29739SOL    HW290831   8.324   5.187   5.039  0.0580  2.0898  1.7144
29740SOL     OW90832   0.190   3.524   5.689  0.0690 -0.9284  0.0436
29740SOL    HW190833   0.162   3.613   5.711 -0.7047 -0.8035 -1.3186
29740SOL    HW290834   0.228   3.490   5.770 -0.2548  0.3947  0.7803
29741SOL     OW90835   2.656   2.458   8.257  0.6101 -0.0816 -0.4500
29741SOL    HW190836   2.615   2.449   8.343  0.2709  0.0875 -0.5926
29741SOL    HW290837   2.744   2.423   8.269  1.7062  2.7914  0.8087
29742SOL     OW90838   3.403   0.477   4.262  0.0373  0.1881  0.4282
29742SOL    HW190839   3.464   0.510   4.196  0.7498  1.6658  1.7695
29742SOL    HW290840   3.319   0.517   4.239 -0.6244 -2.1585 -1.6543
29743SOL     OW90841   7.911   4.817   3.767 -0.1354  0.0569  0.6362
29743SOL    HW190842   7.866   4.901   3.775 -1.7992 -0.6126 -1.0678
29743SOL    HW290843   8.001   4.835   3.795 -0.1578  2.6559 -0.7177
29744SOL     OW90844   0.407   3.189   4.689 -0.0678 -0.0259  0.1513
29744SOL    HW190845   0.394   3.187   4.783  2.8445  1.1647  0.6951
29744SOL    HW290846   0.499   3.166   4.677 -0.1504  0.6424 -2.3236
29745SOL     OW90847   4.812   5.326   8.721  0.3115  0.0254 -0.2716
29745SOL    HW190848   4.794   5.381   8.797  0.3611 -0.2228 -0.0792
29745SOL    HW290849   4.881   5.266   8.750  1.8161  1.2525 -1.1362
29746SOL     OW90850   8.362   1.395   3.254  0.4396 -0.1909 -0.0388
29746SOL    HW190851   8.421   1.446   3.309 -0.4645  2.1172 -1.0507
29746SOL    HW290852   8.418   1.332   3.210  2.0404  1.2870 -0.2299
29747SOL     OW90853   6.384   1.638   0.991  0.3529  0.2118 -0.0128
29747SOL    HW190854   6.474   1.610   1.002  0.3025 -0.2938 -0.8156
29747SOL    HW290855   6.374   1.652   0.897  0.0313  1.7682  0.2204
29748SOL     OW90856   8.360   8.465   1.215  0.3283 -0.1003  0.0727
29748SOL    HW190857   8.374   8.550   1.173  0.4756 -1.0167 -1.8564
29748SOL    HW290858   8.273   8.471   1.253  0.6646  1.1841  0.7133
29749SOL     OW90859   4.597   8.870   2.382  0.1873 -0.3537  0.2525
29749SOL    HW190860   4.682   8.887   2.423  0.1872 -0.6306  0.3725
29749SOL    HW290861   4.554   8.809   2.441 -0.8307  1.1465  1.1054
29750SOL     OW90862   9.517   0.048   0.871  0.6178  0.0036 -0.0415
29750SOL    HW190863   9.484   0.033   0.782  0.5439  0.9970 -0.1949
29750SOL    HW290864   9.512  -0.037   0.913  0.9284 -0.5430 -1.0814
29751SOL     OW90865   0.996   7.535   6.260  0.0233  0.0278 -0.3454
29751SOL    HW190866   0.992   7.552   6.354 -0.4435 -1.6328 -0.0351
29751SOL    HW290867   1.084   7.562   6.234  0.1004  0.6573  0.5198
29752SOL     OW90868   4.397   6.261   1.569 -0.3245 -0.0839  0.1146
29752SOL    HW190869   4.473   6.267   1.511 -1.3346  0.4087 -1.2213
29752SOL    HW290870   4.388   6.349   1.607 -1.6923  0.6626 -1.7490
29753SOL     OW90871   6.960   6.700   0.702  0.1646 -0.0989 -0.3352
29753SOL    HW190872   7.024   6.761   0.666  0.8997 -0.5630  0.1744
29753SOL    HW290873   6.945   6.730   0.791  0.5178 -0.6401 -0.0858
29754SOL     OW90874   0.242   4.303   9.211 -0.1235 -0.4593 -0.1805
29754SOL    HW190875   0.235   4.380   9.267  0.4200  1.1294 -2.1937
29754SOL    HW290876   0.296   4.242   9.260  2.2423  1.7543  0.1575
29755SOL     OW90877   1.673   3.402   7.902 -0.1052 -0.1598  0.0199
29755SOL    HW190878   1.684   3.445   7.987  2.3569  1.0224 -0.7871
29755SOL    HW290879   1.602   3.451   7.860  0.7362  1.3364  0.2356
29756SOL     OW90880   8.726   4.976   3.278  0.0145  0.5350  0.2780
29756SOL    HW190881   8.786   4.929   3.336  0.2188  0.4871  0.0262
29756SOL    HW290882   8.656   4.914   3.260  1.0838 -0.2622 -1.3594
29757SOL     OW90883   1.192   6.256   3.640  0.2072  0.1039 -0.6664
29757SOL    HW190884   1.237   6.176   3.614 -0.0571  0.0725 -1.0314
29757SOL    HW290885   1.201   6.315   3.565  0.9168  0.6383 -0.1676
29758SOL     OW90886   1.380   9.009   1.848  0.4221  0.4208 -0.5195
29758SOL    HW190887   1.305   8.995   1.791 -0.9033  1.3255  0.9192
29758SOL    HW290888   1.346   8.998   1.937  2.2142 -0.0714  0.1573
29759SOL     OW90889   6.397   7.598   6.888 -0.2767 -0.1809 -0.4589
29759SOL    HW190890   6.371   7.642   6.808 -0.4704 -0.5158 -0.5815
29759SOL    HW290891   6.458   7.530   6.859 -0.8157 -0.6992 -0.3919
29760SOL     OW90892   0.416   8.571   3.441  0.3772 -0.2051 -0.0825
29760SOL    HW190893   0.407   8.481   3.474 -0.8463 -0.1145 -0.0992
29760SOL    HW290894   0.501   8.600   3.473 -0.0896 -0.6666  1.7146
29761SOL     OW90895   7.072   0.445   4.984  0.0947 -0.1836  0.0114
29761SOL    HW190896   7.078   0.442   5.080  0.7181  0.5033  0.0041
29761SOL    HW290897   7.034   0.531   4.965  0.1350 -0.2474 -0.3627
29762SOL     OW90898   6.353   5.338   6.263  0.1142  0.3251  0.0373
29762SOL    HW190899   6.263   5.352   6.294 -0.5005 -1.0963 -1.0200
29762SOL    HW290900   6.344   5.276   6.191  1.9667  0.1233 -0.0506
29763SOL     OW90901   4.982   7.876   6.967  0.1694 -0.3882 -0.3827
29763SOL    HW190902   5.007   7.826   6.889  0.2502 -0.7044 -0.1598
29763SOL    HW290903   5.005   7.966   6.946  0.1412 -0.4619 -0.7438
29764SOL     OW90904   4.092   3.982   9.648  0.6369  0.3302  0.2332
29764SOL    HW190905   4.075   4.072   9.677 -0.1576  0.8612 -1.7471
29764SOL    HW290906   4.137   3.992   9.564  0.5116 -1.1251 -0.0323
29765SOL     OW90907   3.946   4.317   0.412 -0.1543  0.0806 -0.3420
29765SOL    HW190908   3.973   4.272   0.332 -0.2600 -0.0689 -0.2930
29765SOL    HW290909   4.028   4.348   0.451 -0.0995  0.1216 -0.4880
29766SOL     OW90910   0.375   1.945   2.638  0.5713  0.3784 -0.8060
29766SOL    HW190911   0.455   1.987   2.605  1.0462  0.1055 -0.0200
29766SOL    HW290912   0.399   1.853   2.650 -0.0869  0.1346 -1.2697
29767SOL     OW90913   3.428   1.677   0.730 -0.3198  0.3135  0.3645
29767SOL    HW190914   3.505   1.718   0.690 -0.5757  1.4164  0.9462
29767SOL    HW290915   3.355   1.704   0.675 -0.3949 -0.0300  0.2948
29768SOL     OW90916   0.367   8.003   7.788 -0.0002  0.6187 -0.0589
29768SOL    HW190917   0.359   7.994   7.693 -0.0971  2.4385 -0.2617
29768SOL    HW290918   0.313   8.079   7.809  0.0998  0.2985  1.4533
29769SOL     OW90919   8.971   4.286   8.080 -0.0568 -0.3556 -0.1344
29769SOL    HW190920   8.990   4.248   7.994  2.5548  0.4759 -0.0023
29769SOL    HW290921   8.993   4.216   8.143  1.6510  0.2365 -0.0300
29770SOL     OW90922   0.946   0.619   0.477 -0.3676 -0.2374 -0.0681
29770SOL    HW190923   1.023   0.616   0.419 -0.9132  1.7554 -0.9854
29770SOL    HW290924   0.981   0.645   0.562  0.1834 -1.1560  0.0021
29771SOL     OW90925   0.718   6.520   4.753  0.1403  0.0220  0.2549
29771SOL    HW190926   0.682   6.440   4.714 -1.5926  0.3394  1.0928
29771SOL    HW290927   0.685   6.519   4.843  1.3481  0.9440  0.7254
29772SOL     OW90928   7.042   7.687   2.517 -0.8525  0.0949  0.3761
29772SOL    HW190929   7.032   7.778   2.545 -0.1813  0.5076 -0.6428
29772SOL    HW290930   6.978   7.639   2.568  0.9214  0.6195  3.3202
29773SOL     OW90931   7.716   3.752   8.256 -0.1317 -0.2118  0.3773
29773SOL    HW190932   7.621   3.743   8.247 -0.0278  0.0501 -1.2010
29773SOL    HW290933   7.735   3.843   8.231  0.4708 -0.0584  1.3408
29774SOL     OW90934   5.216   0.350   7.270  0.0593  0.2753 -0.5564
29774SOL    HW190935   5.249   0.382   7.186 -0.3101  0.9907 -0.4416
29774SOL    HW290936   5.132   0.309   7.248 -0.1407  0.6549 -0.5142
29775SOL     OW90937   1.847   6.905   2.551 -0.2929  0.6564 -0.0052
29775SOL    HW190938   1.825   6.866   2.636 -0.6220 -0.5022 -0.6095
29775SOL    HW290939   1.789   6.861   2.489 -1.4409  2.8662 -0.5960
29776SOL     OW90940   7.144   8.621   8.421 -0.2972 -0.2292 -0.0128
29776SOL    HW190941   7.236   8.646   8.425 -0.6573  1.1088  0.2336
29776SOL    HW290942   7.142   8.547   8.360  1.2799 -2.0113  1.9314
29777SOL     OW90943   1.195   9.830   6.145  0.5834  0.4293 -0.1133
29777SOL    HW190944   1.176   9.740   6.169  0.2545  0.6661  0.5339
29777SOL    HW290945   1.264   9.824   6.079  1.2174 -0.2480  0.5992
29778SOL     OW90946   6.105   2.856   9.393 -0.0613 -0.1606  0.2580
29778SOL    HW190947   6.156   2.799   9.450 -1.0696 -0.4954  0.8434
29778SOL    HW290948   6.132   2.945   9.418 -0.9231 -0.2774  1.6851
29779SOL     OW90949   5.174   1.390   6.185 -0.4328  0.2304 -0.1280
29779SOL    HW190950   5.163   1.440   6.265 -1.8593  0.1403 -0.2431
29779SOL    HW290951   5.256   1.421   6.148  1.2448 -1.0071  2.2625
29780SOL     OW90952   6.572   1.534   4.186 -0.2993 -0.3980  0.4760
29780SOL    HW190953   6.495   1.489   4.151 -1.2883  1.8562 -0.3798
29780SOL    HW290954   6.543   1.574   4.267 -0.5555  1.8064 -0.6412
29781SOL     OW90955   9.667   5.670   9.659 -0.1267  0.1850 -0.1676
29781SOL    HW190956   9.657   5.758   9.622  0.3514 -0.2894 -1.4886
29781SOL    HW290957   9.668   5.684   9.754 -1.1676  1.4783 -0.3192
29782SOL     OW90958   1.430   0.105   6.878 -0.2852  0.4174 -0.6352
29782SOL    HW190959   1.499   0.089   6.942 -1.1636 -3.2136 -0.3405
29782SOL    HW290960   1.467   0.077   6.794 -0.8673 -0.0871 -0.7339
29783SOL     OW90961   5.049   6.660   3.064  0.3027  0.2260 -0.0252
29783SOL    HW190962   5.078   6.593   3.127  2.3903  0.2914 -0.8380
29783SOL    HW290963   5.095   6.739   3.090 -0.3738  0.7728 -0.4544
29784SOL     OW90964   3.357   0.532   5.235  0.1843  0.1091  0.3564
29784SOL    HW190965   3.326   0.595   5.170  0.9983  1.6553  1.4163
29784SOL    HW290966   3.388   0.458   5.183 -0.4951  0.6955 -0.9408
29785SOL     OW90967   3.157   0.902   9.841 -0.2508  0.1823 -0.9057
29785SOL    HW190968   3.159   0.985   9.887  1.4186 -0.3610  0.0895
29785SOL    HW290969   3.173   0.836   9.908 -2.0976 -1.0526 -1.5569
29786SOL     OW90970   1.182   3.507   7.819 -0.3248  0.1214 -0.0019
29786SOL    HW190971   1.165   3.538   7.908  0.5045  1.7232 -0.3696
29786SOL    HW290972   1.111   3.544   7.767  0.2923  0.8607 -0.3317
29787SOL     OW90973   4.505   6.134   2.336  0.1619 -0.3761 -0.4060
29787SOL    HW190974   4.569   6.070   2.368  1.0830  0.8186  0.2244
29787SOL    HW290975   4.445   6.083   2.281  1.4279 -1.6059 -0.6972
29788SOL     OW90976   0.078   8.516   2.978 -0.2045 -0.1993  0.5600
29788SOL    HW190977   0.150   8.489   3.035 -1.5066  0.1352  2.4659
29788SOL    HW290978   0.074   8.449   2.910  1.4453 -0.5942  0.8156
29789SOL     OW90979   5.265   6.109   3.227  0.3099  0.3176  0.2640
29789SOL    HW190980   5.248   6.163   3.150  1.0266 -0.1413 -0.2247
29789SOL    HW290981   5.227   6.024   3.206  0.1270  0.3144  0.5980
29790SOL     OW90982   7.287   4.423   2.183  0.3885 -0.2027  0.2252
29790SOL    HW190983   7.305   4.435   2.090  2.5479  0.7452  0.6950
29790SOL    HW290984   7.364   4.460   2.227 -0.3198 -1.1283  2.3752
29791SOL     OW90985   5.130   7.706   3.879  0.0305  0.0747 -0.3169
29791SOL    HW190986   5.059   7.720   3.818  0.1261 -0.4409 -0.5442
29791SOL    HW290987   5.209   7.709   3.826  0.1684  0.4168 -0.1001
29792SOL     OW90988   3.529   0.746   4.777  0.3292 -0.3735 -0.1998
29792SOL    HW190989   3.532   0.724   4.684 -1.4310 -0.3979 -0.2826
29792SOL    HW290990   3.485   0.830   4.781 -0.7342 -0.9374  0.6688
29793SOL     OW90991   5.376   3.336   8.764  0.6310 -0.5323  0.4042
29793SOL    HW190992   5.408   3.266   8.821  1.5038 -0.9364 -0.5505
29793SOL    HW290993   5.332   3.290   8.692  1.4745 -0.1293 -0.3909
29794SOL     OW90994   9.411   6.700   9.616 -0.6551 -0.2379 -0.1592
29794SOL    HW190995   9.352   6.755   9.668 -1.0662 -0.2572 -0.5977
29794SOL    HW290996   9.453   6.642   9.680  0.6000  1.2990  0.4639
29795SOL     OW90997   1.580   3.556   2.625  0.3753  0.4028  0.1259
29795SOL    HW190998   1.582   3.632   2.682  1.2037 -0.4581  1.2919
29795SOL    HW290999   1.543   3.486   2.680  0.1991 -0.1900 -0.7220
29796SOL     OW91000   6.029   5.734   7.376 -0.1631  0.1828  0.1237
29796SOL    HW191001   6.094   5.711   7.442 -0.8953 -0.0193  0.7985
29796SOL    HW291002   5.995   5.650   7.345 -0.1322  0.2840 -0.1826
29797SOL     OW91003   8.071   9.103   1.563 -0.2308  0.3994  0.8875
29797SOL    HW191004   7.996   9.044   1.570  0.3247 -0.3232  0.9816
29797SOL    HW291005   8.101   9.113   1.654  1.1576 -1.1903  0.6698
29798SOL     OW91006   5.301   1.905   5.916  0.0293 -0.8915 -0.0825
29798SOL    HW191007   5.305   1.832   5.854 -0.2502 -2.1021  1.2675
29798SOL    HW291008   5.359   1.878   5.988 -0.2226  0.1363  0.5227
29799SOL     OW91009   4.193   9.527   6.671 -0.0489 -0.0197  0.0750
29799SOL    HW191010   4.246   9.606   6.665  1.0102 -0.7000  0.2871
29799SOL    HW291011   4.194   9.490   6.583 -0.5288  0.1868 -0.0206
29800SOL     OW91012   3.388   3.179   3.663 -0.5790 -0.5232 -0.3997
29800SOL    HW191013   3.332   3.186   3.740 -0.5808  1.1489 -0.5302
29800SOL    HW291014   3.380   3.087   3.637 -1.4707 -0.8500  0.9107
29801SOL     OW91015   7.826   2.607   9.695  0.0713  0.3161 -0.5070
29801SOL    HW191016   7.885   2.537   9.722  0.3173  0.9638  0.7321
29801SOL    HW291017   7.818   2.663   9.773 -1.4874  0.7210 -0.9209
29802SOL     OW91018   8.447   9.366   2.974 -0.6947  0.0026  0.1732
29802SOL    HW191019   8.515   9.310   2.937 -1.5160 -0.5094 -0.6361
29802SOL    HW291020   8.492   9.421   3.038 -0.0023 -2.2401  1.7481
29803SOL     OW91021   0.015   2.561   0.282 -0.2123 -0.1690  1.1358
29803SOL    HW191022  -0.027   2.641   0.315 -0.7904 -0.4354  1.0598
29803SOL    HW291023  -0.020   2.492   0.338 -2.4879 -0.8882 -0.9713
29804SOL     OW91024   0.997   6.287   2.593 -0.0212  0.3401 -0.0462
29804SOL    HW191025   1.045   6.362   2.557 -0.6208  0.6044 -0.3006
29804SOL    HW291026   0.916   6.324   2.627 -0.4378 -0.2245 -0.4104
29805SOL     OW91027   5.037   6.504   5.656 -0.1136  0.0694  0.0707
29805SOL    HW191028   5.048   6.465   5.570  0.5461 -0.8311  0.5543
29805SOL    HW291029   5.026   6.598   5.639  0.7230 -0.0057 -0.9433
29806SOL     OW91030   4.607   4.053   0.035 -0.1184  0.0532 -0.0494
29806SOL    HW191031   4.557   4.134   0.030 -2.2033 -1.1796 -0.6833
29806SOL    HW291032   4.593   4.012  -0.051 -0.4305 -1.6623  0.7702
29807SOL     OW91033   2.349   8.760   5.824 -0.0334  0.5148 -0.3708
29807SOL    HW191034   2.404   8.811   5.764 -0.9355  0.3619 -1.3486
29807SOL    HW291035   2.324   8.683   5.773 -0.0665 -0.0789  0.5283
29808SOL     OW91036   7.819   6.273   8.491 -0.1257 -0.1852 -0.5280
29808SOL    HW191037   7.896   6.293   8.544 -2.2516  1.1240  2.3625
29808SOL    HW291038   7.811   6.178   8.495  1.3295 -0.3397 -0.9009
29809SOL     OW91039   6.190   5.362   4.722 -0.0106 -0.0586  0.4704
29809SOL    HW191040   6.214   5.404   4.640 -1.2610  1.0441  0.6243
29809SOL    HW291041   6.102   5.328   4.707  0.1299 -0.6890  1.0498
29810SOL     OW91042   6.417   0.221   0.826  0.5268 -0.4666  0.2334
29810SOL    HW191043   6.467   0.204   0.747 -0.9281 -1.0398 -0.5987
29810SOL    HW291044   6.438   0.149   0.884  1.6864  0.0139  0.4463
29811SOL     OW91045   5.158   5.649   9.615  0.1491  0.3967  0.1209
29811SOL    HW191046   5.144   5.607   9.699  1.0961 -2.4764 -1.0110
29811SOL    HW291047   5.129   5.585   9.550 -0.4806  2.4555 -1.7817
29812SOL     OW91048   8.975   7.033   1.291  0.6216  0.0665 -0.2731
29812SOL    HW191049   8.989   7.015   1.384 -0.5008 -0.3301 -0.1661
29812SOL    HW291050   8.887   7.072   1.287  0.5894 -0.0727 -1.1783
29813SOL     OW91051   7.152   0.701   6.192 -0.0750 -0.3179  0.0162
29813SOL    HW191052   7.186   0.753   6.265  2.2063  0.3453 -1.4027
29813SOL    HW291053   7.223   0.702   6.127 -1.6454 -1.6454 -1.8352
29814SOL     OW91054   5.466   4.787   5.446  0.3994  0.1460  0.3679
29814SOL    HW191055   5.403   4.848   5.483 -1.5837  0.2024 -2.7733
29814SOL    HW291056   5.460   4.709   5.501 -0.8662  0.8965  1.3410
29815SOL     OW91057   6.954   1.397   3.760 -0.5820  0.7851 -0.2441
29815SOL    HW191058   6.988   1.474   3.716 -0.3678  0.2615 -1.0130
29815SOL    HW291059   6.960   1.327   3.695 -2.5692  0.5284 -0.2296
29816SOL     OW91060   1.721   7.099   6.578 -0.1559  0.2532  0.0369
29816SOL    HW191061   1.695   7.076   6.667 -0.6422 -1.6689 -0.5640
29816SOL    HW291062   1.658   7.167   6.553  1.3179  2.4719  1.8431
29817SOL     OW91063   0.453   0.160   5.733 -0.3912  0.0016  0.1020
29817SOL    HW191064   0.437   0.071   5.762 -1.4125 -0.4258 -1.6044
29817SOL    HW291065   0.544   0.161   5.705  0.7449  0.5240  3.3711
29818SOL     OW91066   6.636   5.675   7.576  0.2379  0.2528 -0.0264
29818SOL    HW191067   6.592   5.592   7.555  1.1010  0.0233 -0.9911
29818SOL    HW291068   6.566   5.740   7.576 -0.7711 -0.6862  2.4288
29819SOL     OW91069   3.117   3.061   0.444 -0.0785 -0.2503 -0.1363
29819SOL    HW191070   3.185   3.006   0.484  0.6133 -0.6244 -1.7461
29819SOL    HW291071   3.044   3.002   0.428 -0.8992  0.1792  1.7155
29820SOL     OW91072   4.987   4.940   9.722  0.1378  0.0333 -0.1910
29820SOL    HW191073   4.974   4.969   9.812 -1.3382  0.9401 -0.6708
29820SOL    HW291074   4.963   4.847   9.723  0.4858 -0.0567  0.4138
29821SOL     OW91075   9.402   0.833   4.660  0.0753  0.0181 -0.0210
29821SOL    HW191076   9.430   0.765   4.720  3.2921  2.2381  1.2316
29821SOL    HW291077   9.457   0.822   4.583 -0.0291  0.6271 -0.1931
29822SOL     OW91078   0.215   1.575   7.168 -0.1985  0.3249  0.2425
29822SOL    HW191079   0.236   1.604   7.080 -0.0200  0.0099  0.1817
29822SOL    HW291080   0.275   1.502   7.185 -1.6476 -1.0229 -0.1769
29823SOL     OW91081   2.617   8.407   7.555 -0.4684  0.3488  0.6878
29823SOL    HW191082   2.566   8.359   7.490  1.9375 -0.2806 -0.8562
29823SOL    HW291083   2.616   8.497   7.525  0.9205  0.0036 -0.4887
29824SOL     OW91084   5.622   7.463   5.557 -0.0488 -0.2371  0.2340
29824SOL    HW191085   5.617   7.504   5.643  1.5656 -0.3890  0.4342
29824SOL    HW291086   5.652   7.374   5.574 -0.4421 -0.5109 -0.4420
29825SOL     OW91087   9.457   0.195   6.973 -0.4586  0.3741  0.2351
29825SOL    HW191088   9.442   0.257   6.902  0.0891 -0.6175 -0.7911
29825SOL    HW291089   9.397   0.123   6.955  0.5741 -0.4711  0.0241
29826SOL     OW91090   9.452   0.053   9.150  0.2637 -0.1085 -0.4750
29826SOL    HW191091   9.511   0.091   9.084  0.2884  0.2616 -0.2387
29826SOL    HW291092   9.501   0.058   9.232  0.4030 -0.9705 -0.5002
29827SOL     OW91093   3.296   2.096   8.194  0.1131  0.1195 -0.7169
29827SOL    HW191094   3.266   2.029   8.256  2.5037  0.5260  1.0185
29827SOL    HW291095   3.228   2.098   8.126 -1.0534 -2.5972  0.2246
29828SOL     OW91096   8.930   9.448   5.614 -0.5831  0.1139  0.0535
29828SOL    HW191097   8.904   9.356   5.625 -0.7598  0.1272 -0.2449
29828SOL    HW291098   9.014   9.444   5.569 -0.8469  0.1103 -0.4446
29829SOL     OW91099   1.009   0.939   9.306 -0.2211 -0.3066  0.5137
29829SOL    HW191100   0.931   0.979   9.269 -0.9208 -2.2661 -0.2561
29829SOL    HW291101   0.979   0.893   9.384 -0.1322 -2.0918 -0.4485
29830SOL     OW91102   3.809   1.129   3.954 -0.3273 -0.0019  0.6168
29830SOL    HW191103   3.894   1.098   3.922 -0.3865 -1.2606  1.5833
29830SOL    HW291104   3.826   1.155   4.045 -1.3375 -2.3011  1.5599
29831SOL     OW91105   6.648   6.964   2.301 -0.6327  0.3607 -0.2016
29831SOL    HW191106   6.640   6.958   2.396 -0.6135  0.6845 -0.1777
29831SOL    HW291107   6.734   6.928   2.281 -0.6289  0.3103 -0.0948
29832SOL     OW91108   1.764   3.766   3.660 -0.2517 -0.0164 -0.3091
29832SOL    HW191109   1.669   3.763   3.647 -0.2772 -1.2612  0.0149
29832SOL    HW291110   1.783   3.857   3.683 -1.4101  0.1694 -0.0589
29833SOL     OW91111   9.643   1.265   3.476  0.1027 -0.4104  0.2582
29833SOL    HW191112   9.622   1.217   3.396  1.5093  0.7782 -0.8682
29833SOL    HW291113   9.566   1.252   3.533 -1.8053  0.3023 -2.0129
29834SOL     OW91114   6.451   2.995   9.366 -0.1357  0.0797 -0.0589
29834SOL    HW191115   6.366   2.996   9.410 -0.2566 -0.0124 -0.2884
29834SOL    HW291116   6.463   3.086   9.337 -0.0128  0.1606  0.2455
29835SOL     OW91117   2.043   6.647   3.116  0.2081  0.1421 -0.0119
29835SOL    HW191118   1.979   6.611   3.177 -0.8825  1.0317 -0.5901
29835SOL    HW291119   2.054   6.580   3.049 -0.3661  0.1178 -0.0796
29836SOL     OW91120   4.248   9.580   8.958  0.7574  0.1075  0.4349
29836SOL    HW191121   4.330   9.536   8.938  0.3008 -0.4883 -0.1789
29836SOL    HW291122   4.184   9.509   8.966  0.6116  0.3988  2.6287
29837SOL     OW91123   3.399   0.409   1.157 -0.4070 -0.2177  0.6061
29837SOL    HW191124   3.481   0.369   1.129 -1.4242 -0.6808 -1.9864
29837SOL    HW291125   3.424   0.467   1.229  2.0022 -1.1349  0.5932
29838SOL     OW91126   4.833   5.793   5.147 -0.5984  0.2341 -0.1605
29838SOL    HW191127   4.749   5.815   5.187  0.8024  2.1037  2.0312
29838SOL    HW291128   4.888   5.870   5.164  1.4906 -0.8052 -1.7580
29839SOL     OW91129   9.541   4.807   5.697  0.1850 -0.3081  0.5878
29839SOL    HW191130   9.468   4.860   5.664  0.4089 -0.0406  0.5135
29839SOL    HW291131   9.508   4.768   5.778 -0.6284 -1.5726 -0.3251
29840SOL     OW91132   2.854   6.850   5.837  0.0932 -0.3910  0.0361
29840SOL    HW191133   2.763   6.834   5.863  0.9634 -1.6881  2.6257
29840SOL    HW291134   2.868   6.943   5.857 -0.7999 -0.0231 -0.9617
29841SOL     OW91135   9.342   1.048   1.131  0.3998 -0.1912 -0.1826
29841SOL    HW191136   9.436   1.053   1.145  0.3930  0.4001 -0.3140
29841SOL    HW291137   9.311   1.138   1.139 -0.4976 -0.6462  2.1290
29842SOL     OW91138   9.715   4.967   5.828  0.0883 -0.1692  0.3150
29842SOL    HW191139   9.665   4.921   5.761  0.2448 -0.2881  0.2774
29842SOL    HW291140   9.692   4.922   5.910  1.0845 -1.0565  0.1381
29843SOL     OW91141   7.289   5.576   4.808 -0.3766 -0.0185 -0.5553
29843SOL    HW191142   7.258   5.502   4.756  1.7711 -0.8418 -0.7920
29843SOL    HW291143   7.308   5.644   4.744  0.9080 -0.5258 -0.7471
29844SOL     OW91144   4.909   3.770   7.334  0.0211 -0.0323 -0.0033
29844SOL    HW191145   4.895   3.858   7.369  0.1679  0.6205 -1.5412
29844SOL    HW291146   4.945   3.721   7.408  0.5895  1.3662  0.6879
29845SOL     OW91147   5.051   7.366   0.743 -0.3197  0.2545 -0.2417
29845SOL    HW191148   5.139   7.398   0.759 -0.0264 -0.0557 -1.1933
29845SOL    HW291149   5.032   7.308   0.817  0.5904 -0.3153 -0.4467
29846SOL     OW91150   4.825   2.760   3.151 -0.0406 -0.5232 -0.7196
29846SOL    HW191151   4.813   2.711   3.070 -1.2264 -2.1730  0.3838
29846SOL    HW291152   4.769   2.715   3.215  3.7018 -1.7028  2.0605
29847SOL     OW91153   7.443   3.745   8.350 -0.2958 -0.0209  0.2320
29847SOL    HW191154   7.440   3.837   8.374  0.6168 -0.1901  1.0806
29847SOL    HW291155   7.442   3.698   8.434 -0.9600 -0.7902 -0.1909
29848SOL     OW91156   1.802   1.133   5.477  0.1668 -0.0643 -0.6402
29848SOL    HW191157   1.849   1.184   5.412  1.1872  0.4152  0.4327
29848SOL    HW291158   1.840   1.046   5.472  1.1395  0.2917  0.1419
29849SOL     OW91159   0.186   2.686   1.286  0.7701  0.8561 -0.2171
29849SOL    HW191160   0.201   2.722   1.199 -0.6501 -0.2072 -0.9399
29849SOL    HW291161   0.125   2.614   1.272  0.4141  0.7409  1.6850
29850SOL     OW91162   1.750   8.177   9.583  0.0508 -0.2791  0.1284
29850SOL    HW191163   1.813   8.124   9.533 -0.8408  0.2707 -1.6841
29850SOL    HW291164   1.745   8.134   9.668 -0.2357 -2.8426 -1.0745
29851SOL     OW91165   6.618   3.360   9.112 -0.3928  0.4814  0.0759
29851SOL    HW191166   6.669   3.281   9.098 -0.4854  0.5016 -0.3734
29851SOL    HW291167   6.662   3.405   9.185  0.9513  1.1045 -1.0639
29852SOL     OW91168   6.460   0.646   9.007 -0.4025  0.1319  0.5771
29852SOL    HW191169   6.549   0.662   9.040 -1.2508  2.6483  1.8820
29852SOL    HW291170   6.462   0.555   8.978  2.7556  0.2592  0.0199
29853SOL     OW91171   6.505   5.323   3.550  0.5466 -0.3491 -0.3128
29853SOL    HW191172   6.465   5.341   3.465  1.2974  0.7253 -0.4606
29853SOL    HW291173   6.522   5.229   3.549  0.4573 -0.3668 -1.3106
29854SOL     OW91174   1.218   6.675   9.274 -0.0040 -0.0077 -0.2392
29854SOL    HW191175   1.288   6.624   9.233  1.0371  0.3932  0.9768
29854SOL    HW291176   1.196   6.627   9.354 -1.6169 -0.4764 -0.9115
29855SOL     OW91177   3.210   7.770   7.045  0.0312 -0.2856  0.0514
29855SOL    HW191178   3.231   7.705   6.978  0.3300 -1.9271  1.6537
29855SOL    HW291179   3.252   7.738   7.124  1.2907  2.5649  0.6823
29856SOL     OW91180   1.927   6.484   8.086 -0.1935 -0.0180 -0.3155
29856SOL    HW191181   1.878   6.547   8.139  2.1960  0.7778  1.0895
29856SOL    HW291182   1.909   6.399   8.127  0.8001  0.4625  1.2001
29857SOL     OW91183   2.244   6.345   7.006  0.1870  0.1116  0.1689
29857SOL    HW191184   2.212   6.340   7.096 -0.4832  0.9821 -0.0070
29857SOL    HW291185   2.339   6.334   7.013 -0.1386 -3.7850  0.6167
29858SOL     OW91186   8.411   2.369   3.127 -0.5301  0.0774  0.0972
29858SOL    HW191187   8.404   2.292   3.071 -1.0078 -0.7159  1.2012
29858SOL    HW291188   8.392   2.336   3.215  0.1915  1.2794  0.7266
29859SOL     OW91189   7.931   1.999   5.639  0.5674  0.4353 -0.4087
29859SOL    HW191190   7.873   1.935   5.598 -0.5077  1.1854 -0.1143
29859SOL    HW291191   7.959   1.958   5.720 -1.3122  0.8663  0.5139
29860SOL     OW91192   6.185   8.680   9.196 -0.1940  0.3691  0.3152
29860SOL    HW191193   6.276   8.650   9.197 -0.0864  0.5983  2.2086
29860SOL    HW291194   6.191   8.773   9.175  0.0029  0.3640  0.3461
29861SOL     OW91195   0.686   1.890   1.981  0.6664  0.1180  0.2035
29861SOL    HW191196   0.612   1.946   1.957  0.2149 -0.6904 -0.3215
29861SOL    HW291197   0.733   1.875   1.898  1.8668  1.2313  0.6433
29862SOL     OW91198   7.346   5.782   5.671  0.0306  0.0382  0.4647
29862SOL    HW191199   7.359   5.872   5.701 -0.5758  0.4011 -0.3150
29862SOL    HW291200   7.292   5.791   5.593 -2.0663 -1.1528  1.6950
29863SOL     OW91201   7.406   4.893   0.232 -0.0367 -0.5499 -0.0033
29863SOL    HW191202   7.496   4.914   0.256  0.1933 -1.6736  0.1387
29863SOL    HW291203   7.402   4.911   0.138 -0.2862  1.5760  0.3687
29864SOL     OW91204   0.824   6.339   0.770 -1.0800 -0.3809 -0.0336
29864SOL    HW191205   0.781   6.280   0.708 -1.5988 -0.4866  0.4295
29864SOL    HW291206   0.753   6.378   0.820 -0.6818 -0.0163  0.2546
29865SOL     OW91207   7.219   0.214   2.498 -0.1531  0.0478  0.1335
29865SOL    HW191208   7.180   0.261   2.571  1.5682  1.1035  0.4241
29865SOL    HW291209   7.175   0.250   2.420  0.0504  1.0258  0.4590
29866SOL     OW91210   1.267   4.409   2.550  0.3730  0.4264 -0.2831
29866SOL    HW191211   1.248   4.427   2.457  0.0706  1.8759  0.0376
29866SOL    HW291212   1.253   4.314   2.559 -2.8985  0.7251 -0.9939
29867SOL     OW91213   4.378   1.638   3.967 -0.2204 -0.0765 -0.3163
29867SOL    HW191214   4.346   1.684   3.889 -0.5369 -0.8766 -0.6671
29867SOL    HW291215   4.455   1.590   3.937  0.9726  1.3333  0.3813
29868SOL     OW91216   4.960   2.542   5.419  0.4442 -0.6042  0.0323
29868SOL    HW191217   4.977   2.507   5.507 -0.9812 -1.8878 -0.1595
29868SOL    HW291218   4.937   2.465   5.367 -1.0995  0.4193 -0.8655
29869SOL     OW91219   9.463   8.743   1.276  0.3042 -0.4888  0.3437
29869SOL    HW191220   9.404   8.819   1.271 -1.3624 -1.6993  0.8895
29869SOL    HW291221   9.497   8.746   1.366  1.8016  0.6741 -0.2089
29870SOL     OW91222   0.149   5.781   4.123 -0.7230  0.3730  0.0231
29870SOL    HW191223   0.212   5.852   4.137  0.5708 -0.7048 -0.0969
29870SOL    HW291224   0.147   5.735   4.207 -1.8924  0.7926  0.2384
29871SOL     OW91225   7.570   2.936   7.569 -1.0062 -0.1782  0.0068
29871SOL    HW191226   7.487   2.984   7.563 -1.1191 -0.2657  0.8064
29871SOL    HW291227   7.588   2.909   7.479 -2.6323 -1.4888  0.0337
29872SOL     OW91228   8.655   0.809   6.699 -0.6791 -0.2418  0.3097
29872SOL    HW191229   8.694   0.869   6.762 -1.9948  0.4177  0.5315
29872SOL    HW291230   8.680   0.722   6.730  0.3268  0.1366  0.6058
29873SOL     OW91231   0.591   0.810   6.210 -0.3172 -0.4232 -0.0269
29873SOL    HW191232   0.576   0.843   6.122 -0.6503 -0.7528 -0.0988
29873SOL    HW291233   0.647   0.875   6.252  0.1601 -0.4526 -0.6048
29874SOL     OW91234   0.851   3.043   8.767 -0.0233  0.1468  0.2509
29874SOL    HW191235   0.847   3.039   8.863  1.5389  0.0332  0.3302
29874SOL    HW291236   0.912   3.114   8.748 -0.3841  0.2220 -0.6699
29875SOL     OW91237   9.667   1.768   5.440 -0.2855  0.2318  0.3176
29875SOL    HW191238   9.666   1.765   5.536  0.3350  1.0194  0.3599
29875SOL    HW291239   9.754   1.738   5.416  0.1582  1.6012  0.0896
29876SOL     OW91240   8.119   5.011   3.163 -0.1669 -0.2765 -0.5018
29876SOL    HW191241   8.191   5.010   3.227 -1.5858  3.4407  1.4323
29876SOL    HW291242   8.151   5.067   3.092 -1.0649  1.4903  0.4215
29877SOL     OW91243   7.979   8.340   3.763  0.1506  0.3518  0.3189
29877SOL    HW191244   8.026   8.389   3.696 -0.7596  0.0711 -0.5588
29877SOL    HW291245   7.949   8.261   3.718 -0.5821  0.2085  1.0239
29878SOL     OW91246   0.894   3.014   4.859  0.5527  0.5425 -0.5962
29878SOL    HW191247   0.924   3.052   4.776  0.2035  1.6872 -0.2200
29878SOL    HW291248   0.862   3.089   4.909  1.6832 -0.0026  0.9902
29879SOL     OW91249   3.435   8.384   2.709 -0.3957  0.4288  0.3269
29879SOL    HW191250   3.420   8.291   2.728 -0.9804  0.2855 -0.7498
29879SOL    HW291251   3.488   8.384   2.629  1.5686  1.0163  1.5623
29880SOL     OW91252   5.433   0.094   8.636 -0.2045 -0.2172  0.3917
29880SOL    HW191253   5.521   0.073   8.602  0.2128  0.6989  0.8811
29880SOL    HW291254   5.419   0.185   8.611 -1.0759 -0.3968  0.2130
29881SOL     OW91255   3.386   5.255   8.302 -0.2581  0.2534  0.4214
29881SOL    HW191256   3.432   5.246   8.385 -1.4198 -1.6036  0.9284
29881SOL    HW291257   3.455   5.256   8.236  0.6050 -1.3949  1.2330
29882SOL     OW91258   2.615   7.285   4.289 -0.5604  0.0642  0.0790
29882SOL    HW191259   2.676   7.259   4.219 -0.7768 -0.5528  0.1151
29882SOL    HW291260   2.598   7.205   4.337 -0.6747  0.4218  0.6501
29883SOL     OW91261   4.930   1.219   0.225 -0.2246 -0.7578  0.0669
29883SOL    HW191262   5.008   1.203   0.172  0.0252 -0.2432  0.2652
29883SOL    HW291263   4.870   1.265   0.166  0.4402  0.7193  0.4778
29884SOL     OW91264   4.710   1.426   8.039  0.4838 -0.3585  0.0316
29884SOL    HW191265   4.629   1.444   7.992  0.8215 -2.7634 -1.6833
29884SOL    HW291266   4.693   1.454   8.129 -1.5362  0.9476 -0.7067
29885SOL     OW91267   8.813   7.304   6.363 -0.2485  0.1617 -0.4684
29885SOL    HW191268   8.727   7.327   6.329 -0.8168  0.8941  1.3803
29885SOL    HW291269   8.873   7.324   6.291 -1.3669  1.8407 -0.9900
29886SOL     OW91270   1.424   7.708   3.241 -0.6905 -0.1358  0.3853
29886SOL    HW191271   1.492   7.741   3.300 -0.2733 -2.1308  1.0976
29886SOL    HW291272   1.408   7.618   3.270 -0.9777 -0.9793 -2.1050
29887SOL     OW91273   6.924   0.558   0.024  0.0529 -0.6332  0.7995
29887SOL    HW191274   6.842   0.538  -0.021 -0.4030  1.8593  0.3907
29887SOL    HW291275   6.916   0.514   0.108 -1.5293 -0.7569  0.6170
29888SOL     OW91276   1.064   7.121   1.307 -0.5712 -0.5746  0.4331
29888SOL    HW191277   1.110   7.121   1.222  1.3235  0.7698  1.3839
29888SOL    HW291278   1.013   7.040   1.306 -0.2400 -0.8256 -1.8004
29889SOL     OW91279   6.899   6.704   6.725 -0.1354 -0.1153  0.0679
29889SOL    HW191280   6.873   6.720   6.816 -0.5166 -1.1648  0.1566
29889SOL    HW291281   6.994   6.713   6.725 -0.0318 -1.0659  0.7889
29890SOL     OW91282   8.788   0.273   1.299 -0.3877  0.2893 -0.5697
29890SOL    HW191283   8.729   0.308   1.232 -0.9087 -0.5816 -0.5873
29890SOL    HW291284   8.732   0.252   1.373  0.1606  1.0684  0.0798
29891SOL     OW91285   8.536   3.889   8.497  0.1866 -0.1300  0.4115
29891SOL    HW191286   8.463   3.949   8.517 -0.0384 -0.6263  1.1240
29891SOL    HW291287   8.512   3.848   8.414 -1.1605 -1.4981  1.4264
29892SOL     OW91288   6.654   7.184   4.469  0.0543  0.3295  0.3448
29892SOL    HW191289   6.582   7.121   4.472  0.1240  0.1832 -0.6585
29892SOL    HW291290   6.675   7.192   4.376  0.1182  1.7617  0.4689
29893SOL     OW91291   1.769   9.735   4.994  0.0547  0.3293  0.3159
29893SOL    HW191292   1.816   9.795   5.051 -0.2967  1.3103 -0.3938
29893SOL    HW291293   1.811   9.745   4.909  2.4357 -3.1453  0.8762
29894SOL     OW91294   4.769   3.595   2.816 -0.1287 -0.1625  0.0335
29894SOL    HW191295   4.827   3.659   2.776  0.4283 -1.5302 -1.4483
29894SOL    HW291296   4.698   3.584   2.753 -1.4315  0.6181  1.2945
29895SOL     OW91297   1.191   4.997   2.595  0.0656  0.3583 -0.1748
29895SOL    HW191298   1.135   5.050   2.539 -1.7980  0.6371  1.8495
29895SOL    HW291299   1.131   4.944   2.646  1.7930 -1.9462 -0.3552
29896SOL     OW91300   5.968   0.108   2.395  0.3690  0.0885 -0.3527
29896SOL    HW191301   5.900   0.133   2.333  0.0369 -0.3464 -0.1709
29896SOL    HW291302   5.999   0.023   2.364  1.1437  0.4850 -0.6875
29897SOL     OW91303   4.283   3.711   9.793  0.1436 -0.4942  0.1557
29897SOL    HW191304   4.353   3.693   9.856  1.0948  0.1426 -0.6651
29897SOL    HW291305   4.203   3.681   9.835  0.9322 -1.3343  1.0902
29898SOL     OW91306   8.008   0.089   1.315 -0.7214 -0.1078 -0.3400
29898SOL    HW191307   8.095   0.112   1.347 -0.3275 -0.7798 -0.9169
29898SOL    HW291308   8.015  -0.003   1.290 -1.1560  0.2538 -1.8635
29899SOL     OW91309   7.263   3.524   4.033 -0.8062  0.1348  0.1339
29899SOL    HW191310   7.240   3.503   3.942  1.7346 -0.2190 -0.5281
29899SOL    HW291311   7.245   3.443   4.081  0.3959 -0.6425 -0.6452
29900SOL     OW91312   2.472   2.415   5.746  0.0616 -0.1609  0.9575
29900SOL    HW191313   2.512   2.337   5.785  0.3938  0.4226  1.7993
29900SOL    HW291314   2.541   2.481   5.747 -0.3430  0.2743  0.6369
29901SOL     OW91315   4.476   9.522   5.511 -0.3902 -0.0812 -0.3643
29901SOL    HW191316   4.464   9.585   5.440  0.7673  1.1549  0.4987
29901SOL    HW291317   4.426   9.445   5.483 -1.5924  1.0895 -1.5835
29902SOL     OW91318   0.660   9.442   5.789 -0.0287  0.2592 -0.5064
29902SOL    HW191319   0.680   9.362   5.742 -1.0212 -1.0425  1.1609
29902SOL    HW291320   0.594   9.486   5.735 -1.1117 -1.1633 -0.4101
29903SOL     OW91321   7.967   6.848   5.960  0.4923  0.4154  0.4677
29903SOL    HW191322   8.008   6.920   6.008  1.7628 -0.8155  1.3331
29903SOL    HW291323   7.898   6.889   5.907 -0.6843  1.9019  2.9982
29904SOL     OW91324   8.145   2.734   1.057 -0.3947  0.3229  0.0516
29904SOL    HW191325   8.116   2.762   1.144 -0.9943  0.2502 -0.1162
29904SOL    HW291326   8.181   2.814   1.017  2.2909 -0.1567  1.2754
29905SOL     OW91327   4.689   8.105   5.162 -0.3676 -0.4062  0.4284
29905SOL    HW191328   4.605   8.085   5.203  0.4050 -0.7206  1.8952
29905SOL    HW291329   4.675   8.191   5.121 -1.5775 -0.7371  0.0999
29906SOL     OW91330   0.242   6.745   1.476  0.3094 -0.1564  0.5888
29906SOL    HW191331   0.329   6.726   1.509  0.2649 -0.8535  0.3281
29906SOL    HW291332   0.237   6.699   1.392  0.1493  0.9415 -0.0371
29907SOL     OW91333   8.935   8.905   8.780  0.4788  0.4475 -0.2263
29907SOL    HW191334   8.853   8.859   8.764  1.2497 -1.1760  0.2314
29907SOL    HW291335   8.927   8.986   8.730 -1.3033  0.2362 -0.3587
29908SOL     OW91336   4.733   4.237   3.283  0.1529  0.0168  0.0922
29908SOL    HW191337   4.733   4.333   3.282  0.4676  0.0134 -1.0662
29908SOL    HW291338   4.823   4.213   3.259 -0.3508 -0.5689 -1.2728
29909SOL     OW91339   0.982   3.652   5.608 -0.0495 -0.5617 -0.1414
29909SOL    HW191340   0.991   3.719   5.675 -0.6085  0.0853 -0.7015
29909SOL    HW291341   0.987   3.699   5.525 -2.9675 -0.8010 -0.5554
29910SOL     OW91342   1.064   6.194   8.874  0.5164  0.1044 -0.0553
29910SOL    HW191343   1.046   6.180   8.781  1.2233 -0.6208 -0.1015
29910SOL    HW291344   1.100   6.110   8.904 -0.7622 -0.0510  1.1522
29911SOL     OW91345   7.935   6.855   8.698  0.3260 -0.2897 -0.0779
29911SOL    HW191346   7.975   6.903   8.626  0.4384 -0.4414 -0.1191
29911SOL    HW291347   7.880   6.789   8.656  1.1521 -1.0156 -0.0426
29912SOL     OW91348   4.262   9.686   7.955 -0.0514  0.1012  0.6064
29912SOL    HW191349   4.237   9.776   7.936  0.9666  0.3806  0.5278
29912SOL    HW291350   4.289   9.651   7.870  1.7699  0.4606  0.9878
29913SOL     OW91351   9.221   1.388   7.492  0.3498 -0.0772 -0.4336
29913SOL    HW191352   9.214   1.465   7.547 -0.7758 -1.0139  0.8078
29913SOL    HW291353   9.283   1.331   7.538 -0.6319 -0.8889 -0.0925
29914SOL     OW91354   3.913   7.647   3.112 -0.6166  0.1631 -0.4856
29914SOL    HW191355   3.824   7.663   3.144 -0.9193  1.0180 -1.6722
29914SOL    HW291356   3.929   7.718   3.049  1.1471  0.3982  0.1655
29915SOL     OW91357   7.239   6.996   0.866 -0.0319 -0.0093 -0.0565
29915SOL    HW191358   7.145   6.992   0.846 -0.6618  2.6377  1.8956
29915SOL    HW291359   7.256   7.088   0.885  2.6589 -0.6537  1.1596
29916SOL     OW91360   0.075   0.296   8.406 -0.3390  0.6617  0.3096
29916SOL    HW191361   0.032   0.261   8.327  0.1528  0.6933  0.0226
29916SOL    HW291362   0.156   0.335   8.373 -0.7281  1.7939  0.6707
29917SOL     OW91363   9.014   6.794   0.356  0.0889 -0.2003 -0.6692
29917SOL    HW191364   8.941   6.736   0.333 -0.3387 -0.1508  0.5474
29917SOL    HW291365   8.973   6.871   0.395  0.7228  0.4794 -1.3110
29918SOL     OW91366   8.447   8.784   6.563  0.0269 -0.1956  0.3384
29918SOL    HW191367   8.465   8.851   6.498  0.6274 -0.3675  0.3214
29918SOL    HW291368   8.500   8.709   6.536 -0.1506 -0.4594  0.7110
29919SOL     OW91369   8.775   7.264   3.187  0.6223 -0.1624 -0.2320
29919SOL    HW191370   8.827   7.210   3.127  0.0826 -1.7188  0.6484
29919SOL    HW291371   8.838   7.322   3.228  1.4288 -0.9805 -0.2922
29920SOL     OW91372   2.511   5.811   4.612 -0.8395 -0.1488 -0.2024
29920SOL    HW191373   2.575   5.741   4.615 -1.1953 -0.4590  0.2961
29920SOL    HW291374   2.520   5.855   4.697  1.0449  1.9289 -1.3738
29921SOL     OW91375   2.522   7.979   2.286  0.3232  0.2276 -0.0458
29921SOL    HW191376   2.590   7.952   2.348 -1.2567 -0.0693  1.6713
29921SOL    HW291377   2.444   7.930   2.314 -0.2427 -0.7447 -2.9735
29922SOL     OW91378   7.576   4.338   1.887  0.2735 -0.3200 -0.2466
29922SOL    HW191379   7.616   4.387   1.816 -1.3929  0.0205 -1.0120
29922SOL    HW291380   7.564   4.250   1.852 -1.0322 -0.0176 -0.6197
29923SOL     OW91381   5.820   3.660   1.593 -0.5019  0.2948 -0.6013
29923SOL    HW191382   5.788   3.570   1.602 -0.4416  0.1857 -1.3865
29923SOL    HW291383   5.768   3.710   1.655  0.5461 -0.5309  1.0001
29924SOL     OW91384   6.336   4.928   5.193 -0.0044 -0.1274 -0.3181
29924SOL    HW191385   6.388   4.851   5.217  0.9228  0.4988 -0.2880
29924SOL    HW291386   6.350   4.938   5.099  0.1508  0.2073 -0.2594
29925SOL     OW91387   7.455   7.139   3.608 -0.1296 -0.4402 -0.0116
29925SOL    HW191388   7.533   7.147   3.663 -0.6162 -0.6487  0.7185
29925SOL    HW291389   7.487   7.098   3.527  0.9090  1.3615 -0.5777
29926SOL     OW91390   3.336   1.107   2.108  0.5648 -0.0938 -0.4636
29926SOL    HW191391   3.288   1.173   2.158  1.3017 -0.0303  0.1861
29926SOL    HW291392   3.281   1.029   2.114  0.2350  0.1495 -0.2655
29927SOL     OW91393   3.197   2.381   7.047  0.1673 -0.5581 -0.1683
29927SOL    HW191394   3.253   2.335   7.109 -1.8585 -1.8836  0.8170
29927SOL    HW291395   3.112   2.385   7.091 -0.7355  0.6485 -1.8977
29928SOL     OW91396   4.514   6.763   9.009 -0.3100  0.6506  0.0248
29928SOL    HW191397   4.468   6.686   9.043  0.1555 -0.9765 -2.6500
29928SOL    HW291398   4.602   6.757   9.045  0.7748 -2.1268 -2.6397
29929SOL     OW91399   3.897   4.040   4.845  0.2622  0.1860 -0.2310
29929SOL    HW191400   3.946   4.121   4.829 -0.8934  0.7868 -0.8726
29929SOL    HW291401   3.805   4.065   4.835 -0.1058 -1.3013 -0.8952
29930SOL     OW91402   1.936   2.889   6.540  0.7578 -0.0815  0.2059
29930SOL    HW191403   1.877   2.906   6.466  0.5409 -1.3071  0.0865
29930SOL    HW291404   2.003   2.957   6.533 -0.3889  1.0954  0.1048
29931SOL     OW91405   3.333   0.688   5.741 -0.1739 -0.6184 -0.3472
29931SOL    HW191406   3.366   0.773   5.713 -0.6283 -0.1890  0.3784
29931SOL    HW291407   3.370   0.626   5.678 -0.2679  0.1711 -1.2203
29932SOL     OW91408   1.871   4.240   5.964  0.1896 -0.4555 -0.1973
29932SOL    HW191409   1.838   4.173   5.904 -1.7350  0.6552 -0.4359
29932SOL    HW291410   1.826   4.320   5.938  1.8131  0.7899  0.6295
29933SOL     OW91411   9.470   3.535   7.076  0.3103 -0.1117  0.1601
29933SOL    HW191412   9.481   3.466   7.011  0.1168  0.7692 -0.8426
29933SOL    HW291413   9.478   3.616   7.026 -0.8402  0.5937  1.0648
29934SOL     OW91414   6.825   1.941   4.315  0.5912  0.5811 -0.0683
29934SOL    HW191415   6.794   2.014   4.262 -1.8167  0.0114  0.4178
29934SOL    HW291416   6.875   1.886   4.255 -2.7110 -0.4748 -2.1154
29935SOL     OW91417   2.635   2.012   1.913 -0.1312 -0.2915 -0.5278
29935SOL    HW191418   2.686   2.084   1.874 -0.0862 -1.2121 -2.2700
29935SOL    HW291419   2.696   1.939   1.915 -0.6125 -0.6850 -0.1163
29936SOL     OW91420   2.612   9.273   7.233  0.0506  0.5152 -0.2173
29936SOL    HW191421   2.519   9.264   7.211 -0.0139 -1.0068  0.5679
29936SOL    HW291422   2.623   9.221   7.313  1.6420  0.4126 -0.4733
29937SOL     OW91423   0.182   0.562   5.607  0.0637  0.7549 -0.5706
29937SOL    HW191424   0.244   0.536   5.539 -0.5473 -1.1271 -0.4807
29937SOL    HW291425   0.204   0.507   5.682 -1.3632  0.3788 -0.3879
29938SOL     OW91426   8.607   9.534   7.159 -0.0665 -0.0632  0.1718
29938SOL    HW191427   8.528   9.571   7.197  0.7756  0.0101  1.9856
29938SOL    HW291428   8.671   9.605   7.163 -0.4587  0.6722 -3.5076
29939SOL     OW91429   4.857   2.254   1.110 -0.0915 -0.1121  0.7234
29939SOL    HW191430   4.924   2.248   1.043 -0.0376  0.8925  0.6752
29939SOL    HW291431   4.778   2.283   1.063  0.0301  0.9158  1.1217
29940SOL     OW91432   5.404   4.354   4.624 -0.4376  0.5271  1.3057
29940SOL    HW191433   5.437   4.439   4.653 -0.5871  0.5797  1.3214
29940SOL    HW291434   5.470   4.291   4.654  0.4935  0.7927 -0.1227
29941SOL     OW91435   4.271   3.207   3.685 -0.6028 -0.4316 -0.8751
29941SOL    HW191436   4.353   3.200   3.635 -1.5978 -0.1909 -2.6296
29941SOL    HW291437   4.218   3.268   3.634 -1.5158  0.1895  0.7660
29942SOL     OW91438   1.182   4.418   8.967  0.4118  0.1878 -0.4938
29942SOL    HW191439   1.200   4.364   8.891  0.4126  1.1582 -1.1982
29942SOL    HW291440   1.116   4.481   8.938  0.3344  0.5112  0.3306
29943SOL     OW91441   7.380   4.281   8.450  0.3037  0.3569 -0.7103
29943SOL    HW191442   7.311   4.336   8.486  0.8438  0.8345 -0.3789
29943SOL    HW291443   7.393   4.314   8.361 -0.2023 -0.0316 -0.9301
29944SOL     OW91444   2.444   2.317   4.152  0.3718 -0.0564  0.1043
29944SOL    HW191445   2.368   2.357   4.193  0.7265  1.6349 -0.8143
29944SOL    HW291446   2.459   2.237   4.202 -0.2647  1.0392  2.1415
29945SOL     OW91447   5.398   8.948   2.728 -0.6289  0.1853 -0.0446
29945SOL    HW191448   5.463   8.925   2.662 -1.6788 -0.4049 -0.9042
29945SOL    HW291449   5.381   9.041   2.714 -1.9470 -0.2588 -1.6514
29946SOL     OW91450   4.240   5.615   9.203 -0.0025  0.4680 -0.4307
29946SOL    HW191451   4.227   5.548   9.136  0.3235 -0.3926  0.3427
29946SOL    HW291452   4.195   5.581   9.280  1.8172  0.1844  0.5530
29947SOL     OW91453   1.191   0.470   0.701  0.1338  0.5096  0.1813
29947SOL    HW191454   1.194   0.482   0.607  0.7369 -0.6605  0.0243
29947SOL    HW291455   1.209   0.376   0.714 -0.3920  0.5495  1.4270
29948SOL     OW91456   6.884   6.976   1.290 -0.0787 -0.4897 -0.1867
29948SOL    HW191457   6.821   6.983   1.218 -1.3157  1.6982  1.0029
29948SOL    HW291458   6.964   7.017   1.255 -0.6599  0.5391 -0.3416
29949SOL     OW91459   4.364   5.768   4.609 -0.2017  0.2373  0.0281
29949SOL    HW191460   4.302   5.836   4.634 -0.4361 -0.4458  1.4465
29949SOL    HW291461   4.430   5.769   4.679 -0.0448 -0.7748 -0.0816
29950SOL     OW91462   0.495   1.307   2.737  0.2030 -0.1521  0.0464
29950SOL    HW191463   0.460   1.320   2.825 -2.1077 -1.3755 -0.6289
29950SOL    HW291464   0.556   1.234   2.746 -1.0274 -1.1612  0.4131
29951SOL     OW91465   5.014   0.200   2.641  0.3345  0.2862  0.0771
29951SOL    HW191466   5.059   0.229   2.720  0.5916 -0.9071  0.3840
29951SOL    HW291467   4.927   0.172   2.673  0.6281 -0.7044  0.0406
29952SOL     OW91468   7.378   1.404   6.322  0.7654 -0.3772 -0.2876
29952SOL    HW191469   7.369   1.452   6.240  1.4223 -0.3205 -0.3300
29952SOL    HW291470   7.451   1.345   6.308  0.5786 -0.7058  0.0979
29953SOL     OW91471   4.940   8.879   4.584  0.5434 -0.1428  0.1890
29953SOL    HW191472   4.882   8.902   4.657  0.6664  0.1074  0.2115
29953SOL    HW291473   4.960   8.964   4.543  0.0246 -0.3296 -0.4803
29954SOL     OW91474   1.606   6.433   4.599  0.4437  0.0519 -0.3729
29954SOL    HW191475   1.596   6.463   4.509  2.6185  0.3268 -0.5924
29954SOL    HW291476   1.693   6.391   4.600 -0.2290 -1.4163  1.2107
29955SOL     OW91477   2.997   8.313   0.393 -0.4877  0.5632  0.2918
29955SOL    HW191478   2.982   8.283   0.483  1.0834  1.0180  0.7287
29955SOL    HW291479   3.092   8.315   0.383 -0.6287  0.6302 -1.3594
29956SOL     OW91480   5.513   3.318   7.382  0.2169  0.0715 -0.1850
29956SOL    HW191481   5.446   3.343   7.318  1.1621  1.0389 -0.8253
29956SOL    HW291482   5.473   3.336   7.467 -0.3694  0.5406 -0.5570
29957SOL     OW91483   3.001   8.338   5.424 -0.5515  0.5547  0.0897
29957SOL    HW191484   2.916   8.306   5.453 -0.3358 -1.0819 -0.9556
29957SOL    HW291485   3.051   8.349   5.505 -1.7117  1.4703  0.7099
29958SOL     OW91486   4.891   1.580   1.087  0.2252  0.1528  0.0430
29958SOL    HW191487   4.832   1.655   1.097  0.5687  0.7545 -2.0089
29958SOL    HW291488   4.889   1.561   0.993  3.3730  0.2624 -0.1256
29959SOL     OW91489   7.029   4.669   0.363 -0.4597 -0.1135  0.2909
29959SOL    HW191490   6.974   4.618   0.304 -0.2015 -0.6528  0.5115
29959SOL    HW291491   7.119   4.651   0.336 -0.3753  0.6565  0.0221
29960SOL     OW91492   6.373   9.115   9.799 -0.2877 -0.4347 -0.3078
29960SOL    HW191493   6.338   9.026   9.802  1.6965 -1.2290  2.0657
29960SOL    HW291494   6.344   9.155   9.881 -0.7366  0.9796 -1.1216
29961SOL     OW91495   0.566   8.838   9.585 -0.2948  0.3218  0.2757
29961SOL    HW191496   0.536   8.810   9.671  0.4196  0.9107  0.7359
29961SOL    HW291497   0.621   8.766   9.554  0.1797  0.4770  0.7241
29962SOL     OW91498   3.378   2.526   5.998 -0.0024  0.1603  0.1009
29962SOL    HW191499   3.303   2.483   6.039 -0.3233  1.6146  1.1115
29962SOL    HW291500   3.446   2.525   6.066  0.6571 -0.4885 -0.5547
29963SOL     OW91501   9.604   1.539   8.677  0.3990 -0.2356 -0.9179
29963SOL    HW191502   9.541   1.497   8.619 -0.8597 -0.4112  0.5134
29963SOL    HW291503   9.551   1.577   8.747  1.8678 -0.2337  0.2503
29964SOL     OW91504   0.967   8.045   9.833  0.2124 -0.3160 -0.2118
29964SOL    HW191505   0.954   8.039   9.739  1.6412  0.7033 -0.5189
29964SOL    HW291506   1.062   8.054   9.843  0.1478 -1.0603  1.3685
29965SOL     OW91507   9.238   8.135   4.439 -0.5661 -1.0969 -0.3186
29965SOL    HW191508   9.275   8.051   4.468 -1.5094 -1.9717 -1.5609
29965SOL    HW291509   9.293   8.161   4.365 -0.3531 -0.6690 -0.0133
29966SOL     OW91510   7.116   9.751   8.015  0.0820 -0.7002 -0.0424
29966SOL    HW191511   7.094   9.700   8.093 -2.5065  0.1085 -0.1635
29966SOL    HW291512   7.168   9.824   8.048 -1.0904 -0.3015  0.9621
29967SOL     OW91513   4.194   1.466   5.983 -0.4122 -0.0369  0.2961
29967SOL    HW191514   4.220   1.374   5.984  0.5574  0.2027  2.2703
29967SOL    HW291515   4.171   1.485   6.074 -0.7855  1.6392 -0.1116
29968SOL     OW91516   3.094   5.408   2.980  0.4295 -0.1364  0.0673
29968SOL    HW191517   3.146   5.448   3.050 -0.8965  3.1922 -0.6570
29968SOL    HW291518   3.116   5.458   2.902  0.3861 -2.4609 -1.5325
29969SOL     OW91519   3.950   2.184   9.681 -0.7251  0.3614  0.4336
29969SOL    HW191520   3.901   2.136   9.614  0.0107  0.7678 -0.4259
29969SOL    HW291521   3.978   2.117   9.743  0.7251 -0.4290 -1.0123
29970SOL     OW91522   5.048   2.266   8.595 -0.0492 -0.0556 -0.6452
29970SOL    HW191523   4.987   2.193   8.602  0.6610 -0.7697 -1.7156
29970SOL    HW291524   5.052   2.286   8.502  1.3084  0.0212 -0.5856
29971SOL     OW91525   1.292   7.092   6.907  0.6830 -0.1382 -0.6272
29971SOL    HW191526   1.276   7.143   6.827 -0.5020 -0.3031 -0.5139
29971SOL    HW291527   1.224   7.025   6.907  0.5448 -0.0201  0.6265
29972SOL     OW91528   0.636   3.687   1.249 -0.5903  0.3744  0.4566
29972SOL    HW191529   0.546   3.710   1.272 -0.0845  1.6768  1.2154
29972SOL    HW291530   0.627   3.612   1.190 -2.3003  1.8634 -1.3251
29973SOL     OW91531   7.455   1.805   1.053  0.4704  0.2388 -0.3530
29973SOL    HW191532   7.475   1.896   1.078  0.9607  0.5284 -1.7131
29973SOL    HW291533   7.518   1.785   0.984  1.6218 -1.8082  1.1932
29974SOL     OW91534   9.376   4.646   7.429 -0.2307 -0.5364 -0.0903
29974SOL    HW191535   9.294   4.644   7.479 -0.2798 -0.4582 -0.1677
29974SOL    HW291536   9.433   4.584   7.474 -0.3656 -0.6631 -0.0949
29975SOL     OW91537   9.024   1.017   5.736 -0.1394 -0.6495  0.3151
29975SOL    HW191538   9.033   1.112   5.743 -1.6111 -0.4958  0.3910
29975SOL    HW291539   9.114   0.984   5.743  0.6427  0.8403 -1.8398
29976SOL     OW91540   2.589   1.363   3.098 -0.0048  0.5263 -0.7637
29976SOL    HW191541   2.570   1.390   3.187  0.7824  3.0113 -1.2782
29976SOL    HW291542   2.564   1.271   3.095 -1.5906  0.8026  1.5369
29977SOL     OW91543   3.762   7.922   2.624  0.2772  0.0738  0.4404
29977SOL    HW191544   3.826   7.990   2.645  0.5232  0.0288 -0.1319
29977SOL    HW291545   3.811   7.860   2.570 -0.0272 -0.3963  0.7048
29978SOL     OW91546   1.731   0.442   8.747 -0.2178 -0.2552  0.2568
29978SOL    HW191547   1.697   0.523   8.709 -0.1485 -0.0428  0.6348
29978SOL    HW291548   1.767   0.394   8.673  0.5206  0.4531  0.1424
29979SOL     OW91549   4.509   7.447   5.485 -0.1660 -0.4482 -0.9239
29979SOL    HW191550   4.443   7.445   5.554  0.2550  1.2079 -0.4560
29979SOL    HW291551   4.459   7.463   5.405 -0.4688 -0.6241 -0.7727
29980SOL     OW91552   6.872   4.720   1.451  0.1154 -0.3122 -0.2388
29980SOL    HW191553   6.799   4.672   1.413 -0.3223  0.5052 -0.4383
29980SOL    HW291554   6.941   4.654   1.460 -0.5387 -1.0291 -0.3099
29981SOL     OW91555   3.003   5.921   0.164 -0.1722 -0.7092 -0.3766
29981SOL    HW191556   2.998   5.879   0.079 -0.2105 -1.1558 -0.1570
29981SOL    HW291557   2.921   5.898   0.208 -0.9752  0.9860 -0.8739
29982SOL     OW91558   1.023   4.019   2.141 -0.4360  0.7356 -0.0134
29982SOL    HW191559   1.110   3.985   2.119  0.3587  2.3912  0.4343
29982SOL    HW291560   1.018   4.012   2.236 -0.5306  1.2602  0.0202
29983SOL     OW91561   9.568   4.941   8.359 -0.5393 -0.3884 -0.1132
29983SOL    HW191562   9.474   4.947   8.376 -0.3880  1.4364  0.2894
29983SOL    HW291563   9.610   4.957   8.443  0.1297  1.8642 -0.7936
29984SOL     OW91564   2.699   2.562   2.105  0.1599 -0.2064 -0.1481
29984SOL    HW191565   2.662   2.629   2.048 -0.8157 -0.2367  0.4286
29984SOL    HW291566   2.624   2.526   2.152  1.1478  1.4078  2.8836
29985SOL     OW91567   5.008   7.969   2.921  0.0674  1.0296 -0.3477
29985SOL    HW191568   4.964   7.915   2.985 -0.1417  2.0915  0.4312
29985SOL    HW291569   5.029   8.050   2.968  2.3971  0.7647 -0.8150
29986SOL     OW91570   5.218   2.377   8.801 -0.2916  0.3880  0.7722
29986SOL    HW191571   5.283   2.417   8.743 -2.1492  2.2070 -0.1712
29986SOL    HW291572   5.165   2.322   8.743 -0.5075  0.1031  1.2373
29987SOL     OW91573   3.015   8.016   8.491  0.0643  0.0307  0.2730
29987SOL    HW191574   2.965   7.978   8.563  2.3957  0.5194  2.2928
29987SOL    HW291575   3.058   7.942   8.449 -0.9123 -0.2023 -0.3542
29988SOL     OW91576   8.034   2.536   7.354 -0.6274  1.0903  0.0157
29988SOL    HW191577   8.078   2.457   7.384 -2.2423  0.4314  0.7628
29988SOL    HW291578   7.962   2.505   7.299 -1.9900  1.9523  1.2515
29989SOL     OW91579   5.909   2.796   6.184 -0.9387  0.0881  0.0585
29989SOL    HW191580   5.986   2.833   6.228  0.3274 -0.4025 -1.6147
29989SOL    HW291581   5.906   2.705   6.214 -1.1018  0.2083  0.4115
29990SOL     OW91582   4.705   7.499   2.456  0.1369 -0.3268 -0.1944
29990SOL    HW191583   4.717   7.576   2.512  1.3969 -0.1602 -0.6583
29990SOL    HW291584   4.612   7.502   2.430  0.4630  1.8935 -1.3947
29991SOL     OW91585   0.573   7.928   1.150  0.7219 -0.6908 -0.3396
29991SOL    HW191586   0.549   7.853   1.204  0.0943 -0.6723 -0.5882
29991SOL    HW291587   0.668   7.934   1.159  0.5883 -0.3999  1.1459
29992SOL     OW91588   9.726   1.872   4.858 -0.3317 -0.0004 -0.0331
29992SOL    HW191589   9.765   1.798   4.904  1.2127 -0.0748 -1.3753
29992SOL    HW291590   9.761   1.866   4.769 -0.3193  2.2172 -0.2320
29993SOL     OW91591   7.212   7.802   1.904 -0.2712  0.2606  0.0311
29993SOL    HW191592   7.166   7.760   1.977 -0.1659  1.2195  0.6752
29993SOL    HW291593   7.142   7.831   1.846 -0.4553  0.9606  0.5871
29994SOL     OW91594   3.034   4.280   2.989  0.3631 -0.5249 -0.3518
29994SOL    HW191595   3.063   4.220   2.920 -0.3417  0.4917 -1.5511
29994SOL    HW291596   3.012   4.222   3.062  0.0900 -1.7103 -1.3388
29995SOL     OW91597   3.532   9.328   3.299 -0.1907 -0.3714  0.1765
29995SOL    HW191598   3.455   9.306   3.247 -2.0079  1.5522  1.9017
29995SOL    HW291599   3.514   9.291   3.386 -0.6246  2.6101  1.4494
29996SOL     OW91600   9.451   3.366   1.892 -0.0917  0.2315 -0.4254
29996SOL    HW191601   9.371   3.392   1.846  0.3822  1.0011 -0.8357
29996SOL    HW291602   9.436   3.275   1.917 -0.7210  0.0780 -1.3133
29997SOL     OW91603   7.605   1.227   6.347 -0.0100  0.2929 -0.0281
29997SOL    HW191604   7.580   1.135   6.343 -1.3170  0.6638 -1.7748
29997SOL    HW291605   7.621   1.244   6.439  1.9244 -2.0720  0.1610
29998SOL     OW91606   7.930   5.252   4.019 -0.2624  0.6415  0.2451
29998SOL    HW191607   8.004   5.222   3.965 -0.8547 -1.3509  0.4428
29998SOL    HW291608   7.968   5.267   4.105 -0.4040 -3.1105  1.1474
29999SOL     OW91609   5.805   3.336   0.448 -0.0358  0.0250 -0.2239
29999SOL    HW191610   5.782   3.420   0.489  0.7759  0.1636 -0.0511
29999SOL    HW291611   5.900   3.340   0.436  0.3405 -1.7545  1.7572
30000SOL     OW91612   1.821   7.650   2.736 -0.2761 -0.8908 -0.1250
30000SOL    HW191613   1.757   7.636   2.667 -0.4041 -3.0979  0.3718
30000SOL    HW291614   1.797   7.587   2.804  0.8954  0.0101  1.1845
30001SOL     OW91615   3.126   0.785   3.213  0.1304  0.1503 -0.0206
30001SOL    HW191616   3.122   0.874   3.249  1.8434  0.9174 -1.5382
30001SOL    HW291617   3.058   0.783   3.146 -0.0771  0.2499  0.1882
30002SOL     OW91618   6.668   3.898   7.170 -0.2011 -0.3430  0.0669
30002SOL    HW191619   6.713   3.965   7.118 -0.6855 -1.0078 -1.2440
30002SOL    HW291620   6.732   3.827   7.178 -0.7266 -0.9725 -1.1500
30003SOL     OW91621   9.230   9.416   1.122  0.1313  0.1792 -0.2638
30003SOL    HW191622   9.159   9.368   1.079  0.8780 -0.6041 -0.6311
30003SOL    HW291623   9.288   9.348   1.156 -0.0693  0.7945  1.3734
30004SOL     OW91624   5.608   1.385   8.027 -0.4457 -0.1613  0.0156
30004SOL    HW191625   5.565   1.301   8.039  0.3953 -0.3058  2.5225
30004SOL    HW291626   5.607   1.426   8.114  1.8215  1.0993 -0.4645
30005SOL     OW91627   0.495   6.291   5.452 -0.1903  0.3854  0.4449
30005SOL    HW191628   0.474   6.375   5.493 -0.8796 -0.2147  1.3656
30005SOL    HW291629   0.576   6.263   5.495 -1.2134 -0.5129  1.8755
30006SOL     OW91630   2.665   3.281   6.263  0.7232  0.2988  0.1549
30006SOL    HW191631   2.642   3.189   6.260 -0.8487  0.6676 -2.0556
30006SOL    HW291632   2.582   3.327   6.273  1.3606  1.4938  0.2357
30007SOL     OW91633   1.468   2.951   2.316  0.3833 -0.1184 -0.3036
30007SOL    HW191634   1.389   2.897   2.320 -0.7149  1.4618  0.5952
30007SOL    HW291635   1.468   2.988   2.228  0.4282 -0.5362 -0.4819
30008SOL     OW91636   5.624   5.445   8.041  0.2579  0.5697 -0.0455
30008SOL    HW191637   5.541   5.436   8.088 -0.3163 -0.0066 -1.1353
30008SOL    HW291638   5.661   5.356   8.040 -0.0860  0.4286 -1.2879
30009SOL     OW91639   6.607   7.825   4.297 -0.1753 -0.1260 -0.8241
30009SOL    HW191640   6.576   7.753   4.352 -1.0566  0.4951 -0.4720
30009SOL    HW291641   6.675   7.786   4.242  0.5213 -0.8352  0.4838
30010SOL     OW91642   4.594   7.182   1.466 -0.0083  0.4361  0.0643
30010SOL    HW191643   4.675   7.232   1.465 -0.1853  0.7241 -0.1338
30010SOL    HW291644   4.526   7.246   1.447 -0.1626 -0.0075 -0.9440
30011SOL     OW91645   3.785   8.156   0.279  0.1407 -0.1079 -0.4133
30011SOL    HW191646   3.732   8.227   0.314 -0.9322 -0.9043 -0.3535
30011SOL    HW291647   3.876   8.181   0.297 -0.2330  1.1065 -0.1731
30012SOL     OW91648   1.954   3.608   3.151  0.0285 -0.2910  0.0665
30012SOL    HW191649   1.875   3.619   3.204 -0.6168 -1.2213 -0.6678
30012SOL    HW291650   1.934   3.535   3.093  1.0313  0.1532 -0.8758
30013SOL     OW91651   1.960   8.777   4.897  0.0222  0.2230  0.1720
30013SOL    HW191652   2.038   8.787   4.844  1.6897 -3.3194  1.6216
30013SOL    HW291653   1.989   8.795   4.987 -1.3835  0.8327  0.5453
30014SOL     OW91654   9.763   8.114   6.015  0.2138 -0.5749  0.7047
30014SOL    HW191655   9.685   8.154   6.055 -0.2449 -0.8957  0.1444
30014SOL    HW291656   9.758   8.022   6.038 -0.3601 -0.8804 -0.5229
30015SOL     OW91657   2.827   4.230   9.395 -0.3047  0.1053 -0.6553
30015SOL    HW191658   2.871   4.150   9.424 -1.0756  0.3216  1.2740
30015SOL    HW291659   2.742   4.201   9.361 -0.9473  0.1359  0.8549
30016SOL     OW91660   2.721   0.511   7.601 -0.1961 -0.5330 -0.2251
30016SOL    HW191661   2.712   0.470   7.515  0.0361 -1.4815  0.1986
30016SOL    HW291662   2.770   0.592   7.583 -0.4413 -0.5527 -1.0238
30017SOL     OW91663   0.194   1.831   3.487  0.3133  0.2244 -0.6237
30017SOL    HW191664   0.174   1.830   3.393 -0.7249 -1.1083 -0.4167
30017SOL    HW291665   0.218   1.741   3.508  0.1762  0.4214  0.4639
30018SOL     OW91666   6.674   1.815   7.722  0.5880  0.4985  0.0861
30018SOL    HW191667   6.687   1.721   7.711  2.8780  0.7526  0.2460
30018SOL    HW291668   6.641   1.845   7.638 -0.0039 -0.4143 -0.0186
30019SOL     OW91669   7.697   0.893   8.843  0.4789  0.4655 -0.0072
30019SOL    HW191670   7.751   0.830   8.892  0.6567  0.1279 -0.6269
30019SOL    HW291671   7.720   0.878   8.752 -0.2910  0.6801 -0.2408
30020SOL     OW91672   0.964   6.224   1.760  0.2205 -0.0166  0.6959
30020SOL    HW191673   0.919   6.139   1.761  0.6537 -0.2956 -1.0512
30020SOL    HW291674   1.056   6.203   1.747  0.2362  0.7393 -0.5332
30021SOL     OW91675   8.012   7.965   4.274 -0.3208  0.2389  0.1379
30021SOL    HW191676   7.977   7.926   4.354 -0.6562  0.3907  0.0684
30021SOL    HW291677   7.936   8.002   4.231 -0.3249 -0.7863 -0.7936
30022SOL     OW91678   2.372   0.933   6.018  0.4012 -0.3075  0.3426
30022SOL    HW191679   2.462   0.961   6.031 -0.7165  3.6573  0.9876
30022SOL    HW291680   2.333   1.001   5.962 -2.3599 -1.4428  0.6904
30023SOL     OW91681   4.510   3.851   6.869  0.3176  0.2124  0.3815
30023SOL    HW191682   4.594   3.813   6.895 -0.7465 -1.1259  2.0902
30023SOL    HW291683   4.529   3.899   6.788  1.9742 -3.3849 -1.5948
30024SOL     OW91684   0.122   1.988   9.608 -0.1818 -0.0216  0.0432
30024SOL    HW191685   0.117   2.035   9.692 -0.8656  0.8792 -0.4851
30024SOL    HW291686   0.172   2.046   9.551 -1.4466  0.3197 -0.7656
30025SOL     OW91687   2.336   6.512   0.098 -0.2108  0.2105  0.1428
30025SOL    HW191688   2.313   6.581   0.036  1.6426  1.4455  0.7270
30025SOL    HW291689   2.284   6.437   0.071 -0.6983  1.2011 -1.8760
30026SOL     OW91690   1.928   8.564   5.643  0.3055  0.3176  0.0629
30026SOL    HW191691   1.949   8.638   5.700  1.9942  1.3710 -1.8167
30026SOL    HW291692   1.990   8.495   5.668  0.1569  0.2932  0.3691
30027SOL     OW91693   1.850   0.973   8.675 -0.4704  0.1719  0.2722
30027SOL    HW191694   1.828   0.913   8.746  1.6474 -0.1071  0.7441
30027SOL    HW291695   1.828   0.926   8.595 -1.5268 -0.0686  0.6870
30028SOL     OW91696   6.445   5.185   7.963 -0.1540 -0.2604  0.3414
30028SOL    HW191697   6.363   5.189   8.011  0.6605  0.2823  1.7566
30028SOL    HW291698   6.448   5.266   7.912 -0.2831 -0.0518  0.6643
30029SOL     OW91699   8.029   4.301   2.689 -0.5276  0.3340 -0.1275
30029SOL    HW191700   8.011   4.383   2.735 -2.2531  0.6440 -1.2854
30029SOL    HW291701   8.078   4.249   2.753 -1.9843  1.1152  1.7178
30030SOL     OW91702   9.221   3.984   1.620 -0.0935 -0.7038  0.3860
30030SOL    HW191703   9.304   4.027   1.641 -1.0962  0.0474  3.5179
30030SOL    HW291704   9.184   3.963   1.706 -2.8396 -1.5983 -0.9142
30031SOL     OW91705   0.777   1.171   4.580  0.1136 -0.0880  0.4400
30031SOL    HW191706   0.713   1.238   4.606  0.0871  0.8980 -1.9026
30031SOL    HW291707   0.832   1.160   4.657 -1.5632  0.5950  1.8194
30032SOL     OW91708   3.345   4.386   5.792  0.6132  0.2518 -0.0436
30032SOL    HW191709   3.272   4.428   5.837  0.3349 -0.8181  0.5490
30032SOL    HW291710   3.385   4.456   5.740 -0.6100  0.9270 -0.1093
30033SOL     OW91711   1.115   2.244   6.570  0.3485 -0.0198 -0.9048
30033SOL    HW191712   1.075   2.262   6.485  0.6917 -0.8269 -1.2454
30033SOL    HW291713   1.197   2.199   6.549  1.7742  2.1389 -0.2483
30034SOL     OW91714   8.213   1.951   4.142 -0.1659  0.7403  0.0081
30034SOL    HW191715   8.268   1.996   4.078 -1.0319  0.4541 -0.9436
30034SOL    HW291716   8.268   1.945   4.220  1.6047 -0.6179 -1.2804
30035SOL     OW91717   9.219   5.750   3.923  0.0759  0.0899  0.0381
30035SOL    HW191718   9.274   5.777   3.849  0.7072  1.8437  1.0953
30035SOL    HW291719   9.134   5.792   3.905  0.5109  1.3180  0.7523
30036SOL     OW91720   7.505   5.814   4.716 -0.2323 -0.4734 -0.3029
30036SOL    HW191721   7.513   5.907   4.694  1.8340 -0.3404  0.6953
30036SOL    HW291722   7.478   5.772   4.634 -0.1833  0.8858 -1.0484
30037SOL     OW91723   7.198   3.038   3.032 -0.4353  0.0185  0.2034
30037SOL    HW191724   7.133   3.023   2.964  0.5238 -1.1105 -0.4962
30037SOL    HW291725   7.261   2.966   3.022  1.3041  1.4397  0.3968
30038SOL     OW91726   1.137   7.802   2.833  0.5889  0.3703  0.5099
30038SOL    HW191727   1.071   7.867   2.856 -0.1638  0.1567 -0.9213
30038SOL    HW291728   1.097   7.751   2.763  1.1907 -1.6153  1.5355
30039SOL     OW91729   9.531   6.069   6.349  0.0203 -0.4807 -0.1145
30039SOL    HW191730   9.452   6.015   6.348  0.9286 -1.8492 -0.6130
30039SOL    HW291731   9.540   6.098   6.258  0.0819 -0.3226 -0.0568
30040SOL     OW91732   2.733   8.384   6.936  0.0549  0.1862  0.2709
30040SOL    HW191733   2.769   8.330   7.007  2.1212  0.4880 -0.4657
30040SOL    HW291734   2.692   8.458   6.981  0.1315 -0.3139  1.1881
30041SOL     OW91735   7.058   9.364   7.499  0.3149 -0.1839  0.2490
30041SOL    HW191736   6.993   9.369   7.429  0.9007  0.9812 -0.2303
30041SOL    HW291737   7.027   9.292   7.555  0.3121 -1.7383 -1.6593
30042SOL     OW91738   6.985   7.758   8.820  0.1897  0.0059  0.1601
30042SOL    HW191739   7.006   7.779   8.729  0.2083 -0.0168  0.1586
30042SOL    HW291740   6.977   7.662   8.821 -0.1174  0.0301  0.1179
30043SOL     OW91741   8.386   9.091   4.411 -0.5302  0.4307 -0.6294
30043SOL    HW191742   8.400   9.186   4.405  0.0312  0.3729 -0.3289
30043SOL    HW291743   8.469   9.053   4.384 -0.2336  0.0595  0.6966
30044SOL     OW91744   9.158   2.029   5.028 -0.2351  1.0075 -0.4214
30044SOL    HW191745   9.118   1.981   4.955  0.6449 -0.0104 -0.2623
30044SOL    HW291746   9.158   1.966   5.100  1.1400  1.1587 -0.2665
30045SOL     OW91747   1.858   2.242   9.452 -0.2288  0.3158 -0.2363
30045SOL    HW191748   1.882   2.292   9.530 -1.3088 -0.4925  0.6430
30045SOL    HW291749   1.851   2.308   9.383 -0.6292  1.2514  0.6636
30046SOL     OW91750   9.779   6.474   7.201 -0.7364 -0.1001  0.0748
30046SOL    HW191751   9.729   6.402   7.241 -1.3701 -0.2211 -0.9068
30046SOL    HW291752   9.718   6.548   7.201 -0.9428 -0.2488 -1.1359
30047SOL     OW91753   1.126   2.002   0.316  0.1789  0.3353 -0.1832
30047SOL    HW191754   1.193   2.006   0.384 -0.3444  4.5987  0.3193
30047SOL    HW291755   1.163   2.050   0.242 -1.5883  1.2446 -0.5388
30048SOL     OW91756   8.327   6.009   3.343 -0.1393  0.3757  0.3063
30048SOL    HW191757   8.285   5.975   3.422  0.0705  0.0891  0.2934
30048SOL    HW291758   8.403   6.057   3.374  0.7121 -0.8589  0.2086
30049SOL     OW91759   5.399   9.560   6.633 -0.2343  0.0639  0.2537
30049SOL    HW191760   5.401   9.612   6.553  0.0684 -0.0613  0.1767
30049SOL    HW291761   5.320   9.588   6.679 -1.4458 -1.1527 -0.9644
30050SOL     OW91762   1.516   4.598   6.216 -0.3264 -0.2991  0.0418
30050SOL    HW191763   1.470   4.657   6.156 -1.6636 -0.2993  1.0227
30050SOL    HW291764   1.606   4.631   6.217 -0.4666  0.1935 -1.3119
30051SOL     OW91765   6.551   4.869   2.203  0.0754 -0.1029 -0.5783
30051SOL    HW191766   6.582   4.835   2.119  1.6684  0.3078 -0.1942
30051SOL    HW291767   6.540   4.791   2.257  0.6442 -0.2543 -0.6722
30052SOL     OW91768   7.690   3.789   8.553  0.2350  0.3935 -0.1459
30052SOL    HW191769   7.697   3.783   8.458 -1.7867 -0.3207 -0.2984
30052SOL    HW291770   7.666   3.701   8.581  0.3114  0.7116  0.9826
30053SOL     OW91771   5.968   9.499   5.452  0.2222 -0.0232  0.4722
30053SOL    HW191772   5.955   9.567   5.385  0.4680 -0.1826  0.2613
30053SOL    HW291773   6.054   9.520   5.489  0.7806 -0.8304 -0.3161
30054SOL     OW91774   7.812   3.660   0.048 -0.1055 -0.1685 -0.4509
30054SOL    HW191775   7.738   3.614   0.009 -1.1118  1.6301 -0.7920
30054SOL    HW291776   7.818   3.625   0.137 -2.6566  0.9599  0.2594
30055SOL     OW91777   5.383   0.002   0.133 -0.0398  0.1499 -0.5703
30055SOL    HW191778   5.367  -0.092   0.133 -2.1371  0.4411 -2.2242
30055SOL    HW291779   5.466   0.012   0.088  0.2597 -0.9032 -0.2879
30056SOL     OW91780   4.215   5.867   7.495 -0.6494  0.1554  0.3692
30056SOL    HW191781   4.308   5.857   7.514 -0.0794  1.3189 -1.4604
30056SOL    HW291782   4.210   5.864   7.399 -2.1293  2.4132  0.2816
30057SOL     OW91783   3.444   7.423   0.353 -0.3569  0.3579  0.4592
30057SOL    HW191784   3.367   7.366   0.355 -0.0471 -0.0903 -0.1635
30057SOL    HW291785   3.408   7.511   0.339 -0.7583  0.1542  0.1935
30058SOL     OW91786   5.897   1.890   4.737  0.2220 -0.0677  0.0363
30058SOL    HW191787   5.957   1.853   4.801 -0.8942  0.9788  1.7666
30058SOL    HW291788   5.924   1.982   4.730 -0.2780  0.0567 -0.2633
30059SOL     OW91789   7.952   9.000   2.228 -0.2180  0.0874 -0.8093
30059SOL    HW191790   8.044   9.015   2.205  0.3315  0.7054  1.4900
30059SOL    HW291791   7.927   8.924   2.176  0.7629  1.4496 -3.4324
30060SOL     OW91792   3.160   6.223   5.277 -0.0546  0.5208  0.0413
30060SOL    HW191793   3.100   6.175   5.334 -0.2199  1.1098  0.3717
30060SOL    HW291794   3.243   6.174   5.284 -0.5283 -0.3964 -0.5630
30061SOL     OW91795   4.586   2.995   7.796 -0.2680  0.2778 -0.3113
30061SOL    HW191796   4.585   2.935   7.721  0.9892  1.1448 -1.0731
30061SOL    HW291797   4.552   3.077   7.761 -2.8976 -0.1893  0.9677
30062SOL     OW91798   2.308   6.047   5.779 -0.4254  0.3914  0.5802
30062SOL    HW191799   2.260   5.982   5.830 -0.1289 -0.1353  0.1904
30062SOL    HW291800   2.367   5.996   5.723 -1.2154  0.9144 -0.7818
30063SOL     OW91801   9.023   8.920   4.277 -0.2327 -0.2054  0.1754
30063SOL    HW191802   9.096   8.974   4.307 -0.4768  0.7415 -0.8879
30063SOL    HW291803   9.025   8.927   4.182 -3.2389  2.0417  0.1080
30064SOL     OW91804   4.996   4.372   5.038 -0.3075 -0.3320 -0.1973
30064SOL    HW191805   5.040   4.454   5.063 -2.0475  0.6668 -0.2845
30064SOL    HW291806   5.060   4.326   4.984  0.3403  1.4490 -1.0157
30065SOL     OW91807   0.804   4.971   5.429  0.5191 -0.0708  0.5448
30065SOL    HW191808   0.760   4.918   5.496  1.9468 -0.7083  1.0259
30065SOL    HW291809   0.733   5.015   5.383 -0.7841 -2.7518 -0.1992
30066SOL     OW91810   0.065   2.361   7.980 -0.2651  0.4813 -0.7494
30066SOL    HW191811   0.095   2.421   8.048 -0.2901  0.8585 -1.0649
30066SOL    HW291812   0.018   2.417   7.918 -2.0820 -0.1642 -0.0090
30067SOL     OW91813   5.642   1.726   7.039 -0.1312 -0.0684  0.2596
30067SOL    HW191814   5.583   1.661   7.000 -1.6552  1.3716  0.0110
30067SOL    HW291815   5.622   1.723   7.133 -1.1194  0.8434  0.1059
30068SOL     OW91816   1.297   3.049   5.136  0.7695  0.6524 -0.5409
30068SOL    HW191817   1.370   2.999   5.173 -1.0282 -0.6908  1.4048
30068SOL    HW291818   1.283   3.010   5.050  0.3710 -1.2420  0.3369
30069SOL     OW91819   9.046   9.444   4.424  0.1230 -0.1528 -0.3414
30069SOL    HW191820   8.971   9.385   4.414  1.0376 -1.2161 -1.1771
30069SOL    HW291821   9.022   9.522   4.374 -1.6574  0.8129  1.8573
30070SOL     OW91822   8.124   5.310   3.282  0.3785 -0.7392  0.1440
30070SOL    HW191823   8.032   5.310   3.310  0.6980 -0.1384  1.2662
30070SOL    HW291824   8.120   5.309   3.186 -0.8180  0.5055  0.1414
30071SOL     OW91825   4.080   8.914   4.652 -0.4242 -0.1909  0.2212
30071SOL    HW191826   4.138   8.900   4.726 -0.4532  0.6882  0.4235
30071SOL    HW291827   4.135   8.900   4.575 -0.3797 -1.0489  0.4015
30072SOL     OW91828   5.994   7.814   1.886  0.2988 -0.1427  0.5743
30072SOL    HW191829   6.046   7.787   1.810 -1.2190 -0.6947 -0.2968
30072SOL    HW291830   6.058   7.855   1.945  2.1499 -2.7176  0.5199
30073SOL     OW91831   1.300   4.794   9.088  0.4536  0.7020  0.2117
30073SOL    HW191832   1.216   4.749   9.077  1.2344 -0.8154  0.2182
30073SOL    HW291833   1.306   4.812   9.182  0.0935  0.9130  0.1951
30074SOL     OW91834   5.563   7.406   1.749  0.2113  0.7979 -0.3523
30074SOL    HW191835   5.638   7.404   1.808 -0.0793 -0.9923  0.0122
30074SOL    HW291836   5.505   7.473   1.786  0.8901  1.0375  0.2949
30075SOL     OW91837   6.435   2.136   8.005  0.4425 -0.2497  0.2472
30075SOL    HW191838   6.469   2.217   8.043  0.9544  0.4113 -1.5254
30075SOL    HW291839   6.508   2.075   8.007 -0.0986 -0.9144  2.1013
30076SOL     OW91840   7.217   9.354   2.389 -0.1312  0.0052  0.0668
30076SOL    HW191841   7.157   9.366   2.462 -0.7517  1.0687 -0.5979
30076SOL    HW291842   7.288   9.416   2.406  1.5654 -2.2089  1.5826
30077SOL     OW91843   4.945   5.502   1.581  0.0365  0.1596  0.2398
30077SOL    HW191844   4.969   5.426   1.634 -1.3399 -0.2534  0.3093
30077SOL    HW291845   4.861   5.530   1.617  0.6825  1.9431  0.4353
30078SOL     OW91846   5.744   1.362   2.256  0.0179 -0.1253  0.1605
30078SOL    HW191847   5.671   1.326   2.306 -0.0769 -0.3066 -0.1029
30078SOL    HW291848   5.818   1.306   2.278  0.1317  0.1935  0.5980
30079SOL     OW91849   2.794   1.690   4.839  0.2261 -0.0634 -0.6753
30079SOL    HW191850   2.781   1.714   4.931  0.9513 -0.8319 -0.3509
30079SOL    HW291851   2.727   1.624   4.822 -2.2116  2.4782 -1.7644
30080SOL     OW91852   2.670   5.318   4.192  0.4742 -0.2514  0.5342
30080SOL    HW191853   2.729   5.388   4.220  0.3698  0.1922 -0.3073
30080SOL    HW291854   2.700   5.297   4.103 -1.1439  0.5601 -0.2365
30081SOL     OW91855   9.700   6.363   7.787  0.0786  0.5089  0.3871
30081SOL    HW191856   9.607   6.350   7.768 -0.0140 -0.8473  1.6084
30081SOL    HW291857   9.745   6.323   7.712 -0.3063  0.6223  0.0879
30082SOL     OW91858   0.329   4.685   3.617  0.4945  0.0261  0.6949
30082SOL    HW191859   0.374   4.756   3.572  0.2680  0.9546  1.8851
30082SOL    HW291860   0.261   4.728   3.668 -0.1693 -1.1285  0.8119
30083SOL     OW91861   0.845   0.584   6.841 -1.0812  0.1912 -0.5315
30083SOL    HW191862   0.759   0.592   6.799 -1.9299  1.2698  1.2904
30083SOL    HW291863   0.906   0.618   6.776 -2.0840  0.0806 -1.5908
30084SOL     OW91864   4.171   1.053   6.143 -0.3199  0.2851  0.0502
30084SOL    HW191865   4.109   1.121   6.166 -0.5843 -0.6074  2.1579
30084SOL    HW291866   4.149   1.029   6.053 -2.0795  0.9817  0.2767
30085SOL     OW91867   8.924   0.626   4.652  0.0111 -0.2623 -0.0990
30085SOL    HW191868   8.989   0.654   4.588  1.7952  0.3029  1.8364
30085SOL    HW291869   8.841   0.660   4.619  0.7899 -0.2394 -2.2030
30086SOL     OW91870   6.883   6.634   7.186 -0.5319  0.9119 -0.6357
30086SOL    HW191871   6.840   6.589   7.259 -0.7637  0.3388 -1.1190
30086SOL    HW291872   6.942   6.568   7.149  1.1729  1.8098  0.3166
30087SOL     OW91873   7.588   0.567   8.975  0.0580  0.5745  0.7388
30087SOL    HW191874   7.596   0.473   8.993 -1.1437  0.2720 -0.1529
30087SOL    HW291875   7.612   0.609   9.058  1.4385 -0.4671  0.9054
30088SOL     OW91876   9.059   2.543   2.643  0.0344  0.0761 -0.0254
30088SOL    HW191877   9.103   2.623   2.614 -0.1033  0.0237 -0.3827
30088SOL    HW291878   8.999   2.521   2.572 -0.1101 -0.2060  0.1809
30089SOL     OW91879   0.322   3.917   7.891  0.0569 -0.1254 -0.2303
30089SOL    HW191880   0.328   3.950   7.802  1.4137 -2.5348 -1.1394
30089SOL    HW291881   0.411   3.924   7.925  0.2768 -2.1440 -0.2712
30090SOL     OW91882   8.520   0.713   8.556 -0.3670  0.2864 -0.0762
30090SOL    HW191883   8.519   0.702   8.461  1.1382 -0.5808 -0.0327
30090SOL    HW291884   8.438   0.758   8.577 -0.7433  0.4373 -1.7702
30091SOL     OW91885   2.221   3.427   5.233 -0.3005 -0.4266 -0.0912
30091SOL    HW191886   2.227   3.468   5.147 -0.3133  1.3513  0.6954
30091SOL    HW291887   2.310   3.431   5.267 -0.6718  0.9376  0.8193
30092SOL     OW91888   6.237   4.060   6.695 -1.0577  0.0608 -0.6816
30092SOL    HW191889   6.212   4.092   6.609 -0.2655  2.0397 -0.2126
30092SOL    HW291890   6.179   4.106   6.756 -1.9164 -1.6489 -0.1381
30093SOL     OW91891   7.809   1.821   7.910  0.2023 -0.4221 -0.2915
30093SOL    HW191892   7.886   1.765   7.916 -0.2874 -1.1271 -0.3223
30093SOL    HW291893   7.817   1.881   7.984 -0.8769 -2.6832  1.8073
30094SOL     OW91894   0.963   9.441   0.606 -0.2028  0.1495  0.6005
30094SOL    HW191895   0.914   9.479   0.534  1.3386  1.8862  0.4013
30094SOL    HW291896   1.052   9.431   0.572  0.0796 -0.9977  1.5983
30095SOL     OW91897   2.485   9.620   0.757 -0.2797 -0.5367  0.0583
30095SOL    HW191898   2.537   9.570   0.820 -0.5762 -1.2713 -0.2770
30095SOL    HW291899   2.492   9.570   0.676  1.5318  1.2744 -0.9986
30096SOL     OW91900   1.896   3.624   3.922  0.3802 -0.2610  0.1708
30096SOL    HW191901   1.973   3.676   3.944  0.4036 -0.2319  0.0228
30096SOL    HW291902   1.881   3.642   3.829  0.7021 -0.9351 -0.0139
30097SOL     OW91903   2.005   7.231   9.734  0.2889 -0.1815 -0.1760
30097SOL    HW191904   2.097   7.247   9.711 -0.0857  1.5628 -0.6408
30097SOL    HW291905   1.960   7.313   9.712 -1.4177 -1.0424 -0.1103
30098SOL     OW91906   1.624   7.215   2.253 -0.7167 -0.0704 -0.0586
30098SOL    HW191907   1.568   7.138   2.247 -1.1160  0.0584  1.6807
30098SOL    HW291908   1.625   7.238   2.345 -0.5459  1.9814 -0.5170
30099SOL     OW91909   5.348   7.527   7.490 -0.3439 -0.0066 -0.0785
30099SOL    HW191910   5.398   7.446   7.496 -2.3531 -1.2189  1.6050
30099SOL    HW291911   5.260   7.500   7.463 -0.5354  1.8869 -1.5716
30100SOL     OW91912   2.935   9.423   4.860  0.6151  0.6511  0.2250
30100SOL    HW191913   3.026   9.393   4.858  1.2132  2.0903  2.2371
30100SOL    HW291914   2.887   9.352   4.901  1.5660  1.3087  2.6474
30101SOL     OW91915   5.637   4.352   2.804 -0.0575  0.6652 -0.2176
30101SOL    HW191916   5.706   4.419   2.802 -0.2108  0.8207 -0.4662
30101SOL    HW291917   5.586   4.369   2.725 -0.5284  0.7061  0.0909
30102SOL     OW91918   0.128   3.690   3.951  0.0736 -0.0503 -0.0980
30102SOL    HW191919   0.045   3.737   3.951  0.0248 -0.1179 -0.8870
30102SOL    HW291920   0.194   3.756   3.929  0.2469  0.0251  0.6286
30103SOL     OW91921   5.608   5.321   6.258 -0.3470 -0.3648  0.0861
30103SOL    HW191922   5.530   5.335   6.311 -0.9921 -0.3898 -0.8420
30103SOL    HW291923   5.648   5.408   6.251  0.3964 -0.5504  1.5720
30104SOL     OW91924   8.781   0.542   5.764  0.6325  0.4034  0.1685
30104SOL    HW191925   8.850   0.571   5.704  0.0109 -0.3359 -0.9384
30104SOL    HW291926   8.724   0.487   5.711 -0.9682  1.1828  0.9890
30105SOL     OW91927   2.572   6.641   3.201 -0.5050  0.4611 -0.1758
30105SOL    HW191928   2.499   6.581   3.186 -1.2476  0.8105  1.6721
30105SOL    HW291929   2.541   6.697   3.272  1.4677  0.8009  0.4594
30106SOL     OW91930   3.895   6.126   0.488 -0.3412 -0.4887  0.5199
30106SOL    HW191931   3.847   6.153   0.410 -0.0452 -2.7059 -0.5026
30106SOL    HW291932   3.910   6.208   0.536 -2.0104  0.7204 -0.8729
30107SOL     OW91933   7.482   0.121   5.815  0.6568 -0.3261  0.6335
30107SOL    HW191934   7.527   0.037   5.802 -0.3989 -1.1038  1.7340
30107SOL    HW291935   7.393   0.096   5.840  0.0852  1.1524  0.1690
30108SOL     OW91936   8.263   9.264   3.440  0.4622  0.6283  0.2367
30108SOL    HW191937   8.267   9.235   3.348 -0.0110  0.3879  0.2892
30108SOL    HW291938   8.306   9.349   3.440  0.3299  0.6976 -0.2385
30109SOL     OW91939   0.321   8.986   3.102 -0.4216  0.6027  0.1477
30109SOL    HW191940   0.370   8.908   3.127  3.4557  2.8001  0.4070
30109SOL    HW291941   0.288   8.967   3.015  0.2108 -1.3937  0.2974
30110SOL     OW91942   3.534   0.735   1.590  0.2404 -0.0335 -0.0397
30110SOL    HW191943   3.614   0.708   1.635 -0.8346 -1.8719  0.8917
30110SOL    HW291944   3.469   0.743   1.659 -1.0510 -1.3274 -1.0390
30111SOL     OW91945   6.433   2.616   2.460  0.5943  0.0590  0.4970
30111SOL    HW191946   6.438   2.523   2.439  1.5834 -0.1509  1.5149
30111SOL    HW291947   6.421   2.659   2.376  0.2492 -0.9760 -0.0033
30112SOL     OW91948   1.932   8.019   6.651  0.0842  0.3748 -0.1806
30112SOL    HW191949   2.009   7.992   6.600  0.8280 -0.2191  1.2147
30112SOL    HW291950   1.909   8.105   6.616 -0.0504 -0.4156 -2.1811
30113SOL     OW91951   1.764   5.515   1.546  0.1037 -0.1900  0.1821
30113SOL    HW191952   1.791   5.423   1.545 -0.3572 -0.3382  0.6421
30113SOL    HW291953   1.681   5.514   1.594  0.9807  0.7124  1.7747
30114SOL     OW91954   1.289   0.691   4.969 -0.2987  0.1361  0.1476
30114SOL    HW191955   1.209   0.715   4.923 -0.2612 -2.3202 -1.3821
30114SOL    HW291956   1.351   0.670   4.899  0.7400 -0.8202  1.3085
30115SOL     OW91957   3.802   1.694   6.478  0.0554 -0.6543 -0.0501
30115SOL    HW191958   3.707   1.682   6.473 -0.1306  1.0578 -1.1510
30115SOL    HW291959   3.837   1.648   6.401  0.1538 -1.3604  0.4023
30116SOL     OW91960   3.527   0.444   7.270 -0.0645  0.5150 -0.4896
30116SOL    HW191961   3.571   0.401   7.344  1.1878 -0.0653 -1.5295
30116SOL    HW291962   3.506   0.532   7.302  1.2829  0.5831  0.2666
30117SOL     OW91963   8.687   4.177   5.919 -0.8949 -0.2403  0.2223
30117SOL    HW191964   8.754   4.244   5.913 -2.2320  1.0486 -1.3531
30117SOL    HW291965   8.654   4.168   5.829 -0.6935 -3.1085  0.3346
30118SOL     OW91966   2.586   0.883   3.227  0.0042 -0.6466  1.1226
30118SOL    HW191967   2.527   0.847   3.161  0.5024 -1.6408  1.1953
30118SOL    HW291968   2.584   0.978   3.212  0.3856 -0.8660 -0.5847
30119SOL     OW91969   8.007   3.189   0.105 -0.6322 -0.1404 -0.5265
30119SOL    HW191970   8.024   3.188   0.010 -0.2504  0.8319 -0.4857
30119SOL    HW291971   8.046   3.271   0.135  1.4249 -1.5188  0.8890
30120SOL     OW91972   8.151   5.038   0.446 -0.4156 -0.2744  0.5630
30120SOL    HW191973   8.110   5.039   0.360 -0.0574 -0.1595  0.3891
30120SOL    HW291974   8.131   5.125   0.483 -1.4877 -0.7170  1.0451
30121SOL     OW91975   1.091   8.747   2.295  0.4216  0.6122  0.0037
30121SOL    HW191976   1.042   8.675   2.336 -0.9020  1.9777  0.9494
30121SOL    HW291977   1.065   8.825   2.345  3.7075  1.4398  0.6441
30122SOL     OW91978   9.381   0.748   3.325  0.3103 -0.0677  0.2426
30122SOL    HW191979   9.471   0.779   3.322 -0.1359  1.3028 -3.0014
30122SOL    HW291980   9.383   0.663   3.281 -0.0295  0.0545 -0.0112
30123SOL     OW91981   0.591   5.333   4.346 -0.2382 -0.0578 -0.3148
30123SOL    HW191982   0.561   5.248   4.376 -0.0875  0.1506  0.4511
30123SOL    HW291983   0.537   5.353   4.270  0.4680 -1.3273 -1.1894
30124SOL     OW91984   6.182   6.801   1.751 -0.7681 -0.2789 -0.2008
30124SOL    HW191985   6.235   6.723   1.737 -2.8496 -1.7720 -0.3242
30124SOL    HW291986   6.217   6.840   1.830  1.1569 -0.5802 -0.8529
30125SOL     OW91987   2.882   0.116   7.006  0.2204 -0.1767  0.1228
30125SOL    HW191988   2.947   0.137   6.939 -0.4305 -0.6941 -0.6890
30125SOL    HW291989   2.799   0.107   6.958 -0.1573 -1.1108  0.9012
30126SOL     OW91990   5.787   2.672   3.137  0.1656  0.3748  0.5659
30126SOL    HW191991   5.786   2.593   3.083  0.0535  0.2232  0.7868
30126SOL    HW291992   5.716   2.725   3.103  0.1485  0.3159  0.5092
30127SOL     OW91993   9.685   9.487   4.922  0.1200  0.0925 -0.2851
30127SOL    HW191994   9.731   9.405   4.907  1.1327  0.4498  0.7388
30127SOL    HW291995   9.720   9.546   4.854 -1.6001 -0.6576 -1.8978
30128SOL     OW91996   7.902   0.675   0.460  0.3898  0.1593 -0.1050
30128SOL    HW191997   7.952   0.756   0.447  0.9621 -0.2606 -0.5828
30128SOL    HW291998   7.928   0.644   0.547  0.0229  0.5859  0.1598
30129SOL     OW91999   5.582   2.573   2.158 -0.0862 -0.2687 -0.5496
30129SOL    HW192000   5.514   2.631   2.191  0.7566  0.2422  0.3525
30129SOL    HW292001   5.613   2.526   2.235  1.8368  0.8550 -0.5757
30130SOL     OW92002   9.482   5.576   1.161  0.1469 -0.7266 -0.4848
30130SOL    HW192003   9.471   5.623   1.079  0.1958 -0.2793 -0.2361
30130SOL    HW292004   9.393   5.552   1.188 -0.0296  0.6334  0.2066
30131SOL     OW92005   6.088   9.172   6.316 -0.2918 -0.5182 -0.0306
30131SOL    HW192006   6.058   9.232   6.248  0.5798 -1.1821 -1.0364
30131SOL    HW292007   6.145   9.226   6.372  0.1595 -0.3050 -0.6874
30132SOL     OW92008   2.915   8.659   9.307  0.4278 -0.1158  0.1116
30132SOL    HW192009   2.967   8.737   9.290 -1.6287  1.1236 -0.8514
30132SOL    HW292010   2.969   8.607   9.366  2.4235  1.4009 -0.2745
30133SOL     OW92011   5.393   7.850   9.405  0.9083  0.0724 -0.3155
30133SOL    HW192012   5.310   7.854   9.358 -0.7846 -0.2891  2.3705
30133SOL    HW292013   5.427   7.762   9.386 -0.1192 -0.3474 -0.2849
30134SOL     OW92014   8.693   9.013   6.952  0.2446  0.0957 -0.0665
30134SOL    HW192015   8.761   8.985   7.014  0.7740  0.6761 -0.3729
30134SOL    HW292016   8.703   9.108   6.948 -1.4913  0.3620  0.9242
30135SOL     OW92017   0.882   0.721   9.412 -0.0718  0.4609 -0.4821
30135SOL    HW192018   0.871   0.662   9.337 -2.0318  1.9829 -1.4722
30135SOL    HW292019   0.944   0.675   9.469 -0.3974 -1.8776 -1.8650
30136SOL     OW92020   1.380   8.328   3.966  0.5768  0.4621  0.2781
30136SOL    HW192021   1.420   8.334   4.053 -0.1737  0.7385  0.6119
30136SOL    HW292022   1.330   8.246   3.969 -0.9129  1.3442  0.7521
30137SOL     OW92023   6.371   7.296   3.554  0.2325  0.4881  0.1030
30137SOL    HW192024   6.330   7.362   3.609 -0.4846 -0.8897  1.2925
30137SOL    HW292025   6.374   7.217   3.608  0.1090 -0.7635 -1.5950
30138SOL     OW92026   8.803   7.875   5.527 -0.2700 -0.2349  0.1155
30138SOL    HW192027   8.747   7.854   5.602 -1.0008 -2.3310 -0.9568
30138SOL    HW292028   8.744   7.918   5.465 -0.2185 -0.5812 -0.1760
30139SOL     OW92029   3.414   0.610   6.645  0.4081 -0.2382 -0.4112
30139SOL    HW192030   3.475   0.607   6.571  0.6569 -0.7442 -0.1870
30139SOL    HW292031   3.328   0.613   6.603  0.5240 -1.0193 -0.7339
30140SOL     OW92032   3.626   8.589   1.926  0.3895  0.1289  0.1264
30140SOL    HW192033   3.669   8.549   1.850 -0.2906 -1.1340  0.3795
30140SOL    HW292034   3.556   8.528   1.948 -0.0787  1.0129  1.1301
30141SOL     OW92035   7.299   1.298   6.644 -0.1939 -0.6411 -0.6914
30141SOL    HW192036   7.265   1.239   6.711  0.5672 -1.4234 -0.9766
30141SOL    HW292037   7.261   1.383   6.665 -1.3650 -1.2319 -0.3031
30142SOL     OW92038   5.405   8.421   1.506  0.2972  0.0038 -0.8561
30142SOL    HW192039   5.343   8.434   1.434 -0.0324  0.0063 -0.5738
30142SOL    HW292040   5.407   8.326   1.518  0.1722  0.0182 -0.7148
30143SOL     OW92041   9.308   7.042   0.321 -0.1425 -0.1842 -0.8805
30143SOL    HW192042   9.335   7.043   0.413 -0.7490  0.3650 -0.7009
30143SOL    HW292043   9.391   7.037   0.272  0.3464  1.6221 -0.3431
30144SOL     OW92044   4.028   7.270   0.907  0.1820  0.3909  0.4204
30144SOL    HW192045   4.003   7.197   0.964 -0.0030 -0.4817 -0.7271
30144SOL    HW292046   4.082   7.326   0.962 -0.1894 -0.2924  1.5162
30145SOL     OW92047   9.575   6.888   6.925  0.4941 -0.2726  0.0387
30145SOL    HW192048   9.558   6.808   6.876 -0.1163 -0.2825  0.2631
30145SOL    HW292049   9.598   6.952   6.857 -0.5977 -0.2178 -0.3006
30146SOL     OW92050   4.313   4.701   0.065  0.2512 -0.7110  0.1856
30146SOL    HW192051   4.315   4.657   0.150  0.1562 -2.5522 -0.7190
30146SOL    HW292052   4.222   4.693   0.037  0.3932 -0.5690 -0.3193
30147SOL     OW92053   2.889   3.718   4.591 -0.0057  0.1292 -0.1501
30147SOL    HW192054   2.848   3.796   4.553  2.8964  0.8668 -2.1164
30147SOL    HW292055   2.946   3.751   4.660  0.8620 -0.2662 -0.6541
30148SOL     OW92056   8.222   9.042   2.453 -0.1008 -0.2651  0.3993
30148SOL    HW192057   8.171   9.069   2.529 -0.6160 -0.7852  0.2447
30148SOL    HW292058   8.263   9.123   2.422  1.2319 -0.2579  2.0307
30149SOL     OW92059   5.820   6.991   0.788 -0.2755 -0.0721 -0.3901
30149SOL    HW192060   5.840   7.042   0.710  0.8201 -0.2724 -0.2563
30149SOL    HW292061   5.725   6.996   0.797 -0.1415  3.2338  0.4642
30150SOL     OW92062   0.544   2.606   8.108  0.4982  0.0491  0.0587
30150SOL    HW192063   0.614   2.670   8.119 -0.1547  0.6511  0.9654
30150SOL    HW292064   0.475   2.654   8.062  0.7502 -0.5949 -1.0077
30151SOL     OW92065   9.197   1.197   2.734 -0.1833  0.1176 -0.3036
30151SOL    HW192066   9.110   1.194   2.693 -1.4856  1.3159  2.1849
30151SOL    HW292067   9.191   1.138   2.809  1.2677  0.0533 -0.1995
30152SOL     OW92068   1.506   1.669   7.456 -0.0417 -0.3305  0.3514
30152SOL    HW192069   1.433   1.701   7.403  0.2817  1.3663  0.8600
30152SOL    HW292070   1.581   1.722   7.428  0.2905  0.1096  1.9645
30153SOL     OW92071   5.984   3.756   5.970  0.1316 -0.0671 -0.0659
30153SOL    HW192072   6.072   3.791   5.981  0.5426 -1.1098  0.0809
30153SOL    HW292073   5.991   3.664   5.997 -1.3506  0.2205  1.4387
30154SOL     OW92074   9.412   0.654   0.533  0.3260 -0.8182  0.1953
30154SOL    HW192075   9.343   0.715   0.508  1.7730 -0.0545 -2.1703
30154SOL    HW292076   9.441   0.686   0.619 -0.8510  0.0580  0.3065
30155SOL     OW92077   3.929   2.161   4.499  0.7780 -0.3158  0.4950
30155SOL    HW192078   4.015   2.197   4.480  0.6994 -0.3174  0.1308
30155SOL    HW292079   3.914   2.096   4.431 -0.0345  0.5718 -0.2147
30156SOL     OW92080   7.821   2.944   1.213 -0.3553 -0.1936 -0.2759
30156SOL    HW192081   7.847   3.029   1.177 -0.9616 -0.1679 -0.6670
30156SOL    HW292082   7.901   2.891   1.211  0.4111  0.8105  1.3374
30157SOL     OW92083   4.295   8.803   0.002  0.2407 -0.1721 -0.1760
30157SOL    HW192084   4.363   8.772   0.062  0.3497 -0.9980 -0.7158
30157SOL    HW292085   4.317   8.763  -0.082 -0.5654  0.0505 -0.5010
30158SOL     OW92086   4.564   8.585   9.734 -0.0797 -0.0764 -0.0945
30158SOL    HW192087   4.571   8.587   9.830 -1.2591 -2.4681  0.1330
30158SOL    HW292088   4.489   8.641   9.715 -1.6892 -1.7940  0.7483
30159SOL     OW92089   0.523   1.465   3.649 -0.1442  0.3023  0.5654
30159SOL    HW192090   0.604   1.439   3.692 -0.5451  0.1210  1.2236
30159SOL    HW292091   0.542   1.550   3.610 -0.1515  1.0871  2.2202
30160SOL     OW92092   9.219   3.893   5.501  0.3522  0.6044  0.3311
30160SOL    HW192093   9.280   3.820   5.510  0.4888  0.7251  0.3957
30160SOL    HW292094   9.229   3.943   5.582 -0.6811 -0.0070  0.8609
30161SOL     OW92095   2.857   0.134   6.595 -0.3795 -0.2586 -0.0839
30161SOL    HW192096   2.792   0.064   6.588  0.4113 -0.9299 -0.9863
30161SOL    HW292097   2.921   0.114   6.526 -0.1835  1.4078 -0.4216
30162SOL     OW92098   1.811   4.814   4.224  0.0839  0.2659  0.1608
30162SOL    HW192099   1.789   4.898   4.184  0.4101 -0.3416 -1.3850
30162SOL    HW292100   1.727   4.776   4.249 -0.2790  0.0242 -1.3369
30163SOL     OW92101   7.420   0.362   9.692  0.1154  0.4069  0.4938
30163SOL    HW192102   7.513   0.345   9.674 -0.1081  0.3924 -0.7732
30163SOL    HW292103   7.390   0.285   9.740  0.1244 -0.9330 -1.5142
30164SOL     OW92104   3.133   7.249   5.027 -0.2908  0.5945 -0.4096
30164SOL    HW192105   3.181   7.214   4.952  0.1347 -0.6597  0.4217
30164SOL    HW292106   3.127   7.176   5.088 -1.0741  1.4502  0.5696
30165SOL     OW92107   4.728   4.894   2.557 -0.1698 -0.0747  0.6924
30165SOL    HW192108   4.638   4.916   2.579  0.1848  2.0782  0.2381
30165SOL    HW292109   4.723   4.809   2.515 -1.8684 -0.4022  1.4764
30166SOL     OW92110   1.830   0.792   8.886  0.1254  0.5826  0.0119
30166SOL    HW192111   1.921   0.769   8.904  1.4505  4.6119 -0.5930
30166SOL    HW292112   1.801   0.837   8.965 -1.0009  0.2921 -0.2243
30167SOL     OW92113   7.778   7.618   8.476  0.1795 -0.1971 -0.0788
30167SOL    HW192114   7.863   7.661   8.470  0.9966 -1.3306  2.3358
30167SOL    HW292115   7.763   7.607   8.569 -1.3547 -2.4717 -0.5200
30168SOL     OW92116   1.581   5.273   6.247 -0.6097  0.3696  0.3663
30168SOL    HW192117   1.661   5.232   6.279 -0.7369  0.0772  0.3208
30168SOL    HW292118   1.512   5.210   6.268 -0.7724  0.4317  0.0361
30169SOL     OW92119   0.249   3.520   7.523 -0.1676  0.0998 -0.1856
30169SOL    HW192120   0.241   3.492   7.432 -0.6841  0.2473 -0.1873
30169SOL    HW292121   0.343   3.518   7.541 -0.1033 -0.4267 -0.5659
30170SOL     OW92122   8.950   8.447   2.357 -0.0375 -0.3532  0.0952
30170SOL    HW192123   8.920   8.379   2.417  0.7577 -1.0374 -0.2433
30170SOL    HW292124   9.008   8.400   2.296  4.2840  1.2952  2.5431
30171SOL     OW92125   0.759   7.452   0.582  0.2221  0.3222  1.1473
30171SOL    HW192126   0.768   7.497   0.499 -0.0405 -0.5967  0.6028
30171SOL    HW292127   0.673   7.410   0.577  0.1631  0.3288  1.9178
30172SOL     OW92128   7.046   0.057   4.820  0.1390  0.0260 -0.1363
30172SOL    HW192129   7.062  -0.038   4.823  0.4869  0.0638 -0.6985
30172SOL    HW292130   6.984   0.068   4.748 -1.0121  0.0846  0.8329
30173SOL     OW92131   6.984   6.584   9.716  0.0286  0.0882 -0.5705
30173SOL    HW192132   7.064   6.625   9.750 -0.5752 -0.0714  1.1517
30173SOL    HW292133   7.005   6.561   9.625  0.9531  2.6813 -1.1024
30174SOL     OW92134   1.286   9.072   2.404 -0.0725  0.1417  0.5826
30174SOL    HW192135   1.303   9.152   2.453  1.0842 -0.2564  0.8823
30174SOL    HW292136   1.373   9.041   2.378 -0.6285  0.5686 -2.1283
30175SOL     OW92137   8.547   2.041   5.642  0.3404  0.1953 -0.1645
30175SOL    HW192138   8.531   1.946   5.637  0.7026  0.1048  0.4344
30175SOL    HW292139   8.570   2.065   5.552 -0.7535 -0.0991 -0.5494
30176SOL     OW92140   2.974   3.828   0.038  0.2807  0.2567  0.2116
30176SOL    HW192141   2.999   3.920   0.030  0.1684  0.2517 -0.2256
30176SOL    HW292142   3.026   3.783  -0.028 -0.9506  0.2634 -0.8121
30177SOL     OW92143   5.129   9.466   3.290  0.0859  0.3313  0.1299
30177SOL    HW192144   5.122   9.403   3.219  1.1916 -0.7154  0.9039
30177SOL    HW292145   5.175   9.541   3.252  2.0922 -0.8461  0.0754
30178SOL     OW92146   5.856   2.710   9.420 -0.3117 -0.2700 -0.8709
30178SOL    HW192147   5.918   2.781   9.403 -0.5146 -0.0006 -0.5102
30178SOL    HW292148   5.779   2.754   9.456  0.0052 -0.7943  0.4874
30179SOL     OW92149   6.493   9.545   8.971  0.6341  0.3891  0.5002
30179SOL    HW192150   6.508   9.543   9.065  2.8654  1.0515  0.2057
30179SOL    HW292151   6.537   9.466   8.938  1.9607  1.3983 -0.2216
30180SOL     OW92152   0.458   3.810   2.212 -0.3084 -0.2903 -0.2907
30180SOL    HW192153   0.427   3.897   2.186 -0.4313  0.0938  1.0616
30180SOL    HW292154   0.544   3.826   2.250  0.4001 -1.0003 -1.5582
30181SOL     OW92155   8.509   9.572   8.800 -0.2591 -0.5662 -0.2552
30181SOL    HW192156   8.425   9.570   8.846 -0.6954  0.0060 -1.0019
30181SOL    HW292157   8.561   9.504   8.843 -0.5226  0.1525  1.2907
30182SOL     OW92158   2.314   8.263   7.408 -0.1647  0.1275 -0.3979
30182SOL    HW192159   2.238   8.206   7.395 -1.4518  1.3480  1.3909
30182SOL    HW292160   2.281   8.351   7.394  0.9611  0.6818  0.2821
30183SOL     OW92161   2.051   3.536   8.308  0.2463  0.0266 -0.0764
30183SOL    HW192162   2.077   3.457   8.261 -0.4565  0.1861 -0.7614
30183SOL    HW292163   1.980   3.507   8.366 -1.8805  0.5911 -2.2369
30184SOL     OW92164   5.721   4.903   9.052 -0.1766 -0.1832  0.1761
30184SOL    HW192165   5.791   4.850   9.015 -0.1022 -0.0128  0.0707
30184SOL    HW292166   5.723   4.985   9.002  0.5588  0.4340  1.1668
30185SOL     OW92167   4.944   3.647   5.186  0.4604 -0.4706 -0.8791
30185SOL    HW192168   5.030   3.680   5.161 -0.3717  2.1774 -0.5021
30185SOL    HW292169   4.938   3.663   5.280 -0.1840 -1.3371 -0.7539
30186SOL     OW92170   2.528   0.012   4.298 -0.3666  0.2211 -0.2948
30186SOL    HW192171   2.440  -0.022   4.286 -1.4690  1.9839  1.9385
30186SOL    HW292172   2.516   0.091   4.352  2.5803  0.4243  0.2378
30187SOL     OW92173   3.837   5.697   8.071  0.0628  0.1572 -0.0666
30187SOL    HW192174   3.838   5.601   8.076  1.5746  0.0393 -1.7912
30187SOL    HW292175   3.811   5.725   8.159 -1.2243 -1.8225  0.2540
30188SOL     OW92176   3.134   3.428   7.255 -0.0523 -0.0789 -0.0097
30188SOL    HW192177   3.151   3.334   7.266  0.0377 -0.0548  0.0532
30188SOL    HW292178   3.166   3.447   7.166  0.6038  0.0472  0.2490
30189SOL     OW92179   1.116   7.868   4.523  1.0971 -0.2047  0.4134
30189SOL    HW192180   1.052   7.913   4.579 -0.1468  0.7617 -1.6562
30189SOL    HW292181   1.133   7.785   4.568 -1.2484 -0.2811  1.3215
30190SOL     OW92182   1.975   0.408   8.311  0.4330 -0.2720 -0.7283
30190SOL    HW192183   1.915   0.420   8.238  1.2453 -0.6968 -1.4799
30190SOL    HW292184   2.013   0.322   8.296  0.3646 -0.5113  0.3875
30191SOL     OW92185   0.615   7.672   7.216 -0.1593 -0.3842 -0.2336
30191SOL    HW192186   0.570   7.695   7.297 -1.4222  1.3353 -1.3365
30191SOL    HW292187   0.574   7.590   7.188 -3.7676  1.7382 -1.8580
30192SOL     OW92188   6.714   2.360   7.903 -0.0145 -0.6806 -0.5086
30192SOL    HW192189   6.702   2.297   7.975 -0.2276 -1.7173 -1.4221
30192SOL    HW292190   6.646   2.426   7.919 -1.7458 -2.2082 -1.0934
30193SOL     OW92191   3.193   6.713   0.699 -0.1546 -0.3545 -0.0415
30193SOL    HW192192   3.233   6.626   0.700 -1.9361 -1.2352  1.2772
30193SOL    HW292193   3.114   6.703   0.646  0.8950  1.1524 -2.0013
30194SOL     OW92194   1.321   5.273   2.292 -0.0480 -0.7183  0.4607
30194SOL    HW192195   1.366   5.325   2.359  0.5971  0.2475 -0.6673
30194SOL    HW292196   1.242   5.241   2.335  0.9115 -1.1013  2.0159
30195SOL     OW92197   0.863   9.392   7.475  0.7030 -0.0205  0.6732
30195SOL    HW192198   0.941   9.426   7.432  0.1980  0.8157  0.4129
30195SOL    HW292199   0.835   9.462   7.534  0.9517 -0.8601  1.8323
30196SOL     OW92200   9.376   9.439   9.423 -0.0843  0.4927  0.6458
30196SOL    HW192201   9.328   9.446   9.340 -1.0531  1.5435  1.2800
30196SOL    HW292202   9.356   9.519   9.470 -0.0316 -0.3508  2.1690
30197SOL     OW92203   4.657   6.477   6.936  0.6941 -0.2274  0.6410
30197SOL    HW192204   4.676   6.511   6.849  0.8933  1.2390  1.2175
30197SOL    HW292205   4.684   6.385   6.934 -0.8882 -0.7113 -1.3399
30198SOL     OW92206   5.128   7.970   9.051  0.7372 -0.1384  0.7684
30198SOL    HW192207   5.121   7.997   8.960  1.0627 -1.6157  0.2689
30198SOL    HW292208   5.072   8.030   9.099  2.2410  2.0445 -0.0841
30199SOL     OW92209   2.850   8.069   2.760  0.1873 -0.2907  0.7610
30199SOL    HW192210   2.844   8.010   2.835  2.7610  0.6010  1.7569
30199SOL    HW292211   2.859   8.156   2.798 -1.3784  0.5690 -0.6655
30200SOL     OW92212   7.069   8.371   4.032 -0.3066 -0.1779 -0.0126
30200SOL    HW192213   7.052   8.358   3.939 -1.3160 -0.3657  0.1921
30200SOL    HW292214   7.115   8.291   4.060  0.4424  0.0903 -0.4426
30201SOL     OW92215   9.003   5.885   7.763  0.4958 -0.1105  0.1236
30201SOL    HW192216   9.016   5.861   7.672  2.7141  2.0108 -0.2519
30201SOL    HW292217   9.044   5.815   7.813  0.9471 -0.3744 -0.6075
30202SOL     OW92218   1.035   5.432   5.410 -0.6263  0.3977 -0.0403
30202SOL    HW192219   0.974   5.504   5.397  0.2926  1.2351  0.1758
30202SOL    HW292220   1.113   5.473   5.447 -0.8464 -0.9935  2.1324
30203SOL     OW92221   4.910   2.937   3.381 -0.1886 -0.2077  0.1075
30203SOL    HW192222   4.967   2.875   3.427  0.1375 -0.4863 -0.6637
30203SOL    HW292223   4.886   2.893   3.300 -1.8147 -0.2479  0.5645
30204SOL     OW92224   1.915   9.565   9.718  0.0921  0.5421  0.7179
30204SOL    HW192225   1.949   9.617   9.645  2.3215  1.3883  2.2183
30204SOL    HW292226   1.987   9.506   9.740 -1.3188 -1.1691  0.9446
30205SOL     OW92227   2.924   7.587   3.813 -0.3943 -0.3655 -0.4487
30205SOL    HW192228   2.938   7.675   3.778 -0.2657  0.4026  1.4102
30205SOL    HW292229   2.838   7.592   3.855 -1.3861 -1.7922 -2.1313
30206SOL     OW92230   8.276   7.166   3.690  0.3071 -0.1847  0.6067
30206SOL    HW192231   8.332   7.118   3.751  0.2948 -1.1057 -0.0838
30206SOL    HW292232   8.291   7.258   3.711  4.4174 -0.1485 -1.4062
30207SOL     OW92233   2.803   2.868   8.073 -0.5729 -0.0272 -0.3449
30207SOL    HW192234   2.892   2.904   8.067 -0.3237 -0.8710 -2.8017
30207SOL    HW292235   2.759   2.901   7.995 -2.3755  0.1504  0.7007
30208SOL     OW92236   2.194   1.697   3.858  0.2079  0.4569  0.2589
30208SOL    HW192237   2.259   1.642   3.815 -0.6092 -1.6007  1.5392
30208SOL    HW292238   2.242   1.778   3.878  2.0621 -0.5566  0.1564
30209SOL     OW92239   2.201   6.545   0.352 -0.1138  0.5119  0.7578
30209SOL    HW192240   2.237   6.525   0.266  2.4390  1.2495  1.5533
30209SOL    HW292241   2.169   6.462   0.385  2.4953 -0.6350  0.6242
30210SOL     OW92242   8.159   3.985   4.752 -0.0479 -0.6247 -0.0001
30210SOL    HW192243   8.124   3.927   4.685  0.8474 -0.7961 -0.3333
30210SOL    HW292244   8.095   3.982   4.823 -0.5118 -1.2148 -0.4357
30211SOL     OW92245   6.519   6.868   1.740  0.2484  0.5892 -0.2849
30211SOL    HW192246   6.611   6.855   1.763 -0.1932 -0.3240  1.0934
30211SOL    HW292247   6.473   6.869   1.824 -1.1024  0.1841 -0.9909
30212SOL     OW92248   7.807   6.410   6.246 -0.5211 -0.4565 -0.1290
30212SOL    HW192249   7.781   6.423   6.337  0.1169  0.6523 -0.0888
30212SOL    HW292250   7.838   6.496   6.217  0.2206 -1.0229 -1.0860
30213SOL     OW92251   4.416   6.386   0.370  0.2732  0.2190 -0.0045
30213SOL    HW192252   4.352   6.432   0.425 -1.9428 -1.4517 -0.9897
30213SOL    HW292253   4.457   6.323   0.429 -0.1501  0.2383  0.3166
30214SOL     OW92254   4.554   4.142   4.647  0.3675 -0.5872  0.8224
30214SOL    HW192255   4.527   4.122   4.737  2.2484 -0.0594  1.5585
30214SOL    HW292256   4.609   4.068   4.622 -1.1201 -1.3457 -0.4141
30215SOL     OW92257   8.374   1.256   4.087  0.3386 -0.6602  0.2826
30215SOL    HW192258   8.321   1.327   4.123 -1.2553 -0.7982 -1.6324
30215SOL    HW292259   8.311   1.192   4.054  1.6381 -1.0552 -1.6545
30216SOL     OW92260   7.860   7.099   6.401 -0.6667  0.0699 -0.1320
30216SOL    HW192261   7.834   7.177   6.351  1.0882 -1.2259 -3.3551
30216SOL    HW292262   7.803   7.029   6.367 -1.2413 -0.3800  1.6768
30217SOL     OW92263   3.141   0.628   3.608  0.5257 -0.1867 -0.1143
30217SOL    HW192264   3.154   0.690   3.680 -0.0789 -0.6584  0.4183
30217SOL    HW292265   3.127   0.544   3.652  2.4160 -0.9272 -0.8423
30218SOL     OW92266   4.043   8.516   6.475  0.6006 -0.3359 -0.4943
30218SOL    HW192267   4.032   8.425   6.446 -0.7051 -1.0532  1.9470
30218SOL    HW292268   4.127   8.516   6.521  0.8650 -0.1468 -0.9690
30219SOL     OW92269   9.483   4.589   7.793  0.2096  0.4370 -0.4042
30219SOL    HW192270   9.411   4.526   7.800  0.0447  0.8133  2.0429
30219SOL    HW292271   9.518   4.575   7.705 -2.3737 -0.2563 -1.4162
30220SOL     OW92272   3.424   2.167   6.557  0.3820  0.1019  0.1053
30220SOL    HW192273   3.446   2.246   6.606 -1.7854  0.5707  0.4144
30220SOL    HW292274   3.455   2.186   6.468  0.6728  0.9397  0.3702
30221SOL     OW92275   6.512   0.957   5.110  0.1432  0.1868  0.5233
30221SOL    HW192276   6.419   0.939   5.108  0.1071  0.3654  0.5600
30221SOL    HW292277   6.554   0.871   5.120 -0.0007  0.0674  0.1146
30222SOL     OW92278   8.770   5.273   0.627  0.0322 -0.4721 -0.0638
30222SOL    HW192279   8.794   5.355   0.583 -3.1410  0.7459  0.1965
30222SOL    HW292280   8.846   5.217   0.615  1.7412  1.9422 -1.6558
30223SOL     OW92281   8.053   8.508   7.058 -0.0626 -0.1426 -0.4644
30223SOL    HW192282   8.081   8.429   7.012 -0.9863 -0.6224 -0.2274
30223SOL    HW292283   8.120   8.522   7.125  1.6309  0.9030 -2.2553
30224SOL     OW92284   8.317   5.739   5.165  0.3523  0.1097  0.2736
30224SOL    HW192285   8.325   5.680   5.240 -0.3956 -0.2888  0.0434
30224SOL    HW292286   8.223   5.744   5.148  0.5119  0.2387 -0.6124
30225SOL     OW92287   5.631   9.572   3.895 -0.2523  0.4009  0.3958
30225SOL    HW192288   5.605   9.483   3.871  0.9763  0.3548 -0.8843
30225SOL    HW292289   5.725   9.566   3.911  0.3959  1.9171 -2.2829
30226SOL     OW92290   3.332   3.209   5.186  0.3919  0.0078  0.0866
30226SOL    HW192291   3.419   3.247   5.181  0.5521 -0.0332  1.7942
30226SOL    HW292292   3.336   3.152   5.263 -1.5346  1.1009  1.0690
30227SOL     OW92293   0.444   9.830   6.391  0.4236 -0.7612  0.1458
30227SOL    HW192294   0.470   9.913   6.432 -0.9670  0.9387 -2.1602
30227SOL    HW292295   0.484   9.833   6.304 -0.9068 -1.8148 -0.5321
30228SOL     OW92296   1.269   0.966   4.181  0.2349 -0.1811  0.1666
30228SOL    HW192297   1.287   0.963   4.275  0.4772 -1.2755  0.1035
30228SOL    HW292298   1.206   0.896   4.167 -2.1921  1.8855 -0.0471
30229SOL     OW92299   4.270   9.230   9.523 -0.1504  0.4456 -0.5081
30229SOL    HW192300   4.306   9.305   9.476 -0.6183 -0.0205 -1.6479
30229SOL    HW292301   4.307   9.153   9.479 -0.4474 -0.0012  0.0106
30230SOL     OW92302   5.382   3.788   9.787  0.2638  0.0145 -0.2174
30230SOL    HW192303   5.352   3.843   9.715  0.5552 -0.0022 -0.3549
30230SOL    HW292304   5.476   3.807   9.794 -0.0220  1.0895  1.0809
30231SOL     OW92305   4.215   2.274   7.092  0.1551 -0.1707 -0.2254
30231SOL    HW192306   4.184   2.341   7.031  1.5434 -0.3200 -1.1510
30231SOL    HW292307   4.144   2.264   7.155 -0.1641  2.0132 -0.1764
30232SOL     OW92308   6.580   3.951   2.804 -0.3933 -0.0976 -0.6504
30232SOL    HW192309   6.604   3.867   2.765 -0.1110  0.5657 -1.9831
30232SOL    HW292310   6.595   3.940   2.897 -0.8308 -1.6763 -0.7376
30233SOL     OW92311   4.367   7.176   2.505  0.4955 -0.6608  0.1068
30233SOL    HW192312   4.405   7.185   2.418  1.7504  1.9838  0.8085
30233SOL    HW292313   4.429   7.122   2.554  1.1058 -0.0727  0.0056
30234SOL     OW92314   2.906   8.938   9.698 -0.0852  0.3306  0.5113
30234SOL    HW192315   2.880   8.962   9.787  1.5768 -0.8675  1.3706
30234SOL    HW292316   2.915   8.843   9.700  0.2685  0.3059 -0.8679
30235SOL     OW92317   1.250   5.689   5.271  0.3374  0.1100 -0.1143
30235SOL    HW192318   1.340   5.688   5.303 -0.0774 -2.0038  1.2128
30235SOL    HW292319   1.214   5.772   5.301  0.9556 -0.3916  2.1816
30236SOL     OW92320   6.591   6.736   8.914  0.1964  0.9173  0.0747
30236SOL    HW192321   6.681   6.747   8.944 -0.2519  0.2171  1.8416
30236SOL    HW292322   6.547   6.818   8.936  0.1199  0.8010  0.3593
30237SOL     OW92323   3.923   4.923   1.793 -0.0565 -0.3491 -0.7406
30237SOL    HW192324   4.010   4.941   1.759 -0.6686 -0.0592 -2.2411
30237SOL    HW292325   3.882   5.009   1.802  0.1744 -0.3791  1.1114
30238SOL     OW92326   4.948   9.524   0.367  0.6195  0.0860 -0.2806
30238SOL    HW192327   4.917   9.609   0.398 -0.3609 -0.6080  0.7327
30238SOL    HW292328   5.031   9.510   0.412  1.2218  0.8612 -1.1071
30239SOL     OW92329   1.734   1.723   4.532  0.2802 -0.6344  0.3544
30239SOL    HW192330   1.673   1.666   4.484 -0.9665  0.4063  0.6353
30239SOL    HW292331   1.708   1.811   4.507  2.9411 -0.1379 -0.9971
30240SOL     OW92332   3.582   3.668   4.065 -0.0047 -0.4012 -0.4210
30240SOL    HW192333   3.526   3.738   4.099 -0.3059 -1.2236  0.8403
30240SOL    HW292334   3.658   3.713   4.029 -0.7243  0.6378 -0.6570
30241SOL     OW92335   8.229   7.148   1.134 -1.0737 -0.0176  0.3467
30241SOL    HW192336   8.233   7.220   1.071 -1.9388 -0.2630  0.0011
30241SOL    HW292337   8.252   7.070   1.083  0.4263  0.0692  0.8464
30242SOL     OW92338   9.073   8.276   0.365  0.0693 -0.2375  0.2998
30242SOL    HW192339   9.114   8.298   0.281 -1.6492 -0.2753 -0.5743
30242SOL    HW292340   9.128   8.321   0.430  0.1074  1.7239 -0.9898
30243SOL     OW92341   7.392   9.842   8.942 -0.1799  0.1033 -0.0873
30243SOL    HW192342   7.426   9.772   8.997 -1.6639 -0.4623  0.1426
30243SOL    HW292343   7.298   9.842   8.957 -0.7435 -0.3851 -2.9266
30244SOL     OW92344   8.214   3.972   1.556  0.3942  0.0843 -0.0911
30244SOL    HW192345   8.192   3.957   1.464  1.5525 -0.2749 -0.3275
30244SOL    HW292346   8.235   4.065   1.561  0.6373  0.0399 -0.2652
30245SOL     OW92347   0.140   1.899   1.232  0.1088 -0.0749 -0.4556
30245SOL    HW192348   0.070   1.924   1.171  0.1176 -0.1593 -0.4998
30245SOL    HW292349   0.204   1.854   1.178  0.0458 -0.2838 -0.3563
30246SOL     OW92350   6.678   0.060   7.951  0.4754  0.2603 -0.1303
30246SOL    HW192351   6.732   0.128   7.990  1.1730 -1.7765  2.7508
30246SOL    HW292352   6.739   0.009   7.898  0.6583 -0.0266  0.3521
30247SOL     OW92353   3.064   5.584   7.895 -0.8423 -0.1638 -0.1786
30247SOL    HW192354   3.113   5.666   7.903  0.4631 -0.9841  0.6578
30247SOL    HW292355   3.131   5.516   7.905 -1.9322 -1.3266 -0.6432
30248SOL     OW92356   4.095   6.118   7.598 -0.8214 -0.1152  0.2870
30248SOL    HW192357   4.145   6.048   7.556  0.0641 -0.3491  1.6629
30248SOL    HW292358   4.010   6.116   7.554 -0.0478 -0.5015 -1.2925
30249SOL     OW92359   9.707   2.581   8.757  0.6358 -0.0777 -0.1633
30249SOL    HW192360   9.738   2.660   8.801  1.3384  0.0075 -0.8001
30249SOL    HW292361   9.612   2.593   8.750  0.4747 -0.1638  1.4556
30250SOL     OW92362   1.717   9.347   0.895  0.2752 -0.2647  0.1685
30250SOL    HW192363   1.656   9.421   0.887  0.1252 -0.2497  1.2871
30250SOL    HW292364   1.760   9.360   0.979  2.0400 -0.1464 -0.7196
30251SOL     OW92365   4.521   8.684   0.158 -0.0422  0.0074  0.1284
30251SOL    HW192366   4.589   8.747   0.183  2.8123 -2.7802  0.0499
30251SOL    HW292367   4.489   8.649   0.242  0.1508 -0.1782  0.1246
30252SOL     OW92368   4.632   4.059   6.700  0.2519 -0.2481 -0.0432
30252SOL    HW192369   4.644   4.009   6.619 -0.8104 -1.4757  0.5225
30252SOL    HW292370   4.711   4.041   6.751  1.7797  1.9506 -1.4584
30253SOL     OW92371   7.297   6.158   2.126 -0.3894  0.2765 -0.1703
30253SOL    HW192372   7.285   6.239   2.077 -0.0565 -0.3409 -1.3106
30253SOL    HW292373   7.240   6.095   2.081 -0.3819 -0.2048  0.4887
30254SOL     OW92374   5.145   4.280   1.457  0.1722 -0.4326 -0.2478
30254SOL    HW192375   5.240   4.279   1.452  0.2324  0.2640  0.5288
30254SOL    HW292376   5.120   4.365   1.419 -0.0794 -0.2648  0.2787
30255SOL     OW92377   1.244   3.178   5.793  0.2276  0.6273 -0.5284
30255SOL    HW192378   1.241   3.135   5.878 -0.4127  2.7096  0.5704
30255SOL    HW292379   1.207   3.114   5.732  4.7050 -2.7947 -0.2374
30256SOL     OW92380   3.376   5.830   0.552 -0.3153 -0.2965 -0.0017
30256SOL    HW192381   3.355   5.790   0.636  1.2247  1.7130  1.4352
30256SOL    HW292382   3.373   5.924   0.568  0.0204  0.1547 -2.2120
30257SOL     OW92383   6.531   8.047   9.615  0.4043  0.1565 -0.0098
30257SOL    HW192384   6.608   7.996   9.590  2.0559  3.3719 -2.1264
30257SOL    HW292385   6.459   8.006   9.566  1.0195 -1.8229  0.6266
30258SOL     OW92386   3.531   3.723   2.809 -0.3259  0.4787 -0.3450
30258SOL    HW192387   3.592   3.660   2.772 -1.0118 -0.5495  0.2289
30258SOL    HW292388   3.446   3.701   2.771 -0.7317  0.4784  0.5277
30259SOL     OW92389   3.194   0.907   8.224  0.5422  0.6853  0.1495
30259SOL    HW192390   3.174   0.996   8.197 -1.2197  0.4148  0.4359
30259SOL    HW292391   3.289   0.904   8.230  0.7006  2.1908 -1.0411
30260SOL     OW92392   9.149   5.283   5.359  0.3642 -0.1276  0.1290
30260SOL    HW192393   9.214   5.341   5.398  0.4304 -0.3153  0.3008
30260SOL    HW292394   9.065   5.326   5.377  0.4774  0.4643 -0.6865
30261SOL     OW92395   0.087   4.980   0.742  0.0041  0.1449  0.0520
30261SOL    HW192396   0.041   4.897   0.741  1.8958 -0.9560 -0.0318
30261SOL    HW292397   0.125   4.986   0.830 -0.1930  0.9684  0.0922
30262SOL     OW92398   8.827   8.422   6.056  0.2604  0.6469  0.0336
30262SOL    HW192399   8.742   8.382   6.038  1.1725 -2.0244  1.0744
30262SOL    HW292400   8.826   8.504   6.007 -2.3743  0.0753 -1.0624
30263SOL     OW92401   2.161   8.027   5.813  0.0323  0.0677  0.1679
30263SOL    HW192402   2.232   7.971   5.780  0.5710  1.2187 -0.7045
30263SOL    HW292403   2.207   8.103   5.851 -0.6644 -0.2543  1.7268
30264SOL     OW92404   7.735   8.673   9.157  0.2670 -0.0364 -0.6528
30264SOL    HW192405   7.775   8.610   9.217  0.4198  0.1629 -0.5463
30264SOL    HW292406   7.787   8.752   9.166 -1.1778  0.8244  0.8230
30265SOL     OW92407   3.491   6.256   4.326 -0.0777 -0.0459 -0.4964
30265SOL    HW192408   3.448   6.310   4.259 -0.1668  0.5612  0.0381
30265SOL    HW292409   3.477   6.304   4.408  1.0570 -0.1631 -0.2168
30266SOL     OW92410   6.358   2.692   4.081  0.1028  0.0005  0.1949
30266SOL    HW192411   6.336   2.780   4.051  0.4987  0.7136  1.8708
30266SOL    HW292412   6.408   2.653   4.009  0.3928  1.3382 -0.3453
30267SOL     OW92413   8.879   2.513   5.628 -0.1992 -0.0881 -0.8886
30267SOL    HW192414   8.868   2.595   5.580 -0.6011 -0.5071 -1.5280
30267SOL    HW292415   8.897   2.448   5.560  0.6303 -0.4458 -0.3457
30268SOL     OW92416   2.799   3.780   5.433  0.2064  0.1989 -0.4041
30268SOL    HW192417   2.715   3.760   5.391  0.9755 -1.6262 -1.2047
30268SOL    HW292418   2.816   3.704   5.489  1.4689  0.3861 -0.5156
30269SOL     OW92419   7.607   7.484   2.569 -0.0139 -0.0891  0.3659
30269SOL    HW192420   7.665   7.488   2.645  1.5615  0.7561 -0.8218
30269SOL    HW292421   7.597   7.575   2.542  1.1679 -0.4912 -1.6355
30270SOL     OW92422   3.581   2.181   3.215 -0.2714 -0.0214  0.0461
30270SOL    HW192423   3.594   2.274   3.236 -0.6069  0.0119  0.1250
30270SOL    HW292424   3.489   2.176   3.189 -0.6210 -0.5460  1.2917
30271SOL     OW92425   5.383   6.647   9.090  0.2869 -0.1357 -0.2653
30271SOL    HW192426   5.456   6.601   9.047 -0.0386 -1.3674  0.4495
30271SOL    HW292427   5.309   6.634   9.032 -0.0083 -1.2849  0.3357
30272SOL     OW92428   2.547   5.839   4.167  0.0299  0.2453 -0.6300
30272SOL    HW192429   2.505   5.757   4.194 -2.8794  1.8520  0.1953
30272SOL    HW292430   2.505   5.860   4.083 -0.4186  1.6398 -0.0723
30273SOL     OW92431   7.896   1.822   8.294 -0.4299  0.4022  0.7106
30273SOL    HW192432   7.841   1.744   8.293  0.2792 -0.1729  2.4604
30273SOL    HW292433   7.985   1.789   8.281 -0.3997  1.3439 -2.3483
30274SOL     OW92434   6.875   0.348   3.789  0.5191  0.3460  0.7374
30274SOL    HW192435   6.891   0.365   3.696  1.5952 -0.6590  0.7125
30274SOL    HW292436   6.880   0.434   3.831  0.5592  0.7404 -0.0695
30275SOL     OW92437   0.836   1.640   0.871 -0.5138 -0.2421 -0.0301
30275SOL    HW192438   0.774   1.596   0.929  0.0171 -2.3213 -0.9345
30275SOL    HW292439   0.797   1.634   0.784 -0.0737  0.4284 -0.2804
30276SOL     OW92440   0.752   1.581   5.300  0.6003 -0.1271  0.3602
30276SOL    HW192441   0.766   1.491   5.327  0.6101  0.0357  0.9050
30276SOL    HW292442   0.734   1.575   5.206 -0.2164 -0.7645  0.5525
30277SOL     OW92443   9.467   7.500   4.058 -0.7075  0.1131  0.0443
30277SOL    HW192444   9.505   7.580   4.021  0.3154 -0.0826  0.6538
30277SOL    HW292445   9.527   7.431   4.031 -1.5763 -0.4669 -0.4570
30278SOL     OW92446   7.921   5.178   2.213 -0.2300  0.5557 -0.7841
30278SOL    HW192447   7.913   5.274   2.207 -0.7712  0.5960  0.2843
30278SOL    HW292448   7.890   5.157   2.301  0.7043 -0.5293 -0.6865
30279SOL     OW92449   1.121   4.286   4.505  0.2360  0.8717  0.5956
30279SOL    HW192450   1.141   4.308   4.414 -1.8593 -0.7839 -0.3651
30279SOL    HW292451   1.124   4.190   4.507 -2.4898  0.6988  1.4642
30280SOL     OW92452   1.778   9.762   7.819  0.3460 -0.0528  0.1709
30280SOL    HW192453   1.819   9.687   7.776  1.6343  0.4939  0.4072
30280SOL    HW292454   1.688   9.734   7.835  0.1656 -0.7375 -1.7422
30281SOL     OW92455   3.172   7.741   8.641  0.3901  0.7034 -0.7602
30281SOL    HW192456   3.101   7.789   8.684  1.8070  1.2064  1.0978
30281SOL    HW292457   3.159   7.650   8.667  0.7378  0.8770  0.0261
30282SOL     OW92458   1.946   5.197   2.905  1.2441  0.0900 -0.1828
30282SOL    HW192459   1.851   5.200   2.922  1.4877  0.2664  1.3235
30282SOL    HW292460   1.977   5.123   2.956  1.8821 -0.1633 -0.9319
30283SOL     OW92461   2.554   0.930   4.698  0.6037 -0.1653  0.2324
30283SOL    HW192462   2.514   0.984   4.629 -1.2504 -2.2918 -0.4724
30283SOL    HW292463   2.575   0.993   4.768 -0.1218  1.6471 -1.0887
30284SOL     OW92464   3.919   0.526   6.729 -0.3664 -0.3100 -0.0079
30284SOL    HW192465   3.948   0.578   6.654 -0.3058 -0.0889  0.1643
30284SOL    HW292466   3.841   0.480   6.698 -0.0406 -0.6242 -0.3621
30285SOL     OW92467   4.431   0.857   1.577 -0.3760 -0.1116 -0.3010
30285SOL    HW192468   4.464   0.829   1.492  0.2876 -0.9219  0.2133
30285SOL    HW292469   4.429   0.777   1.630  0.9400  0.6753  1.0026
30286SOL     OW92470   0.021   1.923   7.019  0.2512 -0.5151 -0.2201
30286SOL    HW192471   0.031   1.988   7.089  1.0496 -1.3410  0.4684
30286SOL    HW292472   0.003   1.841   7.066 -1.3562 -0.7043 -1.0933
30287SOL     OW92473   4.191   1.211   7.120  0.2934 -0.2836 -0.2814
30287SOL    HW192474   4.250   1.139   7.098 -0.7662 -0.6632 -2.1109
30287SOL    HW292475   4.244   1.271   7.173  1.5280 -1.8439  0.3115
30288SOL     OW92476   9.262   0.497   0.084 -0.6585 -0.4781 -0.1231
30288SOL    HW192477   9.248   0.513   0.178 -1.5465  0.0764 -0.3347
30288SOL    HW292478   9.312   0.572   0.054 -2.5514  0.6861 -0.5775
30289SOL     OW92479   3.564   5.951   2.714 -0.2390  0.4542  0.2522
30289SOL    HW192480   3.594   5.874   2.763 -0.5211 -0.1368 -0.4807
30289SOL    HW292481   3.545   6.016   2.781  0.2810 -0.0147  0.8689
30290SOL     OW92482   3.259   5.632   3.596 -0.4928 -0.1856 -0.2164
30290SOL    HW192483   3.293   5.598   3.513  3.1326 -0.5599  1.2515
30290SOL    HW292484   3.319   5.702   3.620 -1.0547 -0.4774  2.3715
30291SOL     OW92485   4.606   6.147   4.964  0.3082  0.0264 -0.5963
30291SOL    HW192486   4.694   6.184   4.973  0.0207  0.9855 -1.5516
30291SOL    HW292487   4.621   6.054   4.951  1.2575  0.3065 -1.7160
30292SOL     OW92488   1.038   4.547   7.256  0.3212  0.2281  0.1589
30292SOL    HW192489   1.051   4.476   7.193  1.7423 -0.2137  0.8954
30292SOL    HW292490   1.112   4.539   7.316 -0.9684  0.6551  1.8772
30293SOL     OW92491   1.153   6.853   3.672 -0.4220 -0.1945 -0.3347
30293SOL    HW192492   1.190   6.884   3.589 -2.7351 -0.2969 -1.4785
30293SOL    HW292493   1.184   6.917   3.736  0.1768  0.7816 -1.5357
30294SOL     OW92494   9.328   5.362   7.889  0.4401  0.4885  0.1661
30294SOL    HW192495   9.331   5.319   7.804 -0.0680 -0.2811  0.5273
30294SOL    HW292496   9.417   5.395   7.902  0.8796 -0.5452 -0.0793
30295SOL     OW92497   3.011   6.758   6.212  0.0012 -0.0120 -0.0431
30295SOL    HW192498   2.980   6.711   6.290  0.4434  1.7258  1.2455
30295SOL    HW292499   2.933   6.770   6.158 -1.3307  2.5927  2.2377
30296SOL     OW92500   0.585   8.125   0.026  0.4245 -0.8721  0.0059
30296SOL    HW192501   0.515   8.189   0.038  1.1653 -0.1718  0.7227
30296SOL    HW292502   0.632   8.155  -0.051  0.5006 -0.8089  0.0769
30297SOL     OW92503   7.242   7.772   1.269  0.0576 -0.4754 -0.1445
30297SOL    HW192504   7.206   7.820   1.195 -1.9035 -2.4914 -0.5894
30297SOL    HW292505   7.298   7.705   1.230 -1.1883 -1.7108  0.1410
30298SOL     OW92506   3.791   5.474   9.039 -0.4968 -0.0858 -0.0932
30298SOL    HW192507   3.875   5.433   9.062 -0.6533  0.1712  0.9717
30298SOL    HW292508   3.788   5.554   9.091 -1.1745  0.1811 -0.5255
30299SOL     OW92509   5.126   7.271   2.348  0.2087  0.3571  0.0093
30299SOL    HW192510   5.130   7.317   2.265  0.5555  0.6536  0.1848
30299SOL    HW292511   5.034   7.247   2.358  0.3746 -0.8551 -1.0838
30300SOL     OW92512   9.344   2.819   5.609 -0.8447  0.0679  0.2889
30300SOL    HW192513   9.438   2.828   5.623 -0.5973 -0.8857 -0.6517
30300SOL    HW292514   9.306   2.895   5.654  0.4657  1.1332 -0.3186
30301SOL     OW92515   4.278   8.687   3.749  0.5271  0.3293  0.0065
30301SOL    HW192516   4.256   8.770   3.706  0.2399  0.6219  0.6855
30301SOL    HW292517   4.266   8.706   3.842  0.4928 -0.4714  0.1679
30302SOL     OW92518   3.316   1.716   5.947  0.6754 -0.7166 -0.1668
30302SOL    HW192519   3.221   1.710   5.935  0.5467 -1.2611  0.9836
30302SOL    HW292520   3.350   1.635   5.910  0.3882 -1.8685  1.9576
30303SOL     OW92521   9.604   6.294   8.673 -0.3839 -0.2117  0.2207
30303SOL    HW192522   9.515   6.262   8.661 -0.0086 -1.1086 -0.2406
30303SOL    HW292523   9.601   6.344   8.755 -1.2172 -0.5561  0.4065
30304SOL     OW92524   9.775   2.087   3.767  0.3964  0.0620  0.0085
30304SOL    HW192525   9.812   1.998   3.763  0.7300  0.0585  1.9962
30304SOL    HW292526   9.832   2.133   3.828 -0.5910  1.2389  0.0710
30305SOL     OW92527   6.327   3.988   4.417  0.3183 -0.4894  0.9646
30305SOL    HW192528   6.281   4.000   4.501 -0.3101  0.4460  0.5154
30305SOL    HW292529   6.257   3.991   4.351  0.7267 -1.8898  0.4349
30306SOL     OW92530   2.148   5.028   7.818 -0.9525 -0.1018  0.4809
30306SOL    HW192531   2.139   5.019   7.723  0.7073  1.2085  0.1592
30306SOL    HW292532   2.240   5.047   7.832 -1.2361  0.0694  2.3390
30307SOL     OW92533   2.915   0.987   8.891  0.8707 -0.6032  0.3632
30307SOL    HW192534   2.916   1.008   8.797 -0.4341 -1.4882  0.1178
30307SOL    HW292535   2.826   0.954   8.906  0.8029  0.2855  2.0933
30308SOL     OW92536   2.832   7.821   4.885 -0.1963 -0.5054  0.4094
30308SOL    HW192537   2.889   7.879   4.935  1.2063 -0.5024 -1.0989
30308SOL    HW292538   2.854   7.733   4.917  0.2083 -0.4563  0.2718
30309SOL     OW92539   3.306   7.031   2.637 -0.6096  0.2639  0.2980
30309SOL    HW192540   3.322   7.094   2.707 -1.3839 -1.3838  2.0438
30309SOL    HW292541   3.356   6.954   2.663 -0.9386 -0.4040 -0.9783
30310SOL     OW92542   1.910   7.742   3.344  0.6201 -0.0810  0.1907
30310SOL    HW192543   1.841   7.788   3.391 -0.5490 -1.1981 -0.3459
30310SOL    HW292544   1.991   7.762   3.391  0.1129  2.1640  0.1785
30311SOL     OW92545   4.317   2.138   4.764 -1.1173  0.3302 -0.1004
30311SOL    HW192546   4.279   2.051   4.781 -2.2410  0.4173 -1.9101
30311SOL    HW292547   4.261   2.198   4.813 -2.0049  0.2414 -0.9606
30312SOL     OW92548   8.873   5.390   5.393  0.4460  0.0955 -0.0751
30312SOL    HW192549   8.805   5.444   5.434 -0.9718 -1.2520 -0.5566
30312SOL    HW292550   8.830   5.307   5.375  1.8776 -0.3713 -1.5810
30313SOL     OW92551   7.371   4.472   5.440 -0.4852  0.1361 -0.6184
30313SOL    HW192552   7.454   4.502   5.402  0.2177 -0.7131  0.1925
30313SOL    HW292553   7.370   4.508   5.528  0.1469 -1.7011  0.2004
30314SOL     OW92554   8.672   3.407   1.584 -0.3169 -1.2612  0.0927
30314SOL    HW192555   8.759   3.391   1.621  0.5066  0.7600 -0.8525
30314SOL    HW292556   8.626   3.455   1.652  0.4122  0.3995 -0.5211
30315SOL     OW92557   7.349   9.678   5.073 -0.2521 -0.1965 -0.0454
30315SOL    HW192558   7.414   9.723   5.019 -0.8968  0.3731 -0.3715
30315SOL    HW292559   7.265   9.708   5.039 -0.6831  0.5494  1.5554
30316SOL     OW92560   5.231   1.214   2.490 -0.0341  0.6294 -0.0561
30316SOL    HW192561   5.151   1.260   2.465  0.5808  0.6454 -2.1908
30316SOL    HW292562   5.213   1.180   2.578 -2.1501  1.1048 -0.2557
30317SOL     OW92563   1.084   3.013   5.641 -0.0315  0.3352  0.2740
30317SOL    HW192564   0.988   3.014   5.634 -0.1875  2.5573  1.5149
30317SOL    HW292565   1.113   2.963   5.565 -2.1729 -0.8061  0.1085
30318SOL     OW92566   0.527   3.876   6.583  0.2090 -0.2489  0.0907
30318SOL    HW192567   0.621   3.890   6.572  0.1360 -0.1541 -0.4654
30318SOL    HW292568   0.509   3.797   6.533 -0.1683  0.2756 -0.6139
30319SOL     OW92569   3.780   8.583   3.312 -0.4290  0.1439 -0.6518
30319SOL    HW192570   3.780   8.673   3.280  1.9122  0.1936 -0.6553
30319SOL    HW292571   3.814   8.590   3.402  1.5154 -0.8577 -1.2574
30320SOL     OW92572   1.534   1.344   6.668 -0.3275 -0.2784  0.0743
30320SOL    HW192573   1.596   1.372   6.600 -1.0615 -1.7284 -1.2711
30320SOL    HW292574   1.453   1.326   6.620 -1.1262 -0.5798  1.4768
30321SOL     OW92575   6.661   3.236   9.479 -0.7961 -0.2563 -0.4980
30321SOL    HW192576   6.733   3.188   9.440 -2.1590 -1.8635 -1.1273
30321SOL    HW292577   6.699   3.321   9.503  0.9519 -0.5640 -1.9959
30322SOL     OW92578   8.975   1.288   2.645 -0.1395  0.1923  0.5021
30322SOL    HW192579   8.913   1.290   2.572 -0.4467 -0.1600  0.7531
30322SOL    HW292580   8.921   1.303   2.722  0.0370 -0.4756  0.7582
30323SOL     OW92581   1.367   6.982   2.862  0.1060 -0.3456 -0.2587
30323SOL    HW192582   1.319   7.061   2.840  0.8910  0.3972  0.6549
30323SOL    HW292583   1.434   6.975   2.794 -0.0587 -0.3158 -0.4247
30324SOL     OW92584   8.230   3.406   7.254 -0.3611 -0.2013 -0.0303
30324SOL    HW192585   8.233   3.480   7.193 -1.3699 -1.4180 -1.6465
30324SOL    HW292586   8.137   3.390   7.268 -0.1433 -0.5452  1.0966
30325SOL     OW92587   0.538   3.661   3.957 -0.0208  0.1400 -0.6839
30325SOL    HW192588   0.560   3.609   3.880  3.4278  0.6423 -0.1818
30325SOL    HW292589   0.574   3.611   4.030 -0.4448  1.1815  0.2607
30326SOL     OW92590   7.561   5.590   7.371 -0.9471 -0.4729 -0.4697
30326SOL    HW192591   7.476   5.630   7.386 -1.0358 -0.8312  0.0153
30326SOL    HW292592   7.622   5.640   7.425 -0.7478  0.1355 -1.2419
30327SOL     OW92593   5.482   9.729   2.679  0.1406 -0.3773 -0.4318
30327SOL    HW192594   5.427   9.704   2.604 -0.5596 -0.0389 -0.0428
30327SOL    HW292595   5.490   9.824   2.672 -0.9084 -0.1903  0.5551
30328SOL     OW92596   6.776   1.710   3.846 -0.0720 -0.2872 -0.1297
30328SOL    HW192597   6.801   1.679   3.759 -0.1754  0.4014 -0.4092
30328SOL    HW292598   6.700   1.766   3.831  0.4261  0.5245  0.3020
30329SOL     OW92599   2.855   0.536   2.684 -0.3963 -0.1436  0.4607
30329SOL    HW192600   2.894   0.606   2.737  3.6205 -0.5010 -1.6549
30329SOL    HW292601   2.853   0.460   2.742  2.5425 -0.1560  0.6575
30330SOL     OW92602   3.540   8.863   6.064  0.4664 -0.6994  0.1344
30330SOL    HW192603   3.598   8.820   6.126  0.0093 -2.6097 -0.6866
30330SOL    HW292604   3.523   8.797   5.997  1.6125  1.4882 -2.5292
30331SOL     OW92605   4.543   4.468   6.583  0.6505  0.1196 -0.4926
30331SOL    HW192606   4.629   4.475   6.623 -0.0979  0.6438  1.0978
30331SOL    HW292607   4.502   4.393   6.626 -0.0000  0.3936 -0.6225
30332SOL     OW92608   3.367   0.106   9.629  0.4354  0.5306 -0.0491
30332SOL    HW192609   3.375   0.029   9.685 -1.6450 -1.3384 -2.1285
30332SOL    HW292610   3.275   0.132   9.637  0.6643  1.6670 -0.8169
30333SOL     OW92611   8.700   5.698   0.287  0.8140 -0.2111  0.4967
30333SOL    HW192612   8.641   5.692   0.362 -1.1783  0.9936 -0.8715
30333SOL    HW292613   8.698   5.791   0.264 -0.0908 -0.8019 -2.1013
30334SOL     OW92614   6.158   9.708   7.133  0.1601  0.3781  0.1738
30334SOL    HW192615   6.064   9.691   7.136 -0.0197  1.3489  0.4151
30334SOL    HW292616   6.168   9.771   7.061  0.3310  1.9243  1.4937
30335SOL     OW92617   1.123   1.955   2.562  0.1756  0.2375  0.2898
30335SOL    HW192618   1.198   1.958   2.502  0.4355 -1.7146  0.4474
30335SOL    HW292619   1.104   2.047   2.581  3.0424  0.8154  0.9009
30336SOL     OW92620   1.791   1.724   8.820  0.8859 -0.5656  0.2165
30336SOL    HW192621   1.733   1.649   8.814  0.9838 -0.5310 -2.5522
30336SOL    HW292622   1.878   1.689   8.799  1.0299  0.2036 -0.5157
30337SOL     OW92623   7.114   7.412   9.251 -0.1932  0.0962 -0.1192
30337SOL    HW192624   7.170   7.381   9.322 -1.4740 -0.5772  0.6429
30337SOL    HW292625   7.118   7.507   9.258  0.4988  0.0555  0.1988
30338SOL     OW92626   2.462   6.524   5.916  0.5499  0.2310  0.2031
30338SOL    HW192627   2.447   6.545   6.008  1.8799 -0.5965  0.6456
30338SOL    HW292628   2.421   6.438   5.905  1.2848 -0.1475  0.3240
30339SOL     OW92629   8.075   2.204   7.221  0.0597  0.0543 -0.0791
30339SOL    HW192630   8.163   2.197   7.257  0.4070  0.4282 -0.8522
30339SOL    HW292631   8.087   2.205   7.126 -0.9322 -2.1909 -0.3022
30340SOL     OW92632   0.572   7.343   5.923 -0.1198 -0.2437  0.6204
30340SOL    HW192633   0.663   7.328   5.900 -0.0746 -0.0463  0.6691
30340SOL    HW292634   0.540   7.404   5.856 -1.3022 -3.2277 -1.7533
30341SOL     OW92635   7.697   0.753   0.870  0.2064  0.4594  0.4753
30341SOL    HW192636   7.765   0.820   0.874 -1.9422  2.8706 -0.3833
30341SOL    HW292637   7.632   0.780   0.935 -0.8298 -0.6295 -0.0625
30342SOL     OW92638   6.888   6.615   8.118 -0.2910 -0.3817  0.0252
30342SOL    HW192639   6.941   6.644   8.043 -0.0992  0.8727  0.6262
30342SOL    HW292640   6.882   6.692   8.175 -0.3023 -1.3546  1.3857
30343SOL     OW92641   5.978   8.981   7.985  0.1955 -0.5083 -0.1876
30343SOL    HW192642   5.984   8.896   8.029  0.4312  0.2225  1.2660
30343SOL    HW292643   6.043   9.036   8.031 -1.1941  0.9555  0.1182
30344SOL     OW92644   8.483   2.501   6.889 -0.1357  0.6090 -0.2270
30344SOL    HW192645   8.479   2.417   6.843  1.2035  0.7100 -0.5733
30344SOL    HW292646   8.496   2.478   6.981 -1.5989  0.4286 -0.0401
30345SOL     OW92647   8.503   2.223   2.678  0.2746  0.1776  0.1600
30345SOL    HW192648   8.581   2.168   2.686  0.6011  0.6104 -0.0128
30345SOL    HW292649   8.450   2.201   2.755  0.4712 -0.2613  0.1774
30346SOL     OW92650   2.460   3.391   1.065  0.4079 -0.3195  0.2307
30346SOL    HW192651   2.437   3.470   1.114  0.5089  0.1720 -0.5045
30346SOL    HW292652   2.386   3.333   1.079 -0.3468  0.4623 -0.4061
30347SOL     OW92653   1.346   1.517   3.723  0.4451  0.2226  0.5817
30347SOL    HW192654   1.352   1.426   3.749  0.2140  0.1793  0.4825
30347SOL    HW292655   1.340   1.566   3.805  1.3198  0.2050  0.6623
30348SOL     OW92656   4.869   0.460   0.851 -0.0425 -0.2923 -0.0291
30348SOL    HW192657   4.857   0.419   0.766 -0.5236  0.5831 -0.4045
30348SOL    HW292658   4.935   0.528   0.836 -1.3187  0.9779 -0.1304
30349SOL     OW92659   6.828   9.167   0.882  0.1570  0.1588  0.2702
30349SOL    HW192660   6.907   9.216   0.904  1.4097 -1.9353  0.7948
30349SOL    HW292661   6.859   9.099   0.821 -1.1516 -0.9726  0.8241
30350SOL     OW92662   3.172   7.146   3.028  0.1659 -0.2575 -0.6120
30350SOL    HW192663   3.250   7.146   3.083 -0.4085 -0.4934  0.2193
30350SOL    HW292664   3.192   7.209   2.958  0.2810  1.3133  0.7778
30351SOL     OW92665   5.996   9.482   4.354 -0.4379  0.1650  0.1566
30351SOL    HW192666   6.048   9.560   4.376 -3.3107  2.5660 -0.7995
30351SOL    HW292667   5.928   9.479   4.422 -1.2763 -0.5512 -0.6838
30352SOL     OW92668   5.666   6.406   6.691 -0.2984 -0.5305  0.1274
30352SOL    HW192669   5.740   6.348   6.670 -2.2053 -2.6143 -1.2868
30352SOL    HW292670   5.593   6.347   6.707 -2.1412  1.4825 -0.3665
30353SOL     OW92671   0.448   4.486   4.148 -0.2942 -0.1007  0.4770
30353SOL    HW192672   0.446   4.466   4.055 -0.2324  3.4595 -0.4363
30353SOL    HW292673   0.533   4.453   4.178 -1.5246 -4.0784  0.1677
30354SOL     OW92674   7.212   5.348   9.557 -0.0046  0.0009 -0.3246
30354SOL    HW192675   7.295   5.361   9.511 -0.4897 -2.0984 -1.9185
30354SOL    HW292676   7.164   5.430   9.543  1.1337  0.6149 -0.7727
30355SOL     OW92677   7.629   7.997   5.767 -0.1331 -0.2848  0.1398
30355SOL    HW192678   7.546   8.026   5.806 -0.5449 -0.5102 -0.5553
30355SOL    HW292679   7.603   7.935   5.699  0.5838  0.1206 -0.5111
30356SOL     OW92680   5.905   6.914   9.494 -0.1404  0.3094 -0.5404
30356SOL    HW192681   5.979   6.945   9.442  0.1123  0.9319  0.1764
30356SOL    HW292682   5.925   6.942   9.583 -0.9464 -0.0567 -0.2360
30357SOL     OW92683   9.229   5.019   7.720  0.4523  0.6632 -0.2015
30357SOL    HW192684   9.270   5.051   7.640 -0.0467 -0.7312 -1.0551
30357SOL    HW292685   9.154   4.968   7.690 -0.4050  1.0164  1.2142
30358SOL     OW92686   3.569   4.711   7.715  0.0093 -0.4618  0.4234
30358SOL    HW192687   3.544   4.670   7.797  0.2308  0.5741  1.0296
30358SOL    HW292688   3.663   4.692   7.706 -0.1192 -0.9950  0.1452
30359SOL     OW92689   4.805   8.604   7.232 -0.3390  0.3642  0.3364
30359SOL    HW192690   4.852   8.544   7.174  0.9048  1.6784 -0.0698
30359SOL    HW292691   4.841   8.690   7.212 -0.9090  1.0462  2.0479
30360SOL     OW92692   6.051   0.897   8.433 -0.8760 -0.3917 -0.0530
30360SOL    HW192693   5.958   0.873   8.438 -0.7321 -0.8493  0.3695
30360SOL    HW292694   6.081   0.895   8.523 -0.5001 -0.0408 -0.1694
30361SOL     OW92695   9.039   5.132   0.574 -0.4368 -0.1068 -0.0649
30361SOL    HW192696   9.017   5.140   0.482 -1.5141  0.2086  0.2106
30361SOL    HW292697   9.107   5.064   0.576  1.3910  1.5722 -1.3204
30362SOL     OW92698   7.370   4.880   9.469 -0.3500 -0.2960  0.8747
30362SOL    HW192699   7.463   4.891   9.487 -0.1880  0.0793 -0.1412
30362SOL    HW292700   7.338   4.824   9.540  0.1129  1.5894  2.6705
30363SOL     OW92701   6.045   4.884   3.507 -0.1644 -0.4344  0.0414
30363SOL    HW192702   6.100   4.818   3.463  1.5316  1.4589 -0.8351
30363SOL    HW292703   5.992   4.922   3.437 -0.3474 -0.1263  0.3438
30364SOL     OW92704   5.420   4.448   6.721  0.2995 -0.0030 -0.0664
30364SOL    HW192705   5.369   4.473   6.799  0.9982  0.0073  0.4011
30364SOL    HW292706   5.451   4.360   6.741 -0.4885 -0.4620 -0.8446
30365SOL     OW92707   5.567   2.101   4.251 -0.4065 -0.3820 -0.5806
30365SOL    HW192708   5.628   2.168   4.281 -0.8523 -0.2167  0.0046
30365SOL    HW292709   5.614   2.019   4.263  0.4019 -0.1422 -1.9642
30366SOL     OW92710   2.974   7.626   5.005 -0.0453 -0.1320  0.4836
30366SOL    HW192711   3.024   7.683   5.064  1.3923  0.2148 -1.0143
30366SOL    HW292712   2.989   7.537   5.039 -2.4989  0.2661  2.9790
30367SOL     OW92713   7.817   7.511   9.038  0.0898 -0.4603 -0.5854
30367SOL    HW192714   7.869   7.431   9.038 -0.2771 -0.7025 -0.1665
30367SOL    HW292715   7.839   7.555   9.120 -1.2394 -1.1540  0.1871
30368SOL     OW92716   3.738   8.721   0.208 -0.2055  0.1522 -0.1046
30368SOL    HW192717   3.694   8.760   0.132  0.1691  0.4739 -0.1609
30368SOL    HW292718   3.785   8.794   0.248  0.0684 -0.1383  0.1002
30369SOL     OW92719   3.745   5.605   3.959  0.6367  0.2649 -0.2308
30369SOL    HW192720   3.653   5.599   3.985  0.7845  0.1672  0.2949
30369SOL    HW292721   3.743   5.648   3.874  0.0797 -0.0596 -0.3922
30370SOL     OW92722   2.826   1.259   9.673  0.2354  0.2994 -0.5608
30370SOL    HW192723   2.749   1.286   9.623 -1.2215 -0.3115  1.2364
30370SOL    HW292724   2.828   1.317   9.749 -1.4232 -2.6564  1.9785
30371SOL     OW92725   8.910   4.182   4.233 -0.0001  0.0553  0.2355
30371SOL    HW192726   8.871   4.178   4.320 -0.5645 -0.1952 -0.0217
30371SOL    HW292727   8.929   4.275   4.220  1.3771 -0.0774  1.1714
30372SOL     OW92728   3.891   2.495   0.635 -0.5948  0.6184 -0.0819
30372SOL    HW192729   3.854   2.435   0.571  0.7698  0.3039 -0.6081
30372SOL    HW292730   3.843   2.476   0.716 -0.3526 -1.0334 -0.2870
30373SOL     OW92731   3.289   1.337   3.084  0.7808 -0.6388  0.1866
30373SOL    HW192732   3.320   1.427   3.073  2.2332 -1.2959 -1.4996
30373SOL    HW292733   3.363   1.291   3.124 -1.0990 -0.4461  4.4392
30374SOL     OW92734   7.799   8.735   6.113 -1.3123  0.4850 -0.1072
30374SOL    HW192735   7.883   8.690   6.100 -0.7090  1.7538 -0.7151
30374SOL    HW292736   7.750   8.718   6.033 -1.3474  0.3657 -0.0611
30375SOL     OW92737   0.165   9.100   5.060 -0.5272 -0.0309  0.3289
30375SOL    HW192738   0.231   9.084   4.992  0.2190 -2.6638  1.5436
30375SOL    HW292739   0.163   9.195   5.069  1.9715  0.2337 -0.8542
30376SOL     OW92740   8.299   7.890   0.197  0.3716 -0.4756  0.0395
30376SOL    HW192741   8.361   7.836   0.246 -0.1682  0.0859  1.4044
30376SOL    HW292742   8.353   7.937   0.134  1.3624  0.0226  1.2176
30377SOL     OW92743   7.669   3.135   0.494 -0.1201  0.8301 -0.4810
30377SOL    HW192744   7.619   3.054   0.500  0.9636  0.1619 -0.2424
30377SOL    HW292745   7.718   3.127   0.412 -0.4818  1.5412 -0.7797
30378SOL     OW92746   8.338   8.454   9.748 -0.1403  0.1171  0.1500
30378SOL    HW192747   8.325   8.548   9.737  0.7116  0.3832  1.2822
30378SOL    HW292748   8.257   8.423   9.789 -1.0926  0.0458 -1.6964
30379SOL     OW92749   2.845   4.550   1.968  0.2084  0.4775 -0.1027
30379SOL    HW192750   2.750   4.552   1.953  0.3843  1.6933 -1.2972
30379SOL    HW292751   2.875   4.472   1.923 -0.4618 -1.1835  2.1682
30380SOL     OW92752   6.172   8.162   4.766 -0.2403  0.1874  0.7637
30380SOL    HW192753   6.120   8.117   4.699 -0.1666  0.7083  0.3535
30380SOL    HW292754   6.129   8.141   4.848 -2.0625  1.8918  0.3137
30381SOL     OW92755   5.857   0.964   1.037 -0.1444  0.4135  0.6392
30381SOL    HW192756   5.948   0.962   1.008  0.2052  0.0672  1.7186
30381SOL    HW292757   5.806   0.956   0.957  0.7958 -1.8255  0.1839
30382SOL     OW92758   0.959   2.227   8.876  0.1955 -0.3548  0.3177
30382SOL    HW192759   1.020   2.224   8.950 -0.1252  0.6342  0.6338
30382SOL    HW292760   0.878   2.263   8.913 -0.2818 -0.7756 -0.3018
30383SOL     OW92761   7.791   1.516   1.583  0.2664 -0.2117  0.3718
30383SOL    HW192762   7.841   1.531   1.503  1.3603 -0.8687  0.9148
30383SOL    HW292763   7.736   1.440   1.563  1.6567 -1.3390  0.7246
30384SOL     OW92764   4.260   4.205   7.882 -0.0397  0.9843  0.7034
30384SOL    HW192765   4.284   4.278   7.939 -0.1542  0.3832  1.5427
30384SOL    HW292766   4.165   4.197   7.893 -0.0249  0.7058  0.6266
30385SOL     OW92767   3.739   0.995   8.739 -1.0139  0.1555 -0.1520
30385SOL    HW192768   3.681   1.010   8.814 -0.4983 -0.0289  0.2899
30385SOL    HW292769   3.713   0.908   8.707  0.3610 -0.8648  1.3169
30386SOL     OW92770   1.049   1.636   0.515  0.2907 -0.1977 -0.0938
30386SOL    HW192771   1.000   1.708   0.555  0.1655  0.8570 -1.9899
30386SOL    HW292772   0.981   1.575   0.486  0.3532 -0.7195  0.8380
30387SOL     OW92773   7.258   2.950   3.857 -0.5434 -0.4153 -0.3439
30387SOL    HW192774   7.292   2.904   3.934 -1.2968  0.7081  0.7066
30387SOL    HW292775   7.168   2.971   3.881 -1.3197 -1.4348 -2.1953
30388SOL     OW92776   6.109   6.719   9.342 -0.2430  0.4297  0.5744
30388SOL    HW192777   6.157   6.763   9.272  0.6195  1.0271  1.5188
30388SOL    HW292778   6.080   6.637   9.303 -0.5037  1.1156 -0.7375
30389SOL     OW92779   8.822   3.315   0.133 -0.3173 -0.1319 -0.0060
30389SOL    HW192780   8.870   3.233   0.142 -0.5080 -0.4296 -1.4890
30389SOL    HW292781   8.744   3.304   0.187 -0.0494 -0.6859  0.2727
30390SOL     OW92782   3.052   6.083   1.590  0.5440 -0.1202  0.0985
30390SOL    HW192783   3.059   6.045   1.502  0.7219 -1.0363  0.5024
30390SOL    HW292784   2.959   6.101   1.600  0.4638 -0.3971 -0.1207
30391SOL     OW92785   4.922   9.384   2.978 -0.9491 -0.0064  0.4996
30391SOL    HW192786   4.931   9.342   2.893 -0.9500  0.5906  0.1992
30391SOL    HW292787   4.939   9.314   3.042 -1.9019 -0.6969  0.0279
30392SOL     OW92788   4.844   0.843   5.126 -0.4492 -0.3555 -0.0823
30392SOL    HW192789   4.764   0.793   5.110 -0.4605  0.0628 -1.4528
30392SOL    HW292790   4.816   0.917   5.180 -0.7040 -0.9932  0.6787
30393SOL     OW92791   0.468   6.583   8.686  0.0028 -0.1002 -0.1466
30393SOL    HW192792   0.485   6.500   8.643 -0.6071  0.5750 -1.7600
30393SOL    HW292793   0.437   6.559   8.774  2.2870 -1.4780  0.3576
30394SOL     OW92794   7.348   1.113   8.477 -0.1912 -0.1069 -0.1715
30394SOL    HW192795   7.295   1.190   8.499 -0.8481  0.4258 -3.0992
30394SOL    HW292796   7.298   1.039   8.511 -1.5899  0.5574 -0.6880
30395SOL     OW92797   6.486   7.055   6.702 -0.4355 -0.2658  0.2635
30395SOL    HW192798   6.503   7.020   6.790 -0.3167 -2.3311 -0.5328
30395SOL    HW292799   6.438   7.136   6.718  0.0532 -0.3117  2.2447
30396SOL     OW92800   3.714   2.814   2.278  0.3314  0.3808 -0.1824
30396SOL    HW192801   3.784   2.852   2.331  0.9952  0.3285 -1.0016
30396SOL    HW292802   3.719   2.720   2.295 -0.5846  0.5262  0.9822
30397SOL     OW92803   0.040   0.875   7.780 -0.1001  0.0371 -0.2688
30397SOL    HW192804  -0.050   0.909   7.788  0.2490  0.6960  1.2877
30397SOL    HW292805   0.093   0.936   7.831  1.0458 -1.0940 -0.0549
30398SOL     OW92806   5.939   3.725   4.940 -0.2460 -0.5763  0.5834
30398SOL    HW192807   5.944   3.732   4.845  3.3431 -1.5949  0.5329
30398SOL    HW292808   5.957   3.814   4.971 -0.2482 -0.4684  0.2845
30399SOL     OW92809   2.350   8.858   4.292  0.7233 -0.2537  0.0894
30399SOL    HW192810   2.354   8.816   4.206 -0.2639 -0.9796  0.3732
30399SOL    HW292811   2.356   8.785   4.355 -0.4044  0.0557  0.5937
30400SOL     OW92812   3.653   9.000   7.191  0.1400 -0.6265  0.3977
30400SOL    HW192813   3.623   8.953   7.268  1.5253 -0.7933  0.8735
30400SOL    HW292814   3.747   9.015   7.207  0.4575 -0.6492 -1.2465
30401SOL     OW92815   9.098   9.018   3.617  0.1419 -0.1613 -0.2777
30401SOL    HW192816   9.080   8.927   3.595  0.7186 -0.0430 -1.2950
30401SOL    HW292817   9.183   9.015   3.662 -0.1023 -0.1809  0.1882
30402SOL     OW92818   5.007   6.157   5.985 -0.4014 -0.1422  0.1802
30402SOL    HW192819   4.944   6.210   5.935 -1.2983 -1.9351 -0.6725
30402SOL    HW292820   5.087   6.210   5.986 -1.6143  1.7925  0.4951
30403SOL     OW92821   5.089   6.596   6.380 -0.3135 -0.0597 -0.4788
30403SOL    HW192822   5.038   6.603   6.300 -0.0422  1.5959 -0.5311
30403SOL    HW292823   5.121   6.684   6.397  1.8459 -0.8543  0.0104
30404SOL     OW92824   2.067   8.469   5.354  0.0207 -0.2632 -0.0913
30404SOL    HW192825   2.035   8.485   5.266 -0.7097  2.5125  0.5815
30404SOL    HW292826   1.997   8.419   5.396  0.8106 -2.5027 -1.2908
30405SOL     OW92827   0.424   4.561   0.029  0.4534 -0.8045 -0.1929
30405SOL    HW192828   0.385   4.600  -0.049  1.3095 -1.5284 -1.0075
30405SOL    HW292829   0.374   4.481   0.044  1.2288 -1.4385 -0.9015
30406SOL     OW92830   8.743   2.804   6.090 -1.2329 -0.4727 -0.1536
30406SOL    HW192831   8.730   2.895   6.064 -1.6041 -0.6909 -0.7327
30406SOL    HW292832   8.657   2.775   6.121 -0.6701 -0.0002  2.0784
30407SOL     OW92833   9.701   7.644   9.265 -0.1747 -0.5331  0.0465
30407SOL    HW192834   9.606   7.630   9.264 -0.0870 -2.0145  2.6446
30407SOL    HW292835   9.711   7.734   9.295 -0.7601 -0.3090 -0.4105
30408SOL     OW92836   0.435   0.182   3.364 -0.7017 -0.3874  0.7610
30408SOL    HW192837   0.450   0.215   3.453 -1.3027 -0.1785  0.7871
30408SOL    HW292838   0.518   0.198   3.319 -0.4177 -0.4163  1.2568
30409SOL     OW92839   2.040   7.363   1.130  0.0575  0.0177 -0.2579
30409SOL    HW192840   2.055   7.454   1.107 -1.9570  1.3499  3.0344
30409SOL    HW292841   2.117   7.317   1.098  2.3686  3.2787  0.1651
30410SOL     OW92842   7.898   4.181   3.916  0.2069 -0.1587 -0.0738
30410SOL    HW192843   7.926   4.096   3.883 -2.3727 -1.3068  0.5022
30410SOL    HW292844   7.968   4.207   3.976  0.7559 -2.1801  0.2303
30411SOL     OW92845   9.220   8.469   5.864  0.0002 -0.3273 -0.1047
30411SOL    HW192846   9.211   8.416   5.943  1.1600  0.6507  0.7162
30411SOL    HW292847   9.242   8.405   5.795  0.7577 -1.0000  0.7313
30412SOL     OW92848   2.614   2.968   9.210 -0.2275 -0.3486  0.6490
30412SOL    HW192849   2.670   2.938   9.138 -0.5221 -0.5975  0.5190
30412SOL    HW292850   2.528   2.930   9.190 -0.6624  0.7567  0.3722
30413SOL     OW92851   7.140   1.444   1.397 -0.1227 -0.3788 -0.2673
30413SOL    HW192852   7.092   1.464   1.317 -0.7176 -1.7384 -0.2704
30413SOL    HW292853   7.075   1.402   1.454  0.4281  0.0723  0.7238
30414SOL     OW92854   7.527   9.294   9.281  0.0321  0.0305  0.2291
30414SOL    HW192855   7.456   9.346   9.318  0.6987  0.8918  0.3311
30414SOL    HW292856   7.513   9.299   9.186 -1.2775 -1.6080  0.2993
30415SOL     OW92857   3.670   1.764   0.305  0.1474 -0.3649 -0.1665
30415SOL    HW192858   3.750   1.750   0.357 -0.0818  0.1200  0.3290
30415SOL    HW292859   3.678   1.702   0.232  2.0348  1.1364 -1.3549
30416SOL     OW92860   9.351   0.149   0.321  0.0431  0.3598 -0.5345
30416SOL    HW192861   9.345   0.095   0.242  2.0903 -0.3255 -0.2946
30416SOL    HW292862   9.431   0.200   0.308 -0.0850  0.9037  0.7192
30417SOL     OW92863   4.841   6.124   1.400  0.3055  0.0098  0.3031
30417SOL    HW192864   4.865   6.165   1.483 -0.7835  1.4702 -0.0656
30417SOL    HW292865   4.765   6.173   1.370  1.0935 -0.0129 -1.9154
30418SOL     OW92866   3.733   2.687   0.456  0.3515 -0.2980 -0.2620
30418SOL    HW192867   3.778   2.661   0.375  0.7122 -2.0394  0.4487
30418SOL    HW292868   3.801   2.683   0.523 -0.0462  0.7077  0.2293
30419SOL     OW92869   2.588   1.304   7.652 -0.2788 -0.3216 -0.2038
30419SOL    HW192870   2.497   1.301   7.623 -0.4200 -1.1156  0.2815
30419SOL    HW292871   2.630   1.367   7.593 -0.9328 -0.6323 -1.0257
30420SOL     OW92872   2.801   4.020   1.700  0.5777  0.1272 -0.4849
30420SOL    HW192873   2.795   4.116   1.698 -0.3882  0.0727 -0.9286
30420SOL    HW292874   2.893   4.002   1.720  0.3786  1.1465  1.5923
30421SOL     OW92875   6.319   2.763   0.249  0.1728 -0.5748 -0.3948
30421SOL    HW192876   6.266   2.820   0.304 -0.2468  0.1806 -1.5491
30421SOL    HW292877   6.258   2.729   0.184  1.0837  0.4674 -1.8627
30422SOL     OW92878   9.307   9.586   2.940  0.3674  0.1008 -0.7604
30422SOL    HW192879   9.398   9.565   2.919  0.6983  0.6369  0.0614
30422SOL    HW292880   9.314   9.649   3.012 -0.6183  1.2311 -1.6081
30423SOL     OW92881   3.913   7.722   4.971  0.4692  0.0593 -0.0229
30423SOL    HW192882   3.870   7.742   4.888  1.1200 -1.1960 -0.6959
30423SOL    HW292883   3.990   7.670   4.946 -0.0695 -1.5488  1.4199
30424SOL     OW92884   3.543   7.482   5.056  0.2717 -0.1230  0.7134
30424SOL    HW192885   3.618   7.512   5.107  0.4354  2.2572 -0.7716
30424SOL    HW292886   3.505   7.562   5.020 -0.6017 -1.5602 -1.7940
30425SOL     OW92887   1.234   5.725   7.575  0.2794 -0.1200  0.2303
30425SOL    HW192888   1.261   5.651   7.520 -1.4602  0.1781 -1.1143
30425SOL    HW292889   1.243   5.801   7.517  0.5529  0.5190  1.0982
30426SOL     OW92890   1.839   8.184   1.528 -0.8278 -0.6146 -0.5387
30426SOL    HW192891   1.764   8.187   1.588  0.0518 -2.0260  0.7127
30426SOL    HW292892   1.801   8.171   1.442 -2.0458 -1.0308  0.0418
30427SOL     OW92893   1.653   8.885   5.614  0.2381  0.0023  0.1639
30427SOL    HW192894   1.625   8.878   5.705 -2.0404 -0.1665 -0.4932
30427SOL    HW292895   1.643   8.796   5.579  0.7411  0.1417 -0.3440
30428SOL     OW92896   3.482   2.912   6.935 -0.0804  0.7833 -0.0939
30428SOL    HW192897   3.541   2.987   6.929  0.4654  0.5817  1.8681
30428SOL    HW292898   3.530   2.839   6.898 -0.1463  1.1558 -0.9203
30429SOL     OW92899   2.391   0.381   3.059 -0.3593  0.1470  0.3994
30429SOL    HW192900   2.478   0.348   3.034  0.1077  1.1486  0.6481
30429SOL    HW292901   2.366   0.328   3.134 -0.6115 -1.1146 -0.5347
30430SOL     OW92902   3.719   3.799   2.136  0.5193 -0.5716  0.4589
30430SOL    HW192903   3.680   3.720   2.099  1.5352 -1.3852  1.0655
30430SOL    HW292904   3.759   3.844   2.062 -0.1594 -0.5628  0.0915
30431SOL     OW92905   9.163   4.409   2.485  0.3042  0.2606 -0.1529
30431SOL    HW192906   9.232   4.361   2.440 -0.0178  0.2463 -0.6295
30431SOL    HW292907   9.192   4.412   2.576  1.6376  1.4791 -0.5828
30432SOL     OW92908   7.235   3.758   2.115 -0.0101  0.4090  0.3199
30432SOL    HW192909   7.155   3.706   2.115 -0.5831  1.2673  1.1696
30432SOL    HW292910   7.303   3.696   2.143 -0.4623 -0.1812  0.1373
30433SOL     OW92911   6.654   7.613   9.507  0.3284 -0.9467 -0.1298
30433SOL    HW192912   6.633   7.540   9.449  1.8246 -0.7614 -0.9512
30433SOL    HW292913   6.734   7.586   9.552  0.5046 -0.1026  0.0809
30434SOL     OW92914   2.702   8.993   2.099  0.4133 -0.6085 -0.2171
30434SOL    HW192915   2.621   8.987   2.048  1.3561 -1.5770 -1.6772
30434SOL    HW292916   2.761   9.045   2.045  0.6860  0.3655  0.9763
30435SOL     OW92917   5.298   3.572   8.145 -0.0876  0.5342  0.6032
30435SOL    HW192918   5.319   3.481   8.167 -0.0035  0.5309  0.5101
30435SOL    HW292919   5.245   3.603   8.218 -1.0608  0.0562  0.1225
30436SOL     OW92920   6.574   4.125   8.901  0.6469 -0.4674 -0.2711
30436SOL    HW192921   6.519   4.151   8.828 -1.1519 -1.6108  0.6123
30436SOL    HW292922   6.599   4.034   8.882  1.1597 -0.3848 -0.0312
30437SOL     OW92923   5.753   6.191   5.505 -0.2342 -0.0258  0.4182
30437SOL    HW192924   5.686   6.165   5.568 -0.4555 -1.6250 -0.4296
30437SOL    HW292925   5.811   6.115   5.498  2.1203  1.5197  1.6064
30438SOL     OW92926   4.472   2.341   5.508  0.6597 -0.2604  0.3932
30438SOL    HW192927   4.523   2.356   5.428  0.5747  0.3468  0.4478
30438SOL    HW292928   4.383   2.369   5.485  0.1730 -1.9121  0.0927
30439SOL     OW92929   6.106   0.560   4.702  0.4871  0.0605  0.1856
30439SOL    HW192930   6.164   0.602   4.638 -1.1718  2.0236 -0.1458
30439SOL    HW292931   6.056   0.496   4.651  0.1146  0.6644 -0.2160
30440SOL     OW92932   7.723   2.070   8.083  0.0902 -0.3340  0.1121
30440SOL    HW192933   7.816   2.076   8.104 -0.0568 -0.3425  0.8121
30440SOL    HW292934   7.693   2.160   8.076 -0.0946 -0.3079  1.0832
30441SOL     OW92935   4.058   8.942   5.547  0.1178 -0.1113 -0.4237
30441SOL    HW192936   4.129   8.940   5.482  2.0297  0.2423  1.5323
30441SOL    HW292937   4.103   8.958   5.630 -1.9713 -2.5919  1.3215
30442SOL     OW92938   7.871   7.290   1.156  0.6322  0.2273  0.1474
30442SOL    HW192939   7.876   7.377   1.117 -0.4404  0.6806  0.9869
30442SOL    HW292940   7.881   7.230   1.082 -1.7224  1.0673 -0.9313
30443SOL     OW92941   5.719   4.601   5.356 -0.0334 -0.0828 -0.2629
30443SOL    HW192942   5.796   4.628   5.405 -0.5974  0.2284  0.4788
30443SOL    HW292943   5.690   4.521   5.401  0.5733 -0.9242 -1.3167
30444SOL     OW92944   2.298   1.501   2.311 -0.3804 -0.4367 -0.3936
30444SOL    HW192945   2.357   1.466   2.377  0.2977 -0.0389 -0.7736
30444SOL    HW292946   2.270   1.586   2.346  0.5156  0.0879 -0.8982
30445SOL     OW92947   8.795   0.541   6.473 -0.0301  0.2791  0.4756
30445SOL    HW192948   8.850   0.609   6.434 -0.1648  1.3680  2.0818
30445SOL    HW292949   8.733   0.517   6.404 -0.1037  1.9465 -0.0654
30446SOL     OW92950   4.267   0.882   9.016 -0.2397 -0.2319 -0.3806
30446SOL    HW192951   4.281   0.876   9.110  3.0244 -0.4089 -0.7752
30446SOL    HW292952   4.274   0.792   8.985 -0.5523 -0.0905 -0.8760
30447SOL     OW92953   4.227   7.794   8.171  0.2152 -0.1027 -0.0590
30447SOL    HW192954   4.194   7.860   8.110 -0.0632  0.3439  0.5649
30447SOL    HW292955   4.228   7.838   8.256 -0.4385 -1.0499  0.4555
30448SOL     OW92956   4.411   6.537   3.734  0.9329  0.0693  0.5258
30448SOL    HW192957   4.476   6.499   3.794 -0.3792 -1.0728  1.2748
30448SOL    HW292958   4.328   6.531   3.782 -0.5623 -2.7123 -2.0966
30449SOL     OW92959   9.752   5.625   4.033 -0.3032 -0.4546  0.6365
30449SOL    HW192960   9.755   5.553   4.096 -0.7771  0.5185  1.8293
30449SOL    HW292961   9.811   5.691   4.069  0.3456 -0.3527 -0.5853
30450SOL     OW92962   0.335   9.544   0.077 -0.1675 -0.0975 -0.2416
30450SOL    HW192963   0.334   9.638   0.061  0.1475 -0.0957 -0.2467
30450SOL    HW292964   0.427   9.520   0.078 -0.2518 -0.9502 -3.3317
30451SOL     OW92965   5.028   1.973   3.793 -0.3606 -0.2891  0.2136
30451SOL    HW192966   4.941   1.943   3.766 -0.4842 -1.0406  1.3756
30451SOL    HW292967   5.060   1.905   3.852  0.6844  0.3649  0.4333
30452SOL     OW92968   4.742   6.980   1.319  0.2251  0.2191  0.2383
30452SOL    HW192969   4.713   6.889   1.326  1.4017 -0.0545  2.2187
30452SOL    HW292970   4.681   7.029   1.372  0.0478  0.4810 -0.2040
30453SOL     OW92971   1.541   9.417   3.327  0.1968 -0.3140 -0.1556
30453SOL    HW192972   1.564   9.463   3.246 -0.6686  0.7075  0.1567
30453SOL    HW292973   1.446   9.407   3.323  0.2108 -0.7762  0.4757
30454SOL     OW92974   8.487   6.620   0.868 -0.1385 -0.1168  0.3481
30454SOL    HW192975   8.476   6.547   0.807  1.1297 -0.6415  0.7243
30454SOL    HW292976   8.556   6.673   0.830  1.2176 -0.8589  1.6572
30455SOL     OW92977   1.613   5.564   8.038  0.1019  0.1401  0.2630
30455SOL    HW192978   1.616   5.489   8.098 -1.0627 -0.9223 -0.9327
30455SOL    HW292979   1.644   5.528   7.954  1.4884  1.5345  0.1379
30456SOL     OW92980   9.396   8.853   5.725 -1.0372  0.0847 -0.1665
30456SOL    HW192981   9.491   8.855   5.711 -0.8692 -0.2614  0.8133
30456SOL    HW292982   9.367   8.941   5.702 -0.4071  0.3322 -0.0506
30457SOL     OW92983   8.442   8.289   3.635 -0.2940  0.1899 -0.1403
30457SOL    HW192984   8.435   8.195   3.615 -0.1796  0.4060 -1.3036
30457SOL    HW292985   8.378   8.330   3.577 -0.3710  0.8339  0.3907
30458SOL     OW92986   5.279   3.162   6.165 -0.0578 -0.0372 -0.9093
30458SOL    HW192987   5.255   3.077   6.129 -2.1148 -0.5252  1.2960
30458SOL    HW292988   5.195   3.205   6.184  0.9071  2.5069 -1.9110
30459SOL     OW92989   2.388   1.335   8.602 -0.1786  0.3656  0.2853
30459SOL    HW192990   2.321   1.403   8.608  0.9380  1.7401 -1.5364
30459SOL    HW292991   2.339   1.256   8.577 -1.2135  1.2074 -0.5079
30460SOL     OW92992   7.506   9.430   2.230  0.0911  0.3926 -0.0910
30460SOL    HW192993   7.437   9.470   2.178 -0.4883 -1.5900 -0.9549
30460SOL    HW292994   7.587   9.453   2.184 -0.3650 -0.7477 -1.5402
30461SOL     OW92995   1.007   4.052   8.200 -0.6701  0.6707 -0.4158
30461SOL    HW192996   0.948   4.029   8.128 -0.8420  0.6032 -0.2546
30461SOL    HW292997   1.059   4.125   8.166 -0.3833  0.2963 -0.7988
30462SOL     OW92998   6.923   9.266   8.142  0.3039  0.0824 -0.0966
30462SOL    HW192999   6.913   9.176   8.174 -1.1823  0.4945  0.7183
30462SOL    HW293000   6.921   9.257   8.047  1.4605 -0.8576 -0.0536
30463SOL     OW93001   0.824   5.474   6.036  0.4992  0.2475  0.3526
30463SOL    HW193002   0.850   5.403   5.977  0.8269  0.5079  0.1773
30463SOL    HW293003   0.796   5.430   6.116  0.4385 -0.0922  0.1485
30464SOL     OW93004   2.177   8.974   8.776 -0.4605  0.3873 -0.7402
30464SOL    HW193005   2.134   8.901   8.731 -0.9895 -0.1796  0.6413
30464SOL    HW293006   2.218   8.934   8.852  1.1328  1.2005 -1.1299
30465SOL     OW93007   9.702   6.320   1.057  0.7033  0.8845 -0.2486
30465SOL    HW193008   9.753   6.373   1.118 -1.0286 -1.2269  3.3809
30465SOL    HW293009   9.615   6.314   1.097 -0.4483 -1.0378 -2.7331
30466SOL     OW93010   6.014   7.279   0.471  0.4192  0.0996 -0.1814
30466SOL    HW193011   5.936   7.242   0.513 -1.6077  2.4821 -1.6223
30466SOL    HW293012   6.017   7.237   0.385  0.4470  0.3551 -0.3053
30467SOL     OW93013   6.593   4.659   3.256 -0.2060 -0.0141 -0.1018
30467SOL    HW193014   6.624   4.732   3.203 -1.6530  1.0905  0.5249
30467SOL    HW293015   6.516   4.627   3.210  0.1025 -0.8135 -0.0814
30468SOL     OW93016   1.711   6.406   5.105  0.9865 -0.0570  0.5607
30468SOL    HW193017   1.763   6.336   5.144 -1.1030 -0.9564  1.9465
30468SOL    HW293018   1.627   6.401   5.150 -0.5500  0.9176 -1.9878
30469SOL     OW93019   7.896   9.519   2.744  0.0304 -0.5703  0.3222
30469SOL    HW193020   7.987   9.535   2.720  1.4740 -2.3817  3.8567
30469SOL    HW293021   7.869   9.446   2.689 -0.2057  1.3709 -2.3494
30470SOL     OW93022   1.350   2.376   2.421  0.4743 -0.1157 -0.5218
30470SOL    HW193023   1.318   2.286   2.425 -0.0572  0.0092 -1.5502
30470SOL    HW293024   1.393   2.383   2.336  2.4603  0.0119  0.4342
30471SOL     OW93025   7.026   3.762   4.855 -1.0293 -0.5357  0.6948
30471SOL    HW193026   6.998   3.693   4.915 -0.7876 -0.9780  0.3093
30471SOL    HW293027   6.984   3.841   4.888 -2.7275 -1.1617  0.1568
30472SOL     OW93028   2.422   7.958   6.734  1.0476 -0.1272 -0.1496
30472SOL    HW193029   2.515   7.938   6.723  1.4861  1.7582 -0.2077
30472SOL    HW293030   2.400   8.011   6.657 -0.0542 -0.4346 -0.0675
30473SOL     OW93031   5.068   2.578   3.764  0.3441 -0.8087  0.4599
30473SOL    HW193032   5.001   2.510   3.772 -2.5286  1.8872  1.0648
30473SOL    HW293033   5.038   2.648   3.821  1.9773  1.8496 -1.7309
30474SOL     OW93034   0.405   8.284   5.223 -0.2486 -0.1019 -0.0149
30474SOL    HW193035   0.320   8.291   5.180 -0.5008 -0.1104  0.4728
30474SOL    HW293036   0.406   8.195   5.259 -0.4661  0.2459  0.8706
30475SOL     OW93037   9.823   8.770   7.418  0.4717 -0.4588  0.4319
30475SOL    HW193038   9.762   8.837   7.448  0.5623  0.9921 -2.2784
30475SOL    HW293039   9.909   8.808   7.433  0.5657 -0.5808  0.2046
30476SOL     OW93040   5.229   3.807   3.325  0.1226 -0.0548 -0.3597
30476SOL    HW193041   5.215   3.736   3.387  2.6202 -1.1267 -0.9202
30476SOL    HW293042   5.234   3.886   3.380  1.5104 -0.8840  0.7542
30477SOL     OW93043   8.695   7.674   8.825  0.6972  0.0989  0.3778
30477SOL    HW193044   8.750   7.603   8.793  0.7273 -0.4092  1.5069
30477SOL    HW293045   8.642   7.634   8.894  0.1146  0.9793  0.4600
30478SOL     OW93046   5.508   0.415   3.993  0.2139  0.0534  0.0991
30478SOL    HW193047   5.486   0.354   3.923 -1.4054  0.7673 -0.0545
30478SOL    HW293048   5.440   0.483   3.989  0.6287  0.6316  1.7493
30479SOL     OW93049   7.034   0.496   6.855 -0.1707  0.1909 -0.8653
30479SOL    HW193050   7.029   0.402   6.867  0.8906  0.1495 -0.6164
30479SOL    HW293051   7.027   0.509   6.760  0.5137 -0.2098 -0.9747
30480SOL     OW93052   7.681   1.636   7.354  0.4412 -0.4811 -0.0460
30480SOL    HW193053   7.660   1.693   7.428  1.1943 -0.5543  0.2302
30480SOL    HW293054   7.736   1.690   7.298 -0.2773 -0.3625 -0.6582
30481SOL     OW93055   3.153   0.099   7.798 -0.1024 -0.4064 -0.0845
30481SOL    HW193056   3.177   0.078   7.888 -1.2459  1.4418  0.7122
30481SOL    HW293057   3.191   0.186   7.782 -1.4925  0.1309 -0.6925
30482SOL     OW93058   4.243   1.386   9.640 -0.2336  0.4740 -0.3006
30482SOL    HW193059   4.260   1.399   9.547 -0.3016 -1.8661 -0.6984
30482SOL    HW293060   4.206   1.297   9.645  2.3215 -0.5943  2.2267
30483SOL     OW93061   5.560   7.202   5.115 -0.4800  0.7129 -0.1034
30483SOL    HW193062   5.554   7.217   5.209  4.4074 -1.3141  0.8146
30483SOL    HW293063   5.539   7.110   5.103  1.0767  0.3864 -0.5761
30484SOL     OW93064   0.642   5.317   5.670  0.0917 -0.6037  0.2005
30484SOL    HW193065   0.587   5.243   5.695  0.7983 -1.5418 -0.9105
30484SOL    HW293066   0.729   5.279   5.656  1.0446  0.8218  1.8162
30485SOL     OW93067   2.056   7.710   8.378 -0.5593  0.3919  0.4727
30485SOL    HW193068   2.095   7.637   8.330  0.1420  2.0303 -1.6315
30485SOL    HW293069   2.103   7.711   8.462 -0.2498 -1.2323  0.3614
30486SOL     OW93070   1.115   4.602   9.260 -0.7532  0.0682 -0.2455
30486SOL    HW193071   1.102   4.507   9.267  1.1506 -0.4835 -2.7993
30486SOL    HW293072   1.071   4.626   9.179  2.0334  0.5622 -1.7397
30487SOL     OW93073   8.768   8.601   7.420 -0.0512  0.1211  0.3845
30487SOL    HW193074   8.846   8.547   7.407  0.5629  0.9307  0.6049
30487SOL    HW293075   8.801   8.691   7.417 -1.4039  0.6489 -2.7108
30488SOL     OW93076   6.537   3.080   0.397  0.4909  0.5006 -0.1582
30488SOL    HW193077   6.632   3.076   0.391  0.4285 -0.0522 -1.1195
30488SOL    HW293078   6.507   3.070   0.306 -0.4996 -0.3482  0.2324
30489SOL     OW93079   2.187   8.958   4.569  0.1025  0.3877 -0.0885
30489SOL    HW193080   2.123   8.908   4.619 -0.5089 -1.0732 -2.1932
30489SOL    HW293081   2.270   8.946   4.617  0.1448 -3.3329 -0.8086
30490SOL     OW93082   3.412   6.372   4.577  0.0715  0.0477  0.3810
30490SOL    HW193083   3.317   6.379   4.589 -0.3776  0.0644 -2.3845
30490SOL    HW293084   3.446   6.455   4.610 -1.1804  0.9921 -0.5772
30491SOL     OW93085   0.455   9.367   9.537 -0.9606 -0.7819 -0.8611
30491SOL    HW193086   0.483   9.329   9.620 -1.2361  0.3010 -0.2540
30491SOL    HW293087   0.516   9.439   9.522 -2.5787  0.8021 -0.1613
30492SOL     OW93088   7.124   0.434   4.657  0.0132 -0.1750  0.1078
30492SOL    HW193089   7.090   0.352   4.695  0.7424 -1.3427 -1.6467
30492SOL    HW293090   7.053   0.497   4.670 -1.9533 -1.9281 -1.4004
30493SOL     OW93091   2.594   3.421   9.526  0.1939  0.1550  0.0044
30493SOL    HW193092   2.573   3.508   9.492  0.2580  0.2868  0.2988
30493SOL    HW293093   2.508   3.380   9.542  0.1184 -0.5486 -1.8839
30494SOL     OW93094   3.502   7.772   2.662 -0.5410 -0.8755  0.5526
30494SOL    HW193095   3.419   7.726   2.648 -0.6372 -0.8765  1.1296
30494SOL    HW293096   3.565   7.724   2.607 -1.3837  0.6318 -1.9061
30495SOL     OW93097   4.428   1.508   7.518 -0.0227 -0.0352 -0.3617
30495SOL    HW193098   4.509   1.484   7.563  0.8988  1.4539 -1.1385
30495SOL    HW293099   4.411   1.598   7.545 -1.4510 -0.3362 -0.1929
30496SOL     OW93100   0.460   4.382   9.434  0.3473 -0.3893 -0.2133
30496SOL    HW193101   0.491   4.392   9.344 -0.5634 -0.0275 -0.4966
30496SOL    HW293102   0.539   4.391   9.488  1.4145 -3.2971 -1.0571
30497SOL     OW93103   8.567   6.650   4.195  0.4555  0.2136  0.2249
30497SOL    HW193104   8.546   6.727   4.248 -0.7103  1.5198 -1.9648
30497SOL    HW293105   8.483   6.606   4.182  0.8930 -0.6717  0.3097
30498SOL     OW93106   8.640   1.304   1.449  0.2691  0.0767  0.3053
30498SOL    HW193107   8.605   1.359   1.519  1.6291 -0.3242  1.3465
30498SOL    HW293108   8.632   1.357   1.370 -2.3857  0.1006  0.5168
30499SOL     OW93109   0.200   9.106   7.413 -0.5314  0.0364  0.2639
30499SOL    HW193110   0.185   9.077   7.323  2.5501 -1.6944  0.1802
30499SOL    HW293111   0.195   9.025   7.465 -1.0923  0.8371  1.4916
30500SOL     OW93112   0.002   1.582   5.727 -0.2096  0.0147 -0.4411
30500SOL    HW193113  -0.078   1.632   5.711 -1.1723 -2.0000 -2.4547
30500SOL    HW293114  -0.025   1.515   5.790  0.1937  0.0140 -0.2683
30501SOL     OW93115   4.263   0.963   0.086  0.6535 -0.2968 -0.1709
30501SOL    HW193116   4.309   0.879   0.089  1.0026 -0.0841  0.6053
30501SOL    HW293117   4.193   0.950   0.022  0.3006 -1.3825  0.4211
30502SOL     OW93118   2.724   1.542   0.396 -0.1606 -0.6679 -0.1031
30502SOL    HW193119   2.636   1.504   0.387  0.5432 -2.0712 -1.3692
30502SOL    HW293120   2.728   1.610   0.329  0.3316 -1.8460 -1.2943
30503SOL     OW93121   2.634   3.402   2.607  0.4177 -0.0280  0.6797
30503SOL    HW193122   2.584   3.328   2.641  0.6958 -1.0379 -0.9818
30503SOL    HW293123   2.714   3.363   2.572  0.7159  1.0950  0.0580
30504SOL     OW93124   8.471   5.146   1.783  0.6774  0.5729  0.1781
30504SOL    HW193125   8.446   5.053   1.791 -0.6823  0.9562  0.6549
30504SOL    HW293126   8.422   5.177   1.707  0.4593  1.0996  0.5294
30505SOL     OW93127   3.363   9.719   9.781  0.4130  0.1506  0.6425
30505SOL    HW193128   3.340   9.675   9.864 -1.1040 -0.9801 -0.3206
30505SOL    HW293129   3.418   9.655   9.735  0.2661  0.2866  0.2767
30506SOL     OW93130   5.599   4.861   1.664  0.2539 -0.5426 -0.4644
30506SOL    HW193131   5.602   4.766   1.650  2.3990 -0.5826 -0.0947
30506SOL    HW293132   5.535   4.893   1.600 -0.7121 -2.2507 -0.4061
30507SOL     OW93133   5.977   2.120   1.390  0.4555 -0.6264 -0.4111
30507SOL    HW193134   5.957   2.209   1.359  0.5112  0.5565  2.5873
30507SOL    HW293135   5.922   2.063   1.337 -0.7870  1.3392 -1.3546
30508SOL     OW93136   5.487   6.448   9.822  0.2248 -0.2645 -0.5772
30508SOL    HW193137   5.515   6.415   9.907 -0.7970 -0.7948 -0.4291
30508SOL    HW293138   5.523   6.385   9.759 -0.9918 -1.2456 -0.3512
30509SOL     OW93139   8.977   1.886   0.941 -0.2726  0.3207  0.4596
30509SOL    HW193140   8.970   1.960   0.881 -0.3103 -0.0290  0.0312
30509SOL    HW293141   8.913   1.822   0.909  0.0077 -0.0441  0.6204
30510SOL     OW93142   6.698   7.178   9.780 -0.2688 -0.3699 -0.0520
30510SOL    HW193143   6.670   7.263   9.815 -0.8338 -1.2338  1.7041
30510SOL    HW293144   6.791   7.173   9.801 -0.5470 -0.7698  1.1339
30511SOL     OW93145   3.906   8.452   7.251 -0.2446 -0.5151 -0.1355
30511SOL    HW193146   3.912   8.369   7.300  0.8766 -0.0763  0.5149
30511SOL    HW293147   3.986   8.499   7.274 -0.4654  0.4014 -1.1630
30512SOL     OW93148   5.045   8.896   8.238  0.0553  0.0649  0.0246
30512SOL    HW193149   5.121   8.840   8.222  0.8292  0.7883  1.0207
30512SOL    HW293150   4.970   8.841   8.215  0.8155 -1.1929  0.4210
30513SOL     OW93151   2.923   9.338   6.936  0.2755  0.2340  0.0914
30513SOL    HW193152   2.855   9.378   6.991  0.2318 -0.9862  0.9542
30513SOL    HW293153   2.878   9.313   6.856 -0.6873 -1.9170  1.2340
30514SOL     OW93154   9.292   0.307   0.601  0.2435 -0.0008 -0.0418
30514SOL    HW193155   9.380   0.329   0.571 -0.1280  0.1383 -1.0439
30514SOL    HW293156   9.300   0.300   0.696  1.6875 -1.5705 -0.2443
30515SOL     OW93157   6.736   6.605   7.646 -0.4327 -0.4251  0.8632
30515SOL    HW193158   6.774   6.528   7.604  0.5210  1.2307 -1.5072
30515SOL    HW293159   6.810   6.650   7.686 -0.6534  0.3012  0.4648
30516SOL     OW93160   9.712   2.168   7.748 -0.4696  0.8204  0.3657
30516SOL    HW193161   9.653   2.219   7.804 -0.8913  0.8677 -0.1149
30516SOL    HW293162   9.692   2.077   7.771 -1.1028  0.8209 -0.1617
30517SOL     OW93163   0.676   7.489   7.479  0.2265  0.7320 -0.1856
30517SOL    HW193164   0.608   7.432   7.444 -0.7872  1.2758  0.8238
30517SOL    HW293165   0.628   7.558   7.525  1.4617  0.9405  0.8416
30518SOL     OW93166   3.723   3.434   8.360 -0.9868  0.4597 -0.3298
30518SOL    HW193167   3.687   3.516   8.391 -0.3195  1.0948 -1.1753
30518SOL    HW293168   3.750   3.387   8.439  1.7083  2.4878  0.1133
30519SOL     OW93169   5.421   8.449   5.483 -0.5119 -0.5344  0.2056
30519SOL    HW193170   5.491   8.463   5.548 -0.7356 -1.7945  0.7514
30519SOL    HW293171   5.340   8.451   5.534 -0.8260  0.1705 -0.3103
30520SOL     OW93172   3.742   1.701   4.211  0.9197 -0.6149 -0.3707
30520SOL    HW193173   3.800   1.630   4.185  2.9886  1.3284 -1.3648
30520SOL    HW293174   3.766   1.774   4.154 -1.8978  0.5909 -0.1893
30521SOL     OW93175   3.427   2.436   2.171 -1.1392  0.2076 -0.2773
30521SOL    HW193176   3.425   2.424   2.266  0.4264  1.2120 -0.0793
30521SOL    HW293177   3.345   2.479   2.150 -0.9454  1.1525  0.8191
30522SOL     OW93178   3.312   5.246   6.655  0.2514  0.8211 -0.2951
30522SOL    HW193179   3.301   5.152   6.667  0.0124  0.8917  0.1040
30522SOL    HW293180   3.222   5.280   6.655  0.3676  1.1581  0.6017
30523SOL     OW93181   6.536   8.337   7.021  0.9751  0.2582 -0.4440
30523SOL    HW193182   6.509   8.248   6.997  0.2555 -0.3489  2.2176
30523SOL    HW293183   6.471   8.365   7.085  2.2484  1.9717  0.1741
30524SOL     OW93184   9.818   8.969   7.031  0.1952  0.1365 -0.2337
30524SOL    HW193185   9.827   8.874   7.028  0.3580  0.1565 -0.4276
30524SOL    HW293186   9.886   9.001   6.971  0.0441  0.3689 -0.2807
30525SOL     OW93187   2.314   0.332   2.620 -0.0871 -0.3895 -0.0977
30525SOL    HW193188   2.392   0.379   2.651  0.5199 -0.7695 -1.0186
30525SOL    HW293189   2.247   0.352   2.685  0.0357  2.0516 -0.6057
30526SOL     OW93190   0.416   8.032   6.196 -0.5940 -0.3744  0.0749
30526SOL    HW193191   0.432   8.125   6.212  0.5940  0.6534 -5.3075
30526SOL    HW293192   0.321   8.026   6.183 -0.8347 -0.2362  1.6115
30527SOL     OW93193   0.288   8.471   0.504  0.2116  0.8216 -0.3367
30527SOL    HW193194   0.235   8.463   0.584  0.4964 -2.4244 -0.3350
30527SOL    HW293195   0.226   8.452   0.433  0.8097 -0.4643 -0.5298
30528SOL     OW93196   6.070   4.205   3.921  0.8664 -0.5126  0.3692
30528SOL    HW193197   6.157   4.245   3.922 -0.2440  2.3298  3.5399
30528SOL    HW293198   6.016   4.264   3.869 -0.2820  1.1807  3.2019
30529SOL     OW93199   0.796   2.738   6.563  0.4196  0.4277  0.1481
30529SOL    HW193200   0.722   2.782   6.521  1.2909  2.1265  0.2775
30529SOL    HW293201   0.806   2.656   6.516 -0.0997  1.2311 -1.4276
30530SOL     OW93202   2.590   1.756   6.072  0.2699  0.0840 -0.0106
30530SOL    HW193203   2.556   1.760   6.161  0.3966  0.6793  0.0158
30530SOL    HW293204   2.641   1.836   6.062  0.6434 -0.2049 -0.4627
30531SOL     OW93205   8.350   4.827   6.524 -0.2386 -0.7339  0.1783
30531SOL    HW193206   8.400   4.745   6.523  0.5961 -0.2680 -1.8669
30531SOL    HW293207   8.363   4.862   6.612  0.6817 -2.0222  0.5936
30532SOL     OW93208   8.600   5.990   7.125 -0.0957 -0.1984 -0.0570
30532SOL    HW193209   8.558   5.916   7.171 -0.6168 -0.0258 -0.2485
30532SOL    HW293210   8.550   6.066   7.153  1.5422  0.3500  1.5365
30533SOL     OW93211   5.080   0.692   8.314 -0.1215  0.8067  0.0404
30533SOL    HW193212   5.042   0.740   8.388  0.1709  0.9260  0.1168
30533SOL    HW293213   5.165   0.662   8.346 -0.5077 -0.1999  0.1616
30534SOL     OW93214   8.104   3.454   0.141  0.1052  0.1161  0.4433
30534SOL    HW193215   8.033   3.484   0.198 -0.9525 -2.1528  0.4251
30534SOL    HW293216   8.106   3.518   0.070 -0.5230  1.3647  1.5131
30535SOL     OW93217   2.329   7.000   4.760  0.1248  0.2640 -0.4021
30535SOL    HW193218   2.422   6.984   4.774  0.2363 -1.1184 -2.2645
30535SOL    HW293219   2.309   7.077   4.813  2.0724 -0.0278  0.8514
30536SOL     OW93220   5.662   3.710   3.799 -0.0593 -0.3394  0.1981
30536SOL    HW193221   5.588   3.664   3.841 -0.7731  0.0706 -0.5793
30536SOL    HW293222   5.663   3.796   3.840  0.7305 -0.7332  1.0328
30537SOL     OW93223   9.418   1.577   1.273 -0.4582 -0.1742 -0.5289
30537SOL    HW193224   9.511   1.560   1.291 -0.3425 -0.8942 -1.6721
30537SOL    HW293225   9.394   1.510   1.208 -1.6256  0.3656 -0.6779
30538SOL     OW93226   4.690   7.928   3.133  0.0225 -0.2909 -0.6253
30538SOL    HW193227   4.618   7.915   3.071 -0.2197 -0.3042 -0.3426
30538SOL    HW293228   4.755   7.862   3.109 -0.2249 -0.5330 -0.6396
30539SOL     OW93229   0.682   5.685   7.256 -0.3077 -0.6782  0.0879
30539SOL    HW193230   0.672   5.756   7.318  1.1187 -0.5678  0.2313
30539SOL    HW293231   0.734   5.619   7.303  3.6980  0.7424 -1.8686
30540SOL     OW93232   3.660   2.512   4.547 -0.3757 -0.4347  0.7146
30540SOL    HW193233   3.753   2.534   4.536 -0.6194  0.3895  0.1939
30540SOL    HW293234   3.618   2.595   4.568 -1.0861 -0.6898  0.3522
30541SOL     OW93235   7.628   8.902   8.906 -0.6376 -0.1241 -0.7468
30541SOL    HW193236   7.717   8.927   8.931 -1.1872  1.5171 -0.3248
30541SOL    HW293237   7.640   8.837   8.836  0.9027  1.1409 -1.7271
30542SOL     OW93238   6.959   0.005   4.222 -0.0749 -0.0128  0.8244
30542SOL    HW193239   6.893  -0.050   4.264  1.7903 -1.9064  1.4343
30542SOL    HW293240   6.940  -0.004   4.128 -1.7921  1.0117  1.0276
30543SOL     OW93241   7.815   7.642   7.530 -0.0172  0.2622  0.3817
30543SOL    HW193242   7.771   7.638   7.615 -1.5315  2.0423 -0.2468
30543SOL    HW293243   7.749   7.679   7.471  1.2739 -0.1538 -1.3887
30544SOL     OW93244   2.776   8.354   1.593  0.4832  0.1965 -0.0538
30544SOL    HW193245   2.771   8.293   1.520 -0.4602  0.2173 -0.0203
30544SOL    HW293246   2.688   8.353   1.631  0.8482  0.5067  0.8166
30545SOL     OW93247   7.144   5.790   9.664 -0.1495 -0.1735  0.0202
30545SOL    HW193248   7.063   5.823   9.624 -0.4144 -1.9839 -1.0150
30545SOL    HW293249   7.130   5.803   9.758 -0.3831  2.2292 -0.2817
30546SOL     OW93250   3.933   1.284   5.833 -0.4685  0.2826  0.1710
30546SOL    HW193251   4.008   1.228   5.851 -0.3349  0.4182  0.0317
30546SOL    HW293252   3.901   1.255   5.748 -0.3417  0.4821  0.0554
30547SOL     OW93253   0.613   1.320   3.269  0.1246 -0.1049 -0.6491
30547SOL    HW193254   0.535   1.364   3.237 -1.3155 -4.0704 -3.3765
30547SOL    HW293255   0.585   1.276   3.349  0.7264  1.3380  0.4086
30548SOL     OW93256   0.531   5.295   6.660  0.0217 -0.1389 -0.0275
30548SOL    HW193257   0.607   5.347   6.686 -0.6991  0.6969  0.4677
30548SOL    HW293258   0.556   5.258   6.575  1.3129 -0.5950  0.5272
30549SOL     OW93259   9.211   2.448   6.693 -0.3250 -0.1466 -0.4064
30549SOL    HW193260   9.188   2.457   6.786 -0.6938 -0.2556 -0.4844
30549SOL    HW293261   9.166   2.521   6.651  0.7255  0.5507 -0.3535
30550SOL     OW93262   6.131   1.372   7.349 -0.3897 -0.3933  0.8248
30550SOL    HW193263   6.141   1.367   7.444 -0.3298 -0.5738  0.8074
30550SOL    HW293264   6.169   1.291   7.316 -0.5564 -0.4033  0.6573
30551SOL     OW93265   6.640   5.163   1.196 -0.2450 -0.1917 -0.0688
30551SOL    HW193266   6.728   5.182   1.230 -0.0755 -1.9694  0.5707
30551SOL    HW293267   6.650   5.082   1.147 -1.4970 -0.3245 -0.1235
30552SOL     OW93268   1.754   8.939   0.190 -0.0420 -0.1154  0.0629
30552SOL    HW193269   1.733   9.008   0.126 -1.6817 -0.0225  0.6719
30552SOL    HW293270   1.779   8.987   0.269  0.3876 -0.2319  0.0002
30553SOL     OW93271   3.384   0.572   6.125  0.2666  0.5817 -0.3200
30553SOL    HW193272   3.298   0.529   6.121  1.0391 -1.4116  1.8859
30553SOL    HW293273   3.440   0.519   6.068  0.7971 -0.3463  1.0017
30554SOL     OW93274   4.530   6.648   1.229  0.1105  0.0654  0.0530
30554SOL    HW193275   4.568   6.672   1.314  2.1348 -0.3616 -0.6729
30554SOL    HW293276   4.598   6.671   1.165 -1.6780  1.1281 -1.5612
30555SOL     OW93277   6.136   4.996   5.872  0.1562  0.4499 -0.1278
30555SOL    HW193278   6.161   4.915   5.829 -0.3240  0.2270  0.0084
30555SOL    HW293279   6.105   4.969   5.958  1.1268  0.8940  0.3756
30556SOL     OW93280   8.068   4.454   4.309 -0.1778  0.1834  0.5238
30556SOL    HW193281   8.073   4.472   4.403  3.2171 -0.9727  0.6862
30556SOL    HW293282   8.152   4.485   4.275 -0.7873 -0.6678 -1.8975
30557SOL     OW93283   8.707   2.414   0.735 -0.0302  0.1083 -0.2239
30557SOL    HW193284   8.692   2.325   0.766 -1.5127  0.6832  0.8337
30557SOL    HW293285   8.718   2.405   0.640 -0.6156 -1.1538 -0.1873
30558SOL     OW93286   1.443   5.124   8.161 -0.2696 -0.2721  0.4819
30558SOL    HW193287   1.406   5.186   8.098  0.1250  1.2525  1.6688
30558SOL    HW293288   1.438   5.039   8.118  0.6468  0.7920 -1.8728
30559SOL     OW93289   6.443   8.112   0.499 -0.4508  0.2452  0.4772
30559SOL    HW193290   6.499   8.059   0.555 -0.4275 -1.1878 -0.8035
30559SOL    HW293291   6.501   8.142   0.429 -0.7760  0.7557  0.4263
30560SOL     OW93292   5.377   0.707   7.476 -0.0607  0.4013 -0.7957
30560SOL    HW193293   5.457   0.655   7.487 -0.7674 -0.8635 -1.3942
30560SOL    HW293294   5.306   0.647   7.498 -0.8453  1.6962  0.3817
30561SOL     OW93295   0.212   9.758   6.507 -0.7737  0.1025 -0.2900
30561SOL    HW193296   0.176   9.847   6.510 -0.5915  0.1492  1.4616
30561SOL    HW293297   0.301   9.770   6.472 -1.7593  0.1954 -2.9548
30562SOL     OW93298   1.282   4.841   7.578 -0.0595  0.1373  0.7593
30562SOL    HW193299   1.368   4.847   7.620 -0.8207  1.6530  2.1842
30562SOL    HW293300   1.258   4.931   7.558  0.1170 -0.4563 -2.8286
30563SOL     OW93301   2.936   9.294   5.965 -0.1483  0.1356  0.3068
30563SOL    HW193302   2.943   9.199   5.974  0.0232  0.0942 -0.2766
30563SOL    HW293303   3.022   9.327   5.992  0.2787  0.0260 -0.8871
30564SOL     OW93304   7.496   0.217   4.852 -0.6447 -0.1897 -0.2901
30564SOL    HW193305   7.503   0.277   4.777 -0.0415 -1.9637 -1.7094
30564SOL    HW293306   7.403   0.214   4.871 -1.0136 -0.9437 -2.0512
30565SOL     OW93307   3.553   7.319   8.099 -0.2182 -0.1924 -0.7414
30565SOL    HW193308   3.574   7.232   8.133  1.1630 -0.3422 -1.8699
30565SOL    HW293309   3.541   7.373   8.176  0.2463 -1.0972 -0.0155
30566SOL     OW93310   2.971   2.480   5.897 -0.1981 -0.0466  0.0426
30566SOL    HW193311   2.991   2.478   5.991 -0.0034 -2.3453 -0.0004
30566SOL    HW293312   2.949   2.389   5.875 -0.3599  0.4662 -2.1259
30567SOL     OW93313   1.187   4.513   6.896  0.2165  0.1539  0.0670
30567SOL    HW193314   1.106   4.462   6.895  0.4774 -0.2593  0.0066
30567SOL    HW293315   1.209   4.521   6.989 -1.8995  3.4838  0.4519
30568SOL     OW93316   1.170   7.250   5.578 -0.3969 -0.3411 -0.3780
30568SOL    HW193317   1.122   7.295   5.508 -0.2091  1.4883  0.6032
30568SOL    HW293318   1.104   7.231   5.645  0.1182  2.2257  0.9977
30569SOL     OW93319   0.000   4.102   3.355 -0.2333 -0.4332 -0.0729
30569SOL    HW193320  -0.049   4.140   3.428  0.1834  0.1312 -0.0816
30569SOL    HW293321  -0.000   4.170   3.287  0.1704 -0.5979 -0.2459
30570SOL     OW93322   2.272   3.992   6.616 -0.2668  0.4967 -0.0313
30570SOL    HW193323   2.245   3.953   6.533  0.3364 -0.6970  0.3122
30570SOL    HW293324   2.364   3.969   6.625 -0.7087 -0.7997  1.7232
30571SOL     OW93325   7.112   1.369   0.417  0.7098  0.1101  0.1517
30571SOL    HW193326   7.086   1.325   0.336 -0.3036  0.7559  0.1129
30571SOL    HW293327   7.208   1.374   0.412  0.5608  2.2488 -2.1246
30572SOL     OW93328   2.456   0.480   6.043  0.0593  0.0274  0.2247
30572SOL    HW193329   2.475   0.560   6.092 -0.0220 -0.3460  0.8769
30572SOL    HW293330   2.469   0.409   6.106  0.0369 -0.4706 -0.3176
30573SOL     OW93331   6.266   0.351   3.747  0.0276 -0.1033 -0.0483
30573SOL    HW193332   6.355   0.321   3.729 -0.5553 -1.4800 -0.8438
30573SOL    HW293333   6.275   0.443   3.770  1.3705  0.6424 -3.1076
30574SOL     OW93334   1.542   4.772   7.683  0.2285 -0.1630  0.1203
30574SOL    HW193335   1.567   4.864   7.695 -0.2472 -0.3063  3.0523
30574SOL    HW293336   1.624   4.729   7.659  0.4111  1.0197 -1.5472
30575SOL     OW93337   1.643   6.841   1.027 -0.0053 -0.8131  0.3065
30575SOL    HW193338   1.596   6.849   1.110 -2.0722 -1.3482 -0.7506
30575SOL    HW293339   1.696   6.762   1.038  0.6245 -0.2630  1.4855
30576SOL     OW93340   0.323   0.001   0.938 -0.0462 -0.5348  0.0286
30576SOL    HW193341   0.237   0.023   0.975 -0.4866 -5.3823  2.6907
30576SOL    HW293342   0.303  -0.059   0.867  1.1253 -1.1002  0.1677
30577SOL     OW93343   7.214   4.634   8.389 -0.2359  0.2376 -0.2046
30577SOL    HW193344   7.174   4.616   8.475  0.1540 -0.2608 -0.1219
30577SOL    HW293345   7.244   4.725   8.395  1.1460 -0.2529  0.7419
30578SOL     OW93346   2.240   9.520   6.482 -0.5916 -0.1373  0.5048
30578SOL    HW193347   2.190   9.523   6.564  0.6115 -1.5650  1.3265
30578SOL    HW293348   2.173   9.504   6.414 -1.6288  1.3089  1.1355
30579SOL     OW93349   8.541   8.301   1.106  0.0789  0.2807 -0.2616
30579SOL    HW193350   8.495   8.378   1.137 -1.8098 -0.8821 -0.0537
30579SOL    HW293351   8.493   8.227   1.143  0.6113 -1.0470 -2.0647
30580SOL     OW93352   6.982   1.173   0.569 -0.0642 -0.5735 -0.4120
30580SOL    HW193353   7.023   1.246   0.522 -0.3778 -0.5920 -0.7224
30580SOL    HW293354   6.903   1.211   0.606 -0.4444 -0.8520 -0.9261
30581SOL     OW93355   3.722   3.061   0.493  0.4689  0.1058  0.0787
30581SOL    HW193356   3.736   3.004   0.417  2.1871 -1.4570  1.4751
30581SOL    HW293357   3.804   3.111   0.500  0.0280  0.7887  0.4843
30582SOL     OW93358   1.289   0.643   7.842  0.3419 -0.1162 -0.0432
30582SOL    HW193359   1.242   0.624   7.762  1.6246 -0.6625 -0.6991
30582SOL    HW293360   1.283   0.562   7.893  0.8563 -0.3146 -0.2880
30583SOL     OW93361   5.022   4.827   6.616  0.5891 -0.8636 -0.0635
30583SOL    HW193362   5.012   4.902   6.557  0.5125  0.8824  2.0379
30583SOL    HW293363   5.008   4.864   6.703 -1.4113 -3.7304  0.9530
30584SOL     OW93364   1.523   3.348   8.581  0.2800 -0.2115 -0.4561
30584SOL    HW193365   1.599   3.357   8.639 -0.2924 -1.4549  0.5375
30584SOL    HW293366   1.484   3.264   8.606 -1.1347  0.1740 -1.2871
30585SOL     OW93367   6.027   7.364   8.637 -0.2005 -0.1701 -0.2662
30585SOL    HW193368   6.067   7.421   8.571  0.1639 -0.4297 -0.2769
30585SOL    HW293369   6.086   7.371   8.713  0.5428 -1.4839 -0.6960
30586SOL     OW93370   3.571   3.821   7.560 -0.1431 -0.2805  0.0001
30586SOL    HW193371   3.645   3.836   7.620  0.5398 -1.4114 -0.5438
30586SOL    HW293372   3.574   3.896   7.501  0.6217 -0.3429 -0.0580
30587SOL     OW93373   4.652   8.541   8.747  0.0430 -0.0635  0.4153
30587SOL    HW193374   4.601   8.461   8.741 -1.5972  0.8422  1.4627
30587SOL    HW293375   4.646   8.580   8.660 -0.7227 -0.1740  0.4132
30588SOL     OW93376   0.163   4.478   6.402  0.8168 -0.3258 -0.3248
30588SOL    HW193377   0.141   4.539   6.473 -1.1055  0.2364 -1.3432
30588SOL    HW293378   0.230   4.421   6.440 -1.1863 -1.0420  2.5077
30589SOL     OW93379   4.003   7.552   2.667 -0.0531 -0.6089 -0.1084
30589SOL    HW193380   3.975   7.520   2.752  1.0160 -1.1801  0.0389
30589SOL    HW293381   4.067   7.488   2.636 -0.3842 -0.3859 -1.3181
30590SOL     OW93382   9.842   6.332   6.095 -0.2338 -0.2017 -0.2923
30590SOL    HW193383   9.931   6.346   6.127  0.2910 -3.8107  0.2630
30590SOL    HW293384   9.846   6.355   6.002  1.5173 -0.9793 -0.4505
30591SOL     OW93385   3.388   1.203   5.515 -0.2118  0.7015 -0.3517
30591SOL    HW193386   3.363   1.114   5.538  2.1274 -0.2415 -1.2116
30591SOL    HW293387   3.363   1.212   5.423  0.4802  0.5652 -0.5552
30592SOL     OW93388   6.970   0.609   0.789  0.4166  0.1203 -0.0904
30592SOL    HW193389   6.973   0.587   0.696 -0.1007  1.6019 -0.4910
30592SOL    HW293390   6.880   0.591   0.815  1.1315 -2.6859  0.8174
30593SOL     OW93391   7.661   7.375   8.655 -1.3167  0.4913 -0.4863
30593SOL    HW193392   7.676   7.435   8.727 -1.8096  0.7255 -0.5769
30593SOL    HW293393   7.685   7.289   8.689  0.8345  0.9020 -0.8069
30594SOL     OW93394   2.460   4.677   4.801  0.0119  0.6784 -0.1320
30594SOL    HW193395   2.415   4.738   4.743 -2.0831 -0.2394  0.4397
30594SOL    HW293396   2.439   4.707   4.889 -0.1130 -0.1975  0.1535
30595SOL     OW93397   7.317   0.816   0.030 -0.3120  0.3382  0.3335
30595SOL    HW193398   7.322   0.868  -0.050 -0.9996 -0.0922  0.0064
30595SOL    HW293399   7.330   0.726   0.001 -0.7211  0.1638  0.6827
30596SOL     OW93400   1.854   6.946   8.199  0.5151 -0.4655  0.0179
30596SOL    HW193401   1.916   7.008   8.237 -1.5723  0.2547  2.5406
30596SOL    HW293402   1.768   6.981   8.222 -0.7825 -3.4716  0.1580
30597SOL     OW93403   7.744   1.885   6.930  0.0079 -0.8167 -0.2369
30597SOL    HW193404   7.772   1.963   6.978 -2.0006 -0.8312  1.0476
30597SOL    HW293405   7.825   1.836   6.915  1.2864  1.2865 -0.7469
30598SOL     OW93406   8.941   1.188   4.077  0.4630 -0.0481  0.2249
30598SOL    HW193407   8.863   1.133   4.086  0.8499 -0.8057 -0.8555
30598SOL    HW293408   8.984   1.156   3.998  0.4727  2.1076 -0.7091
30599SOL     OW93409   6.047   1.704   2.420 -0.1907 -0.6696 -0.4193
30599SOL    HW193410   6.073   1.612   2.414  1.4224 -0.3050  0.3642
30599SOL    HW293411   5.954   1.702   2.443  0.3870 -2.1805  2.1893
30600SOL     OW93412   0.228   9.251   8.973  0.0290  0.8696  0.2622
30600SOL    HW193413   0.184   9.322   8.925  1.0044  0.7096 -0.9031
30600SOL    HW293414   0.282   9.207   8.907 -2.2727 -2.4825  0.3656
30601SOL     OW93415   9.639   8.315   1.743 -0.1430 -0.3607  0.6879
30601SOL    HW193416   9.664   8.300   1.652  0.5375  3.6804 -0.0095
30601SOL    HW293417   9.719   8.301   1.793  0.3044  0.3304  0.1887
30602SOL     OW93418   7.915   8.288   7.346  0.3639 -0.5430 -0.0808
30602SOL    HW193419   7.868   8.238   7.413 -1.6740 -1.2602 -1.9294
30602SOL    HW293420   7.963   8.354   7.396 -1.7549 -0.4482  2.0545
30603SOL     OW93421   6.804   1.633   2.245 -0.0757  0.5011  0.3643
30603SOL    HW193422   6.810   1.687   2.165 -0.4310  0.3183  0.2118
30603SOL    HW293423   6.850   1.684   2.312 -1.1062  1.3852  0.4218
30604SOL     OW93424   1.678   4.823   3.820  0.4530 -0.2316 -0.4877
30604SOL    HW193425   1.750   4.787   3.872 -0.8225 -1.4775  0.4871
30604SOL    HW293426   1.721   4.858   3.742  2.1423 -0.6743  0.1792
30605SOL     OW93427   6.232   5.413   8.226  0.0708  0.4058  0.2967
30605SOL    HW193428   6.152   5.402   8.277  0.5097 -1.8045  0.6421
30605SOL    HW293429   6.250   5.507   8.227 -2.6803  1.0141 -0.0694
30606SOL     OW93430   0.909   2.594   2.206  0.0454 -0.1997 -0.6076
30606SOL    HW193431   0.845   2.525   2.191  1.4697 -1.6718 -0.2663
30606SOL    HW293432   0.926   2.591   2.300  0.3970  0.3605 -0.6458
30607SOL     OW93433   6.986   9.020   4.937 -0.6320 -0.4944 -0.1843
30607SOL    HW193434   7.051   8.963   4.979  0.7180  0.4919 -0.8550
30607SOL    HW293435   6.981   8.987   4.847  0.8649  0.9574 -0.8494
30608SOL     OW93436   1.102   4.851   0.208  0.0986  0.7335  0.0119
30608SOL    HW193437   1.168   4.787   0.236  0.4688  1.3799  0.6391
30608SOL    HW293438   1.036   4.799   0.161  1.2185  0.1262 -0.9347
30609SOL     OW93439   0.884   5.048   2.078  0.3964 -0.1482  0.3960
30609SOL    HW193440   0.835   5.075   2.156 -1.2909  0.2318 -0.7342
30609SOL    HW293441   0.935   4.972   2.107  0.1191  0.2113  1.9528
30610SOL     OW93442   8.322   4.480   4.207 -0.4136 -0.1774 -0.4598
30610SOL    HW193443   8.342   4.493   4.114 -2.1045  1.3176 -0.6587
30610SOL    HW293444   8.368   4.551   4.251 -1.0667  0.1976 -0.3687
30611SOL     OW93445   1.755   8.005   5.656 -0.3402  0.0986  0.2773
30611SOL    HW193446   1.766   8.060   5.734 -0.5826 -0.6208  0.8336
30611SOL    HW293447   1.660   8.002   5.642 -0.2399  1.2686 -0.8250
30612SOL     OW93448   8.241   7.616   1.742  0.2691  0.1142 -0.8602
30612SOL    HW193449   8.263   7.522   1.743 -0.7782 -0.1889  1.5888
30612SOL    HW293450   8.154   7.620   1.704 -1.4383 -0.5211  2.5617
30613SOL     OW93451   5.417   5.793   2.767  0.4853  0.4205  0.8777
30613SOL    HW193452   5.359   5.746   2.827 -1.4555  0.2794 -0.9866
30613SOL    HW293453   5.431   5.878   2.807 -2.0168  0.8888  0.8656
30614SOL     OW93454   0.843   6.617   1.926 -0.3607  0.0770 -0.0374
30614SOL    HW193455   0.870   6.587   1.839  0.9903 -2.8326  1.2703
30614SOL    HW293456   0.918   6.666   1.959 -0.6895  0.7681 -0.2963
30615SOL     OW93457   4.258   6.393   4.556 -0.1037  0.4108 -0.5389
30615SOL    HW193458   4.272   6.389   4.462 -1.0015 -0.8618 -0.6369
30615SOL    HW293459   4.294   6.478   4.582  0.0775  0.8108 -2.0260
30616SOL     OW93460   7.578   1.472   2.494 -0.0140 -0.4948 -0.1736
30616SOL    HW193461   7.541   1.462   2.581 -0.0989  0.2643 -0.1165
30616SOL    HW293462   7.505   1.459   2.434  0.0690 -1.1444 -0.1476
30617SOL     OW93463   9.565   4.472   8.754 -0.5036  0.1569 -0.0279
30617SOL    HW193464   9.593   4.385   8.726 -1.7311 -0.5448  0.8005
30617SOL    HW293465   9.634   4.503   8.813  0.6879  0.4290 -1.5030
30618SOL     OW93466   0.731   6.084   3.881 -0.1095 -0.2675  0.0452
30618SOL    HW193467   0.774   6.134   3.950 -0.6343 -1.8388  1.6076
30618SOL    HW293468   0.712   6.148   3.813 -0.0374  1.4812  1.5875
30619SOL     OW93469   0.714   5.054   3.847 -0.0024  0.2335 -0.3487
30619SOL    HW193470   0.671   5.007   3.918  1.8969 -1.5144 -0.2708
30619SOL    HW293471   0.654   5.045   3.773 -1.5500  1.2431  0.7016
30620SOL     OW93472   5.698   4.035   8.579 -0.0228  0.4468  0.1512
30620SOL    HW193473   5.649   3.999   8.653  0.3489  0.8880  0.6222
30620SOL    HW293474   5.657   3.997   8.501  0.3153 -0.9414  0.6206
30621SOL     OW93475   8.959   7.050   6.481 -0.4116 -0.0674  0.0182
30621SOL    HW193476   8.897   7.121   6.466 -0.8734 -0.3559  0.5455
30621SOL    HW293477   9.045   7.090   6.468 -0.6446  0.7444  0.8858
30622SOL     OW93478   4.899   7.504   6.481  0.1580 -0.3747  0.6283
30622SOL    HW193479   4.905   7.421   6.528 -0.6481 -0.7443  0.1006
30622SOL    HW293480   4.824   7.494   6.423  0.0545  0.7234  0.5445
30623SOL     OW93481   4.181   9.348   3.436 -0.2851 -0.0790  0.1825
30623SOL    HW193482   4.269   9.309   3.440 -0.7429 -1.1081  0.5663
30623SOL    HW293483   4.192   9.435   3.474  0.3685 -0.6100  1.2913
30624SOL     OW93484   3.929   2.917   3.863 -0.6725  0.5333 -0.3351
30624SOL    HW193485   3.886   2.845   3.817 -0.5469 -0.5138  1.0949
30624SOL    HW293486   3.989   2.955   3.799 -0.8830 -0.5194 -1.1789
30625SOL     OW93487   9.800   9.467   2.673  0.1526 -0.0445 -0.0831
30625SOL    HW193488   9.829   9.547   2.716  0.2011 -0.5619  0.9048
30625SOL    HW293489   9.788   9.405   2.746 -0.8574 -0.6256 -0.7229
30626SOL     OW93490   2.013   5.866   7.152  0.1846  0.2995 -0.1706
30626SOL    HW193491   2.090   5.844   7.099 -0.2967 -1.7393 -0.1008
30626SOL    HW293492   2.038   5.844   7.242 -0.3144  0.0885 -0.0801
30627SOL     OW93493   5.629   8.689   2.398  0.3169  0.5356  0.2025
30627SOL    HW193494   5.681   8.708   2.319  1.8106  0.9875  1.2540
30627SOL    HW293495   5.687   8.636   2.453 -1.4349 -1.5328  0.1728
30628SOL     OW93496   2.849   9.678   9.087  0.4165  0.2781  0.1271
30628SOL    HW193497   2.887   9.592   9.108  0.5333  0.6041  1.3277
30628SOL    HW293498   2.763   9.657   9.050  1.3075 -0.4274 -1.6403
30629SOL     OW93499   0.002   1.877   0.883 -0.1115  0.1525 -0.1645
30629SOL    HW193500  -0.022   1.961   0.843 -0.3518  0.5151  0.7169
30629SOL    HW293501   0.093   1.863   0.857 -0.0961  0.6426 -0.3941
30630SOL     OW93502   2.200   6.664   3.407 -0.3205  0.3089  0.4655
30630SOL    HW193503   2.124   6.719   3.385 -0.6899 -0.0141  0.9118
30630SOL    HW293504   2.162   6.580   3.433  0.2483 -0.2283 -0.4019
30631SOL     OW93505   4.525   6.216   4.074 -0.1722  0.6751 -0.1155
30631SOL    HW193506   4.449   6.213   4.016  0.1077  1.4623 -0.5410
30631SOL    HW293507   4.583   6.280   4.033  0.6985  0.1214  0.2318
30632SOL     OW93508   2.428   0.739   8.310  0.0879  0.0535 -0.8406
30632SOL    HW193509   2.437   0.761   8.403  0.0810  1.2986 -1.1216
30632SOL    HW293510   2.496   0.674   8.294  0.0297 -0.2476  0.0482
30633SOL     OW93511   0.636   2.218   4.903 -0.8811 -0.3033 -1.1416
30633SOL    HW193512   0.668   2.156   4.969 -0.4665 -0.5828 -1.5962
30633SOL    HW293513   0.591   2.286   4.954  2.5680  1.4893 -0.1551
30634SOL     OW93514   3.673   6.441   3.462 -0.1684  0.1509  0.2348
30634SOL    HW193515   3.739   6.372   3.457  0.2644  0.3917  1.9422
30634SOL    HW293516   3.721   6.522   3.445 -0.5643  0.1230 -1.1700
30635SOL     OW93517   6.837   7.824   7.767  0.2307 -0.1951  1.0754
30635SOL    HW193518   6.903   7.767   7.806  0.1040 -1.0303  0.0942
30635SOL    HW293519   6.766   7.765   7.742  1.0226  0.0038 -2.0160
30636SOL     OW93520   3.544   1.069   6.905  0.0090  0.2030  0.0863
30636SOL    HW193521   3.557   1.164   6.897  0.1855  0.0231 -2.4882
30636SOL    HW293522   3.616   1.040   6.962 -0.9996  1.7629  2.2886
30637SOL     OW93523   7.445   9.443   2.748 -0.1940 -0.3611  0.1472
30637SOL    HW193524   7.525   9.497   2.742 -1.0239  0.9502  0.5068
30637SOL    HW293525   7.399   9.460   2.666 -0.6242 -0.2688  0.4088
30638SOL     OW93526   1.625   2.776   3.643  0.1828 -0.1839  0.1135
30638SOL    HW193527   1.660   2.765   3.731 -1.2910 -0.0462  0.7447
30638SOL    HW293528   1.629   2.688   3.604  1.1959 -0.1659  0.1677
30639SOL     OW93529   5.502   0.688   3.275  0.4042 -0.2998  0.3719
30639SOL    HW193530   5.514   0.778   3.306 -0.9951  0.0158  0.0610
30639SOL    HW293531   5.561   0.636   3.329  1.5863  0.8587  0.2424
30640SOL     OW93532   0.700   5.498   2.990  0.4081 -0.4802 -0.0291
30640SOL    HW193533   0.667   5.423   2.941  1.8941 -0.7274 -0.7071
30640SOL    HW293534   0.784   5.518   2.949 -0.5559  2.4710 -0.8373
30641SOL     OW93535   0.015   5.790   2.074  0.4744  0.0089 -0.1109
30641SOL    HW193536  -0.065   5.778   2.023 -0.7137 -0.2233  1.6978
30641SOL    HW293537   0.028   5.885   2.077 -0.3003  0.1082  0.3801
30642SOL     OW93538   3.716   3.204   4.163  0.4217  0.1825  0.7563
30642SOL    HW193539   3.746   3.225   4.251 -0.8927  0.6681  1.1063
30642SOL    HW293540   3.759   3.121   4.143  0.8971  0.1651  1.7734
30643SOL     OW93541   7.567   2.788   0.275 -0.4049 -0.2845 -0.4659
30643SOL    HW193542   7.526   2.752   0.354  0.2178 -1.0736 -0.4849
30643SOL    HW293543   7.650   2.824   0.306 -0.7476  0.6024 -0.5536
30644SOL     OW93544   1.836   7.604   1.062 -0.5856  0.1657 -0.1731
30644SOL    HW193545   1.775   7.678   1.058  0.4907  1.0590 -0.5504
30644SOL    HW293546   1.846   7.587   1.156 -0.9769  0.3869 -0.0879
30645SOL     OW93547   9.396   7.927   1.223  0.2747  0.3276  0.4650
30645SOL    HW193548   9.478   7.976   1.214  0.2842  1.0929  3.5807
30645SOL    HW293549   9.346   7.976   1.288 -2.5311 -0.3512 -1.0519
30646SOL     OW93550   4.211   2.938   4.015  0.3061  0.5049 -0.3135
30646SOL    HW193551   4.248   3.022   3.986  0.0294  0.7742  0.1035
30646SOL    HW293552   4.118   2.944   3.992  0.1123  0.6615  0.4751
30647SOL     OW93553   1.107   2.969   7.413  0.0632  0.1904 -0.4211
30647SOL    HW193554   1.186   2.959   7.467 -0.4039 -0.6695  0.1466
30647SOL    HW293555   1.139   2.967   7.323  0.7667  0.6853 -0.1938
30648SOL     OW93556   0.409   3.771   6.806  0.1121  0.1942  0.2429
30648SOL    HW193557   0.448   3.685   6.794  2.0300  1.1212 -0.5098
30648SOL    HW293558   0.439   3.822   6.731  0.4307  2.0194  1.5497
30649SOL     OW93559   1.700   7.602   4.683 -0.1332 -0.4068  0.4028
30649SOL    HW193560   1.672   7.531   4.625 -0.2513  1.4112 -1.9191
30649SOL    HW293561   1.795   7.595   4.686  0.0145  0.3048 -1.2717
30650SOL     OW93562   2.728   9.090   6.248 -0.2621  0.3663  0.2627
30650SOL    HW193563   2.759   9.015   6.298  0.0038  0.2720 -0.0386
30650SOL    HW293564   2.694   9.052   6.167 -0.0923  0.5747  0.0941
30651SOL     OW93565   7.699   7.808   0.916  0.0762 -0.3666  0.3450
30651SOL    HW193566   7.790   7.817   0.943  0.8409  2.0515 -2.4731
30651SOL    HW293567   7.702   7.804   0.821 -2.7707 -0.4188  0.1501
30652SOL     OW93568   6.661   0.669   5.610 -0.4226 -0.1830 -0.2581
30652SOL    HW193569   6.603   0.669   5.534  0.1651  0.8229 -0.7194
30652SOL    HW293570   6.636   0.748   5.659  1.1015  0.7384 -0.9099
30653SOL     OW93571   2.689   1.717   0.196 -0.2827 -0.1467 -0.7272
30653SOL    HW193572   2.776   1.736   0.162 -0.5232  0.4258 -1.0365
30653SOL    HW293573   2.629   1.767   0.140 -0.6323  1.5629  1.0762
30654SOL     OW93574   8.731   7.742   4.931 -0.8838 -0.1570 -0.4041
30654SOL    HW193575   8.784   7.799   4.987 -0.2708 -0.7615 -0.3556
30654SOL    HW293576   8.780   7.660   4.927 -1.3326 -0.3976 -1.1652
30655SOL     OW93577   2.855   4.618   7.099 -0.3850  0.3547  0.3264
30655SOL    HW193578   2.898   4.698   7.127  1.1570 -0.1681 -0.4233
30655SOL    HW293579   2.897   4.596   7.015 -0.3208 -1.5469  0.8090
30656SOL     OW93580   3.187   7.371   5.640  0.6657 -0.0554  0.3443
30656SOL    HW193581   3.094   7.387   5.656  0.8170  1.1599  0.1136
30656SOL    HW293582   3.198   7.277   5.653 -0.4682 -0.1135  0.9879
30657SOL     OW93583   5.370   8.106   9.191  0.2093  0.8141  0.4525
30657SOL    HW193584   5.320   8.187   9.205  0.8403  1.5947 -1.4567
30657SOL    HW293585   5.323   8.060   9.122  0.2095 -0.1611  1.0892
30658SOL     OW93586   1.269   5.132   7.132  0.1676 -0.0273  0.2338
30658SOL    HW193587   1.319   5.062   7.091 -0.0173 -0.6512  1.0476
30658SOL    HW293588   1.332   5.176   7.189  0.2372  0.3632 -0.1376
30659SOL     OW93589   8.703   7.543   8.253 -0.7290  0.1883 -0.3500
30659SOL    HW193590   8.610   7.567   8.262 -1.5868 -2.4553 -1.3087
30659SOL    HW293591   8.707   7.496   8.170  1.2292 -0.9394  0.3380
30660SOL     OW93592   6.589   2.929   9.115 -0.3552 -0.8790  0.0321
30660SOL    HW193593   6.647   2.858   9.142 -0.3662 -0.2265  1.8587
30660SOL    HW293594   6.535   2.947   9.192  0.3643  1.8069 -0.0172
30661SOL     OW93595   5.352   4.013   2.259 -0.1141 -0.0848  0.1508
30661SOL    HW193596   5.422   3.951   2.280  0.6446  0.5446 -0.4440
30661SOL    HW293597   5.371   4.041   2.169 -0.6030  0.7946  0.3142
30662SOL     OW93598   5.930   1.240   7.553  0.7114  1.0489  0.1392
30662SOL    HW193599   5.904   1.235   7.646  0.8713 -0.6965  0.1219
30662SOL    HW293600   6.021   1.269   7.555  1.7352 -1.8433  0.7752
30663SOL     OW93601   3.718   1.627   7.795  0.5284 -0.0367  0.3319
30663SOL    HW193602   3.797   1.578   7.820  0.9844  0.6745  0.3013
30663SOL    HW293603   3.733   1.716   7.827  0.9630  0.8102 -2.0071
30664SOL     OW93604   5.672   5.987   8.804  0.2644 -0.4798  0.0985
30664SOL    HW193605   5.722   5.924   8.752  1.3810  0.3794  0.0888
30664SOL    HW293606   5.592   6.001   8.754 -0.2611 -2.2572  0.3543
30665SOL     OW93607   7.143   2.127   0.145 -0.7488  0.5846 -0.2830
30665SOL    HW193608   7.190   2.163   0.071  1.0192 -0.7272  0.1447
30665SOL    HW293609   7.051   2.132   0.120 -0.2625  1.2519 -2.0418
30666SOL     OW93610   7.477   5.187   6.896 -0.0998 -0.1111 -0.1417
30666SOL    HW193611   7.562   5.163   6.859 -0.1513  0.0526 -0.3696
30666SOL    HW293612   7.426   5.216   6.820  0.1181  1.1690  0.1791
30667SOL     OW93613   2.741   8.542   8.087 -0.5976  0.1368  0.4078
30667SOL    HW193614   2.685   8.619   8.075 -0.2708  0.1413 -1.4326
30667SOL    HW293615   2.692   8.470   8.046  0.7215  0.1728 -1.3775
30668SOL     OW93616   2.102   0.827   8.727 -0.0088  0.2118 -0.1049
30668SOL    HW193617   2.073   0.749   8.681  0.3729 -0.3698  0.6093
30668SOL    HW293618   2.026   0.885   8.728  0.2450  0.6731 -2.3027
30669SOL     OW93619   2.507   8.622   0.499  0.4155 -0.3087 -0.8403
30669SOL    HW193620   2.530   8.533   0.474 -0.8768 -0.4803 -1.5157
30669SOL    HW293621   2.412   8.628   0.484  0.4785  1.1859 -0.8501
30670SOL     OW93622   5.470   0.220   3.749 -0.3088 -0.0860  0.4016
30670SOL    HW193623   5.469   0.146   3.809 -1.4201  0.8255  1.5584
30670SOL    HW293624   5.557   0.218   3.709 -0.0432 -1.5199  1.0181
30671SOL     OW93625   1.056   9.354   8.434  0.3070 -0.2742 -0.0461
30671SOL    HW193626   1.065   9.416   8.507 -1.2626  0.4252 -0.4197
30671SOL    HW293627   1.041   9.409   8.357  2.5424 -0.9715 -1.0727
30672SOL     OW93628   8.717   5.924   2.933 -0.0112 -0.0458  0.3185
30672SOL    HW193629   8.692   6.010   2.968 -1.0254  0.4638 -1.5511
30672SOL    HW293630   8.774   5.943   2.859 -0.4430 -0.9723 -0.2754
30673SOL     OW93631   6.632   6.930   9.282  0.5233  0.2936 -0.9225
30673SOL    HW193632   6.703   6.994   9.294  1.9514 -1.1282 -1.4677
30673SOL    HW293633   6.671   6.846   9.306 -0.9609 -0.5607 -1.3690
30674SOL     OW93634   7.564   9.094   5.138 -0.5241  0.4398 -0.1444
30674SOL    HW193635   7.482   9.072   5.183  0.0494 -3.6165 -0.7371
30674SOL    HW293636   7.538   9.106   5.047 -0.4013 -2.2498 -0.5991
30675SOL     OW93637   3.504   9.316   6.802 -0.1093 -0.2563 -1.0119
30675SOL    HW193638   3.446   9.247   6.833 -0.3127  0.4271  0.2022
30675SOL    HW293639   3.576   9.316   6.865 -0.9790  1.7799  0.0655
30676SOL     OW93640   0.222   3.668   2.260  0.1415  0.0460 -0.4301
30676SOL    HW193641   0.298   3.725   2.248 -0.5389  0.8971 -0.8281
30676SOL    HW293642   0.255   3.580   2.244  1.2392  0.3056  0.2887
30677SOL     OW93643   5.163   7.770   7.237 -0.0516  0.0707 -0.4636
30677SOL    HW193644   5.078   7.735   7.214  0.1238 -0.9527  0.3348
30677SOL    HW293645   5.225   7.724   7.180  0.1318 -0.6313  0.2672
30678SOL     OW93646   9.080   1.290   0.814  0.3242  0.4227  0.1725
30678SOL    HW193647   9.026   1.217   0.845 -1.1213  0.7332 -1.4079
30678SOL    HW293648   9.107   1.263   0.726 -0.5190  1.8935 -0.5721
30679SOL     OW93649   4.832   0.608   6.424 -0.1282  0.0180  0.4986
30679SOL    HW193650   4.806   0.685   6.474 -1.8932  0.2811 -0.7568
30679SOL    HW293651   4.927   0.615   6.418 -0.2226  1.9159  0.6875
30680SOL     OW93652   0.242   0.067   1.974 -0.3502 -0.4170  0.5423
30680SOL    HW193653   0.211   0.127   1.906  0.0650  1.0554  1.6117
30680SOL    HW293654   0.171   0.002   1.981 -1.4457  0.7047  0.2876
30681SOL     OW93655   2.601   5.935   8.009 -0.0560 -0.3915 -0.2495
30681SOL    HW193656   2.534   5.909   7.945 -0.2308  0.5748 -0.4670
30681SOL    HW293657   2.652   5.855   8.022 -1.0831 -1.0814 -0.2794
30682SOL     OW93658   8.816   5.691   4.656  0.0841  0.4236  0.2500
30682SOL    HW193659   8.855   5.680   4.743  0.7819 -1.1635 -0.2178
30682SOL    HW293660   8.739   5.633   4.657  0.4435 -0.0841 -0.3657
30683SOL     OW93661   6.885   1.823   7.257 -0.6524 -0.0521 -0.1625
30683SOL    HW193662   6.922   1.776   7.182 -1.9354  0.4359 -1.1475
30683SOL    HW293663   6.894   1.915   7.234 -0.3083  0.1338  0.6813
30684SOL     OW93664   6.596   4.911   3.125 -0.2568 -0.2559  0.7523
30684SOL    HW193665   6.659   4.981   3.110  0.3050 -0.7405  0.7937
30684SOL    HW293666   6.516   4.955   3.152  0.1515  0.3536  0.9713
30685SOL     OW93667   1.097   1.196   4.208  0.5925 -0.0285 -0.3720
30685SOL    HW193668   1.169   1.151   4.163  0.4842 -1.3598  0.7402
30685SOL    HW293669   1.137   1.237   4.284 -0.0590 -2.3982  1.3502
30686SOL     OW93670   2.869   5.176   3.425 -0.4818  0.1428  0.0331
30686SOL    HW193671   2.783   5.142   3.400 -0.8702  0.9699  0.1973
30686SOL    HW293672   2.856   5.212   3.513  0.7899 -2.4857  1.3954
30687SOL     OW93673   4.808   1.026   2.952  0.2680  0.2574 -0.2803
30687SOL    HW193674   4.840   1.116   2.954  1.8643 -0.2184 -2.0005
30687SOL    HW293675   4.785   1.011   2.860 -2.9251 -0.1651  0.4740
30688SOL     OW93676   2.209   2.402   3.594  0.0907  0.6894  0.1438
30688SOL    HW193677   2.271   2.458   3.641  0.7307  0.3433 -0.2763
30688SOL    HW293678   2.135   2.459   3.577  0.3298  1.1415  0.5629
30689SOL     OW93679   9.244   6.831   4.300  0.1258  0.0607 -0.3440
30689SOL    HW193680   9.159   6.822   4.257 -0.8020 -1.1059  1.6156
30689SOL    HW293681   9.267   6.743   4.327  2.5458  0.1758 -1.7689
30690SOL     OW93682   0.012   8.618   9.263  0.0430  0.0219  0.1722
30690SOL    HW193683   0.101   8.584   9.267  0.1733  0.3021 -0.2075
30690SOL    HW293684  -0.004   8.633   9.169 -0.0210  0.9480  0.3222
30691SOL     OW93685   8.910   0.677   3.902 -0.9433 -0.1798  0.2574
30691SOL    HW193686   8.917   0.762   3.945 -2.4806 -0.2925  0.8024
30691SOL    HW293687   8.856   0.694   3.825 -0.4126 -0.4901 -0.1957
30692SOL     OW93688   2.825   7.381   4.649  0.2762  0.5397  0.1879
30692SOL    HW193689   2.876   7.302   4.667 -0.4083  0.1962  0.7101
30692SOL    HW293690   2.877   7.430   4.586 -0.6509 -1.8429 -2.7269
30693SOL     OW93691   2.356   8.050   7.920  0.7936 -0.2293  0.3606
30693SOL    HW193692   2.342   8.029   8.012 -0.9883  0.1699  0.2201
30693SOL    HW293693   2.269   8.074   7.888  0.8299 -2.8597 -2.0793
30694SOL     OW93694   6.487   7.194   6.369  0.2827  0.1230  0.8730
30694SOL    HW193695   6.558   7.130   6.373 -0.1926 -0.5537 -0.6405
30694SOL    HW293696   6.477   7.214   6.275 -0.9173  0.8884  1.1318
30695SOL     OW93697   5.918   1.103   2.792 -0.4671 -0.2142  0.1566
30695SOL    HW193698   5.870   1.050   2.854  0.0022 -0.3617  0.3985
30695SOL    HW293699   5.883   1.191   2.802  0.2653 -0.0409  1.3162
30696SOL     OW93700   6.017   1.589   1.376  0.2468 -0.2853 -0.3016
30696SOL    HW193701   6.028   1.562   1.468 -0.9129  1.0561  0.2696
30696SOL    HW293702   6.066   1.671   1.369 -0.7249  0.3065 -0.4899
30697SOL     OW93703   1.742   6.066   1.798  0.1212  0.2907 -0.1822
30697SOL    HW193704   1.699   6.060   1.712  1.7295 -0.9307 -0.9374
30697SOL    HW293705   1.713   6.151   1.832 -0.2409  0.9983 -2.1019
30698SOL     OW93706   0.095   8.991   7.797 -0.5282 -0.4283 -0.8103
30698SOL    HW193707   0.133   8.933   7.863 -0.7493 -0.9127 -1.1010
30698SOL    HW293708   0.019   9.031   7.841  1.4212  2.1595  0.4934
30699SOL     OW93709   4.141   5.035   0.374 -0.2512 -0.0938  0.1376
30699SOL    HW193710   4.081   5.104   0.404 -1.7452 -1.3053  0.0992
30699SOL    HW293711   4.083   4.961   0.352  1.1478 -0.7865 -1.4514
30700SOL     OW93712   9.508   3.880   8.385  0.0149 -0.2252  0.7053
30700SOL    HW193713   9.510   3.848   8.475  1.3857 -0.3827  0.6322
30700SOL    HW293714   9.565   3.821   8.337  0.1203  0.4840 -0.0585
30701SOL     OW93715   2.204   0.571   9.047 -0.0946  0.4011  0.2107
30701SOL    HW193716   2.145   0.639   9.081 -0.7612 -0.4632  0.8244
30701SOL    HW293717   2.147   0.497   9.028  0.3967  0.5528 -2.0402
30702SOL     OW93718   1.233   7.193   7.854  0.1186  0.2734 -0.3349
30702SOL    HW193719   1.175   7.126   7.890 -1.9841 -1.1563 -5.4442
30702SOL    HW293720   1.273   7.151   7.778  3.7818  2.9850 -0.1919
30703SOL     OW93721   0.394   2.427   8.765 -0.1513  0.2251  0.2939
30703SOL    HW193722   0.310   2.468   8.748 -0.7102 -1.1239 -0.3987
30703SOL    HW293723   0.448   2.450   8.689  0.3872  1.7400  1.1109
30704SOL     OW93724   2.808   7.970   5.727  0.0010 -0.2508  0.0933
30704SOL    HW193725   2.733   7.910   5.719  0.1034 -0.8158  2.5871
30704SOL    HW293726   2.768   8.057   5.723 -0.6167 -0.5267 -0.0023
30705SOL     OW93727   3.280   7.449   1.878 -0.2431  0.0407  0.3538
30705SOL    HW193728   3.371   7.422   1.876  0.1335  1.2365  0.4814
30705SOL    HW293729   3.279   7.536   1.838 -1.5327 -0.4837 -0.8555
30706SOL     OW93730   8.520   6.307   4.436 -0.3754 -0.3595  0.4917
30706SOL    HW193731   8.613   6.283   4.429 -0.0288  1.2503 -1.3936
30706SOL    HW293732   8.474   6.224   4.446  1.1756 -1.3096  0.0430
30707SOL     OW93733   6.598   3.638   4.151  0.2887 -0.1447  0.3328
30707SOL    HW193734   6.527   3.672   4.205 -0.0057  1.7449 -1.1192
30707SOL    HW293735   6.674   3.693   4.174  0.4466 -0.0711 -0.3312
30708SOL     OW93736   2.212   5.437   8.646 -0.2629  0.0588  0.3978
30708SOL    HW193737   2.156   5.468   8.718  1.1834  1.1044  1.1251
30708SOL    HW293738   2.300   5.432   8.684  0.2809 -0.8588 -0.9019
30709SOL     OW93739   5.924   1.519   5.465 -0.2227  0.4061  0.1776
30709SOL    HW193740   5.915   1.451   5.399  1.0594  1.1579 -0.8277
30709SOL    HW293741   5.838   1.562   5.468 -0.4860 -0.0502 -0.5433
30710SOL     OW93742   8.465   8.618   1.937  0.4097 -0.4075  0.5668
30710SOL    HW193743   8.474   8.690   2.000 -0.5596 -1.3207  1.7973
30710SOL    HW293744   8.373   8.591   1.944  0.1260 -0.1920 -1.6611
30711SOL     OW93745   6.673   0.812   9.749  0.4998 -0.2171  0.0126
30711SOL    HW193746   6.661   0.718   9.745 -0.3148 -0.1211  0.0888
30711SOL    HW293747   6.625   0.847   9.674  0.0929  0.1927  0.4524
30712SOL     OW93748   4.023   4.785   3.935  0.0150 -0.0788 -0.4575
30712SOL    HW193749   4.070   4.857   3.976 -1.4815  0.0969  1.0287
30712SOL    HW293750   3.984   4.824   3.856 -1.7104  1.0817  0.9107
30713SOL     OW93751   2.180   5.905   7.831  0.4247  0.3363 -1.0478
30713SOL    HW193752   2.164   5.911   7.925  0.6085  1.7764 -1.0941
30713SOL    HW293753   2.269   5.870   7.824  0.0828 -0.6457 -0.7174
30714SOL     OW93754   1.270   3.256   7.970 -0.0527  0.4174  0.1125
30714SOL    HW193755   1.248   3.336   7.922  1.2737  0.6874 -0.0919
30714SOL    HW293756   1.275   3.283   8.061  1.9180  0.9764 -0.1010
30715SOL     OW93757   3.889   8.710   2.320 -0.6794 -0.3124 -0.1971
30715SOL    HW193758   3.973   8.729   2.279  0.4016 -2.3010  0.9558
30715SOL    HW293759   3.901   8.735   2.412 -0.8650 -1.8297  0.2654
30716SOL     OW93760   7.831   2.781   2.051  0.3740  0.3035 -0.3690
30716SOL    HW193761   7.839   2.830   2.133 -0.7773 -0.2601  0.0995
30716SOL    HW293762   7.802   2.846   1.987  1.5801  0.8146 -0.4259
30717SOL     OW93763   4.220   0.133   1.278 -0.4304  0.1528 -0.4441
30717SOL    HW193764   4.258   0.052   1.244 -1.6800 -0.1960 -1.0625
30717SOL    HW293765   4.263   0.203   1.228  1.3950 -0.0186  0.7859
30718SOL     OW93766   7.540   6.133   4.760  0.6780  0.0919  0.3953
30718SOL    HW193767   7.599   6.180   4.701  0.8532  0.4575  0.8569
30718SOL    HW293768   7.599   6.082   4.816  0.4984 -0.5056  0.0473
30719SOL     OW93769   8.696   3.160   9.211 -0.2862 -0.1493  0.7979
30719SOL    HW193770   8.733   3.247   9.199 -0.9868  0.1787  0.9861
30719SOL    HW293771   8.719   3.113   9.131 -0.6032  0.4569  0.3419
30720SOL     OW93772   5.420   8.154   1.288 -0.3414 -0.2747  0.6581
30720SOL    HW193773   5.475   8.076   1.277 -0.2135 -0.2579  1.1324
30720SOL    HW293774   5.388   8.147   1.378 -3.3334 -1.7186 -0.3693
30721SOL     OW93775   3.871   6.632   6.200 -0.6306 -0.1529  0.3881
30721SOL    HW193776   3.815   6.608   6.274 -0.2355  0.9704  1.0727
30721SOL    HW293777   3.819   6.610   6.122 -1.3226 -0.7133  0.9916
30722SOL     OW93778   0.882   9.073   6.078 -0.0714  0.3065  0.1041
30722SOL    HW193779   0.929   9.084   5.995  0.7760 -0.2526  0.4979
30722SOL    HW293780   0.916   8.991   6.114 -1.9160 -0.5240  0.0424
30723SOL     OW93781   3.115   3.982   2.949  0.7341 -0.7213 -0.0805
30723SOL    HW193782   3.031   4.006   2.911  0.1833  0.7156  1.8599
30723SOL    HW293783   3.098   3.975   3.043  2.4418 -2.0608  0.1835
30724SOL     OW93784   8.703   8.935   9.060 -0.7398 -0.5755  0.1526
30724SOL    HW193785   8.620   8.955   9.017 -0.0743  1.4683 -0.3056
30724SOL    HW293786   8.689   8.955   9.152 -0.7318 -0.1066  0.0539
30725SOL     OW93787   3.849   5.467   2.815 -0.0458  0.2420 -0.7891
30725SOL    HW193788   3.812   5.418   2.743  0.2275  2.0516 -2.2228
30725SOL    HW293789   3.917   5.521   2.775  0.7199  0.6567  0.9654
30726SOL     OW93790   7.578   7.738   2.267  0.4802  0.3532  0.0030
30726SOL    HW193791   7.614   7.788   2.194 -0.8880 -1.6555 -2.1893
30726SOL    HW293792   7.599   7.647   2.247 -0.9056 -0.3614  1.5444
30727SOL     OW93793   5.563   5.127   7.904  0.8060  0.7405 -0.5728
30727SOL    HW193794   5.554   5.189   7.831  0.2170  0.5653 -0.6536
30727SOL    HW293795   5.656   5.105   7.904  0.7490  0.4135 -1.5550
30728SOL     OW93796   4.888   6.952   8.208  0.2605 -0.5432 -0.7000
30728SOL    HW193797   4.958   7.016   8.199  0.8940 -0.9168  1.1515
30728SOL    HW293798   4.846   6.973   8.292 -0.5853 -1.5306 -0.8485
30729SOL     OW93799   9.490   0.564   8.692 -0.2123  0.1434  0.3500
30729SOL    HW193800   9.561   0.516   8.649  0.7242  1.3039  0.5746
30729SOL    HW293801   9.531   0.605   8.768 -0.7357  2.2019 -0.4363
30730SOL     OW93802   4.123   1.067   1.273  0.5916 -0.1113  0.4859
30730SOL    HW193803   4.069   1.129   1.323 -1.3552 -1.7579  0.5706
30730SOL    HW293804   4.077   1.058   1.189  1.5438 -0.4928 -0.0045
30731SOL     OW93805   0.828   5.132   6.992 -0.5445  0.3227  0.6763
30731SOL    HW193806   0.888   5.182   7.047 -0.6862 -0.7705  1.8605
30731SOL    HW293807   0.882   5.106   6.917  0.4323 -0.4199  1.5986
30732SOL     OW93808   6.361   3.496   8.667  0.2216  0.4446  0.0973
30732SOL    HW193809   6.364   3.484   8.572  1.5473 -3.6269  0.4439
30732SOL    HW293810   6.274   3.465   8.692  0.5757 -0.3866  0.3325
30733SOL     OW93811   1.162   1.017   3.458 -0.0260 -0.1692  0.0547
30733SOL    HW193812   1.144   0.923   3.465 -1.4971 -0.2734 -3.1766
30733SOL    HW293813   1.090   1.058   3.506  0.7638 -0.6157  1.7069
30734SOL     OW93814   1.231   0.138   8.879 -0.2209  0.5031  0.1459
30734SOL    HW193815   1.220   0.091   8.962 -0.2142  0.1323 -0.0588
30734SOL    HW293816   1.174   0.214   8.886 -1.2843 -0.2452 -0.0437
30735SOL     OW93817   3.800   1.020   8.439  0.2610 -0.4791 -0.5510
30735SOL    HW193818   3.841   1.067   8.366  0.7935 -0.1324 -0.0356
30735SOL    HW293819   3.872   1.002   8.500 -0.3232  0.0448  0.3205
30736SOL     OW93820   6.834   6.668   6.274 -0.2877 -0.1690  0.1399
30736SOL    HW193821   6.795   6.632   6.195  0.7041  0.7133 -0.7955
30736SOL    HW293822   6.781   6.634   6.346 -0.0002 -2.6117 -0.7389
30737SOL     OW93823   4.077   7.621   9.111 -0.2258 -0.5160 -0.2587
30737SOL    HW193824   4.093   7.677   9.187 -0.0005 -0.7960 -0.0965
30737SOL    HW293825   4.092   7.678   9.035  2.0490 -0.8645 -0.1309
30738SOL     OW93826   6.844   3.514   8.768 -0.3965 -0.2532 -0.3454
30738SOL    HW193827   6.771   3.453   8.753 -0.4539 -0.6182  1.2062
30738SOL    HW293828   6.806   3.584   8.820  0.1774 -0.0588 -0.1783
30739SOL     OW93829   1.610   5.123   5.002  0.4014 -0.2617  0.3009
30739SOL    HW193830   1.692   5.073   5.002  1.2219  1.0127  0.2775
30739SOL    HW293831   1.634   5.207   5.041 -0.4469  0.8340 -1.3994
30740SOL     OW93832   0.727   9.519   6.905 -0.3529  0.2680 -0.7700
30740SOL    HW193833   0.769   9.449   6.956  1.3007  1.3305 -0.5902
30740SOL    HW293834   0.726   9.594   6.965 -1.3294  0.6453 -1.2402
30741SOL     OW93835   8.369   8.970   8.274 -0.0646 -0.1675  0.3679
30741SOL    HW193836   8.448   9.022   8.290 -0.5747  0.8387 -0.3310
30741SOL    HW293837   8.402   8.882   8.254  0.8292  0.0138  0.9777
30742SOL     OW93838   7.451   7.369   1.584 -0.0579  0.0097 -0.1046
30742SOL    HW193839   7.463   7.435   1.516  0.1527 -0.3466 -0.4177
30742SOL    HW293840   7.524   7.309   1.573  1.0218  0.9299  1.5928
30743SOL     OW93841   0.886   0.248   0.022 -0.0663 -0.2647  0.2458
30743SOL    HW193842   0.824   0.263   0.093  0.4451 -1.6439  1.0210
30743SOL    HW293843   0.971   0.237   0.066  0.2623 -1.1254 -0.5617
30744SOL     OW93844   1.246   2.499   1.857  0.5594  0.2128  0.2495
30744SOL    HW193845   1.262   2.421   1.910  2.9510  0.5985  0.1888
30744SOL    HW293846   1.206   2.562   1.918  0.6389 -0.3239  0.8615
30745SOL     OW93847   5.084   2.606   6.749 -0.5609  0.8066 -0.9487
30745SOL    HW193848   4.996   2.605   6.786  0.0771  0.1088  0.6244
30745SOL    HW293849   5.108   2.514   6.739 -0.4018  0.9764 -2.4209
30746SOL     OW93850   2.431   5.281   7.136 -0.1641  0.3546  0.0410
30746SOL    HW193851   2.508   5.310   7.185 -0.3179  1.1057 -0.1483
30746SOL    HW293852   2.391   5.213   7.191  0.5589  0.0499  0.1972
30747SOL     OW93853   5.157   0.452   9.587  0.5205 -0.5383 -0.1253
30747SOL    HW193854   5.107   0.481   9.664  1.4780  1.8727 -0.3253
30747SOL    HW293855   5.202   0.373   9.616  1.8602  0.9846  2.2672
30748SOL     OW93856   7.141   3.629   7.527  0.0543 -0.0870 -0.8668
30748SOL    HW193857   7.179   3.616   7.440 -0.5363 -2.3916 -0.8436
30748SOL    HW293858   7.213   3.612   7.588 -0.0324 -0.5299 -0.8849
30749SOL     OW93859   8.879   3.951   5.701  0.3601 -0.2536  0.3506
30749SOL    HW193860   8.896   3.900   5.622  0.3805  0.3016 -0.0092
30749SOL    HW293861   8.898   4.041   5.676  1.8373 -0.2260  1.4213
30750SOL     OW93862   6.119   7.204   2.076  0.0346  0.1101 -0.1592
30750SOL    HW193863   6.202   7.249   2.088 -0.9248  1.4618  1.8850
30750SOL    HW293864   6.069   7.261   2.018  0.3717 -0.5175 -1.0851
30751SOL     OW93865   8.649   1.563   4.432 -0.1959  0.1523  0.6146
30751SOL    HW193866   8.587   1.622   4.390 -0.7383 -0.0643  1.1014
30751SOL    HW293867   8.677   1.503   4.362  1.4890  1.8450 -0.2691
30752SOL     OW93868   1.173   8.548   8.919  0.0955  0.2685 -0.3857
30752SOL    HW193869   1.109   8.492   8.874 -0.2492  0.6927 -0.4247
30752SOL    HW293870   1.226   8.487   8.970  0.6512 -0.2651 -1.5454
30753SOL     OW93871   0.569   0.954   2.944 -0.5401  0.2235  0.9884
30753SOL    HW193872   0.601   1.036   2.981  0.8616  0.2708 -0.2435
30753SOL    HW293873   0.624   0.938   2.867  0.1221 -2.5543  1.9054
30754SOL     OW93874   8.170   3.809   6.319  0.0836 -0.1844  0.2088
30754SOL    HW193875   8.125   3.766   6.245  0.4128  1.2293 -0.8496
30754SOL    HW293876   8.260   3.777   6.313  0.6573  1.5394 -1.3753
30755SOL     OW93877   3.027   4.802   1.562 -0.9030 -0.1337  0.1812
30755SOL    HW193878   3.024   4.872   1.498  0.0185  0.2448  0.5331
30755SOL    HW293879   3.033   4.847   1.646  0.9144 -0.6056  0.3394
30756SOL     OW93880   4.513   6.644   4.983  0.2921  0.0411 -0.0928
30756SOL    HW193881   4.486   6.587   5.055  0.2202  0.2297  0.0287
30756SOL    HW293882   4.603   6.617   4.964  0.6192  0.5823  0.6521
30757SOL     OW93883   8.252   0.465   3.462 -0.0573  0.3403 -0.0801
30757SOL    HW193884   8.322   0.400   3.455 -0.3982  0.0841 -1.3693
30757SOL    HW293885   8.224   0.460   3.553  0.2947 -0.9408 -0.0284
30758SOL     OW93886   2.979   4.219   8.690 -0.0226 -0.1583  0.4300
30758SOL    HW193887   3.016   4.142   8.646  0.5517 -0.3546  1.2287
30758SOL    HW293888   3.025   4.293   8.651 -1.0116 -0.1505 -0.7813
30759SOL     OW93889   3.717   3.991   5.886  0.5730 -0.0608  0.2440
30759SOL    HW193890   3.641   4.038   5.921  1.6315  1.8165  0.1233
30759SOL    HW293891   3.685   3.955   5.802 -0.1735  0.7286  0.1749
30760SOL     OW93892   8.744   8.346   7.584  0.3467  0.2037  0.6936
30760SOL    HW193893   8.779   8.430   7.553  0.0071 -0.0350 -0.3799
30760SOL    HW293894   8.674   8.325   7.523  2.3308 -2.2999 -0.9268
30761SOL     OW93895   2.413   3.354   6.334 -0.4020 -0.0986  0.0303
30761SOL    HW193896   2.342   3.390   6.281 -0.7638 -2.0936 -0.9482
30761SOL    HW293897   2.381   3.360   6.424 -1.0833  0.5768 -0.2489
30762SOL     OW93898   9.805   5.330   8.458  0.3572  0.5127  0.0633
30762SOL    HW193899   9.818   5.398   8.392 -0.9477 -0.6138 -1.4523
30762SOL    HW293900   9.717   5.347   8.493 -0.6404 -1.1909 -1.4323
30763SOL     OW93901   2.079   3.026   3.167  0.1173  0.4141  0.2852
30763SOL    HW193902   2.140   3.091   3.201  0.0598  1.5058 -1.5946
30763SOL    HW293903   2.134   2.949   3.148  0.6191  0.7899  0.1938
30764SOL     OW93904   7.754   0.707   4.309  0.0980  0.2261  0.4796
30764SOL    HW193905   7.755   0.764   4.386  0.5193  0.7775  0.0763
30764SOL    HW293906   7.701   0.755   4.245 -0.6554 -0.4523  0.5837
30765SOL     OW93907   0.179   8.275   8.628 -0.4317  0.0562 -0.6992
30765SOL    HW193908   0.084   8.274   8.614 -0.9022  0.4807  1.9430
30765SOL    HW293909   0.201   8.368   8.631 -0.4520  0.0391  1.3210
30766SOL     OW93910   7.187   4.066   0.905  0.1550  0.4809  0.1548
30766SOL    HW193911   7.199   4.045   0.812  0.3356  2.4400 -0.3203
30766SOL    HW293912   7.275   4.085   0.937  0.1651 -0.7665  0.9024
30767SOL     OW93913   3.780   1.834   4.929 -0.0747 -0.0921  0.0922
30767SOL    HW193914   3.825   1.894   4.869 -0.1373  0.5939  0.7191
30767SOL    HW293915   3.693   1.873   4.942  0.1557  0.0976  1.1171
30768SOL     OW93916   3.220   5.001   5.774  0.2821 -0.0836 -0.1979
30768SOL    HW193917   3.291   5.024   5.714  0.8741  0.1779  0.5775
30768SOL    HW293918   3.262   4.995   5.860 -0.5116 -0.6222  0.1709
30769SOL     OW93919   3.334   3.651   1.133  0.4997  0.1986  0.1230
30769SOL    HW193920   3.255   3.668   1.184  0.5499  0.6760  0.0417
30769SOL    HW293921   3.358   3.561   1.155 -1.8396 -1.1219 -2.2223
30770SOL     OW93922   9.485   3.165   4.657 -0.2326 -0.0202 -0.2321
30770SOL    HW193923   9.483   3.076   4.621 -0.5619  0.1385 -0.6309
30770SOL    HW293924   9.563   3.169   4.711 -0.2208 -0.5543 -0.2126
30771SOL     OW93925   4.847   2.813   2.512  0.2420  0.1258 -0.6937
30771SOL    HW193926   4.922   2.871   2.497  0.8554 -0.9737 -2.1497
30771SOL    HW293927   4.774   2.858   2.471 -0.0384  1.4029  1.0921
30772SOL     OW93928   6.915   5.391   7.306  0.8458  0.2202 -0.6016
30772SOL    HW193929   6.870   5.469   7.275  0.5291  0.8117  1.2301
30772SOL    HW293930   6.845   5.328   7.322  0.6810  0.8866  1.5315
30773SOL     OW93931   2.551   3.586   9.109  0.5090  0.1965 -0.0483
30773SOL    HW193932   2.485   3.650   9.085  1.6513  0.9931 -1.1997
30773SOL    HW293933   2.546   3.518   9.042  1.7582  0.9636 -0.9549
30774SOL     OW93934   0.318   3.096   7.590 -0.0674 -0.7319  0.2237
30774SOL    HW193935   0.350   3.023   7.642  0.4235  0.4626  1.6795
30774SOL    HW293936   0.250   3.136   7.644 -1.7461 -1.2381 -1.3991
30775SOL     OW93937   2.454   1.068   2.643  0.5077  0.3405  0.0756
30775SOL    HW193938   2.436   1.136   2.578 -1.9040  0.7161  1.0131
30775SOL    HW293939   2.433   0.986   2.599 -0.6268  0.5560  0.1800
30776SOL     OW93940   4.837   1.740   0.655 -0.4382  0.0303 -0.0509
30776SOL    HW193941   4.825   1.833   0.638  1.5041  0.3478  0.1385
30776SOL    HW293942   4.849   1.701   0.569  0.1647  0.1961 -0.0486
30777SOL     OW93943   1.332   1.072   0.603 -0.1765 -0.2388  0.1937
30777SOL    HW193944   1.382   0.994   0.580 -0.4355 -0.7534  1.3101
30777SOL    HW293945   1.366   1.099   0.688  0.4849  1.3831 -0.5423
30778SOL     OW93946   8.757   7.602   3.239 -0.5907  0.1186 -0.1798
30778SOL    HW193947   8.687   7.557   3.286  0.2689 -0.3627  0.6860
30778SOL    HW293948   8.834   7.546   3.253 -0.2465  0.0870 -1.9787
30779SOL     OW93949   2.597   4.954   2.126  0.1018  0.9979  0.4226
30779SOL    HW193950   2.535   4.886   2.100  0.8260  0.2969  0.4850
30779SOL    HW293951   2.542   5.026   2.157 -0.7130  0.8726 -0.6529
30780SOL     OW93952   4.059   8.814   7.122 -0.0409  0.8462  0.5485
30780SOL    HW193953   4.022   8.871   7.189 -0.6459  1.0791  0.0297
30780SOL    HW293954   4.067   8.729   7.164  0.3417  1.1786  1.1590
30781SOL     OW93955   8.493   2.785   7.801  0.0397 -0.0624  0.1151
30781SOL    HW193956   8.486   2.717   7.868  0.6019  0.9277  1.2148
30781SOL    HW293957   8.583   2.816   7.807 -0.0820  0.4976 -0.6619
30782SOL     OW93958   9.321   5.709   3.293 -0.2282 -0.1874 -0.5194
30782SOL    HW193959   9.406   5.683   3.259  0.7675  0.1978  1.5017
30782SOL    HW293960   9.300   5.790   3.247  0.3677 -0.4334 -1.2271
30783SOL     OW93961   8.312   5.574   9.742  0.0365  0.0898 -0.2439
30783SOL    HW193962   8.353   5.555   9.827 -0.1616  0.3230 -0.0952
30783SOL    HW293963   8.379   5.553   9.678  0.4483  0.6281  0.0054
30784SOL     OW93964   6.004   9.582   1.854  0.1063 -0.3695  0.4437
30784SOL    HW193965   6.083   9.634   1.840 -1.3531  1.6829 -0.5436
30784SOL    HW293966   6.032   9.513   1.915  2.5766  0.4167  0.3141
30785SOL     OW93967   2.301   6.215   8.140 -0.4049  0.1772  0.2417
30785SOL    HW193968   2.266   6.274   8.073  2.0532  1.1268 -0.3321
30785SOL    HW293969   2.256   6.132   8.125  0.5399  0.1296 -3.1022
30786SOL     OW93970   2.659   5.485   8.491  0.1225 -0.8614  0.6080
30786SOL    HW193971   2.718   5.541   8.542  2.8509 -0.8372 -2.3032
30786SOL    HW293972   2.696   5.397   8.500  0.1868 -0.9736 -0.6343
30787SOL     OW93973   8.769   4.818   5.423  0.3023  0.0352  0.1477
30787SOL    HW193974   8.808   4.730   5.421 -0.0657 -0.2024  1.9529
30787SOL    HW293975   8.675   4.803   5.433  0.0132  0.6467 -1.3248
30788SOL     OW93976   2.201   6.874   5.147  0.0043  0.0244  0.6247
30788SOL    HW193977   2.191   6.794   5.200  0.3937  0.1221  0.8499
30788SOL    HW293978   2.194   6.844   5.057 -0.0713 -0.2341  0.7156
30789SOL     OW93979   6.091   7.330   5.783 -0.1345 -0.8495 -0.3315
30789SOL    HW193980   6.121   7.359   5.697 -0.6682 -2.3295 -1.0590
30789SOL    HW293981   6.089   7.235   5.776 -2.0419 -0.9332  0.6729
30790SOL     OW93982   5.070   3.162   2.768  0.4823  1.0093  0.0798
30790SOL    HW193983   4.988   3.136   2.809  0.5455 -0.3788 -0.5993
30790SOL    HW293984   5.048   3.175   2.676  1.1057  0.0969 -0.2148
30791SOL     OW93985   2.022   1.226   7.807  0.3434  0.0358 -0.2355
30791SOL    HW193986   2.007   1.153   7.867  0.3128  0.7353  0.6336
30791SOL    HW293987   1.938   1.236   7.762 -0.0624  0.3260  0.5519
30792SOL     OW93988   5.698   1.662   3.663 -0.0305  0.1204 -0.0826
30792SOL    HW193989   5.723   1.644   3.754 -1.1504  0.6158  0.3390
30792SOL    HW293990   5.722   1.753   3.650  0.8181 -0.1601 -0.5359
30793SOL     OW93991   4.012   7.475   6.295  0.1538  0.5389 -0.0474
30793SOL    HW193992   3.999   7.560   6.253  2.8072  0.9325 -0.2908
30793SOL    HW293993   3.986   7.488   6.386 -1.8185  0.8571 -0.6261
30794SOL     OW93994   9.016   2.116   4.227  0.2833  1.0301 -0.2934
30794SOL    HW193995   8.936   2.075   4.196  0.4099  0.9512 -0.5213
30794SOL    HW293996   9.083   2.088   4.164  0.5187  0.9630 -0.0135
30795SOL     OW93997   3.496   3.499   6.354  0.0191  0.4802  0.0401
30795SOL    HW193998   3.478   3.573   6.296  0.6621  1.1691  0.6930
30795SOL    HW293999   3.410   3.468   6.381 -0.3822 -0.8162 -2.4115
30796SOL     OW94000   0.880   0.036   5.818 -0.0128  0.8804  0.0539
30796SOL    HW194001   0.893  -0.056   5.840  0.1644  0.6625 -0.9115
30796SOL    HW294002   0.886   0.082   5.902  1.2283  0.1604  0.3876
30797SOL     OW94003   5.834   9.449   3.060  0.4667 -0.7671 -1.1502
30797SOL    HW194004   5.818   9.397   2.981 -1.7130  0.7724 -1.8155
30797SOL    HW294005   5.748   9.462   3.098  1.2266  0.3534  0.2924
30798SOL     OW94006   8.234   3.027   2.902  0.1836 -0.2375  0.1807
30798SOL    HW194007   8.272   3.003   2.817  2.0412 -0.1780  0.9290
30798SOL    HW294008   8.183   2.951   2.928  0.3927 -0.6454 -0.5639
30799SOL     OW94009   2.479   5.204   8.676 -0.3642  0.2527  0.3154
30799SOL    HW194010   2.473   5.292   8.712  0.3887  0.4698 -0.0745
30799SOL    HW294011   2.407   5.156   8.717 -0.8029  1.0557  0.4992
30800SOL     OW94012   5.882   6.652   5.045  0.4105  0.6230 -0.4077
30800SOL    HW194013   5.862   6.672   5.136 -0.1281  0.1179 -0.4113
30800SOL    HW294014   5.900   6.738   5.005  0.6989  0.8408  0.1779
30801SOL     OW94015   6.560   4.606   2.771  0.3575  0.0135 -0.4569
30801SOL    HW194016   6.626   4.549   2.812  0.9682  0.9576 -0.0934
30801SOL    HW294017   6.588   4.695   2.793 -1.9314  0.4293  1.0992
30802SOL     OW94018   5.532   8.279   2.396 -0.1911 -0.0625 -0.4101
30802SOL    HW194019   5.488   8.203   2.434 -0.3946  0.3605  0.2092
30802SOL    HW294020   5.528   8.346   2.464 -1.3184  0.9954 -1.4759
30803SOL     OW94021   1.907   9.049   6.296  0.0912 -0.4113 -0.2092
30803SOL    HW194022   1.891   8.955   6.302 -1.2367 -0.2059 -0.1038
30803SOL    HW294023   1.950   9.061   6.212 -0.0858 -1.0714 -0.4004
30804SOL     OW94024   4.444   6.255   0.094 -0.3513  0.1981 -0.6073
30804SOL    HW194025   4.370   6.220   0.046 -0.7953  0.3467 -0.0437
30804SOL    HW294026   4.405   6.305   0.165  0.2732  1.3000 -1.0141
30805SOL     OW94027   0.044   1.546   3.750 -0.3462  0.3532  0.1142
30805SOL    HW194028   0.003   1.490   3.816 -0.1959 -2.1373 -1.7965
30805SOL    HW294029   0.138   1.534   3.764 -0.2940  0.8161  0.1998
30806SOL     OW94030   0.101   7.940   0.479  0.7252 -0.1949  0.0872
30806SOL    HW194031   0.044   7.995   0.426 -1.1401 -2.1331 -0.0608
30806SOL    HW294032   0.082   7.967   0.569  0.0968 -0.3242 -0.0001
30807SOL     OW94033   4.354   9.781   2.476 -0.1329 -0.8117 -0.4617
30807SOL    HW194034   4.440   9.741   2.489 -0.1494 -0.5381  0.6073
30807SOL    HW294035   4.363   9.869   2.513 -0.6225 -0.4660 -1.1440
30808SOL     OW94036   9.634   7.613   1.768 -0.0611 -0.0867 -0.4745
30808SOL    HW194037   9.587   7.695   1.776 -2.4150 -1.1928 -1.9340
30808SOL    HW294038   9.578   7.548   1.809  0.4672 -1.3626 -1.6563
30809SOL     OW94039   8.866   3.615   9.004 -0.0776  0.0371 -0.1015
30809SOL    HW194040   8.943   3.661   9.039 -0.3464 -0.7392  1.5742
30809SOL    HW294041   8.856   3.651   8.916  2.7062 -0.4145 -0.7133
30810SOL     OW94042   4.440   4.935   2.565 -0.3315  0.0650 -0.3364
30810SOL    HW194043   4.376   4.903   2.501  0.3181  0.6064 -1.2929
30810SOL    HW294044   4.393   4.937   2.648 -1.6320  0.6485 -1.0567
30811SOL     OW94045   7.405   2.059   5.521 -0.2096 -0.0450 -0.6215
30811SOL    HW194046   7.409   2.113   5.600  0.2415  0.0209 -0.6830
30811SOL    HW294047   7.492   2.018   5.515 -0.1255  0.2047 -1.2521
30812SOL     OW94048   0.500   6.278   3.160  0.2043  0.3039 -0.1716
30812SOL    HW194049   0.505   6.339   3.234 -4.0932  0.5514  0.2005
30812SOL    HW294050   0.537   6.197   3.194 -2.2726  0.1885  2.7244
30813SOL     OW94051   1.250   0.340   8.489  0.0022 -1.1176 -0.3866
30813SOL    HW194052   1.278   0.293   8.410 -0.6458 -0.8278 -0.8031
30813SOL    HW294053   1.300   0.421   8.487 -1.2418 -0.3272 -1.4555
30814SOL     OW94054   5.020   3.020   8.367 -0.0163  0.1992 -0.0993
30814SOL    HW194055   4.929   3.045   8.381 -0.4315  1.3124 -3.5957
30814SOL    HW294056   5.017   2.958   8.294  1.9561 -0.5559  0.4021
30815SOL     OW94057   2.926   1.100   5.964 -0.0876  0.2769  0.1600
30815SOL    HW194058   2.882   1.022   5.930 -2.2801  1.4329  0.1477
30815SOL    HW294059   3.012   1.069   5.991 -0.5955 -1.9767 -0.5630
30816SOL     OW94060   6.332   2.038   2.727  0.2804 -0.0278 -0.0019
30816SOL    HW194061   6.273   1.972   2.689 -0.3958  0.5449  0.0368
30816SOL    HW294062   6.417   2.018   2.688  0.1857 -1.2004  0.3435
30817SOL     OW94063   5.209   5.411   3.339  0.4626 -0.2707  0.1117
30817SOL    HW194064   5.274   5.360   3.387 -0.4931  1.2023  3.2029
30817SOL    HW294065   5.228   5.502   3.361 -0.8318  0.4129 -1.3658
30818SOL     OW94066   6.898   1.708   6.778 -0.2609  0.4724  0.0954
30818SOL    HW194067   6.817   1.659   6.771 -1.1345  1.7009  1.1127
30818SOL    HW294068   6.918   1.709   6.871  2.4666 -2.1315 -0.3024
30819SOL     OW94069   8.124   6.686   5.041  0.4574 -0.1984  0.6053
30819SOL    HW194070   8.075   6.678   5.123 -1.2087 -1.2886 -0.4228
30819SOL    HW294071   8.059   6.669   4.972  2.1045 -0.8104 -0.8887
30820SOL     OW94072   9.554   0.228   8.454  0.1645  0.3195  0.2310
30820SOL    HW194073   9.478   0.184   8.494  0.9249  1.3569  3.0840
30820SOL    HW294074   9.619   0.158   8.443 -0.1079 -0.0316  0.7736
30821SOL     OW94075   9.456   3.396   8.733 -0.2109  0.3220  0.0680
30821SOL    HW194076   9.513   3.371   8.661 -0.8059 -2.3532  0.4291
30821SOL    HW294077   9.507   3.459   8.783  1.5746 -0.3794 -0.7926
30822SOL     OW94078   2.778   2.274   9.607  0.7445  0.3468  0.6086
30822SOL    HW194079   2.862   2.273   9.562  0.4066  1.7000 -0.1089
30822SOL    HW294080   2.778   2.357   9.655 -1.1282  1.5836 -1.3385
30823SOL     OW94081   3.667   4.310   1.515  0.1187 -0.2440  0.4837
30823SOL    HW194082   3.681   4.329   1.422  1.5705 -1.9203  0.3243
30823SOL    HW294083   3.647   4.217   1.518 -1.9357  0.1681  1.7039
30824SOL     OW94084   3.806   6.003   2.461 -0.6575 -0.7050 -0.0398
30824SOL    HW194085   3.758   6.084   2.443 -0.6624 -0.7794 -0.3595
30824SOL    HW294086   3.898   6.028   2.456 -0.6406 -0.3261  1.6039
30825SOL     OW94087   3.689   4.414   9.337  0.1369  0.2955  0.6448
30825SOL    HW194088   3.654   4.494   9.298  1.6524  1.3319  1.3042
30825SOL    HW294089   3.642   4.406   9.420  1.8820  2.1216  1.9025
30826SOL     OW94090   8.455   4.025   9.382  0.0253 -0.5291  0.0141
30826SOL    HW194091   8.363   4.030   9.408 -0.2651 -1.1548 -0.8694
30826SOL    HW294092   8.467   3.934   9.353  1.6716 -1.3602  2.8699
30827SOL     OW94093   0.709   9.344   5.276 -0.4796  0.0570  0.2560
30827SOL    HW194094   0.685   9.278   5.341  1.5914  0.6634  1.7595
30827SOL    HW294095   0.800   9.367   5.298  0.4418  0.1028 -3.0348
30828SOL     OW94096   6.100   7.561   8.434  0.3529 -0.1519  0.1614
30828SOL    HW194097   6.056   7.562   8.348 -0.0177 -0.9335  0.3328
30828SOL    HW294098   6.051   7.625   8.486  1.8693  1.9076 -0.8071
30829SOL     OW94099   0.099   4.708   6.552  1.5024 -0.2647 -0.0850
30829SOL    HW194100   0.195   4.698   6.550  1.6723  0.0406  2.5932
30829SOL    HW294101   0.084   4.780   6.614 -0.4817 -1.0975  0.4943
30830SOL     OW94102   6.103   0.995   4.384  0.2607  0.0812  0.0564
30830SOL    HW194103   6.129   1.047   4.308 -0.6177  0.2430 -0.1479
30830SOL    HW294104   6.166   1.019   4.452  0.3246  0.8586 -0.2606
30831SOL     OW94105   5.542   9.105   1.762 -0.0947 -0.1457  0.2839
30831SOL    HW194106   5.474   9.052   1.720 -0.0119  0.4414 -0.6166
30831SOL    HW294107   5.565   9.171   1.697  0.4013  0.4854  1.0700
30832SOL     OW94108   3.167   7.269   3.617  0.4146 -0.5276  0.3820
30832SOL    HW194109   3.225   7.317   3.676  1.2639 -0.6656 -0.3072
30832SOL    HW294110   3.172   7.319   3.535 -2.1499  0.7137  0.8843
30833SOL     OW94111   0.525   5.739   6.814  0.4743 -0.4944 -0.5741
30833SOL    HW194112   0.434   5.717   6.833  0.8227 -0.8890  0.7557
30833SOL    HW294113   0.520   5.816   6.757 -0.6789 -0.3451 -0.2922
30834SOL     OW94114   8.591   8.207   7.818 -0.0422 -0.2716  0.2292
30834SOL    HW194115   8.620   8.182   7.731 -2.0012 -2.2736  0.0613
30834SOL    HW294116   8.531   8.137   7.845 -1.2511  1.4065  2.2587
30835SOL     OW94117   5.531   5.828   9.091  0.4742 -0.2127 -0.7632
30835SOL    HW194118   5.595   5.768   9.053  1.4107 -0.2434  0.7702
30835SOL    HW294119   5.509   5.888   9.020  3.1937  0.6007 -1.0289
30836SOL     OW94120   6.655   7.039   8.805 -0.7667 -0.5270 -0.0045
30836SOL    HW194121   6.686   6.961   8.758 -0.1106 -0.0104 -0.4482
30836SOL    HW294122   6.718   7.050   8.876 -0.0952  0.3312 -0.7082
30837SOL     OW94123   6.618   3.980   3.764  0.9638 -0.0876  0.5984
30837SOL    HW194124   6.566   3.922   3.708  1.0056 -0.1842  0.6594
30837SOL    HW294125   6.693   4.005   3.709 -0.1935  1.7405 -0.2534
30838SOL     OW94126   4.509   6.074   6.923 -0.2144 -0.2150  0.0174
30838SOL    HW194127   4.509   6.070   7.018  0.3128  1.9585  0.1666
30838SOL    HW294128   4.590   6.119   6.900 -1.6176  1.8893 -1.2389
30839SOL     OW94129   9.005   6.831   3.843  0.1213 -0.3314 -0.3951
30839SOL    HW194130   8.989   6.738   3.827  1.2783 -0.6546  0.1948
30839SOL    HW294131   9.097   6.835   3.868  0.1089  0.9942 -0.5038
30840SOL     OW94132   9.207   7.847   6.114  0.4949 -0.3725  0.3075
30840SOL    HW194133   9.179   7.912   6.050  0.8053  0.8721  1.3883
30840SOL    HW294134   9.138   7.781   6.112  0.1100  0.0272 -0.7412
30841SOL     OW94135   7.447   1.755   9.650 -0.2990 -0.0443 -0.1302
30841SOL    HW194136   7.376   1.764   9.713 -2.2100 -0.4389 -2.1300
30841SOL    HW294137   7.519   1.805   9.689 -1.5796  0.2306  2.0553
30842SOL     OW94138   4.971   3.846   3.173 -0.0610 -0.3846  0.2912
30842SOL    HW194139   5.045   3.827   3.231  1.0020 -1.8943 -1.4752
30842SOL    HW294140   4.920   3.766   3.172  0.2848 -0.6264 -1.2919
30843SOL     OW94141   4.151   1.128   4.489 -0.6980  0.4523  0.3400
30843SOL    HW194142   4.139   1.107   4.396  1.9468  1.6111 -0.3468
30843SOL    HW294143   4.178   1.045   4.529  1.2781  0.5819 -0.6213
30844SOL     OW94144   7.354   7.949   0.914 -0.5118 -0.5189 -0.1695
30844SOL    HW194145   7.420   8.012   0.884  0.3844 -0.9371  0.8332
30844SOL    HW294146   7.405   7.879   0.953 -1.4261 -2.4349 -2.1887
30845SOL     OW94147   6.371   9.592   0.704  0.6311 -0.5507 -0.3261
30845SOL    HW194148   6.413   9.571   0.620 -3.4634 -2.6182 -2.1728
30845SOL    HW294149   6.288   9.634   0.679  0.1271  0.5262  2.8060
30846SOL     OW94150   4.147   1.729   8.587 -0.0742  0.2407  0.0407
30846SOL    HW194151   4.166   1.671   8.661  2.1157  0.2446 -0.4358
30846SOL    HW294152   4.100   1.674   8.524 -0.6100 -0.1759  0.7923
30847SOL     OW94153   4.559   1.698   5.041  0.8677  0.3169 -0.4423
30847SOL    HW194154   4.548   1.632   5.110 -1.4098  0.2795 -0.7650
30847SOL    HW294155   4.604   1.770   5.084 -0.1797  0.1487  1.0300
30848SOL     OW94156   7.809   7.389   7.682  0.0981 -0.0928 -0.0432
30848SOL    HW194157   7.814   7.425   7.594  1.1256 -1.0633 -0.4018
30848SOL    HW294158   7.734   7.329   7.679  1.6407 -2.0972 -1.0564
30849SOL     OW94159   8.347   6.229   1.614  0.1036  0.0922 -0.4522
30849SOL    HW194160   8.343   6.206   1.521 -0.6246 -0.6278 -0.2432
30849SOL    HW294161   8.284   6.172   1.656  0.0538  0.7728  0.4241
30850SOL     OW94162   1.376   8.961   0.673  1.0202  0.4857 -0.6464
30850SOL    HW194163   1.449   8.958   0.611  0.5768 -0.4569 -1.1477
30850SOL    HW294164   1.396   8.892   0.737  0.2939 -0.1735 -1.1164
30851SOL     OW94165   6.898   5.399   5.364  0.2503  0.5341  0.3482
30851SOL    HW194166   6.908   5.407   5.459  0.5453  2.2284  0.2159
30851SOL    HW294167   6.974   5.443   5.327  0.7857 -1.1732 -0.7142
30852SOL     OW94168   3.534   8.988   7.465  0.6483 -0.2157  0.5000
30852SOL    HW194169   3.449   8.947   7.453 -0.0695  1.3748 -0.0574
30852SOL    HW294170   3.519   9.058   7.527  0.9255  1.7683 -1.5334
30853SOL     OW94171   8.516   8.379   1.827 -0.2308  0.1270 -0.0571
30853SOL    HW194172   8.436   8.335   1.856  0.0080 -0.3073 -0.0434
30853SOL    HW294173   8.510   8.467   1.864 -1.6215  0.7541 -1.6783
30854SOL     OW94174   4.840   3.208   8.910 -0.4459 -0.2537  0.1891
30854SOL    HW194175   4.753   3.239   8.886 -0.5125 -0.9202 -0.4495
30854SOL    HW294176   4.889   3.208   8.827 -0.5599 -2.2012  0.0791
30855SOL     OW94177   1.158   1.910   9.554 -0.6166 -0.0698 -0.2242
30855SOL    HW194178   1.116   1.966   9.619  0.1933 -0.3842  0.5946
30855SOL    HW294179   1.249   1.905   9.582 -0.2220 -0.1243 -1.4622
30856SOL     OW94180   8.862   8.086   7.605 -0.3953 -0.4436 -0.0053
30856SOL    HW194181   8.942   8.056   7.563  0.5298 -1.2349  2.2064
30856SOL    HW294182   8.857   8.179   7.582 -0.0662 -0.8602 -1.9616
30857SOL     OW94183   3.410   1.742   5.193  0.9902  0.8022 -0.3398
30857SOL    HW194184   3.365   1.689   5.258  2.5417 -0.0437  0.0869
30857SOL    HW294185   3.340   1.792   5.151  0.0517  2.4384  2.8721
30858SOL     OW94186   8.859   8.101   6.352  0.1613  0.4081  0.1962
30858SOL    HW194187   8.889   8.074   6.265 -0.2166  1.1802 -0.1819
30858SOL    HW294188   8.895   8.035   6.411  0.6380  0.0157 -0.5167
30859SOL     OW94189   4.069   1.030   3.947 -0.1625 -0.7290 -0.0220
30859SOL    HW194190   4.106   0.950   3.909 -2.6883 -0.9666 -2.2412
30859SOL    HW294191   4.131   1.099   3.925  1.0534 -1.7410  0.1615
30860SOL     OW94192   5.993   2.478   6.947 -0.2708 -0.3939 -0.4725
30860SOL    HW194193   5.965   2.544   7.010 -0.5896 -0.1769 -0.8370
30860SOL    HW294194   6.085   2.462   6.969 -0.8660 -1.7000  1.2439
30861SOL     OW94195   7.153   6.396   6.580  0.5507 -0.4490 -0.7612
30861SOL    HW194196   7.086   6.357   6.523  1.4464 -1.1633 -1.3700
30861SOL    HW294197   7.187   6.321   6.629 -0.5202  0.2260  1.0849
30862SOL     OW94198   3.945   4.762   2.924 -0.0840  0.2751 -0.3733
30862SOL    HW194199   4.015   4.783   2.985  1.8024 -2.5294 -1.3766
30862SOL    HW294200   3.891   4.698   2.970 -0.9957  1.1104 -0.2529
30863SOL     OW94201   6.844   0.036   8.219 -0.5309 -0.2425  0.5606
30863SOL    HW194202   6.773   0.100   8.213  0.4785  0.8083 -0.7161
30863SOL    HW294203   6.800  -0.048   8.207 -1.6168  0.3402  0.2413
30864SOL     OW94204   5.727   3.532   7.478 -0.4509 -0.0307 -0.2703
30864SOL    HW194205   5.688   3.453   7.440  0.0631 -0.5409  0.2547
30864SOL    HW294206   5.689   3.538   7.565 -0.6636  0.4361 -0.3912
30865SOL     OW94207   3.909   5.124   5.734 -0.9466  0.5348  0.1963
30865SOL    HW194208   3.886   5.086   5.819  2.3763  0.4598  1.2118
30865SOL    HW294209   3.944   5.211   5.756  2.2511 -0.4101 -0.7139
30866SOL     OW94210   1.596   5.498   1.988  0.2825  0.6383  0.2320
30866SOL    HW194211   1.514   5.497   1.938  1.0201  0.1421 -0.9979
30866SOL    HW294212   1.634   5.584   1.969 -0.6254  1.4863  1.9910
30867SOL     OW94213   7.802   6.796   2.974 -0.3241  0.3366  0.5921
30867SOL    HW194214   7.813   6.829   2.885  1.3768  0.6809  0.8879
30867SOL    HW294215   7.890   6.771   3.001 -0.8671 -0.1098  2.0557
30868SOL     OW94216   8.955   5.626   2.142 -0.0829  0.3229 -0.9477
30868SOL    HW194217   8.880   5.592   2.190  0.3700 -1.7828 -1.6202
30868SOL    HW294218   8.968   5.563   2.070  0.3568  2.3767 -2.7705
30869SOL     OW94219   3.374   6.903   0.494 -0.3770  0.5325 -0.1102
30869SOL    HW194220   3.314   6.976   0.505 -0.9056  0.0060  0.5189
30869SOL    HW294221   3.398   6.877   0.583  0.2275  0.2794 -0.3379
30870SOL     OW94222   1.135   1.536   6.223  0.4308 -0.1787 -1.2219
30870SOL    HW194223   1.115   1.596   6.295 -0.4578 -0.4544 -1.2247
30870SOL    HW294224   1.221   1.500   6.245  0.6322  0.5060 -0.8283
30871SOL     OW94225   5.790   8.791   3.951  0.1670 -0.3314  0.4997
30871SOL    HW194226   5.810   8.870   3.900  0.8568  0.0233  1.2982
30871SOL    HW294227   5.866   8.779   4.008  0.4978 -2.1150 -0.2390
30872SOL     OW94228   8.737   3.894   9.018  0.5218  0.2325 -0.5062
30872SOL    HW194229   8.809   3.883   9.081  1.1521  0.5110 -1.1614
30872SOL    HW294230   8.777   3.874   8.933  0.1227  1.4859 -1.0058
30873SOL     OW94231   1.212   6.167   6.216 -0.4574 -0.0111  0.1421
30873SOL    HW194232   1.253   6.084   6.192 -1.1688  0.0020 -1.1889
30873SOL    HW294233   1.131   6.142   6.261  0.3346 -0.0202  1.6598
30874SOL     OW94234   3.594   3.623   0.061 -0.8946 -0.9609 -0.0698
30874SOL    HW194235   3.627   3.543   0.020 -0.6329 -0.7362 -0.2980
30874SOL    HW294236   3.511   3.641   0.016 -0.3692 -0.4413 -0.8543
30875SOL     OW94237   8.762   4.410   1.818 -0.0701 -0.3593  0.5989
30875SOL    HW194238   8.814   4.461   1.756  0.2299 -0.4664  0.7617
30875SOL    HW294239   8.736   4.332   1.768 -0.7208  0.0565  0.2795
30876SOL     OW94240   1.820   8.438   7.359 -0.4506  0.2535  0.1259
30876SOL    HW194241   1.860   8.485   7.431 -0.3476  3.0460 -1.6102
30876SOL    HW294242   1.888   8.380   7.327  0.3818  0.9303  0.6308
30877SOL     OW94243   6.270   4.001   2.721 -0.1505  0.2299 -0.2767
30877SOL    HW194244   6.281   3.978   2.813 -1.9658  2.0900  0.5021
30877SOL    HW294245   6.349   4.051   2.699 -0.5762  1.5238  0.9390
30878SOL     OW94246   9.802   1.349   1.878 -0.8876  0.1189  0.6291
30878SOL    HW194247   9.890   1.367   1.911 -0.7966  0.6522  0.0977
30878SOL    HW294248   9.803   1.255   1.857  0.2146  0.5303 -1.3251
30879SOL     OW94249   1.763   4.849   4.642  0.2845 -0.1980  0.1935
30879SOL    HW194250   1.721   4.781   4.589 -0.2953  0.5022 -0.2646
30879SOL    HW294251   1.835   4.881   4.588  0.2049 -0.0542  0.1728
30880SOL     OW94252   3.081   0.938   1.755  0.0639 -0.8308  0.5739
30880SOL    HW194253   3.043   0.851   1.758 -0.7940 -0.4486  1.1716
30880SOL    HW294254   3.082   0.961   1.662 -3.1815 -0.0191  0.6213
30881SOL     OW94255   9.168   5.384   2.721  0.2568  0.1210  0.2293
30881SOL    HW194256   9.102   5.431   2.772  0.7151 -0.8270  1.7878
30881SOL    HW294257   9.250   5.429   2.741  0.5839 -0.8195  1.1412
30882SOL     OW94258   6.870   3.195   2.914  0.7923 -0.5100 -0.4537
30882SOL    HW194259   6.943   3.246   2.947  0.9486 -0.6596 -0.5659
30882SOL    HW294260   6.911   3.122   2.868  0.5819 -0.2711 -1.0281
30883SOL     OW94261   4.347   4.328   2.335  0.2143  0.1118 -0.1959
30883SOL    HW194262   4.362   4.249   2.283 -1.5064 -1.0756  0.9666
30883SOL    HW294263   4.324   4.395   2.271 -0.6339 -0.9807 -1.0737
30884SOL     OW94264   0.394   2.994   4.327 -0.3078 -0.0633 -0.5443
30884SOL    HW194265   0.304   2.961   4.329 -0.4611  0.3671 -0.2105
30884SOL    HW294266   0.429   2.973   4.413  0.3535 -1.4134 -1.1126
30885SOL     OW94267   4.668   2.766   2.857  0.3918 -0.3546  0.7111
30885SOL    HW194268   4.684   2.853   2.821 -1.3247 -1.2184 -2.5373
30885SOL    HW294269   4.574   2.765   2.876  0.4605 -1.3981  1.0479
30886SOL     OW94270   5.742   8.207   9.266  0.1628  0.1056 -0.2243
30886SOL    HW194271   5.667   8.162   9.306 -0.1811 -0.0401 -1.0146
30886SOL    HW294272   5.746   8.292   9.310 -0.3638  0.0480 -0.0600
30887SOL     OW94273   1.975   6.443   2.924  0.1554  0.4684  0.3015
30887SOL    HW194274   1.992   6.480   2.837 -4.1453 -0.8984 -1.4077
30887SOL    HW294275   1.939   6.356   2.906  1.3829 -0.8905  3.6663
30888SOL     OW94276   2.792   8.231   3.875 -0.1145 -0.2721 -0.6228
30888SOL    HW194277   2.698   8.249   3.880  0.0601  0.2824  1.2413
30888SOL    HW294278   2.801   8.140   3.903  0.0781  0.3536  1.5044
30889SOL     OW94279   4.014   3.232   0.270 -0.3615  0.5680 -0.0389
30889SOL    HW194280   4.029   3.222   0.364  0.7086  0.9629 -0.1543
30889SOL    HW294281   4.078   3.298   0.242  0.6725 -0.9157 -1.3926
30890SOL     OW94282   5.782   3.027   9.113  0.0906  0.0000  0.1013
30890SOL    HW194283   5.715   3.034   9.046  0.0503  2.0623  0.2997
30890SOL    HW294284   5.833   2.950   9.088 -2.1411 -1.4728 -0.1937
30891SOL     OW94285   6.093   0.271   2.967  0.0612  0.0787  0.2139
30891SOL    HW194286   6.061   0.353   3.002 -1.3831 -0.3064 -0.1450
30891SOL    HW294287   6.047   0.203   3.017 -0.2210 -0.4841 -0.7757
30892SOL     OW94288   3.836   2.564   4.244 -0.7308  0.3181  0.5127
30892SOL    HW194289   3.842   2.474   4.212  0.7270  0.2547  0.8811
30892SOL    HW294290   3.890   2.615   4.184 -0.5981  0.7385  0.9789
30893SOL     OW94291   3.418   9.818   8.308 -0.5118 -0.0883 -0.1528
30893SOL    HW194292   3.382   9.873   8.378 -1.0878 -1.4861  0.6933
30893SOL    HW294293   3.513   9.825   8.319 -0.5905 -0.2679  0.7779
30894SOL     OW94294   0.841   5.830   8.828 -0.2286  0.2475  0.1611
30894SOL    HW194295   0.925   5.811   8.785 -0.7006 -0.9338 -0.2758
30894SOL    HW294296   0.863   5.892   8.897  1.0357 -0.1698  0.1589
30895SOL     OW94297   7.875   6.167   7.157  0.2432 -0.1826 -0.3232
30895SOL    HW194298   7.835   6.112   7.225  1.0408 -0.1962  0.1436
30895SOL    HW294299   7.883   6.109   7.081  1.6652 -0.9371  0.3583
30896SOL     OW94300   1.279   6.780   1.065 -0.3640 -0.2665 -0.1377
30896SOL    HW194301   1.246   6.866   1.039 -0.4097 -0.1737  0.2289
30896SOL    HW294302   1.257   6.772   1.157 -1.6350 -1.2673 -0.5051
30897SOL     OW94303   1.705   2.154   1.556  0.2383  0.0789 -0.5440
30897SOL    HW194304   1.719   2.225   1.618  0.4948  0.0083 -0.5179
30897SOL    HW294305   1.642   2.189   1.493 -1.7668 -0.6024  0.9837
30898SOL     OW94306   8.321   2.040   1.790 -0.2860  0.4189 -0.6008
30898SOL    HW194307   8.245   1.985   1.808  0.2636  0.2414  1.3458
30898SOL    HW294308   8.317   2.108   1.857  0.7159  1.0075 -1.1263
30899SOL     OW94309   9.762   1.703   1.237  0.3208  0.1241  0.1563
30899SOL    HW194310   9.855   1.700   1.212  0.4497 -0.9429  0.6832
30899SOL    HW294311   9.739   1.611   1.253 -1.4289  0.0909 -2.0866
30900SOL     OW94312   8.545   6.673   2.266 -0.5474  0.2164 -0.2135
30900SOL    HW194313   8.628   6.708   2.299 -0.7640 -1.0902  1.8935
30900SOL    HW294314   8.483   6.745   2.273  0.5671  1.5596 -2.8517
30901SOL     OW94315   8.900   0.709   0.202  0.0357  0.1453 -0.5238
30901SOL    HW194316   8.852   0.698   0.120 -0.9495  2.0513 -0.2420
30901SOL    HW294317   8.841   0.677   0.270  0.2143  0.0613 -0.4059
30902SOL     OW94318   2.930   5.100   8.778 -0.4877 -0.3238 -0.1097
30902SOL    HW194319   2.846   5.142   8.758 -0.1691 -0.2536 -1.4367
30902SOL    HW294320   2.985   5.172   8.808 -0.4979 -0.1078 -0.5884
30903SOL     OW94321   2.646   8.320   5.332 -0.0737 -0.3777 -0.0876
30903SOL    HW194322   2.585   8.257   5.293 -0.3212  0.0839 -0.4502
30903SOL    HW294323   2.689   8.362   5.257 -0.0508  0.0236  0.1484
30904SOL     OW94324   3.158   4.512   3.015 -0.7464 -0.3699 -0.0851
30904SOL    HW194325   3.134   4.420   3.021  0.4038 -0.6181  1.0332
30904SOL    HW294326   3.178   4.538   3.105  1.6390  0.2086 -0.7109
30905SOL     OW94327   2.509   4.413   0.428  0.0118  0.1814  0.4242
30905SOL    HW194328   2.528   4.371   0.512  2.4192  0.0646 -0.1097
30905SOL    HW294329   2.588   4.400   0.376 -1.0803  1.0333 -1.5642
30906SOL     OW94330   1.692   4.451   5.966  0.6284 -0.0656  0.0070
30906SOL    HW194331   1.600   4.443   5.940  0.8593 -0.2083 -0.8256
30906SOL    HW294332   1.705   4.544   5.981  0.1904 -0.1194  0.7708
30907SOL     OW94333   8.292   6.774   8.319  0.4597  0.4286  0.0352
30907SOL    HW194334   8.386   6.787   8.307  0.3075  1.8509  0.2943
30907SOL    HW294335   8.282   6.759   8.413  0.5425 -0.9625 -0.1529
30908SOL     OW94336   7.796   4.083   0.423 -0.2405 -0.2882  0.4402
30908SOL    HW194337   7.888   4.062   0.406 -0.6292 -1.2843 -0.5261
30908SOL    HW294338   7.799   4.164   0.474  1.0748  2.0397 -3.0335
30909SOL     OW94339   4.263   7.070   7.550 -0.1301 -0.1539  0.8392
30909SOL    HW194340   4.228   6.981   7.546  0.5167 -0.3948  0.4049
30909SOL    HW294341   4.193   7.124   7.513  0.0757 -0.6717 -0.3612
30910SOL     OW94342   3.880   9.095   0.097 -0.1855  0.5396 -0.5563
30910SOL    HW194343   3.939   9.039   0.047 -0.2911  1.2474 -1.5117
30910SOL    HW294344   3.898   9.074   0.189 -1.7483 -2.6636 -0.8372
30911SOL     OW94345   5.300   4.442   4.051  0.0767  0.0331 -0.3328
30911SOL    HW194346   5.263   4.365   4.094 -0.4021  0.2285 -0.3819
30911SOL    HW294347   5.394   4.438   4.070 -0.3151  1.0718  2.2829
30912SOL     OW94348   2.137   0.925   4.158  0.3225  0.1787  0.5211
30912SOL    HW194349   2.228   0.944   4.136  0.0516  1.6475  0.6078
30912SOL    HW294350   2.087   0.951   4.081 -0.1055  0.1512  0.7831
30913SOL     OW94351   1.592   2.232   3.155 -0.2984 -0.1913 -0.5733
30913SOL    HW194352   1.629   2.205   3.071  0.6796  0.9090 -0.5141
30913SOL    HW294353   1.510   2.276   3.132 -0.4933 -0.6911 -0.8667
30914SOL     OW94354   7.861   5.538   3.914  0.5441 -0.2736  0.3884
30914SOL    HW194355   7.797   5.486   3.962  1.4863 -0.7668  1.1495
30914SOL    HW294356   7.903   5.475   3.854  2.0943 -0.5764  1.7214
30915SOL     OW94357   6.577   1.531   2.273  0.5360 -0.3685 -0.2051
30915SOL    HW194358   6.617   1.457   2.317  2.5974  0.0890 -1.2129
30915SOL    HW294359   6.649   1.593   2.259 -0.9692  1.5339 -0.0276
30916SOL     OW94360   2.528   3.414   5.147 -0.1537  0.1150 -0.0016
30916SOL    HW194361   2.486   3.408   5.233  1.2621 -2.4976  0.5952
30916SOL    HW294362   2.618   3.441   5.166  0.1207 -0.3062 -0.6767
30917SOL     OW94363   2.859   4.506   2.598 -0.5509 -0.1043 -0.2687
30917SOL    HW194364   2.875   4.510   2.692  0.1322  2.3779 -0.4352
30917SOL    HW294365   2.772   4.542   2.587 -0.8000 -0.7775 -0.5886
30918SOL     OW94366   0.398   4.659   6.532  0.0594 -0.1032 -0.2019
30918SOL    HW194367   0.436   4.575   6.559 -1.4446 -0.7869 -0.1017
30918SOL    HW294368   0.425   4.720   6.601  0.4022 -0.7187  0.2229
30919SOL     OW94369   4.276   6.192   8.124  0.1379 -0.6133 -0.0892
30919SOL    HW194370   4.361   6.232   8.103  0.5571  0.4923  3.1848
30919SOL    HW294371   4.297   6.101   8.145  0.5539 -0.3587  0.6596
30920SOL     OW94372   0.647   3.452   5.236 -0.1689  0.0872  0.2445
30920SOL    HW194373   0.579   3.433   5.172 -0.0298  0.1148  0.0857
30920SOL    HW294374   0.713   3.384   5.222 -0.3233 -0.1401  0.6280
30921SOL     OW94375   8.873   2.224   6.285 -0.6969  0.1206  0.0220
30921SOL    HW194376   8.859   2.287   6.215 -1.9391  1.0214  1.0275
30921SOL    HW294377   8.844   2.140   6.248  0.3722  0.2344 -1.1129
30922SOL     OW94378   1.630   4.290   6.202  0.1811  0.2118  0.0441
30922SOL    HW194379   1.661   4.342   6.276  1.7952 -0.7067  0.0694
30922SOL    HW294380   1.620   4.354   6.131 -1.0226  1.0407  0.9192
30923SOL     OW94381   1.012   4.029   8.562  0.0022 -0.0823 -0.0611
30923SOL    HW194382   0.920   4.058   8.564  0.5210  1.6308  1.4988
30923SOL    HW294383   1.044   4.055   8.476 -1.0044 -0.9290 -0.7223
30924SOL     OW94384   4.526   2.909   5.081 -0.0989 -0.4225  0.0538
30924SOL    HW194385   4.451   2.938   5.132  0.2374 -1.0106  0.9057
30924SOL    HW294386   4.517   2.813   5.077  0.5422 -0.4878  0.0603
30925SOL     OW94387   4.973   4.427   4.455  0.5284 -0.1203 -0.9477
30925SOL    HW194388   4.887   4.392   4.481  1.7456 -1.3583  1.7511
30925SOL    HW294389   5.015   4.356   4.408  0.5650  0.0421 -1.1632
30926SOL     OW94390   5.427   0.289   5.639  0.1459  0.3641 -0.4283
30926SOL    HW194391   5.434   0.384   5.653  0.1961  0.7415 -2.6644
30926SOL    HW294392   5.489   0.270   5.569 -1.2293 -0.9743 -1.3709
30927SOL     OW94393   9.110   1.909   8.240 -0.6043 -0.4026 -0.0504
30927SOL    HW194394   9.124   1.914   8.334  1.3316 -1.4008 -0.2295
30927SOL    HW294395   9.064   1.826   8.227 -1.5265  0.0794  0.0516
30928SOL     OW94396   5.337   3.326   8.230 -0.0676  0.6739  0.0602
30928SOL    HW194397   5.427   3.315   8.261  0.2843 -0.5025 -1.2775
30928SOL    HW294398   5.284   3.274   8.290  0.1570  1.1357  0.6764
30929SOL     OW94399   6.327   1.649   7.728  0.1553 -0.0223  0.5229
30929SOL    HW194400   6.336   1.745   7.729 -0.2418  0.0171  1.2967
30929SOL    HW294401   6.253   1.633   7.670  0.6840  0.0904 -0.1929
30930SOL     OW94402   7.536   1.749   4.470  0.4670  0.2420  0.1281
30930SOL    HW194403   7.595   1.815   4.433  0.6129 -0.1697 -0.3715
30930SOL    HW294404   7.573   1.665   4.444 -1.3841 -0.0342 -1.8867
30931SOL     OW94405   4.738   0.584   4.520 -0.3462  0.3551 -0.3092
30931SOL    HW194406   4.759   0.535   4.441 -0.6095  0.2422 -0.3112
30931SOL    HW294407   4.808   0.649   4.527 -1.2129  1.4868 -1.5876
30932SOL     OW94408   8.837   3.463   2.044 -0.1220 -0.2016  0.2449
30932SOL    HW194409   8.835   3.395   1.976  1.3828  0.4443 -0.4991
30932SOL    HW294410   8.746   3.473   2.070 -0.8672 -0.0527 -2.1445
30933SOL     OW94411   4.274   7.129   9.797 -0.2003  0.0329 -0.1604
30933SOL    HW194412   4.292   7.049   9.747 -1.8506 -0.2661 -0.3297
30933SOL    HW294413   4.323   7.197   9.751 -0.5147 -0.5056 -1.3409
30934SOL     OW94414   7.367   6.178   5.239  0.1467  0.4743  0.1186
30934SOL    HW194415   7.371   6.118   5.314 -2.0483 -0.3754 -0.3920
30934SOL    HW294416   7.390   6.124   5.164  0.7622  0.9482 -0.0456
30935SOL     OW94417   1.471   7.107   1.810  0.0394  0.0950  0.0067
30935SOL    HW194418   1.542   7.047   1.789 -0.1386  0.4611 -1.8009
30935SOL    HW294419   1.391   7.057   1.792 -0.1224  0.5687 -0.6132
30936SOL     OW94420   5.304   3.579   2.703  1.3087 -0.5107 -0.8058
30936SOL    HW194421   5.213   3.552   2.713  0.5462  1.2580 -2.2511
30936SOL    HW294422   5.347   3.505   2.661  0.1332 -0.7983 -1.5643
30937SOL     OW94423   3.199   5.841   7.642  0.4388 -0.2090  0.3917
30937SOL    HW194424   3.139   5.915   7.653 -0.1081 -0.6715  0.5543
30937SOL    HW294425   3.237   5.854   7.555 -0.5914 -0.3986 -0.1071
30938SOL     OW94426   4.196   6.056   7.007 -0.2030 -0.6389  0.0364
30938SOL    HW194427   4.152   6.072   6.924 -2.1721  0.3394  1.1961
30938SOL    HW294428   4.288   6.079   6.991 -0.5823 -0.2875 -1.7789
30939SOL     OW94429   6.158   5.236   9.171  0.3376  0.1805 -0.0205
30939SOL    HW194430   6.102   5.159   9.157  0.6952 -0.3817  1.4278
30939SOL    HW294431   6.229   5.226   9.108 -0.1537 -0.1381 -0.5311
30940SOL     OW94432   3.717   4.119   0.914 -0.3495  0.1262  0.1623
30940SOL    HW194433   3.682   4.030   0.920 -0.6826  0.1518 -1.2219
30940SOL    HW294434   3.730   4.145   1.006 -0.4388 -1.2570  0.5959
30941SOL     OW94435   0.565   7.834   7.444  0.5423 -0.3780 -0.1452
30941SOL    HW194436   0.491   7.886   7.474 -0.1976 -0.3140 -1.9614
30941SOL    HW294437   0.584   7.775   7.517 -1.6011 -0.7141  0.2010
30942SOL     OW94438   7.621   5.385   9.669 -0.2512  0.7620 -0.0153
30942SOL    HW194439   7.713   5.406   9.680 -0.1177  1.0165 -1.4139
30942SOL    HW294440   7.598   5.334   9.746  1.3919 -0.4374 -0.2678
30943SOL     OW94441   6.205   4.577   4.666 -0.3910  0.3308  0.2255
30943SOL    HW194442   6.214   4.579   4.571  0.8395  0.6264  0.3199
30943SOL    HW294443   6.287   4.616   4.698 -0.2241 -0.9326  1.4202
30944SOL     OW94444   2.816   6.580   8.878 -0.7341  0.0456  0.0201
30944SOL    HW194445   2.834   6.649   8.815 -0.2882  0.7618  0.9144
30944SOL    HW294446   2.844   6.616   8.962 -0.6692 -1.1472  0.5310
30945SOL     OW94447   4.552   8.561   4.622  0.5499 -0.1574  0.0482
30945SOL    HW194448   4.487   8.494   4.641 -0.6103  0.4284 -1.6428
30945SOL    HW294449   4.545   8.576   4.528  2.1610  0.9383  0.0515
30946SOL     OW94450   0.844   1.867   3.679  0.8957 -0.1945  0.0032
30946SOL    HW194451   0.803   1.953   3.665 -1.4722 -1.0873  1.0009
30946SOL    HW294452   0.859   1.834   3.590  2.3623  1.4244 -0.4143
30947SOL     OW94453   5.246   4.035   3.034  0.1369 -0.2158  0.3972
30947SOL    HW194454   5.290   3.950   3.032  2.2061  0.7847 -1.9737
30947SOL    HW294455   5.301   4.090   3.090 -0.7085 -0.1544  1.2003
30948SOL     OW94456   1.955   9.194   8.450  0.5783 -0.0773  0.1768
30948SOL    HW194457   1.964   9.193   8.546  0.4707 -0.2899  0.1870
30948SOL    HW294458   1.863   9.213   8.435  0.5808 -0.1104  0.1182
30949SOL     OW94459   7.379   8.928   7.922  0.1373  0.1117  0.3845
30949SOL    HW194460   7.373   8.865   7.993 -1.3480 -0.3426 -0.1195
30949SOL    HW294461   7.416   8.879   7.848 -1.1958 -0.2606 -0.0659
30950SOL     OW94462   1.317   6.200   0.677 -0.1777  0.0084  0.6729
30950SOL    HW194463   1.305   6.109   0.651  0.7638  0.1100 -0.1838
30950SOL    HW294464   1.229   6.234   0.692 -0.5375 -1.0036  0.8939
30951NA      NA94465   3.352   0.356   7.153 -0.1417  0.1708 -0.6233
30952NA      NA94466   2.158   7.343   0.442 -0.2477  0.0926  0.0483
30953NA      NA94467   1.933   0.933   0.484 -0.0207  0.1550 -0.0669
30954NA      NA94468   1.772   4.316   1.641 -0.3884 -0.3727 -0.4456
30955NA      NA94469   6.771   2.927   4.901  0.5531 -0.2277 -0.6964
30956NA      NA94470   2.466   3.090   1.246  0.1521 -0.0325  0.2089
30957NA      NA94471   6.557   5.115   6.583 -0.4503  0.1463 -0.1064
30958NA      NA94472   1.818   3.777   2.052 -0.2587  0.1713  0.6739
30959NA      NA94473   0.350   2.349   2.157  0.0808 -0.2069  0.1068
30960NA      NA94474   3.196   5.814   0.175 -0.2620  0.6304  0.1679
30961NA      NA94475   6.534   3.009   8.848 -0.0098  0.3396 -0.0644
30962NA      NA94476   1.712   4.088   1.829 -0.2341  0.0152  0.0549
30963NA      NA94477   8.582   7.846   4.832 -0.3834 -0.2674  0.5387
30964NA      NA94478   2.250   1.433   2.103 -0.0538  0.4058 -0.0847
30965NA      NA94479   1.501   3.342   2.077 -0.0184 -0.3770 -0.4695
30966NA      NA94480   3.404   3.133   1.765 -0.1528  0.0646 -0.1173
30967NA      NA94481   8.544   0.168   0.160 -0.5333 -0.0361  0.6856
30968NA      NA94482   2.725   2.399   6.516  0.2461  0.0357 -0.4786
30969NA      NA94483   7.085   2.686   9.507  0.0222  0.0615 -0.1286
30970NA      NA94484   8.677   1.753   1.933 -0.3776 -0.0194  0.3433
30971NA      NA94485   1.992   1.519   2.302  0.1629  0.4576 -0.2742
30972NA      NA94486   0.889   2.629   9.761 -0.2908  0.0280  0.2261
30973NA      NA94487   1.979   1.046   1.335 -0.4227  0.4982 -0.2464
30974NA      NA94488   1.915   1.805   1.309  0.3905 -0.0940  0.1802
30975NA      NA94489   5.386   5.535   7.680 -0.3478 -0.0743  0.3878
30976NA      NA94490   3.436   3.404   1.532 -0.0306 -0.1799  0.3793
30977NA      NA94491   4.862   5.658   9.436 -0.0996 -0.0076 -0.3288
30978NA      NA94492   2.808   8.399   6.726  0.4943 -0.0051 -0.1187
30979NA      NA94493   0.230   9.145   9.168  0.0531  0.4775 -0.2466
30980NA      NA94494   1.872   0.886   0.858  0.0079 -0.0935 -0.1318
30981NA      NA94495   1.210   1.661   0.652  0.1802  0.6405 -0.0933
30982NA      NA94496   0.507   2.900   1.861  0.5850  0.2672  0.0759
30983NA      NA94497   9.589   7.874   4.712 -0.0036 -0.3575 -0.4289
30984NA      NA94498   0.158   5.318   5.696 -0.1615  0.3005  0.1000
30985NA      NA94499   2.859   3.316   6.349 -0.2052  0.6375 -0.0525
30986NA      NA94500   1.722   3.827   1.751 -0.8181 -0.1027  0.0720
30987NA      NA94501   1.057   1.657   0.914 -0.4474  0.2052  0.6673
30988NA      NA94502   8.664   6.292   6.026 -0.1293  0.0852  0.6724
30989NA      NA94503   1.377   8.353   7.339 -0.0336 -0.1414 -0.0803
30990NA      NA94504   2.853   0.009   4.754  0.4222  0.1051  0.0541
30991NA      NA94505   2.357   2.968   1.952  0.3864 -0.0027  0.6950
30992NA      NA94506   9.052   3.098   9.441 -0.4382  0.0476  0.4686
30993NA      NA94507   5.507   7.910   8.336 -0.7545 -0.1997  0.1621
30994NA      NA94508   2.743   3.968   7.313  0.3804 -0.2710  0.1159
30995NA      NA94509   9.338   2.849   9.811 -0.3127  0.2488  0.0133
30996NA      NA94510   9.111   3.191   2.707  0.3845  0.3349 -0.3615
30997NA      NA94511   1.739   8.426   0.975  0.3281  0.0691 -0.4299
30998NA      NA94512   2.250   3.009   1.462 -0.0027 -0.2548  0.3204
30999NA      NA94513   9.014   7.567   0.524  0.2119  0.0544 -0.5509
31000NA      NA94514   0.158   2.852   9.217  0.2520 -0.6543  0.2171
31001NA      NA94515   1.243   2.419   9.671 -0.5481  0.0544  0.0797
31002NA      NA94516   5.926   9.025   6.387  0.0386 -0.2167 -0.2454
31003NA      NA94517   1.974   3.782   1.721  0.1035  0.0770 -0.0189
31004NA      NA94518   0.647   3.990   1.434 -0.4842 -0.2318  0.0513
31005NA      NA94519   0.830   3.973   1.203 -0.3569 -0.2388  0.0463
31006NA      NA94520   1.092   2.696   9.505  0.3445  0.4059 -0.3237
31007NA      NA94521   5.795   8.221   3.502 -0.5141  0.1823  0.0900
31008NA      NA94522   8.060   8.190   8.016 -0.1020 -0.0094 -0.0151
31009NA      NA94523   0.860   4.504   9.635  0.1707 -0.0986  0.1729
31010NA      NA94524   0.293   3.029   1.684  0.3120 -0.5432  0.2199
31011NA      NA94525   1.125   6.298   3.827  0.0578 -0.4987 -0.3547
31012NA      NA94526   1.391   3.453   9.397 -0.3420 -0.0137  0.2087
31013NA      NA94527   2.145   0.828   1.431  0.2770  0.2277  0.1916
31014NA      NA94528   1.096   4.962   5.125  0.6874 -0.1490 -0.5660
31015NA      NA94529   9.447   8.735   9.489  0.0359 -0.5145  0.6713
31016NA      NA94530   4.725   2.624   2.504  0.1851 -0.4889 -0.8096
31017NA      NA94531   2.404   2.583   1.953  0.1107 -0.6920  0.2605
31018NA      NA94532   2.511   3.031   1.717  0.2146  0.2289  0.4808
31019NA      NA94533   7.818   2.891   7.913  0.3999  0.3215 -0.2823
31020NA      NA94534   7.476   4.517   9.329  0.1023 -0.1406 -0.4010
31021NA      NA94535   4.037   7.286   0.700  0.0448  0.2183  0.2939
31022NA      NA94536   1.935   1.364   1.468  0.0732 -0.3754  0.7148
31023NA      NA94537   5.637   8.748   4.827 -0.1706 -0.3627  0.4641
31024NA      NA94538   0.142   3.717   1.556  0.5436  0.5044  0.4107
31025NA      NA94539   3.192   9.729   7.211  0.0640 -0.4203  0.2610
31026NA      NA94540   1.756   3.470   2.180  0.3699  0.1363  0.0250
31027NA      NA94541   0.377   8.124   2.891 -0.5437 -0.8645 -0.4360
31028NA      NA94542   2.154   1.304   1.280  0.1323 -0.3978  0.2975
31029NA      NA94543   2.425   3.245   1.492 -0.0624 -0.5554 -0.0707
31030NA      NA94544   1.215   4.349   1.518 -0.1041 -0.5035  0.2374
31031NA      NA94545   2.116   6.369   6.822 -0.2055  0.1459  0.1554
31032NA      NA94546   9.117   3.317   9.651  0.0175  0.4760  0.4135
31033NA      NA94547   1.221   3.413   9.153 -0.0381  0.7965  0.6542
31034NA      NA94548   1.112   3.940   8.742 -0.2062  0.2764  0.1159
31035NA      NA94549   3.911   4.751   2.723 -0.0209  0.0523 -0.4714
31036NA      NA94550   4.764   6.714   9.577 -0.7567 -0.1897 -0.4682
31037NA      NA94551   2.547   1.391   2.102  0.1539 -0.5113  0.0319
31038NA      NA94552   1.474   4.332   1.701  0.0969  0.1667 -0.0334
31039NA      NA94553   9.575   1.942   3.189  0.3328 -0.0592  0.3543
31040NA      NA94554   1.720   1.546   1.320  0.5789 -0.1496 -0.2654
31041NA      NA94555   9.555   3.538   1.997 -0.3033 -0.2742 -0.9672
31042NA      NA94556   0.713   2.905   1.630 -0.1599  0.0130 -0.1753
31043NA      NA94557   3.230   4.651   2.855 -0.1027 -0.3150 -0.6227
31044NA      NA94558   3.690   9.625   2.625  0.1592  0.2856 -0.1474
31045NA      NA94559   9.701   2.627   9.474  0.0570  0.3645 -0.0191
31046NA      NA94560   3.604   1.939   9.004  0.8532  0.1407 -0.0105
31047NA      NA94561   1.139   3.706   9.015 -0.3857 -0.1986  0.2447
31048NA      NA94562   6.599   3.267   1.494 -0.4279 -0.2761  0.0249
31049NA      NA94563   7.374   7.411   1.786  0.1268 -0.5271 -0.0279
31050NA      NA94564   1.623   1.886   7.965  0.0284 -0.1442 -0.1647
31051NA      NA94565   2.127   6.223   5.307 -0.1855  0.0039 -0.7413
31052NA      NA94566   2.866   7.395   6.533  0.0395 -0.2157 -0.3063
31053NA      NA94567   4.388   5.590   5.384  0.3431 -0.2718 -0.0937
31054NA      NA94568   7.061   3.706   6.614 -0.3090 -0.2425 -0.1828
31055NA      NA94569   0.355   3.888   1.384  0.0761  0.2607  0.1226
31056NA      NA94570   4.361   0.265   4.333  0.9040  0.5160  0.5102
31057NA      NA94571   2.920   3.677   0.202 -0.6549  0.2840  0.2186
31058NA      NA94572   2.687   0.361   1.210  0.2320  0.0015  0.2389
31059NA      NA94573   1.190   4.338   0.654  0.4471 -0.0612 -0.5020
31060NA      NA94574   1.207   3.693   9.310  0.9858 -0.5296 -0.2447
31061NA      NA94575   3.560   7.996   2.621  0.1666  0.1026  0.1199
31062NA      NA94576   5.731   9.292   5.811  0.6807 -0.2054 -0.0341
31063NA      NA94577   0.919   4.343   0.548 -0.2384  0.0005 -0.0183
31064NA      NA94578   0.936   4.557   0.785 -0.2291 -0.4818 -0.2706
31065NA      NA94579   4.889   5.022   9.288  0.3762  0.0213 -0.3129
31066NA      NA94580   1.015   4.206   9.686 -0.1816  0.0396  0.2066
31067NA      NA94581   0.453   2.760   1.615 -0.1909 -0.2238 -0.9048
31068NA      NA94582   1.721   7.013   0.232  0.1409  0.3003  0.3509
31069NA      NA94583   7.080   3.759   4.644 -0.1331 -0.4846 -0.7131
31070NA      NA94584   1.685   1.128   8.649 -0.2718 -0.2177  0.0596
31071NA      NA94585   9.842   2.959   1.658  0.1858 -0.1908 -0.1667
31072NA      NA94586   0.648   3.848   5.027  0.0137 -0.4067  0.1750
31073NA      NA94587   0.335   2.015   2.061  0.0698 -0.0785 -0.0596
31074NA      NA94588   0.642   2.734   9.722 -0.0993 -0.1912  0.0724
31075NA      NA94589   2.493   1.266   6.741 -0.0604  0.2597 -0.3305
31076NA      NA94590   4.895   2.261   2.065 -0.3256  0.3376 -0.4786
31077NA      NA94591   2.181   9.146   4.495  0.2358  0.5872  0.1437
31078NA      NA94592   0.619   4.439   0.453  0.3832 -0.0401 -0.0547
31079NA      NA94593   2.001   1.158   1.069 -0.0708 -0.0004  0.5880
31080NA      NA94594   4.786   0.509   6.241  0.4914 -0.1987 -0.5428
31081NA      NA94595   2.341   2.789   1.706 -0.3837  0.3893 -0.2688
31082NA      NA94596   2.107   1.742   1.099  0.3788  0.0734 -0.7215
31083NA      NA94597   1.949   1.497   1.200 -0.0698  0.0314  0.2261
31084NA      NA94598   5.761   4.895   4.462  0.0168  0.4930 -0.0542
31085NA      NA94599   4.842   2.063   5.999 -0.1426 -0.5267  0.1604
31086NA      NA94600   0.558   8.494   0.018  0.2615  0.2537 -0.7518
31087NA      NA94601   1.185   2.687   9.804 -0.3409 -0.0581  0.3438
31088NA      NA94602   0.051   2.544   9.262 -0.2086  0.5531 -0.3395
31089NA      NA94603   5.960   3.167   4.407  0.2476  0.3256  0.0779
31090NA      NA94604   6.564   8.696   1.756  0.0775  0.7480  0.3827
31091NA      NA94605   7.404   2.915   8.245  0.1760 -0.5361  0.1038
31092NA      NA94606   1.910   6.662   8.947 -0.0624  0.1565  0.0280
31093NA      NA94607   0.256   2.404   9.510 -0.3466 -0.1697  0.4983
31094NA      NA94608   0.915   4.335   1.292  0.7072  0.1609  0.0169
31095NA      NA94609   0.970   4.254   0.847 -0.3066  0.0130 -0.4949
31096NA      NA94610   7.494   5.242   7.110  0.4183  0.2199  0.4892
31097NA      NA94611   0.776   5.251   3.970  0.3919  0.1597  0.0331
31098NA      NA94612   4.460   7.062   7.387 -0.0018  0.4134 -0.0340
31099NA      NA94613   7.963   1.490   8.967  0.2845  0.6065  0.0333
31100NA      NA94614   1.786   4.597   1.603 -0.2464 -0.2405  0.2422
31101NA      NA94615   0.577   2.469   9.713  0.1044 -0.0357  0.1527
31102CL      CL94616   0.685   0.687   8.919 -0.1257 -0.3631  0.1337
31103CL      CL94617   5.024   3.766   2.104 -0.0343  0.0879 -0.0194
31104CL      CL94618   4.216   9.744   4.979  0.2752  0.2458 -0.3969
31105CL      CL94619   0.376   4.696   1.418  0.1710  0.3161  0.1105
31106CL      CL94620   6.935   9.315   1.696 -0.0118  0.0568  0.0826
31107CL      CL94621   3.029   4.520   6.861  0.3008 -0.6377 -0.1021
31108CL      CL94622   2.136   8.313   1.240  0.1085 -0.0745  0.2241
31109CL      CL94623   2.508   8.293   3.919  0.1216 -0.3561  0.0449
31110CL      CL94624   2.636   0.076   4.803  0.0208  0.5641  0.1233
31111CL      CL94625   7.704   0.238   9.698 -0.1335 -0.1178  0.1713
31112CL      CL94626   2.404   7.686   8.603 -0.0635  0.3538  0.3982
31113CL      CL94627   9.659   1.182   8.027 -0.2404 -0.4225  0.0235
31114CL      CL94628   4.165   5.014   4.996  0.7325  0.0798  0.2430
31115CL      CL94629   0.751   0.817   1.896  0.0616  0.1069  0.2880
31116CL      CL94630   7.399   1.523   3.361  0.4623  0.4711 -0.0222
31117CL      CL94631   4.429   2.815   0.249  0.1269  0.0513 -0.0827
31118CL      CL94632   1.779   5.554   5.345  0.1161  0.0440 -0.0628
31119CL      CL94633   5.225   2.830   5.062 -0.0587  0.1192 -0.5655
31120CL      CL94634   2.172   3.592   2.379 -0.0604  0.0085 -0.0721
31121CL      CL94635   8.493   0.436   1.442  0.2144  0.2728  0.0511
31122CL      CL94636   5.522   6.715   3.977  0.0946  0.1620  0.2328
31123CL      CL94637   2.193   1.094   9.170 -0.0531 -0.3368 -0.1144
31124CL      CL94638   3.212   6.191   0.808  0.0550  0.0481  0.1518
31125CL      CL94639   8.384   6.794   0.328 -0.3516  0.0574  0.4220
31126CL      CL94640   5.544   5.346   7.638 -0.1898 -0.0082 -0.4432
31127CL      CL94641   8.116   4.212   0.748  0.2790 -0.0605  0.1182
31128CL      CL94642   4.115   5.850   9.771  0.5240 -0.0733  0.0615
31129CL      CL94643   6.947   6.265   8.462  0.0938  0.0292 -0.0659
31130CL      CL94644   8.908   7.409   0.375  0.7020  0.1413  0.5162
31131CL      CL94645   7.405   3.891   7.239 -0.0515  0.0846  0.0019
31132CL      CL94646   9.418   2.937   4.402  0.2243 -0.1629  0.0388
31133CL      CL94647   5.571   9.138   5.710  0.1605 -0.9393  0.4596
31134CL      CL94648   4.321   0.020   3.895  0.2137 -0.2635 -0.3592
31135CL      CL94649   9.594   5.348   1.658 -0.0832 -0.0641  0.4467
31136CL      CL94650   0.740   5.143   2.353  0.2391  0.3202 -0.0762
31137CL      CL94651   8.391   2.129   2.937  0.1427 -0.2904 -0.0964
31138CL      CL94652   2.991   4.101   3.233  0.0268  0.4001  0.1926
31139CL      CL94653   4.829   6.912   7.017 -0.2228 -0.5792  0.2048
31140CL      CL94654   9.013   7.964   6.580  0.0132  0.3148  0.0198
31141CL      CL94655   0.020   2.431   9.483  0.0529  0.1228  0.1363
31142CL      CL94656   0.359   4.420   2.704  0.0045 -0.0638 -0.4280
31143CL      CL94657   6.894   0.388   6.031 -0.1954  0.0299  0.1158
31144CL      CL94658   2.635   5.740   8.952  0.2171 -0.4132  0.0249
31145CL      CL94659   3.151   8.279   0.860 -0.0887 -0.0572  0.3172
31146CL      CL94660   0.790   7.559   5.233  0.1203  0.1465 -0.1014
31147CL      CL94661   5.772   5.574   6.258 -0.0767 -0.4231  0.0734
31148CL      CL94662   4.430   4.803   1.607 -0.1575  0.0332 -0.2922
31149CL      CL94663   2.308   3.102   6.778  0.2060 -0.2615  0.3257
31150CL      CL94664   6.924   3.594   4.538  0.2175  0.3043  0.0161
31151CL      CL94665   7.982   4.011   8.001 -0.2695 -0.3882  0.0632
31152CL      CL94666   7.123   1.481   7.812 -0.1876 -0.3120  0.3901
31153CL      CL94667   6.016   2.492   5.044  0.3098  0.0636 -0.0949
31154CL      CL94668   6.114   9.314   8.470  0.0351 -0.0345 -0.1489
31155CL      CL94669   9.679   8.037   7.024 -0.2647  0.3893  0.0190
31156CL      CL94670   2.050   0.440   0.757 -0.3882 -0.3543 -0.0386
31157CL      CL94671   4.966   5.221   9.383 -0.2849  0.2078 -0.2811
31158CL      CL94672   2.050   2.769   4.675  0.6231 -0.2085  0.6595
31159CL      CL94673   4.799   6.194   6.912  0.0592  0.3527 -0.1197
31160CL      CL94674   7.473   4.402   1.137 -0.2383  0.1358  0.1108
31161CL      CL94675   8.708   3.603   9.600  0.2727  0.0279  0.1220
31162CL      CL94676   2.768   6.547   4.085  0.0989 -0.0805  0.0162
31163CL      CL94677   1.872   1.938   6.584 -0.1352 -0.4567 -0.3618
31164CL      CL94678   4.322   4.822   8.074 -0.0030 -0.1016  0.1484
31165CL      CL94679   9.603   7.109   0.254 -0.0155  0.2293 -0.3126
31166CL      CL94680   5.735   8.000   8.316 -0.0565  0.3231 -0.3748
31167CL      CL94681   1.292   8.255   9.023 -0.2235  0.3002  0.3256
31168CL      CL94682   2.675   8.476   5.789 -0.1234 -0.3108  0.2440
31169CL      CL94683   0.637   0.893   3.712 -0.2367 -0.3251 -0.0397
31170CL      CL94684   7.721   1.699   0.512  0.2204 -0.4664 -0.3975
31171CL      CL94685   7.759   7.405   4.589 -0.1712  0.1061 -0.3316
31172CL      CL94686   2.278   4.101   3.864  0.1479 -0.4200  0.3894
31173CL      CL94687   0.808   0.386   8.366 -0.0118 -0.1950  0.0717
31174CL      CL94688   0.440   8.712   0.005 -0.3646  0.2577  0.7441
31175CL      CL94689   5.253   3.138   2.307  0.0453  0.2978 -0.0806
31176CL      CL94690   8.263   4.634   5.586  0.3986  0.1897  0.0332
31177CL      CL94691   0.127   2.543   8.267 -0.5169  0.0654  0.0484
31178CL      CL94692   4.838   3.686   6.886  0.0744  0.1765  0.1314
31179CL      CL94693   8.238   5.151   3.944  0.0667 -0.2689 -0.2776
31180CL      CL94694   6.213   3.401   1.319  0.3445 -0.0756  0.1302
31181CL      CL94695   4.140   7.485   7.104  0.5257  0.0570  0.0966
31182CL      CL94696   3.753   1.028   7.159 -0.1596 -0.3881 -0.0778
31183CL      CL94697   4.846   5.824   8.021  0.2753  0.0140  0.1359
31184CL      CL94698   1.751   6.658   7.000 -0.2421 -0.3046 -0.0720
31185CL      CL94699   4.922   0.947   4.349 -0.1828 -0.4949  0.3485
31186CL      CL94700   3.146   0.362   3.924  0.0528 -0.4781  0.0009
31187CL      CL94701   3.980   1.967   7.582 -0.3616 -0.0563 -0.5257
31188CL      CL94702   4.357   2.273   7.742  0.2066  0.1196 -0.5950
   9.84349   9.84349   9.84349
