;
;   File g2.5Ncore_cooh_petim.itp  was generated
;   By user: sairam (1000)
;   On host: sairam
;   At date: Mon. April  1 04:23:55 2024
;
;   This is a standalone topology file
;
;   Created by:
;   ParmEd:       amb2gro_top_gro.py, VERSION 3.4.1
;   Executable:   amb2gro_top_gro.py
;   Library dir:  /usr/local/gromacs/share/gromacs/top
;   Command line:
;     ./amb2gro_top_gro.py -p g2.5Ncore_cooh_petim.prmtop -c g2.5Ncore_cooh_petim.inpcrd -t g2.5Ncore_cooh_petim.itp -g g2.5Ncore_cooh_petim.gro -b g2.5Ncore_cooh_petim.pdb
;

;[ defaults ]
;; nbfunc        comb-rule       gen-pairs       fudgeLJ fudgeQQ
;1               2               yes             0.5          0.83333333  
;
;[ atomtypes ]
;; name    at.num    mass    charge ptype  sigma      epsilon
;n3             7  14.010000  0.00000000  A     0.32499985        0.71128
;c3             6  12.010000  0.00000000  A     0.33996695      0.4577296
;h1             1   1.008000  0.00000000  A      0.2471353      0.0656888
;hc             1   1.008000  0.00000000  A     0.26495328      0.0656888
;os             8  16.000000  0.00000000  A     0.30000123        0.71128
;c              6  12.010000  0.00000000  A     0.33996695       0.359824
;o              8  16.000000  0.00000000  A     0.29599219        0.87864
;oh             8  16.000000  0.00000000  A     0.30664734      0.8803136
;ho             1   1.008000  0.00000000  A              0              0


[ moleculetype ]
; Name            nrexcl
g2.5Ncore_cooh_petim          3

[ atoms ]
;   nr       type  resnr residue  atom   cgnr    charge       mass  typeB    chargeB      massB
; residue    1 aaa rtp aaa q 0.0
    1         n3      1    aaa     N1      1 -0.65416500  14.010000   ; qtot -0.654165
    2         c3      1    aaa     C1      2 0.05178400  12.010000   ; qtot -0.602381
    3         h1      1    aaa     H1      3 0.06475500   1.008000   ; qtot -0.537626
    4         h1      1    aaa     H2      4 0.06475500   1.008000   ; qtot -0.472871
    5         c3      1    aaa     C2      5 0.05178400  12.010000   ; qtot -0.421087
    6         h1      1    aaa     H3      6 0.06475500   1.008000   ; qtot -0.356332
    7         h1      1    aaa     H4      7 0.06475500   1.008000   ; qtot -0.291577
    8         c3      1    aaa     C3      8 0.05178400  12.010000   ; qtot -0.239793
    9         h1      1    aaa     H5      9 0.06475500   1.008000   ; qtot -0.175038
   10         h1      1    aaa     H6     10 0.06475500   1.008000   ; qtot -0.110283
   11         c3      1    aaa     C4     11 0.07871100  12.010000   ; qtot -0.031572
   12         hc      1    aaa     H7     12 0.08683700   1.008000   ; qtot 0.055265
   13         hc      1    aaa     H8     13 0.08683700   1.008000   ; qtot 0.142102
   14         c3      1    aaa     C5     14 0.07871100  12.010000   ; qtot 0.220813
   15         hc      1    aaa     H9     15 0.08683700   1.008000   ; qtot 0.307650
   16         hc      1    aaa    H10     16 0.08683700   1.008000   ; qtot 0.394487
   17         c3      1    aaa     C6     17 0.07871100  12.010000   ; qtot 0.473198
   18         hc      1    aaa    H11     18 0.08683700   1.008000   ; qtot 0.560035
   19         hc      1    aaa    H12     19 0.08683700   1.008000   ; qtot 0.646872
   20         c3      1    aaa     C7     20 -0.74941200  12.010000   ; qtot -0.102540
   21         h1      1    aaa    H13     21 0.26689400   1.008000   ; qtot 0.164354
   22         h1      1    aaa    H14     22 0.26689400   1.008000   ; qtot 0.431248
   23         c3      1    aaa     C8     23 -0.74941200  12.010000   ; qtot -0.318164
   24         h1      1    aaa    H15     24 0.26689400   1.008000   ; qtot -0.051270
   25         h1      1    aaa    H16     25 0.26689400   1.008000   ; qtot 0.215624
   26         c3      1    aaa     C9     26 -0.74941200  12.010000   ; qtot -0.533788
   27         h1      1    aaa    H17     27 0.26689400   1.008000   ; qtot -0.266894
   28         h1      1    aaa    H18     28 0.26689400   1.008000   ; qtot 0.000000
; residue    2 bbb rtp bbb q -0.0
   29         n3      2    bbb     N1     29 -0.59685800  14.010000   ; qtot -0.596858
   30         c3      2    bbb     C1     30 0.10137000  12.010000   ; qtot -0.495488
   31         h1      2    bbb     H1     31 0.04411300   1.008000   ; qtot -0.451375
   32         h1      2    bbb     H2     32 0.04411300   1.008000   ; qtot -0.407262
   33         c3      2    bbb     C2     33 0.10137000  12.010000   ; qtot -0.305892
   34         h1      2    bbb     H3     34 0.04411300   1.008000   ; qtot -0.261779
   35         h1      2    bbb     H4     35 0.04411300   1.008000   ; qtot -0.217666
   36         c3      2    bbb     C3     36 -0.00195300  12.010000   ; qtot -0.219619
   37         h1      2    bbb     H5     37 0.05064400   1.008000   ; qtot -0.168975
   38         h1      2    bbb     H6     38 0.05064400   1.008000   ; qtot -0.118331
   39         c3      2    bbb     C4     39 -0.01612100  12.010000   ; qtot -0.134452
   40         hc      2    bbb     H7     40 0.04936100   1.008000   ; qtot -0.085091
   41         hc      2    bbb     H8     41 0.04936100   1.008000   ; qtot -0.035730
   42         c3      2    bbb     C5     42 0.11363000  12.010000   ; qtot 0.077900
   43         hc      2    bbb     H9     43 0.06265900   1.008000   ; qtot 0.140559
   44         hc      2    bbb    H10     44 0.06265900   1.008000   ; qtot 0.203218
   45         c3      2    bbb     C6     45 0.11363000  12.010000   ; qtot 0.316848
   46         hc      2    bbb    H11     46 0.06265900   1.008000   ; qtot 0.379507
   47         hc      2    bbb    H12     47 0.06265900   1.008000   ; qtot 0.442166
   48         c3      2    bbb     C7     48 0.05858200  12.010000   ; qtot 0.500748
   49         h1      2    bbb    H13     49 0.06123400   1.008000   ; qtot 0.561982
   50         h1      2    bbb    H14     50 0.06123400   1.008000   ; qtot 0.623216
   51         c3      2    bbb     C8     51 -0.72423400  12.010000   ; qtot -0.101018
   52         h1      2    bbb    H15     52 0.25637600   1.008000   ; qtot 0.155358
   53         h1      2    bbb    H16     53 0.25637600   1.008000   ; qtot 0.411734
   54         c3      2    bbb     C9     54 -0.72423400  12.010000   ; qtot -0.312500
   55         h1      2    bbb    H17     55 0.25637600   1.008000   ; qtot -0.056124
   56         h1      2    bbb    H18     56 0.25637600   1.008000   ; qtot 0.200252
   57         os      2    bbb     O1     57 -0.20025300  16.000000   ; qtot -0.000001
; residue    3 bbb rtp bbb q -0.0
   58         n3      3    bbb     N1     58 -0.59685800  14.010000   ; qtot -0.596859
   59         c3      3    bbb     C1     59 0.10137000  12.010000   ; qtot -0.495489
   60         h1      3    bbb     H1     60 0.04411300   1.008000   ; qtot -0.451376
   61         h1      3    bbb     H2     61 0.04411300   1.008000   ; qtot -0.407263
   62         c3      3    bbb     C2     62 0.10137000  12.010000   ; qtot -0.305893
   63         h1      3    bbb     H3     63 0.04411300   1.008000   ; qtot -0.261780
   64         h1      3    bbb     H4     64 0.04411300   1.008000   ; qtot -0.217667
   65         c3      3    bbb     C3     65 -0.00195300  12.010000   ; qtot -0.219620
   66         h1      3    bbb     H5     66 0.05064400   1.008000   ; qtot -0.168976
   67         h1      3    bbb     H6     67 0.05064400   1.008000   ; qtot -0.118332
   68         c3      3    bbb     C4     68 -0.01612100  12.010000   ; qtot -0.134453
   69         hc      3    bbb     H7     69 0.04936100   1.008000   ; qtot -0.085092
   70         hc      3    bbb     H8     70 0.04936100   1.008000   ; qtot -0.035731
   71         c3      3    bbb     C5     71 0.11363000  12.010000   ; qtot 0.077899
   72         hc      3    bbb     H9     72 0.06265900   1.008000   ; qtot 0.140558
   73         hc      3    bbb    H10     73 0.06265900   1.008000   ; qtot 0.203217
   74         c3      3    bbb     C6     74 0.11363000  12.010000   ; qtot 0.316847
   75         hc      3    bbb    H11     75 0.06265900   1.008000   ; qtot 0.379506
   76         hc      3    bbb    H12     76 0.06265900   1.008000   ; qtot 0.442165
   77         c3      3    bbb     C7     77 0.05858200  12.010000   ; qtot 0.500747
   78         h1      3    bbb    H13     78 0.06123400   1.008000   ; qtot 0.561981
   79         h1      3    bbb    H14     79 0.06123400   1.008000   ; qtot 0.623215
   80         c3      3    bbb     C8     80 -0.72423400  12.010000   ; qtot -0.101019
   81         h1      3    bbb    H15     81 0.25637600   1.008000   ; qtot 0.155357
   82         h1      3    bbb    H16     82 0.25637600   1.008000   ; qtot 0.411733
   83         c3      3    bbb     C9     83 -0.72423400  12.010000   ; qtot -0.312501
   84         h1      3    bbb    H17     84 0.25637600   1.008000   ; qtot -0.056125
   85         h1      3    bbb    H18     85 0.25637600   1.008000   ; qtot 0.200251
   86         os      3    bbb     O1     86 -0.20025300  16.000000   ; qtot -0.000002
; residue    4 bbb rtp bbb q -0.0
   87         n3      4    bbb     N1     87 -0.59685800  14.010000   ; qtot -0.596860
   88         c3      4    bbb     C1     88 0.10137000  12.010000   ; qtot -0.495490
   89         h1      4    bbb     H1     89 0.04411300   1.008000   ; qtot -0.451377
   90         h1      4    bbb     H2     90 0.04411300   1.008000   ; qtot -0.407264
   91         c3      4    bbb     C2     91 0.10137000  12.010000   ; qtot -0.305894
   92         h1      4    bbb     H3     92 0.04411300   1.008000   ; qtot -0.261781
   93         h1      4    bbb     H4     93 0.04411300   1.008000   ; qtot -0.217668
   94         c3      4    bbb     C3     94 -0.00195300  12.010000   ; qtot -0.219621
   95         h1      4    bbb     H5     95 0.05064400   1.008000   ; qtot -0.168977
   96         h1      4    bbb     H6     96 0.05064400   1.008000   ; qtot -0.118333
   97         c3      4    bbb     C4     97 -0.01612100  12.010000   ; qtot -0.134454
   98         hc      4    bbb     H7     98 0.04936100   1.008000   ; qtot -0.085093
   99         hc      4    bbb     H8     99 0.04936100   1.008000   ; qtot -0.035732
  100         c3      4    bbb     C5    100 0.11363000  12.010000   ; qtot 0.077898
  101         hc      4    bbb     H9    101 0.06265900   1.008000   ; qtot 0.140557
  102         hc      4    bbb    H10    102 0.06265900   1.008000   ; qtot 0.203216
  103         c3      4    bbb     C6    103 0.11363000  12.010000   ; qtot 0.316846
  104         hc      4    bbb    H11    104 0.06265900   1.008000   ; qtot 0.379505
  105         hc      4    bbb    H12    105 0.06265900   1.008000   ; qtot 0.442164
  106         c3      4    bbb     C7    106 0.05858200  12.010000   ; qtot 0.500746
  107         h1      4    bbb    H13    107 0.06123400   1.008000   ; qtot 0.561980
  108         h1      4    bbb    H14    108 0.06123400   1.008000   ; qtot 0.623214
  109         c3      4    bbb     C8    109 -0.72423400  12.010000   ; qtot -0.101020
  110         h1      4    bbb    H15    110 0.25637600   1.008000   ; qtot 0.155356
  111         h1      4    bbb    H16    111 0.25637600   1.008000   ; qtot 0.411732
  112         c3      4    bbb     C9    112 -0.72423400  12.010000   ; qtot -0.312502
  113         h1      4    bbb    H17    113 0.25637600   1.008000   ; qtot -0.056126
  114         h1      4    bbb    H18    114 0.25637600   1.008000   ; qtot 0.200250
  115         os      4    bbb     O1    115 -0.20025300  16.000000   ; qtot -0.000003
; residue    5 bbb rtp bbb q -0.0
  116         n3      5    bbb     N1    116 -0.59685800  14.010000   ; qtot -0.596861
  117         c3      5    bbb     C1    117 0.10137000  12.010000   ; qtot -0.495491
  118         h1      5    bbb     H1    118 0.04411300   1.008000   ; qtot -0.451378
  119         h1      5    bbb     H2    119 0.04411300   1.008000   ; qtot -0.407265
  120         c3      5    bbb     C2    120 0.10137000  12.010000   ; qtot -0.305895
  121         h1      5    bbb     H3    121 0.04411300   1.008000   ; qtot -0.261782
  122         h1      5    bbb     H4    122 0.04411300   1.008000   ; qtot -0.217669
  123         c3      5    bbb     C3    123 -0.00195300  12.010000   ; qtot -0.219622
  124         h1      5    bbb     H5    124 0.05064400   1.008000   ; qtot -0.168978
  125         h1      5    bbb     H6    125 0.05064400   1.008000   ; qtot -0.118334
  126         c3      5    bbb     C4    126 -0.01612100  12.010000   ; qtot -0.134455
  127         hc      5    bbb     H7    127 0.04936100   1.008000   ; qtot -0.085094
  128         hc      5    bbb     H8    128 0.04936100   1.008000   ; qtot -0.035733
  129         c3      5    bbb     C5    129 0.11363000  12.010000   ; qtot 0.077897
  130         hc      5    bbb     H9    130 0.06265900   1.008000   ; qtot 0.140556
  131         hc      5    bbb    H10    131 0.06265900   1.008000   ; qtot 0.203215
  132         c3      5    bbb     C6    132 0.11363000  12.010000   ; qtot 0.316845
  133         hc      5    bbb    H11    133 0.06265900   1.008000   ; qtot 0.379504
  134         hc      5    bbb    H12    134 0.06265900   1.008000   ; qtot 0.442163
  135         c3      5    bbb     C7    135 0.05858200  12.010000   ; qtot 0.500745
  136         h1      5    bbb    H13    136 0.06123400   1.008000   ; qtot 0.561979
  137         h1      5    bbb    H14    137 0.06123400   1.008000   ; qtot 0.623213
  138         c3      5    bbb     C8    138 -0.72423400  12.010000   ; qtot -0.101021
  139         h1      5    bbb    H15    139 0.25637600   1.008000   ; qtot 0.155355
  140         h1      5    bbb    H16    140 0.25637600   1.008000   ; qtot 0.411731
  141         c3      5    bbb     C9    141 -0.72423400  12.010000   ; qtot -0.312503
  142         h1      5    bbb    H17    142 0.25637600   1.008000   ; qtot -0.056127
  143         h1      5    bbb    H18    143 0.25637600   1.008000   ; qtot 0.200249
  144         os      5    bbb     O1    144 -0.20025300  16.000000   ; qtot -0.000004
; residue    6 bbb rtp bbb q -0.0
  145         n3      6    bbb     N1    145 -0.59685800  14.010000   ; qtot -0.596862
  146         c3      6    bbb     C1    146 0.10137000  12.010000   ; qtot -0.495492
  147         h1      6    bbb     H1    147 0.04411300   1.008000   ; qtot -0.451379
  148         h1      6    bbb     H2    148 0.04411300   1.008000   ; qtot -0.407266
  149         c3      6    bbb     C2    149 0.10137000  12.010000   ; qtot -0.305896
  150         h1      6    bbb     H3    150 0.04411300   1.008000   ; qtot -0.261783
  151         h1      6    bbb     H4    151 0.04411300   1.008000   ; qtot -0.217670
  152         c3      6    bbb     C3    152 -0.00195300  12.010000   ; qtot -0.219623
  153         h1      6    bbb     H5    153 0.05064400   1.008000   ; qtot -0.168979
  154         h1      6    bbb     H6    154 0.05064400   1.008000   ; qtot -0.118335
  155         c3      6    bbb     C4    155 -0.01612100  12.010000   ; qtot -0.134456
  156         hc      6    bbb     H7    156 0.04936100   1.008000   ; qtot -0.085095
  157         hc      6    bbb     H8    157 0.04936100   1.008000   ; qtot -0.035734
  158         c3      6    bbb     C5    158 0.11363000  12.010000   ; qtot 0.077896
  159         hc      6    bbb     H9    159 0.06265900   1.008000   ; qtot 0.140555
  160         hc      6    bbb    H10    160 0.06265900   1.008000   ; qtot 0.203214
  161         c3      6    bbb     C6    161 0.11363000  12.010000   ; qtot 0.316844
  162         hc      6    bbb    H11    162 0.06265900   1.008000   ; qtot 0.379503
  163         hc      6    bbb    H12    163 0.06265900   1.008000   ; qtot 0.442162
  164         c3      6    bbb     C7    164 0.05858200  12.010000   ; qtot 0.500744
  165         h1      6    bbb    H13    165 0.06123400   1.008000   ; qtot 0.561978
  166         h1      6    bbb    H14    166 0.06123400   1.008000   ; qtot 0.623212
  167         c3      6    bbb     C8    167 -0.72423400  12.010000   ; qtot -0.101022
  168         h1      6    bbb    H15    168 0.25637600   1.008000   ; qtot 0.155354
  169         h1      6    bbb    H16    169 0.25637600   1.008000   ; qtot 0.411730
  170         c3      6    bbb     C9    170 -0.72423400  12.010000   ; qtot -0.312504
  171         h1      6    bbb    H17    171 0.25637600   1.008000   ; qtot -0.056128
  172         h1      6    bbb    H18    172 0.25637600   1.008000   ; qtot 0.200248
  173         os      6    bbb     O1    173 -0.20025300  16.000000   ; qtot -0.000005
; residue    7 bbb rtp bbb q -0.0
  174         n3      7    bbb     N1    174 -0.59685800  14.010000   ; qtot -0.596863
  175         c3      7    bbb     C1    175 0.10137000  12.010000   ; qtot -0.495493
  176         h1      7    bbb     H1    176 0.04411300   1.008000   ; qtot -0.451380
  177         h1      7    bbb     H2    177 0.04411300   1.008000   ; qtot -0.407267
  178         c3      7    bbb     C2    178 0.10137000  12.010000   ; qtot -0.305897
  179         h1      7    bbb     H3    179 0.04411300   1.008000   ; qtot -0.261784
  180         h1      7    bbb     H4    180 0.04411300   1.008000   ; qtot -0.217671
  181         c3      7    bbb     C3    181 -0.00195300  12.010000   ; qtot -0.219624
  182         h1      7    bbb     H5    182 0.05064400   1.008000   ; qtot -0.168980
  183         h1      7    bbb     H6    183 0.05064400   1.008000   ; qtot -0.118336
  184         c3      7    bbb     C4    184 -0.01612100  12.010000   ; qtot -0.134457
  185         hc      7    bbb     H7    185 0.04936100   1.008000   ; qtot -0.085096
  186         hc      7    bbb     H8    186 0.04936100   1.008000   ; qtot -0.035735
  187         c3      7    bbb     C5    187 0.11363000  12.010000   ; qtot 0.077895
  188         hc      7    bbb     H9    188 0.06265900   1.008000   ; qtot 0.140554
  189         hc      7    bbb    H10    189 0.06265900   1.008000   ; qtot 0.203213
  190         c3      7    bbb     C6    190 0.11363000  12.010000   ; qtot 0.316843
  191         hc      7    bbb    H11    191 0.06265900   1.008000   ; qtot 0.379502
  192         hc      7    bbb    H12    192 0.06265900   1.008000   ; qtot 0.442161
  193         c3      7    bbb     C7    193 0.05858200  12.010000   ; qtot 0.500743
  194         h1      7    bbb    H13    194 0.06123400   1.008000   ; qtot 0.561977
  195         h1      7    bbb    H14    195 0.06123400   1.008000   ; qtot 0.623211
  196         c3      7    bbb     C8    196 -0.72423400  12.010000   ; qtot -0.101023
  197         h1      7    bbb    H15    197 0.25637600   1.008000   ; qtot 0.155353
  198         h1      7    bbb    H16    198 0.25637600   1.008000   ; qtot 0.411729
  199         c3      7    bbb     C9    199 -0.72423400  12.010000   ; qtot -0.312505
  200         h1      7    bbb    H17    200 0.25637600   1.008000   ; qtot -0.056129
  201         h1      7    bbb    H18    201 0.25637600   1.008000   ; qtot 0.200247
  202         os      7    bbb     O1    202 -0.20025300  16.000000   ; qtot -0.000006
; residue    8 bbb rtp bbb q -0.0
  203         n3      8    bbb     N1    203 -0.59685800  14.010000   ; qtot -0.596864
  204         c3      8    bbb     C1    204 0.10137000  12.010000   ; qtot -0.495494
  205         h1      8    bbb     H1    205 0.04411300   1.008000   ; qtot -0.451381
  206         h1      8    bbb     H2    206 0.04411300   1.008000   ; qtot -0.407268
  207         c3      8    bbb     C2    207 0.10137000  12.010000   ; qtot -0.305898
  208         h1      8    bbb     H3    208 0.04411300   1.008000   ; qtot -0.261785
  209         h1      8    bbb     H4    209 0.04411300   1.008000   ; qtot -0.217672
  210         c3      8    bbb     C3    210 -0.00195300  12.010000   ; qtot -0.219625
  211         h1      8    bbb     H5    211 0.05064400   1.008000   ; qtot -0.168981
  212         h1      8    bbb     H6    212 0.05064400   1.008000   ; qtot -0.118337
  213         c3      8    bbb     C4    213 -0.01612100  12.010000   ; qtot -0.134458
  214         hc      8    bbb     H7    214 0.04936100   1.008000   ; qtot -0.085097
  215         hc      8    bbb     H8    215 0.04936100   1.008000   ; qtot -0.035736
  216         c3      8    bbb     C5    216 0.11363000  12.010000   ; qtot 0.077894
  217         hc      8    bbb     H9    217 0.06265900   1.008000   ; qtot 0.140553
  218         hc      8    bbb    H10    218 0.06265900   1.008000   ; qtot 0.203212
  219         c3      8    bbb     C6    219 0.11363000  12.010000   ; qtot 0.316842
  220         hc      8    bbb    H11    220 0.06265900   1.008000   ; qtot 0.379501
  221         hc      8    bbb    H12    221 0.06265900   1.008000   ; qtot 0.442160
  222         c3      8    bbb     C7    222 0.05858200  12.010000   ; qtot 0.500742
  223         h1      8    bbb    H13    223 0.06123400   1.008000   ; qtot 0.561976
  224         h1      8    bbb    H14    224 0.06123400   1.008000   ; qtot 0.623210
  225         c3      8    bbb     C8    225 -0.72423400  12.010000   ; qtot -0.101024
  226         h1      8    bbb    H15    226 0.25637600   1.008000   ; qtot 0.155352
  227         h1      8    bbb    H16    227 0.25637600   1.008000   ; qtot 0.411728
  228         c3      8    bbb     C9    228 -0.72423400  12.010000   ; qtot -0.312506
  229         h1      8    bbb    H17    229 0.25637600   1.008000   ; qtot -0.056130
  230         h1      8    bbb    H18    230 0.25637600   1.008000   ; qtot 0.200246
  231         os      8    bbb     O1    231 -0.20025300  16.000000   ; qtot -0.000007
; residue    9 bbb rtp bbb q -0.0
  232         n3      9    bbb     N1    232 -0.59685800  14.010000   ; qtot -0.596865
  233         c3      9    bbb     C1    233 0.10137000  12.010000   ; qtot -0.495495
  234         h1      9    bbb     H1    234 0.04411300   1.008000   ; qtot -0.451382
  235         h1      9    bbb     H2    235 0.04411300   1.008000   ; qtot -0.407269
  236         c3      9    bbb     C2    236 0.10137000  12.010000   ; qtot -0.305899
  237         h1      9    bbb     H3    237 0.04411300   1.008000   ; qtot -0.261786
  238         h1      9    bbb     H4    238 0.04411300   1.008000   ; qtot -0.217673
  239         c3      9    bbb     C3    239 -0.00195300  12.010000   ; qtot -0.219626
  240         h1      9    bbb     H5    240 0.05064400   1.008000   ; qtot -0.168982
  241         h1      9    bbb     H6    241 0.05064400   1.008000   ; qtot -0.118338
  242         c3      9    bbb     C4    242 -0.01612100  12.010000   ; qtot -0.134459
  243         hc      9    bbb     H7    243 0.04936100   1.008000   ; qtot -0.085098
  244         hc      9    bbb     H8    244 0.04936100   1.008000   ; qtot -0.035737
  245         c3      9    bbb     C5    245 0.11363000  12.010000   ; qtot 0.077893
  246         hc      9    bbb     H9    246 0.06265900   1.008000   ; qtot 0.140552
  247         hc      9    bbb    H10    247 0.06265900   1.008000   ; qtot 0.203211
  248         c3      9    bbb     C6    248 0.11363000  12.010000   ; qtot 0.316841
  249         hc      9    bbb    H11    249 0.06265900   1.008000   ; qtot 0.379500
  250         hc      9    bbb    H12    250 0.06265900   1.008000   ; qtot 0.442159
  251         c3      9    bbb     C7    251 0.05858200  12.010000   ; qtot 0.500741
  252         h1      9    bbb    H13    252 0.06123400   1.008000   ; qtot 0.561975
  253         h1      9    bbb    H14    253 0.06123400   1.008000   ; qtot 0.623209
  254         c3      9    bbb     C8    254 -0.72423400  12.010000   ; qtot -0.101025
  255         h1      9    bbb    H15    255 0.25637600   1.008000   ; qtot 0.155351
  256         h1      9    bbb    H16    256 0.25637600   1.008000   ; qtot 0.411727
  257         c3      9    bbb     C9    257 -0.72423400  12.010000   ; qtot -0.312507
  258         h1      9    bbb    H17    258 0.25637600   1.008000   ; qtot -0.056131
  259         h1      9    bbb    H18    259 0.25637600   1.008000   ; qtot 0.200245
  260         os      9    bbb     O1    260 -0.20025300  16.000000   ; qtot -0.000008
; residue   10 bbb rtp bbb q -0.0
  261         n3     10    bbb     N1    261 -0.59685800  14.010000   ; qtot -0.596866
  262         c3     10    bbb     C1    262 0.10137000  12.010000   ; qtot -0.495496
  263         h1     10    bbb     H1    263 0.04411300   1.008000   ; qtot -0.451383
  264         h1     10    bbb     H2    264 0.04411300   1.008000   ; qtot -0.407270
  265         c3     10    bbb     C2    265 0.10137000  12.010000   ; qtot -0.305900
  266         h1     10    bbb     H3    266 0.04411300   1.008000   ; qtot -0.261787
  267         h1     10    bbb     H4    267 0.04411300   1.008000   ; qtot -0.217674
  268         c3     10    bbb     C3    268 -0.00195300  12.010000   ; qtot -0.219627
  269         h1     10    bbb     H5    269 0.05064400   1.008000   ; qtot -0.168983
  270         h1     10    bbb     H6    270 0.05064400   1.008000   ; qtot -0.118339
  271         c3     10    bbb     C4    271 -0.01612100  12.010000   ; qtot -0.134460
  272         hc     10    bbb     H7    272 0.04936100   1.008000   ; qtot -0.085099
  273         hc     10    bbb     H8    273 0.04936100   1.008000   ; qtot -0.035738
  274         c3     10    bbb     C5    274 0.11363000  12.010000   ; qtot 0.077892
  275         hc     10    bbb     H9    275 0.06265900   1.008000   ; qtot 0.140551
  276         hc     10    bbb    H10    276 0.06265900   1.008000   ; qtot 0.203210
  277         c3     10    bbb     C6    277 0.11363000  12.010000   ; qtot 0.316840
  278         hc     10    bbb    H11    278 0.06265900   1.008000   ; qtot 0.379499
  279         hc     10    bbb    H12    279 0.06265900   1.008000   ; qtot 0.442158
  280         c3     10    bbb     C7    280 0.05858200  12.010000   ; qtot 0.500740
  281         h1     10    bbb    H13    281 0.06123400   1.008000   ; qtot 0.561974
  282         h1     10    bbb    H14    282 0.06123400   1.008000   ; qtot 0.623208
  283         c3     10    bbb     C8    283 -0.72423400  12.010000   ; qtot -0.101026
  284         h1     10    bbb    H15    284 0.25637600   1.008000   ; qtot 0.155350
  285         h1     10    bbb    H16    285 0.25637600   1.008000   ; qtot 0.411726
  286         c3     10    bbb     C9    286 -0.72423400  12.010000   ; qtot -0.312508
  287         h1     10    bbb    H17    287 0.25637600   1.008000   ; qtot -0.056132
  288         h1     10    bbb    H18    288 0.25637600   1.008000   ; qtot 0.200244
  289         os     10    bbb     O1    289 -0.20025300  16.000000   ; qtot -0.000009
; residue   11 ccc rtp ccc q 0.0
  290         c3     11    ccc     C1    290 0.50749700  12.010000   ; qtot 0.507488
  291         h1     11    ccc     H1    291 -0.02808400   1.008000   ; qtot 0.479404
  292         h1     11    ccc     H2    292 -0.02808400   1.008000   ; qtot 0.451320
  293         c3     11    ccc     C2    293 -0.15486000  12.010000   ; qtot 0.296460
  294         hc     11    ccc     H3    294 0.10266400   1.008000   ; qtot 0.399124
  295         hc     11    ccc     H4    295 0.10266400   1.008000   ; qtot 0.501788
  296         c3     11    ccc     C3    296 -0.15693500  12.010000   ; qtot 0.344853
  297         h1     11    ccc     H5    297 0.08499200   1.008000   ; qtot 0.429845
  298         h1     11    ccc     H6    298 0.08499200   1.008000   ; qtot 0.514837
  299         n3     11    ccc     N1    299 -0.29948700  14.010000   ; qtot 0.215350
  300         c3     11    ccc     C4    300 -0.01321200  12.010000   ; qtot 0.202138
  301         h1     11    ccc     H7    301 0.08172200   1.008000   ; qtot 0.283860
  302         h1     11    ccc     H8    302 0.08172200   1.008000   ; qtot 0.365582
  303         c3     11    ccc     C5    303 -0.22180000  12.010000   ; qtot 0.143782
  304         hc     11    ccc     H9    304 0.09671800   1.008000   ; qtot 0.240500
  305         hc     11    ccc    H10    305 0.09671800   1.008000   ; qtot 0.337218
  306          c     11    ccc     C6    306 0.526324  12.010000   ; qtot 1.333745
  307          o     11    ccc     O1    307 -0.39142825  16.000000   ; qtot 0.637239
  308         oh     11    ccc     O2    308 -0.56822625  16.000000   ; qtot -0.203572
  309         ho     11    ccc    H11    309 0.4186155   1.008000   ; qtot 0.322503
  310         c3     11    ccc     C7    310 -0.01321200  12.010000   ; qtot 0.309291
  311         h1     11    ccc    H12    311 0.08172200   1.008000   ; qtot 0.391013
  312         h1     11    ccc    H13    312 0.08172200   1.008000   ; qtot 0.472735
  313         c3     11    ccc     C8    313 -0.22180000  12.010000   ; qtot 0.250935
  314         hc     11    ccc    H14    314 0.09671800   1.008000   ; qtot 0.347653
  315         hc     11    ccc    H15    315 0.09671800   1.008000   ; qtot 0.444371
  316          c     11    ccc     C9    316 0.526324  12.010000   ; qtot 1.440898
  317          o     11    ccc     O3    317 -0.39142825  16.000000   ; qtot 0.744392
  318         oh     11    ccc     O4    318 -0.56822625  16.000000   ; qtot -0.096419
  319         ho     11    ccc    H16    319 0.4186155   1.008000   ; qtot 0.429656
  320         os     11    ccc     O5    320 -0.42966500  16.000000   ; qtot -0.000009
; residue   12 ccc rtp ccc q 0.0
  321         c3     12    ccc     C1    321 0.50749700  12.010000   ; qtot 0.507488
  322         h1     12    ccc     H1    322 -0.02808400   1.008000   ; qtot 0.479404
  323         h1     12    ccc     H2    323 -0.02808400   1.008000   ; qtot 0.451320
  324         c3     12    ccc     C2    324 -0.15486000  12.010000   ; qtot 0.296460
  325         hc     12    ccc     H3    325 0.10266400   1.008000   ; qtot 0.399124
  326         hc     12    ccc     H4    326 0.10266400   1.008000   ; qtot 0.501788
  327         c3     12    ccc     C3    327 -0.15693500  12.010000   ; qtot 0.344853
  328         h1     12    ccc     H5    328 0.08499200   1.008000   ; qtot 0.429845
  329         h1     12    ccc     H6    329 0.08499200   1.008000   ; qtot 0.514837
  330         n3     12    ccc     N1    330 -0.29948700  14.010000   ; qtot 0.215350
  331         c3     12    ccc     C4    331 -0.01321200  12.010000   ; qtot 0.202138
  332         h1     12    ccc     H7    332 0.08172200   1.008000   ; qtot 0.283860
  333         h1     12    ccc     H8    333 0.08172200   1.008000   ; qtot 0.365582
  334         c3     12    ccc     C5    334 -0.22180000  12.010000   ; qtot 0.143782
  335         hc     12    ccc     H9    335 0.09671800   1.008000   ; qtot 0.240500
  336         hc     12    ccc    H10    336 0.09671800   1.008000   ; qtot 0.337218
  337          c     12    ccc     C6    337 0.526324  12.010000   ; qtot 1.333745
  338          o     12    ccc     O1    338 -0.39142825  16.000000   ; qtot 0.637239
  339         oh     12    ccc     O2    339 -0.56822625  16.000000   ; qtot -0.203572
  340         ho     12    ccc    H11    340 0.4186155   1.008000   ; qtot 0.322503
  341         c3     12    ccc     C7    341 -0.01321200  12.010000   ; qtot 0.309291
  342         h1     12    ccc    H12    342 0.08172200   1.008000   ; qtot 0.391013
  343         h1     12    ccc    H13    343 0.08172200   1.008000   ; qtot 0.472735
  344         c3     12    ccc     C8    344 -0.22180000  12.010000   ; qtot 0.250935
  345         hc     12    ccc    H14    345 0.09671800   1.008000   ; qtot 0.347653
  346         hc     12    ccc    H15    346 0.09671800   1.008000   ; qtot 0.444371
  347          c     12    ccc     C9    347 0.526324  12.010000   ; qtot 1.440898
  348          o     12    ccc     O3    348 -0.39142825  16.000000   ; qtot 0.744392
  349         oh     12    ccc     O4    349 -0.56822625  16.000000   ; qtot -0.096419
  350         ho     12    ccc    H16    350 0.4186155   1.008000   ; qtot 0.429656
  351         os     12    ccc     O5    351 -0.42966500  16.000000   ; qtot -0.000009
; residue   13 ccc rtp ccc q 0.0
  352         c3     13    ccc     C1    352 0.50749700  12.010000   ; qtot 0.507488
  353         h1     13    ccc     H1    353 -0.02808400   1.008000   ; qtot 0.479404
  354         h1     13    ccc     H2    354 -0.02808400   1.008000   ; qtot 0.451320
  355         c3     13    ccc     C2    355 -0.15486000  12.010000   ; qtot 0.296460
  356         hc     13    ccc     H3    356 0.10266400   1.008000   ; qtot 0.399124
  357         hc     13    ccc     H4    357 0.10266400   1.008000   ; qtot 0.501788
  358         c3     13    ccc     C3    358 -0.15693500  12.010000   ; qtot 0.344853
  359         h1     13    ccc     H5    359 0.08499200   1.008000   ; qtot 0.429845
  360         h1     13    ccc     H6    360 0.08499200   1.008000   ; qtot 0.514837
  361         n3     13    ccc     N1    361 -0.29948700  14.010000   ; qtot 0.215350
  362         c3     13    ccc     C4    362 -0.01321200  12.010000   ; qtot 0.202138
  363         h1     13    ccc     H7    363 0.08172200   1.008000   ; qtot 0.283860
  364         h1     13    ccc     H8    364 0.08172200   1.008000   ; qtot 0.365582
  365         c3     13    ccc     C5    365 -0.22180000  12.010000   ; qtot 0.143782
  366         hc     13    ccc     H9    366 0.09671800   1.008000   ; qtot 0.240500
  367         hc     13    ccc    H10    367 0.09671800   1.008000   ; qtot 0.337218
  368          c     13    ccc     C6    368 0.526324  12.010000   ; qtot 1.333745
  369          o     13    ccc     O1    369 -0.39142825  16.000000   ; qtot 0.637239
  370         oh     13    ccc     O2    370 -0.56822625  16.000000   ; qtot -0.203572
  371         ho     13    ccc    H11    371 0.4186155   1.008000   ; qtot 0.322503
  372         c3     13    ccc     C7    372 -0.01321200  12.010000   ; qtot 0.309291
  373         h1     13    ccc    H12    373 0.08172200   1.008000   ; qtot 0.391013
  374         h1     13    ccc    H13    374 0.08172200   1.008000   ; qtot 0.472735
  375         c3     13    ccc     C8    375 -0.22180000  12.010000   ; qtot 0.250935
  376         hc     13    ccc    H14    376 0.09671800   1.008000   ; qtot 0.347653
  377         hc     13    ccc    H15    377 0.09671800   1.008000   ; qtot 0.444371
  378          c     13    ccc     C9    378 0.526324  12.010000   ; qtot 1.440898
  379          o     13    ccc     O3    379 -0.39142825  16.000000   ; qtot 0.744392
  380         oh     13    ccc     O4    380 -0.56822625  16.000000   ; qtot -0.096419
  381         ho     13    ccc    H16    381 0.4186155   1.008000   ; qtot 0.429656
  382         os     13    ccc     O5    382 -0.42966500  16.000000   ; qtot -0.000009
; residue   14 ccc rtp ccc q 0.0
  383         c3     14    ccc     C1    383 0.50749700  12.010000   ; qtot 0.507488
  384         h1     14    ccc     H1    384 -0.02808400   1.008000   ; qtot 0.479404
  385         h1     14    ccc     H2    385 -0.02808400   1.008000   ; qtot 0.451320
  386         c3     14    ccc     C2    386 -0.15486000  12.010000   ; qtot 0.296460
  387         hc     14    ccc     H3    387 0.10266400   1.008000   ; qtot 0.399124
  388         hc     14    ccc     H4    388 0.10266400   1.008000   ; qtot 0.501788
  389         c3     14    ccc     C3    389 -0.15693500  12.010000   ; qtot 0.344853
  390         h1     14    ccc     H5    390 0.08499200   1.008000   ; qtot 0.429845
  391         h1     14    ccc     H6    391 0.08499200   1.008000   ; qtot 0.514837
  392         n3     14    ccc     N1    392 -0.29948700  14.010000   ; qtot 0.215350
  393         c3     14    ccc     C4    393 -0.01321200  12.010000   ; qtot 0.202138
  394         h1     14    ccc     H7    394 0.08172200   1.008000   ; qtot 0.283860
  395         h1     14    ccc     H8    395 0.08172200   1.008000   ; qtot 0.365582
  396         c3     14    ccc     C5    396 -0.22180000  12.010000   ; qtot 0.143782
  397         hc     14    ccc     H9    397 0.09671800   1.008000   ; qtot 0.240500
  398         hc     14    ccc    H10    398 0.09671800   1.008000   ; qtot 0.337218
  399          c     14    ccc     C6    399 0.526324  12.010000   ; qtot 1.333745
  400          o     14    ccc     O1    400 -0.39142825  16.000000   ; qtot 0.637239
  401         oh     14    ccc     O2    401 -0.56822625  16.000000   ; qtot -0.203572
  402         ho     14    ccc    H11    402 0.4186155   1.008000   ; qtot 0.322503
  403         c3     14    ccc     C7    403 -0.01321200  12.010000   ; qtot 0.309291
  404         h1     14    ccc    H12    404 0.08172200   1.008000   ; qtot 0.391013
  405         h1     14    ccc    H13    405 0.08172200   1.008000   ; qtot 0.472735
  406         c3     14    ccc     C8    406 -0.22180000  12.010000   ; qtot 0.250935
  407         hc     14    ccc    H14    407 0.09671800   1.008000   ; qtot 0.347653
  408         hc     14    ccc    H15    408 0.09671800   1.008000   ; qtot 0.444371
  409          c     14    ccc     C9    409 0.526324  12.010000   ; qtot 1.440898
  410          o     14    ccc     O3    410 -0.39142825  16.000000   ; qtot 0.744392
  411         oh     14    ccc     O4    411 -0.56822625  16.000000   ; qtot -0.096419
  412         ho     14    ccc    H16    412 0.4186155   1.008000   ; qtot 0.429656
  413         os     14    ccc     O5    413 -0.42966500  16.000000   ; qtot -0.000009
; residue   15 ccc rtp ccc q 0.0
  414         c3     15    ccc     C1    414 0.50749700  12.010000   ; qtot 0.507488
  415         h1     15    ccc     H1    415 -0.02808400   1.008000   ; qtot 0.479404
  416         h1     15    ccc     H2    416 -0.02808400   1.008000   ; qtot 0.451320
  417         c3     15    ccc     C2    417 -0.15486000  12.010000   ; qtot 0.296460
  418         hc     15    ccc     H3    418 0.10266400   1.008000   ; qtot 0.399124
  419         hc     15    ccc     H4    419 0.10266400   1.008000   ; qtot 0.501788
  420         c3     15    ccc     C3    420 -0.15693500  12.010000   ; qtot 0.344853
  421         h1     15    ccc     H5    421 0.08499200   1.008000   ; qtot 0.429845
  422         h1     15    ccc     H6    422 0.08499200   1.008000   ; qtot 0.514837
  423         n3     15    ccc     N1    423 -0.29948700  14.010000   ; qtot 0.215350
  424         c3     15    ccc     C4    424 -0.01321200  12.010000   ; qtot 0.202138
  425         h1     15    ccc     H7    425 0.08172200   1.008000   ; qtot 0.283860
  426         h1     15    ccc     H8    426 0.08172200   1.008000   ; qtot 0.365582
  427         c3     15    ccc     C5    427 -0.22180000  12.010000   ; qtot 0.143782
  428         hc     15    ccc     H9    428 0.09671800   1.008000   ; qtot 0.240500
  429         hc     15    ccc    H10    429 0.09671800   1.008000   ; qtot 0.337218
  430          c     15    ccc     C6    430 0.526324  12.010000   ; qtot 1.333745
  431          o     15    ccc     O1    431 -0.39142825  16.000000   ; qtot 0.637239
  432         oh     15    ccc     O2    432 -0.56822625  16.000000   ; qtot -0.203572
  433         ho     15    ccc    H11    433 0.4186155   1.008000   ; qtot 0.322503
  434         c3     15    ccc     C7    434 -0.01321200  12.010000   ; qtot 0.309291
  435         h1     15    ccc    H12    435 0.08172200   1.008000   ; qtot 0.391013
  436         h1     15    ccc    H13    436 0.08172200   1.008000   ; qtot 0.472735
  437         c3     15    ccc     C8    437 -0.22180000  12.010000   ; qtot 0.250935
  438         hc     15    ccc    H14    438 0.09671800   1.008000   ; qtot 0.347653
  439         hc     15    ccc    H15    439 0.09671800   1.008000   ; qtot 0.444371
  440          c     15    ccc     C9    440 0.526324  12.010000   ; qtot 1.440898
  441          o     15    ccc     O3    441 -0.39142825  16.000000   ; qtot 0.744392
  442         oh     15    ccc     O4    442 -0.56822625  16.000000   ; qtot -0.096419
  443         ho     15    ccc    H16    443 0.4186155   1.008000   ; qtot 0.429656
  444         os     15    ccc     O5    444 -0.42966500  16.000000   ; qtot -0.000009
; residue   16 ccc rtp ccc q 0.0
  445         c3     16    ccc     C1    445 0.50749700  12.010000   ; qtot 0.507488
  446         h1     16    ccc     H1    446 -0.02808400   1.008000   ; qtot 0.479404
  447         h1     16    ccc     H2    447 -0.02808400   1.008000   ; qtot 0.451320
  448         c3     16    ccc     C2    448 -0.15486000  12.010000   ; qtot 0.296460
  449         hc     16    ccc     H3    449 0.10266400   1.008000   ; qtot 0.399124
  450         hc     16    ccc     H4    450 0.10266400   1.008000   ; qtot 0.501788
  451         c3     16    ccc     C3    451 -0.15693500  12.010000   ; qtot 0.344853
  452         h1     16    ccc     H5    452 0.08499200   1.008000   ; qtot 0.429845
  453         h1     16    ccc     H6    453 0.08499200   1.008000   ; qtot 0.514837
  454         n3     16    ccc     N1    454 -0.29948700  14.010000   ; qtot 0.215350
  455         c3     16    ccc     C4    455 -0.01321200  12.010000   ; qtot 0.202138
  456         h1     16    ccc     H7    456 0.08172200   1.008000   ; qtot 0.283860
  457         h1     16    ccc     H8    457 0.08172200   1.008000   ; qtot 0.365582
  458         c3     16    ccc     C5    458 -0.22180000  12.010000   ; qtot 0.143782
  459         hc     16    ccc     H9    459 0.09671800   1.008000   ; qtot 0.240500
  460         hc     16    ccc    H10    460 0.09671800   1.008000   ; qtot 0.337218
  461          c     16    ccc     C6    461 0.526324  12.010000   ; qtot 1.333745
  462          o     16    ccc     O1    462 -0.39142825  16.000000   ; qtot 0.637239
  463         oh     16    ccc     O2    463 -0.56822625  16.000000   ; qtot -0.203572
  464         ho     16    ccc    H11    464 0.4186155   1.008000   ; qtot 0.322503
  465         c3     16    ccc     C7    465 -0.01321200  12.010000   ; qtot 0.309291
  466         h1     16    ccc    H12    466 0.08172200   1.008000   ; qtot 0.391013
  467         h1     16    ccc    H13    467 0.08172200   1.008000   ; qtot 0.472735
  468         c3     16    ccc     C8    468 -0.22180000  12.010000   ; qtot 0.250935
  469         hc     16    ccc    H14    469 0.09671800   1.008000   ; qtot 0.347653
  470         hc     16    ccc    H15    470 0.09671800   1.008000   ; qtot 0.444371
  471          c     16    ccc     C9    471 0.526324  12.010000   ; qtot 1.440898
  472          o     16    ccc     O3    472 -0.39142825  16.000000   ; qtot 0.744392
  473         oh     16    ccc     O4    473 -0.56822625  16.000000   ; qtot -0.096419
  474         ho     16    ccc    H16    474 0.4186155   1.008000   ; qtot 0.429656
  475         os     16    ccc     O5    475 -0.42966500  16.000000   ; qtot -0.000009
; residue   17 ccc rtp ccc q 0.0
  476         c3     17    ccc     C1    476 0.50749700  12.010000   ; qtot 0.507488
  477         h1     17    ccc     H1    477 -0.02808400   1.008000   ; qtot 0.479404
  478         h1     17    ccc     H2    478 -0.02808400   1.008000   ; qtot 0.451320
  479         c3     17    ccc     C2    479 -0.15486000  12.010000   ; qtot 0.296460
  480         hc     17    ccc     H3    480 0.10266400   1.008000   ; qtot 0.399124
  481         hc     17    ccc     H4    481 0.10266400   1.008000   ; qtot 0.501788
  482         c3     17    ccc     C3    482 -0.15693500  12.010000   ; qtot 0.344853
  483         h1     17    ccc     H5    483 0.08499200   1.008000   ; qtot 0.429845
  484         h1     17    ccc     H6    484 0.08499200   1.008000   ; qtot 0.514837
  485         n3     17    ccc     N1    485 -0.29948700  14.010000   ; qtot 0.215350
  486         c3     17    ccc     C4    486 -0.01321200  12.010000   ; qtot 0.202138
  487         h1     17    ccc     H7    487 0.08172200   1.008000   ; qtot 0.283860
  488         h1     17    ccc     H8    488 0.08172200   1.008000   ; qtot 0.365582
  489         c3     17    ccc     C5    489 -0.22180000  12.010000   ; qtot 0.143782
  490         hc     17    ccc     H9    490 0.09671800   1.008000   ; qtot 0.240500
  491         hc     17    ccc    H10    491 0.09671800   1.008000   ; qtot 0.337218
  492          c     17    ccc     C6    492 0.526324  12.010000   ; qtot 1.333745
  493          o     17    ccc     O1    493 -0.39142825  16.000000   ; qtot 0.637239
  494         oh     17    ccc     O2    494 -0.56822625  16.000000   ; qtot -0.203572
  495         ho     17    ccc    H11    495 0.4186155   1.008000   ; qtot 0.322503
  496         c3     17    ccc     C7    496 -0.01321200  12.010000   ; qtot 0.309291
  497         h1     17    ccc    H12    497 0.08172200   1.008000   ; qtot 0.391013
  498         h1     17    ccc    H13    498 0.08172200   1.008000   ; qtot 0.472735
  499         c3     17    ccc     C8    499 -0.22180000  12.010000   ; qtot 0.250935
  500         hc     17    ccc    H14    500 0.09671800   1.008000   ; qtot 0.347653
  501         hc     17    ccc    H15    501 0.09671800   1.008000   ; qtot 0.444371
  502          c     17    ccc     C9    502 0.526324  12.010000   ; qtot 1.440898
  503          o     17    ccc     O3    503 -0.39142825  16.000000   ; qtot 0.744392
  504         oh     17    ccc     O4    504 -0.56822625  16.000000   ; qtot -0.096419
  505         ho     17    ccc    H16    505 0.4186155   1.008000   ; qtot 0.429656
  506         os     17    ccc     O5    506 -0.42966500  16.000000   ; qtot -0.000009
; residue   18 ccc rtp ccc q 0.0
  507         c3     18    ccc     C1    507 0.50749700  12.010000   ; qtot 0.507488
  508         h1     18    ccc     H1    508 -0.02808400   1.008000   ; qtot 0.479404
  509         h1     18    ccc     H2    509 -0.02808400   1.008000   ; qtot 0.451320
  510         c3     18    ccc     C2    510 -0.15486000  12.010000   ; qtot 0.296460
  511         hc     18    ccc     H3    511 0.10266400   1.008000   ; qtot 0.399124
  512         hc     18    ccc     H4    512 0.10266400   1.008000   ; qtot 0.501788
  513         c3     18    ccc     C3    513 -0.15693500  12.010000   ; qtot 0.344853
  514         h1     18    ccc     H5    514 0.08499200   1.008000   ; qtot 0.429845
  515         h1     18    ccc     H6    515 0.08499200   1.008000   ; qtot 0.514837
  516         n3     18    ccc     N1    516 -0.29948700  14.010000   ; qtot 0.215350
  517         c3     18    ccc     C4    517 -0.01321200  12.010000   ; qtot 0.202138
  518         h1     18    ccc     H7    518 0.08172200   1.008000   ; qtot 0.283860
  519         h1     18    ccc     H8    519 0.08172200   1.008000   ; qtot 0.365582
  520         c3     18    ccc     C5    520 -0.22180000  12.010000   ; qtot 0.143782
  521         hc     18    ccc     H9    521 0.09671800   1.008000   ; qtot 0.240500
  522         hc     18    ccc    H10    522 0.09671800   1.008000   ; qtot 0.337218
  523          c     18    ccc     C6    523 0.526324  12.010000   ; qtot 1.333745
  524          o     18    ccc     O1    524 -0.39142825  16.000000   ; qtot 0.637239
  525         oh     18    ccc     O2    525 -0.56822625  16.000000   ; qtot -0.203572
  526         ho     18    ccc    H11    526 0.4186155   1.008000   ; qtot 0.322503
  527         c3     18    ccc     C7    527 -0.01321200  12.010000   ; qtot 0.309291
  528         h1     18    ccc    H12    528 0.08172200   1.008000   ; qtot 0.391013
  529         h1     18    ccc    H13    529 0.08172200   1.008000   ; qtot 0.472735
  530         c3     18    ccc     C8    530 -0.22180000  12.010000   ; qtot 0.250935
  531         hc     18    ccc    H14    531 0.09671800   1.008000   ; qtot 0.347653
  532         hc     18    ccc    H15    532 0.09671800   1.008000   ; qtot 0.444371
  533          c     18    ccc     C9    533 0.526324  12.010000   ; qtot 1.440898
  534          o     18    ccc     O3    534 -0.39142825  16.000000   ; qtot 0.744392
  535         oh     18    ccc     O4    535 -0.56822625  16.000000   ; qtot -0.096419
  536         ho     18    ccc    H16    536 0.4186155   1.008000   ; qtot 0.429656
  537         os     18    ccc     O5    537 -0.42966500  16.000000   ; qtot -0.000009
; residue   19 ccc rtp ccc q 0.0
  538         c3     19    ccc     C1    538 0.50749700  12.010000   ; qtot 0.507488
  539         h1     19    ccc     H1    539 -0.02808400   1.008000   ; qtot 0.479404
  540         h1     19    ccc     H2    540 -0.02808400   1.008000   ; qtot 0.451320
  541         c3     19    ccc     C2    541 -0.15486000  12.010000   ; qtot 0.296460
  542         hc     19    ccc     H3    542 0.10266400   1.008000   ; qtot 0.399124
  543         hc     19    ccc     H4    543 0.10266400   1.008000   ; qtot 0.501788
  544         c3     19    ccc     C3    544 -0.15693500  12.010000   ; qtot 0.344853
  545         h1     19    ccc     H5    545 0.08499200   1.008000   ; qtot 0.429845
  546         h1     19    ccc     H6    546 0.08499200   1.008000   ; qtot 0.514837
  547         n3     19    ccc     N1    547 -0.29948700  14.010000   ; qtot 0.215350
  548         c3     19    ccc     C4    548 -0.01321200  12.010000   ; qtot 0.202138
  549         h1     19    ccc     H7    549 0.08172200   1.008000   ; qtot 0.283860
  550         h1     19    ccc     H8    550 0.08172200   1.008000   ; qtot 0.365582
  551         c3     19    ccc     C5    551 -0.22180000  12.010000   ; qtot 0.143782
  552         hc     19    ccc     H9    552 0.09671800   1.008000   ; qtot 0.240500
  553         hc     19    ccc    H10    553 0.09671800   1.008000   ; qtot 0.337218
  554          c     19    ccc     C6    554 0.526324  12.010000   ; qtot 1.333745
  555          o     19    ccc     O1    555 -0.39142825  16.000000   ; qtot 0.637239
  556         oh     19    ccc     O2    556 -0.56822625  16.000000   ; qtot -0.203572
  557         ho     19    ccc    H11    557 0.4186155   1.008000   ; qtot 0.322503
  558         c3     19    ccc     C7    558 -0.01321200  12.010000   ; qtot 0.309291
  559         h1     19    ccc    H12    559 0.08172200   1.008000   ; qtot 0.391013
  560         h1     19    ccc    H13    560 0.08172200   1.008000   ; qtot 0.472735
  561         c3     19    ccc     C8    561 -0.22180000  12.010000   ; qtot 0.250935
  562         hc     19    ccc    H14    562 0.09671800   1.008000   ; qtot 0.347653
  563         hc     19    ccc    H15    563 0.09671800   1.008000   ; qtot 0.444371
  564          c     19    ccc     C9    564 0.526324  12.010000   ; qtot 1.440898
  565          o     19    ccc     O3    565 -0.39142825  16.000000   ; qtot 0.744392
  566         oh     19    ccc     O4    566 -0.56822625  16.000000   ; qtot -0.096419
  567         ho     19    ccc    H16    567 0.4186155   1.008000   ; qtot 0.429656
  568         os     19    ccc     O5    568 -0.42966500  16.000000   ; qtot -0.000009
; residue   20 ccc rtp ccc q 0.0
  569         c3     20    ccc     C1    569 0.50749700  12.010000   ; qtot 0.507488
  570         h1     20    ccc     H1    570 -0.02808400   1.008000   ; qtot 0.479404
  571         h1     20    ccc     H2    571 -0.02808400   1.008000   ; qtot 0.451320
  572         c3     20    ccc     C2    572 -0.15486000  12.010000   ; qtot 0.296460
  573         hc     20    ccc     H3    573 0.10266400   1.008000   ; qtot 0.399124
  574         hc     20    ccc     H4    574 0.10266400   1.008000   ; qtot 0.501788
  575         c3     20    ccc     C3    575 -0.15693500  12.010000   ; qtot 0.344853
  576         h1     20    ccc     H5    576 0.08499200   1.008000   ; qtot 0.429845
  577         h1     20    ccc     H6    577 0.08499200   1.008000   ; qtot 0.514837
  578         n3     20    ccc     N1    578 -0.29948700  14.010000   ; qtot 0.215350
  579         c3     20    ccc     C4    579 -0.01321200  12.010000   ; qtot 0.202138
  580         h1     20    ccc     H7    580 0.08172200   1.008000   ; qtot 0.283860
  581         h1     20    ccc     H8    581 0.08172200   1.008000   ; qtot 0.365582
  582         c3     20    ccc     C5    582 -0.22180000  12.010000   ; qtot 0.143782
  583         hc     20    ccc     H9    583 0.09671800   1.008000   ; qtot 0.240500
  584         hc     20    ccc    H10    584 0.09671800   1.008000   ; qtot 0.337218
  585          c     20    ccc     C6    585 0.526324  12.010000   ; qtot 1.333745
  586          o     20    ccc     O1    586 -0.39142825  16.000000   ; qtot 0.637239
  587         oh     20    ccc     O2    587 -0.56822625  16.000000   ; qtot -0.203572
  588         ho     20    ccc    H11    588 0.4186155   1.008000   ; qtot 0.322503
  589         c3     20    ccc     C7    589 -0.01321200  12.010000   ; qtot 0.309291
  590         h1     20    ccc    H12    590 0.08172200   1.008000   ; qtot 0.391013
  591         h1     20    ccc    H13    591 0.08172200   1.008000   ; qtot 0.472735
  592         c3     20    ccc     C8    592 -0.22180000  12.010000   ; qtot 0.250935
  593         hc     20    ccc    H14    593 0.09671800   1.008000   ; qtot 0.347653
  594         hc     20    ccc    H15    594 0.09671800   1.008000   ; qtot 0.444371
  595          c     20    ccc     C9    595 0.526324  12.010000   ; qtot 1.440898
  596          o     20    ccc     O3    596 -0.39142825  16.000000   ; qtot 0.744392
  597         oh     20    ccc     O4    597 -0.56822625  16.000000   ; qtot -0.096419
  598         ho     20    ccc    H16    598 0.4186155   1.008000   ; qtot 0.429656
  599         os     20    ccc     O5    599 -0.42966500  16.000000   ; qtot -0.000009
; residue   21 ccc rtp ccc q 0.0
  600         c3     21    ccc     C1    600 0.50749700  12.010000   ; qtot 0.507488
  601         h1     21    ccc     H1    601 -0.02808400   1.008000   ; qtot 0.479404
  602         h1     21    ccc     H2    602 -0.02808400   1.008000   ; qtot 0.451320
  603         c3     21    ccc     C2    603 -0.15486000  12.010000   ; qtot 0.296460
  604         hc     21    ccc     H3    604 0.10266400   1.008000   ; qtot 0.399124
  605         hc     21    ccc     H4    605 0.10266400   1.008000   ; qtot 0.501788
  606         c3     21    ccc     C3    606 -0.15693500  12.010000   ; qtot 0.344853
  607         h1     21    ccc     H5    607 0.08499200   1.008000   ; qtot 0.429845
  608         h1     21    ccc     H6    608 0.08499200   1.008000   ; qtot 0.514837
  609         n3     21    ccc     N1    609 -0.29948700  14.010000   ; qtot 0.215350
  610         c3     21    ccc     C4    610 -0.01321200  12.010000   ; qtot 0.202138
  611         h1     21    ccc     H7    611 0.08172200   1.008000   ; qtot 0.283860
  612         h1     21    ccc     H8    612 0.08172200   1.008000   ; qtot 0.365582
  613         c3     21    ccc     C5    613 -0.22180000  12.010000   ; qtot 0.143782
  614         hc     21    ccc     H9    614 0.09671800   1.008000   ; qtot 0.240500
  615         hc     21    ccc    H10    615 0.09671800   1.008000   ; qtot 0.337218
  616          c     21    ccc     C6    616 0.526324  12.010000   ; qtot 1.333745
  617          o     21    ccc     O1    617 -0.39142825  16.000000   ; qtot 0.637239
  618         oh     21    ccc     O2    618 -0.56822625  16.000000   ; qtot -0.203572
  619         ho     21    ccc    H11    619 0.4186155   1.008000   ; qtot 0.322503
  620         c3     21    ccc     C7    620 -0.01321200  12.010000   ; qtot 0.309291
  621         h1     21    ccc    H12    621 0.08172200   1.008000   ; qtot 0.391013
  622         h1     21    ccc    H13    622 0.08172200   1.008000   ; qtot 0.472735
  623         c3     21    ccc     C8    623 -0.22180000  12.010000   ; qtot 0.250935
  624         hc     21    ccc    H14    624 0.09671800   1.008000   ; qtot 0.347653
  625         hc     21    ccc    H15    625 0.09671800   1.008000   ; qtot 0.444371
  626          c     21    ccc     C9    626 0.526324  12.010000   ; qtot 1.440898
  627          o     21    ccc     O3    627 -0.39142825  16.000000   ; qtot 0.744392
  628         oh     21    ccc     O4    628 -0.56822625  16.000000   ; qtot -0.096419
  629         ho     21    ccc    H16    629 0.4186155   1.008000   ; qtot 0.429656
  630         os     21    ccc     O5    630 -0.42966500  16.000000   ; qtot -0.000009
; residue   22 ccc rtp ccc q 0.0
  631         c3     22    ccc     C1    631 0.50749700  12.010000   ; qtot 0.507488
  632         h1     22    ccc     H1    632 -0.02808400   1.008000   ; qtot 0.479404
  633         h1     22    ccc     H2    633 -0.02808400   1.008000   ; qtot 0.451320
  634         c3     22    ccc     C2    634 -0.15486000  12.010000   ; qtot 0.296460
  635         hc     22    ccc     H3    635 0.10266400   1.008000   ; qtot 0.399124
  636         hc     22    ccc     H4    636 0.10266400   1.008000   ; qtot 0.501788
  637         c3     22    ccc     C3    637 -0.15693500  12.010000   ; qtot 0.344853
  638         h1     22    ccc     H5    638 0.08499200   1.008000   ; qtot 0.429845
  639         h1     22    ccc     H6    639 0.08499200   1.008000   ; qtot 0.514837
  640         n3     22    ccc     N1    640 -0.29948700  14.010000   ; qtot 0.215350
  641         c3     22    ccc     C4    641 -0.01321200  12.010000   ; qtot 0.202138
  642         h1     22    ccc     H7    642 0.08172200   1.008000   ; qtot 0.283860
  643         h1     22    ccc     H8    643 0.08172200   1.008000   ; qtot 0.365582
  644         c3     22    ccc     C5    644 -0.22180000  12.010000   ; qtot 0.143782
  645         hc     22    ccc     H9    645 0.09671800   1.008000   ; qtot 0.240500
  646         hc     22    ccc    H10    646 0.09671800   1.008000   ; qtot 0.337218
  647          c     22    ccc     C6    647 0.526324  12.010000   ; qtot 1.333745
  648          o     22    ccc     O1    648 -0.39142825  16.000000   ; qtot 0.637239
  649         oh     22    ccc     O2    649 -0.56822625  16.000000   ; qtot -0.203572
  650         ho     22    ccc    H11    650 0.4186155   1.008000   ; qtot 0.322503
  651         c3     22    ccc     C7    651 -0.01321200  12.010000   ; qtot 0.309291
  652         h1     22    ccc    H12    652 0.08172200   1.008000   ; qtot 0.391013
  653         h1     22    ccc    H13    653 0.08172200   1.008000   ; qtot 0.472735
  654         c3     22    ccc     C8    654 -0.22180000  12.010000   ; qtot 0.250935
  655         hc     22    ccc    H14    655 0.09671800   1.008000   ; qtot 0.347653
  656         hc     22    ccc    H15    656 0.09671800   1.008000   ; qtot 0.444371
  657          c     22    ccc     C9    657 0.526324  12.010000   ; qtot 1.440898
  658          o     22    ccc     O3    658 -0.39142825  16.000000   ; qtot 0.744392
  659         oh     22    ccc     O4    659 -0.56822625  16.000000   ; qtot -0.096419
  660         ho     22    ccc    H16    660 0.4186155   1.008000   ; qtot 0.429656
  661         os     22    ccc     O5    661 -0.42966500  16.000000   ; qtot -0.000009

[ bonds ]
;    ai     aj funct         c0         c1         c2         c3
      1      2     1   0.14647 272713.120000
      1      5     1   0.14647 272713.120000
      1      8     1   0.14647 272713.120000
      2     14     1   0.15375 251793.120000
      5     17     1   0.15375 251793.120000
      8     11     1   0.15375 251793.120000
     11     23     1   0.15375 251793.120000
     14     26     1   0.15375 251793.120000
     17     20     1   0.15375 251793.120000
     20     57     1   0.14316 258236.480000
     23     86     1   0.14316 258236.480000
     26    115     1   0.14316 258236.480000
     29     30     1   0.14647 272713.120000
     29     33     1   0.14647 272713.120000
     29     36     1   0.14647 272713.120000
     30     42     1   0.15375 251793.120000
     33     45     1   0.15375 251793.120000
     36     39     1   0.15375 251793.120000
     39     48     1   0.15375 251793.120000
     42     54     1   0.15375 251793.120000
     45     51     1   0.15375 251793.120000
     48     57     1   0.14316 258236.480000
     51    144     1   0.14316 258236.480000
     54    173     1   0.14316 258236.480000
     58     59     1   0.14647 272713.120000
     58     62     1   0.14647 272713.120000
     58     65     1   0.14647 272713.120000
     59     71     1   0.15375 251793.120000
     62     74     1   0.15375 251793.120000
     65     68     1   0.15375 251793.120000
     68     77     1   0.15375 251793.120000
     71     83     1   0.15375 251793.120000
     74     80     1   0.15375 251793.120000
     77     86     1   0.14316 258236.480000
     80    202     1   0.14316 258236.480000
     83    231     1   0.14316 258236.480000
     87     88     1   0.14647 272713.120000
     87     91     1   0.14647 272713.120000
     87     94     1   0.14647 272713.120000
     88    100     1   0.15375 251793.120000
     91    103     1   0.15375 251793.120000
     94     97     1   0.15375 251793.120000
     97    106     1   0.15375 251793.120000
    100    112     1   0.15375 251793.120000
    103    109     1   0.15375 251793.120000
    106    115     1   0.14316 258236.480000
    109    260     1   0.14316 258236.480000
    112    289     1   0.14316 258236.480000
    116    117     1   0.14647 272713.120000
    116    120     1   0.14647 272713.120000
    116    123     1   0.14647 272713.120000
    117    129     1   0.15375 251793.120000
    120    132     1   0.15375 251793.120000
    123    126     1   0.15375 251793.120000
    126    135     1   0.15375 251793.120000
    129    141     1   0.15375 251793.120000
    132    138     1   0.15375 251793.120000
    135    144     1   0.14316 258236.480000
    138    320     1   0.14316 258236.480000
    141    351     1   0.14316 258236.480000
    145    146     1   0.14647 272713.120000
    145    149     1   0.14647 272713.120000
    145    152     1   0.14647 272713.120000
    146    158     1   0.15375 251793.120000
    149    161     1   0.15375 251793.120000
    152    155     1   0.15375 251793.120000
    155    164     1   0.15375 251793.120000
    158    170     1   0.15375 251793.120000
    161    167     1   0.15375 251793.120000
    164    173     1   0.14316 258236.480000
    167    382     1   0.14316 258236.480000
    170    413     1   0.14316 258236.480000
    174    175     1   0.14647 272713.120000
    174    178     1   0.14647 272713.120000
    174    181     1   0.14647 272713.120000
    175    187     1   0.15375 251793.120000
    178    190     1   0.15375 251793.120000
    181    184     1   0.15375 251793.120000
    184    193     1   0.15375 251793.120000
    187    199     1   0.15375 251793.120000
    190    196     1   0.15375 251793.120000
    193    202     1   0.14316 258236.480000
    196    444     1   0.14316 258236.480000
    199    475     1   0.14316 258236.480000
    203    204     1   0.14647 272713.120000
    203    207     1   0.14647 272713.120000
    203    210     1   0.14647 272713.120000
    204    216     1   0.15375 251793.120000
    207    219     1   0.15375 251793.120000
    210    213     1   0.15375 251793.120000
    213    222     1   0.15375 251793.120000
    216    228     1   0.15375 251793.120000
    219    225     1   0.15375 251793.120000
    222    231     1   0.14316 258236.480000
    225    506     1   0.14316 258236.480000
    228    537     1   0.14316 258236.480000
    232    233     1   0.14647 272713.120000
    232    236     1   0.14647 272713.120000
    232    239     1   0.14647 272713.120000
    233    245     1   0.15375 251793.120000
    236    248     1   0.15375 251793.120000
    239    242     1   0.15375 251793.120000
    242    251     1   0.15375 251793.120000
    245    257     1   0.15375 251793.120000
    248    254     1   0.15375 251793.120000
    251    260     1   0.14316 258236.480000
    254    568     1   0.14316 258236.480000
    257    599     1   0.14316 258236.480000
    261    262     1   0.14647 272713.120000
    261    265     1   0.14647 272713.120000
    261    268     1   0.14647 272713.120000
    262    274     1   0.15375 251793.120000
    265    277     1   0.15375 251793.120000
    268    271     1   0.15375 251793.120000
    271    280     1   0.15375 251793.120000
    274    286     1   0.15375 251793.120000
    277    283     1   0.15375 251793.120000
    280    289     1   0.14316 258236.480000
    283    630     1   0.14316 258236.480000
    286    661     1   0.14316 258236.480000
    290    293     1   0.15375 251793.120000
    290    320     1   0.14316 258236.480000
    293    296     1   0.15375 251793.120000
    296    299     1   0.14647 272713.120000
    299    300     1   0.14647 272713.120000
    299    310     1   0.14647 272713.120000
    300    303     1   0.15375 251793.120000
    303    306     1   0.15241 261918.400000
    306    307     1   0.12183 533627.360000
    306    308     1   0.13513 334803.680000
    310    313     1   0.15375 251793.120000
    313    316     1   0.15241 261918.400000
    316    317     1   0.12183 533627.360000
    316    318     1   0.13513 334803.680000
    321    324     1   0.15375 251793.120000
    321    351     1   0.14316 258236.480000
    324    327     1   0.15375 251793.120000
    327    330     1   0.14647 272713.120000
    330    331     1   0.14647 272713.120000
    330    341     1   0.14647 272713.120000
    331    334     1   0.15375 251793.120000
    334    337     1   0.15241 261918.400000
    337    338     1   0.12183 533627.360000
    337    339     1   0.13513 334803.680000
    341    344     1   0.15375 251793.120000
    344    347     1   0.15241 261918.400000
    347    348     1   0.12183 533627.360000
    347    349     1   0.13513 334803.680000
    352    355     1   0.15375 251793.120000
    352    382     1   0.14316 258236.480000
    355    358     1   0.15375 251793.120000
    358    361     1   0.14647 272713.120000
    361    362     1   0.14647 272713.120000
    361    372     1   0.14647 272713.120000
    362    365     1   0.15375 251793.120000
    365    368     1   0.15241 261918.400000
    368    369     1   0.12183 533627.360000
    368    370     1   0.13513 334803.680000
    372    375     1   0.15375 251793.120000
    375    378     1   0.15241 261918.400000
    378    379     1   0.12183 533627.360000
    378    380     1   0.13513 334803.680000
    383    386     1   0.15375 251793.120000
    383    413     1   0.14316 258236.480000
    386    389     1   0.15375 251793.120000
    389    392     1   0.14647 272713.120000
    392    393     1   0.14647 272713.120000
    392    403     1   0.14647 272713.120000
    393    396     1   0.15375 251793.120000
    396    399     1   0.15241 261918.400000
    399    400     1   0.12183 533627.360000
    399    401     1   0.13513 334803.680000
    403    406     1   0.15375 251793.120000
    406    409     1   0.15241 261918.400000
    409    410     1   0.12183 533627.360000
    409    411     1   0.13513 334803.680000
    414    417     1   0.15375 251793.120000
    414    444     1   0.14316 258236.480000
    417    420     1   0.15375 251793.120000
    420    423     1   0.14647 272713.120000
    423    424     1   0.14647 272713.120000
    423    434     1   0.14647 272713.120000
    424    427     1   0.15375 251793.120000
    427    430     1   0.15241 261918.400000
    430    431     1   0.12183 533627.360000
    430    432     1   0.13513 334803.680000
    434    437     1   0.15375 251793.120000
    437    440     1   0.15241 261918.400000
    440    441     1   0.12183 533627.360000
    440    442     1   0.13513 334803.680000
    445    448     1   0.15375 251793.120000
    445    475     1   0.14316 258236.480000
    448    451     1   0.15375 251793.120000
    451    454     1   0.14647 272713.120000
    454    455     1   0.14647 272713.120000
    454    465     1   0.14647 272713.120000
    455    458     1   0.15375 251793.120000
    458    461     1   0.15241 261918.400000
    461    462     1   0.12183 533627.360000
    461    463     1   0.13513 334803.680000
    465    468     1   0.15375 251793.120000
    468    471     1   0.15241 261918.400000
    471    472     1   0.12183 533627.360000
    471    473     1   0.13513 334803.680000
    476    479     1   0.15375 251793.120000
    476    506     1   0.14316 258236.480000
    479    482     1   0.15375 251793.120000
    482    485     1   0.14647 272713.120000
    485    486     1   0.14647 272713.120000
    485    496     1   0.14647 272713.120000
    486    489     1   0.15375 251793.120000
    489    492     1   0.15241 261918.400000
    492    493     1   0.12183 533627.360000
    492    494     1   0.13513 334803.680000
    496    499     1   0.15375 251793.120000
    499    502     1   0.15241 261918.400000
    502    503     1   0.12183 533627.360000
    502    504     1   0.13513 334803.680000
    507    510     1   0.15375 251793.120000
    507    537     1   0.14316 258236.480000
    510    513     1   0.15375 251793.120000
    513    516     1   0.14647 272713.120000
    516    517     1   0.14647 272713.120000
    516    527     1   0.14647 272713.120000
    517    520     1   0.15375 251793.120000
    520    523     1   0.15241 261918.400000
    523    524     1   0.12183 533627.360000
    523    525     1   0.13513 334803.680000
    527    530     1   0.15375 251793.120000
    530    533     1   0.15241 261918.400000
    533    534     1   0.12183 533627.360000
    533    535     1   0.13513 334803.680000
    538    541     1   0.15375 251793.120000
    538    568     1   0.14316 258236.480000
    541    544     1   0.15375 251793.120000
    544    547     1   0.14647 272713.120000
    547    548     1   0.14647 272713.120000
    547    558     1   0.14647 272713.120000
    548    551     1   0.15375 251793.120000
    551    554     1   0.15241 261918.400000
    554    555     1   0.12183 533627.360000
    554    556     1   0.13513 334803.680000
    558    561     1   0.15375 251793.120000
    561    564     1   0.15241 261918.400000
    564    565     1   0.12183 533627.360000
    564    566     1   0.13513 334803.680000
    569    572     1   0.15375 251793.120000
    569    599     1   0.14316 258236.480000
    572    575     1   0.15375 251793.120000
    575    578     1   0.14647 272713.120000
    578    579     1   0.14647 272713.120000
    578    589     1   0.14647 272713.120000
    579    582     1   0.15375 251793.120000
    582    585     1   0.15241 261918.400000
    585    586     1   0.12183 533627.360000
    585    587     1   0.13513 334803.680000
    589    592     1   0.15375 251793.120000
    592    595     1   0.15241 261918.400000
    595    596     1   0.12183 533627.360000
    595    597     1   0.13513 334803.680000
    600    603     1   0.15375 251793.120000
    600    630     1   0.14316 258236.480000
    603    606     1   0.15375 251793.120000
    606    609     1   0.14647 272713.120000
    609    610     1   0.14647 272713.120000
    609    620     1   0.14647 272713.120000
    610    613     1   0.15375 251793.120000
    613    616     1   0.15241 261918.400000
    616    617     1   0.12183 533627.360000
    616    618     1   0.13513 334803.680000
    620    623     1   0.15375 251793.120000
    623    626     1   0.15241 261918.400000
    626    627     1   0.12183 533627.360000
    626    628     1   0.13513 334803.680000
    631    634     1   0.15375 251793.120000
    631    661     1   0.14316 258236.480000
    634    637     1   0.15375 251793.120000
    637    640     1   0.14647 272713.120000
    640    641     1   0.14647 272713.120000
    640    651     1   0.14647 272713.120000
    641    644     1   0.15375 251793.120000
    644    647     1   0.15241 261918.400000
    647    648     1   0.12183 533627.360000
    647    649     1   0.13513 334803.680000
    651    654     1   0.15375 251793.120000
    654    657     1   0.15241 261918.400000
    657    658     1   0.12183 533627.360000
    657    659     1   0.13513 334803.680000
      2      3     1   0.10969 276646.080000
      2      4     1   0.10969 276646.080000
      5      6     1   0.10969 276646.080000
      5      7     1   0.10969 276646.080000
      8      9     1   0.10969 276646.080000
      8     10     1   0.10969 276646.080000
     11     12     1   0.10969 276646.080000
     11     13     1   0.10969 276646.080000
     14     15     1   0.10969 276646.080000
     14     16     1   0.10969 276646.080000
     17     18     1   0.10969 276646.080000
     17     19     1   0.10969 276646.080000
     20     21     1   0.10969 276646.080000
     20     22     1   0.10969 276646.080000
     23     24     1   0.10969 276646.080000
     23     25     1   0.10969 276646.080000
     26     27     1   0.10969 276646.080000
     26     28     1   0.10969 276646.080000
     30     31     1   0.10969 276646.080000
     30     32     1   0.10969 276646.080000
     33     34     1   0.10969 276646.080000
     33     35     1   0.10969 276646.080000
     36     37     1   0.10969 276646.080000
     36     38     1   0.10969 276646.080000
     39     40     1   0.10969 276646.080000
     39     41     1   0.10969 276646.080000
     42     43     1   0.10969 276646.080000
     42     44     1   0.10969 276646.080000
     45     46     1   0.10969 276646.080000
     45     47     1   0.10969 276646.080000
     48     49     1   0.10969 276646.080000
     48     50     1   0.10969 276646.080000
     51     52     1   0.10969 276646.080000
     51     53     1   0.10969 276646.080000
     54     55     1   0.10969 276646.080000
     54     56     1   0.10969 276646.080000
     59     60     1   0.10969 276646.080000
     59     61     1   0.10969 276646.080000
     62     63     1   0.10969 276646.080000
     62     64     1   0.10969 276646.080000
     65     66     1   0.10969 276646.080000
     65     67     1   0.10969 276646.080000
     68     69     1   0.10969 276646.080000
     68     70     1   0.10969 276646.080000
     71     72     1   0.10969 276646.080000
     71     73     1   0.10969 276646.080000
     74     75     1   0.10969 276646.080000
     74     76     1   0.10969 276646.080000
     77     78     1   0.10969 276646.080000
     77     79     1   0.10969 276646.080000
     80     81     1   0.10969 276646.080000
     80     82     1   0.10969 276646.080000
     83     84     1   0.10969 276646.080000
     83     85     1   0.10969 276646.080000
     88     89     1   0.10969 276646.080000
     88     90     1   0.10969 276646.080000
     91     92     1   0.10969 276646.080000
     91     93     1   0.10969 276646.080000
     94     95     1   0.10969 276646.080000
     94     96     1   0.10969 276646.080000
     97     98     1   0.10969 276646.080000
     97     99     1   0.10969 276646.080000
    100    101     1   0.10969 276646.080000
    100    102     1   0.10969 276646.080000
    103    104     1   0.10969 276646.080000
    103    105     1   0.10969 276646.080000
    106    107     1   0.10969 276646.080000
    106    108     1   0.10969 276646.080000
    109    110     1   0.10969 276646.080000
    109    111     1   0.10969 276646.080000
    112    113     1   0.10969 276646.080000
    112    114     1   0.10969 276646.080000
    117    118     1   0.10969 276646.080000
    117    119     1   0.10969 276646.080000
    120    121     1   0.10969 276646.080000
    120    122     1   0.10969 276646.080000
    123    124     1   0.10969 276646.080000
    123    125     1   0.10969 276646.080000
    126    127     1   0.10969 276646.080000
    126    128     1   0.10969 276646.080000
    129    130     1   0.10969 276646.080000
    129    131     1   0.10969 276646.080000
    132    133     1   0.10969 276646.080000
    132    134     1   0.10969 276646.080000
    135    136     1   0.10969 276646.080000
    135    137     1   0.10969 276646.080000
    138    139     1   0.10969 276646.080000
    138    140     1   0.10969 276646.080000
    141    142     1   0.10969 276646.080000
    141    143     1   0.10969 276646.080000
    146    147     1   0.10969 276646.080000
    146    148     1   0.10969 276646.080000
    149    150     1   0.10969 276646.080000
    149    151     1   0.10969 276646.080000
    152    153     1   0.10969 276646.080000
    152    154     1   0.10969 276646.080000
    155    156     1   0.10969 276646.080000
    155    157     1   0.10969 276646.080000
    158    159     1   0.10969 276646.080000
    158    160     1   0.10969 276646.080000
    161    162     1   0.10969 276646.080000
    161    163     1   0.10969 276646.080000
    164    165     1   0.10969 276646.080000
    164    166     1   0.10969 276646.080000
    167    168     1   0.10969 276646.080000
    167    169     1   0.10969 276646.080000
    170    171     1   0.10969 276646.080000
    170    172     1   0.10969 276646.080000
    175    176     1   0.10969 276646.080000
    175    177     1   0.10969 276646.080000
    178    179     1   0.10969 276646.080000
    178    180     1   0.10969 276646.080000
    181    182     1   0.10969 276646.080000
    181    183     1   0.10969 276646.080000
    184    185     1   0.10969 276646.080000
    184    186     1   0.10969 276646.080000
    187    188     1   0.10969 276646.080000
    187    189     1   0.10969 276646.080000
    190    191     1   0.10969 276646.080000
    190    192     1   0.10969 276646.080000
    193    194     1   0.10969 276646.080000
    193    195     1   0.10969 276646.080000
    196    197     1   0.10969 276646.080000
    196    198     1   0.10969 276646.080000
    199    200     1   0.10969 276646.080000
    199    201     1   0.10969 276646.080000
    204    205     1   0.10969 276646.080000
    204    206     1   0.10969 276646.080000
    207    208     1   0.10969 276646.080000
    207    209     1   0.10969 276646.080000
    210    211     1   0.10969 276646.080000
    210    212     1   0.10969 276646.080000
    213    214     1   0.10969 276646.080000
    213    215     1   0.10969 276646.080000
    216    217     1   0.10969 276646.080000
    216    218     1   0.10969 276646.080000
    219    220     1   0.10969 276646.080000
    219    221     1   0.10969 276646.080000
    222    223     1   0.10969 276646.080000
    222    224     1   0.10969 276646.080000
    225    226     1   0.10969 276646.080000
    225    227     1   0.10969 276646.080000
    228    229     1   0.10969 276646.080000
    228    230     1   0.10969 276646.080000
    233    234     1   0.10969 276646.080000
    233    235     1   0.10969 276646.080000
    236    237     1   0.10969 276646.080000
    236    238     1   0.10969 276646.080000
    239    240     1   0.10969 276646.080000
    239    241     1   0.10969 276646.080000
    242    243     1   0.10969 276646.080000
    242    244     1   0.10969 276646.080000
    245    246     1   0.10969 276646.080000
    245    247     1   0.10969 276646.080000
    248    249     1   0.10969 276646.080000
    248    250     1   0.10969 276646.080000
    251    252     1   0.10969 276646.080000
    251    253     1   0.10969 276646.080000
    254    255     1   0.10969 276646.080000
    254    256     1   0.10969 276646.080000
    257    258     1   0.10969 276646.080000
    257    259     1   0.10969 276646.080000
    262    263     1   0.10969 276646.080000
    262    264     1   0.10969 276646.080000
    265    266     1   0.10969 276646.080000
    265    267     1   0.10969 276646.080000
    268    269     1   0.10969 276646.080000
    268    270     1   0.10969 276646.080000
    271    272     1   0.10969 276646.080000
    271    273     1   0.10969 276646.080000
    274    275     1   0.10969 276646.080000
    274    276     1   0.10969 276646.080000
    277    278     1   0.10969 276646.080000
    277    279     1   0.10969 276646.080000
    280    281     1   0.10969 276646.080000
    280    282     1   0.10969 276646.080000
    283    284     1   0.10969 276646.080000
    283    285     1   0.10969 276646.080000
    286    287     1   0.10969 276646.080000
    286    288     1   0.10969 276646.080000
    290    291     1   0.10969 276646.080000
    290    292     1   0.10969 276646.080000
    293    294     1   0.10969 276646.080000
    293    295     1   0.10969 276646.080000
    296    297     1   0.10969 276646.080000
    296    298     1   0.10969 276646.080000
    300    301     1   0.10969 276646.080000
    300    302     1   0.10969 276646.080000
    303    304     1   0.10969 276646.080000
    303    305     1   0.10969 276646.080000
    308    309     1   0.09730 310787.520000
    310    311     1   0.10969 276646.080000
    310    312     1   0.10969 276646.080000
    313    314     1   0.10969 276646.080000
    313    315     1   0.10969 276646.080000
    318    319     1   0.09730 310787.520000
    321    322     1   0.10969 276646.080000
    321    323     1   0.10969 276646.080000
    324    325     1   0.10969 276646.080000
    324    326     1   0.10969 276646.080000
    327    328     1   0.10969 276646.080000
    327    329     1   0.10969 276646.080000
    331    332     1   0.10969 276646.080000
    331    333     1   0.10969 276646.080000
    334    335     1   0.10969 276646.080000
    334    336     1   0.10969 276646.080000
    339    340     1   0.09730 310787.520000
    341    342     1   0.10969 276646.080000
    341    343     1   0.10969 276646.080000
    344    345     1   0.10969 276646.080000
    344    346     1   0.10969 276646.080000
    349    350     1   0.09730 310787.520000
    352    353     1   0.10969 276646.080000
    352    354     1   0.10969 276646.080000
    355    356     1   0.10969 276646.080000
    355    357     1   0.10969 276646.080000
    358    359     1   0.10969 276646.080000
    358    360     1   0.10969 276646.080000
    362    363     1   0.10969 276646.080000
    362    364     1   0.10969 276646.080000
    365    366     1   0.10969 276646.080000
    365    367     1   0.10969 276646.080000
    370    371     1   0.09730 310787.520000
    372    373     1   0.10969 276646.080000
    372    374     1   0.10969 276646.080000
    375    376     1   0.10969 276646.080000
    375    377     1   0.10969 276646.080000
    380    381     1   0.09730 310787.520000
    383    384     1   0.10969 276646.080000
    383    385     1   0.10969 276646.080000
    386    387     1   0.10969 276646.080000
    386    388     1   0.10969 276646.080000
    389    390     1   0.10969 276646.080000
    389    391     1   0.10969 276646.080000
    393    394     1   0.10969 276646.080000
    393    395     1   0.10969 276646.080000
    396    397     1   0.10969 276646.080000
    396    398     1   0.10969 276646.080000
    401    402     1   0.09730 310787.520000
    403    404     1   0.10969 276646.080000
    403    405     1   0.10969 276646.080000
    406    407     1   0.10969 276646.080000
    406    408     1   0.10969 276646.080000
    411    412     1   0.09730 310787.520000
    414    415     1   0.10969 276646.080000
    414    416     1   0.10969 276646.080000
    417    418     1   0.10969 276646.080000
    417    419     1   0.10969 276646.080000
    420    421     1   0.10969 276646.080000
    420    422     1   0.10969 276646.080000
    424    425     1   0.10969 276646.080000
    424    426     1   0.10969 276646.080000
    427    428     1   0.10969 276646.080000
    427    429     1   0.10969 276646.080000
    432    433     1   0.09730 310787.520000
    434    435     1   0.10969 276646.080000
    434    436     1   0.10969 276646.080000
    437    438     1   0.10969 276646.080000
    437    439     1   0.10969 276646.080000
    442    443     1   0.09730 310787.520000
    445    446     1   0.10969 276646.080000
    445    447     1   0.10969 276646.080000
    448    449     1   0.10969 276646.080000
    448    450     1   0.10969 276646.080000
    451    452     1   0.10969 276646.080000
    451    453     1   0.10969 276646.080000
    455    456     1   0.10969 276646.080000
    455    457     1   0.10969 276646.080000
    458    459     1   0.10969 276646.080000
    458    460     1   0.10969 276646.080000
    463    464     1   0.09730 310787.520000
    465    466     1   0.10969 276646.080000
    465    467     1   0.10969 276646.080000
    468    469     1   0.10969 276646.080000
    468    470     1   0.10969 276646.080000
    473    474     1   0.09730 310787.520000
    476    477     1   0.10969 276646.080000
    476    478     1   0.10969 276646.080000
    479    480     1   0.10969 276646.080000
    479    481     1   0.10969 276646.080000
    482    483     1   0.10969 276646.080000
    482    484     1   0.10969 276646.080000
    486    487     1   0.10969 276646.080000
    486    488     1   0.10969 276646.080000
    489    490     1   0.10969 276646.080000
    489    491     1   0.10969 276646.080000
    494    495     1   0.09730 310787.520000
    496    497     1   0.10969 276646.080000
    496    498     1   0.10969 276646.080000
    499    500     1   0.10969 276646.080000
    499    501     1   0.10969 276646.080000
    504    505     1   0.09730 310787.520000
    507    508     1   0.10969 276646.080000
    507    509     1   0.10969 276646.080000
    510    511     1   0.10969 276646.080000
    510    512     1   0.10969 276646.080000
    513    514     1   0.10969 276646.080000
    513    515     1   0.10969 276646.080000
    517    518     1   0.10969 276646.080000
    517    519     1   0.10969 276646.080000
    520    521     1   0.10969 276646.080000
    520    522     1   0.10969 276646.080000
    525    526     1   0.09730 310787.520000
    527    528     1   0.10969 276646.080000
    527    529     1   0.10969 276646.080000
    530    531     1   0.10969 276646.080000
    530    532     1   0.10969 276646.080000
    535    536     1   0.09730 310787.520000
    538    539     1   0.10969 276646.080000
    538    540     1   0.10969 276646.080000
    541    542     1   0.10969 276646.080000
    541    543     1   0.10969 276646.080000
    544    545     1   0.10969 276646.080000
    544    546     1   0.10969 276646.080000
    548    549     1   0.10969 276646.080000
    548    550     1   0.10969 276646.080000
    551    552     1   0.10969 276646.080000
    551    553     1   0.10969 276646.080000
    556    557     1   0.09730 310787.520000
    558    559     1   0.10969 276646.080000
    558    560     1   0.10969 276646.080000
    561    562     1   0.10969 276646.080000
    561    563     1   0.10969 276646.080000
    566    567     1   0.09730 310787.520000
    569    570     1   0.10969 276646.080000
    569    571     1   0.10969 276646.080000
    572    573     1   0.10969 276646.080000
    572    574     1   0.10969 276646.080000
    575    576     1   0.10969 276646.080000
    575    577     1   0.10969 276646.080000
    579    580     1   0.10969 276646.080000
    579    581     1   0.10969 276646.080000
    582    583     1   0.10969 276646.080000
    582    584     1   0.10969 276646.080000
    587    588     1   0.09730 310787.520000
    589    590     1   0.10969 276646.080000
    589    591     1   0.10969 276646.080000
    592    593     1   0.10969 276646.080000
    592    594     1   0.10969 276646.080000
    597    598     1   0.09730 310787.520000
    600    601     1   0.10969 276646.080000
    600    602     1   0.10969 276646.080000
    603    604     1   0.10969 276646.080000
    603    605     1   0.10969 276646.080000
    606    607     1   0.10969 276646.080000
    606    608     1   0.10969 276646.080000
    610    611     1   0.10969 276646.080000
    610    612     1   0.10969 276646.080000
    613    614     1   0.10969 276646.080000
    613    615     1   0.10969 276646.080000
    618    619     1   0.09730 310787.520000
    620    621     1   0.10969 276646.080000
    620    622     1   0.10969 276646.080000
    623    624     1   0.10969 276646.080000
    623    625     1   0.10969 276646.080000
    628    629     1   0.09730 310787.520000
    631    632     1   0.10969 276646.080000
    631    633     1   0.10969 276646.080000
    634    635     1   0.10969 276646.080000
    634    636     1   0.10969 276646.080000
    637    638     1   0.10969 276646.080000
    637    639     1   0.10969 276646.080000
    641    642     1   0.10969 276646.080000
    641    643     1   0.10969 276646.080000
    644    645     1   0.10969 276646.080000
    644    646     1   0.10969 276646.080000
    649    650     1   0.09730 310787.520000
    651    652     1   0.10969 276646.080000
    651    653     1   0.10969 276646.080000
    654    655     1   0.10969 276646.080000
    654    656     1   0.10969 276646.080000
    659    660     1   0.09730 310787.520000

[ pairs ]
;    ai     aj funct         c0         c1         c2         c3
      1     26     1
      1     20     1
      1     23     1
      2     17     1
      2     11     1
      2    115     1
      5     14     1
      5     11     1
      5     57     1
      8     14     1
      8     17     1
      8     86     1
     11     77     1
     14    106     1
     17     48     1
     20     39     1
     23     68     1
     26     97     1
     29     54     1
     29     51     1
     29     48     1
     30     45     1
     30     39     1
     30    173     1
     33     42     1
     33     39     1
     33    144     1
     36     42     1
     36     45     1
     36     57     1
     42    164     1
     45    135     1
     51    126     1
     54    155     1
     58     83     1
     58     80     1
     58     77     1
     59     74     1
     59     68     1
     59    231     1
     62     71     1
     62     68     1
     62    202     1
     65     71     1
     65     74     1
     65     86     1
     71    222     1
     74    193     1
     80    184     1
     83    213     1
     87    112     1
     87    109     1
     87    106     1
     88    103     1
     88     97     1
     88    289     1
     91    100     1
     91     97     1
     91    260     1
     94    100     1
     94    103     1
     94    115     1
    100    280     1
    103    251     1
    109    242     1
    112    271     1
    116    141     1
    116    138     1
    116    135     1
    117    132     1
    117    126     1
    117    351     1
    120    129     1
    120    126     1
    120    320     1
    123    129     1
    123    132     1
    123    144     1
    129    321     1
    132    290     1
    138    293     1
    141    324     1
    145    170     1
    145    167     1
    145    164     1
    146    161     1
    146    155     1
    146    413     1
    149    158     1
    149    155     1
    149    382     1
    152    158     1
    152    161     1
    152    173     1
    158    383     1
    161    352     1
    167    355     1
    170    386     1
    174    199     1
    174    196     1
    174    193     1
    175    190     1
    175    184     1
    175    475     1
    178    187     1
    178    184     1
    178    444     1
    181    187     1
    181    190     1
    181    202     1
    187    445     1
    190    414     1
    196    417     1
    199    448     1
    203    228     1
    203    225     1
    203    222     1
    204    219     1
    204    213     1
    204    537     1
    207    216     1
    207    213     1
    207    506     1
    210    216     1
    210    219     1
    210    231     1
    216    507     1
    219    476     1
    225    479     1
    228    510     1
    232    257     1
    232    254     1
    232    251     1
    233    248     1
    233    242     1
    233    599     1
    236    245     1
    236    242     1
    236    568     1
    239    245     1
    239    248     1
    239    260     1
    245    569     1
    248    538     1
    254    541     1
    257    572     1
    261    286     1
    261    283     1
    261    280     1
    262    277     1
    262    271     1
    262    661     1
    265    274     1
    265    271     1
    265    630     1
    268    274     1
    268    277     1
    268    289     1
    274    631     1
    277    600     1
    283    603     1
    286    634     1
    290    299     1
    293    300     1
    293    310     1
    296    320     1
    296    303     1
    296    313     1
    299    306     1
    299    316     1
    300    313     1
    300    307     1
    300    308     1
    303    310     1
    310    317     1
    310    318     1
    321    330     1
    324    331     1
    324    341     1
    327    334     1
    327    344     1
    327    351     1
    330    337     1
    330    347     1
    331    338     1
    331    339     1
    331    344     1
    334    341     1
    341    348     1
    341    349     1
    352    361     1
    355    362     1
    355    372     1
    358    382     1
    358    365     1
    358    375     1
    361    368     1
    361    378     1
    362    375     1
    362    369     1
    362    370     1
    365    372     1
    372    379     1
    372    380     1
    383    392     1
    386    393     1
    386    403     1
    389    396     1
    389    406     1
    389    413     1
    392    399     1
    392    409     1
    393    400     1
    393    401     1
    393    406     1
    396    403     1
    403    410     1
    403    411     1
    414    423     1
    417    424     1
    417    434     1
    420    444     1
    420    427     1
    420    437     1
    423    430     1
    423    440     1
    424    437     1
    424    431     1
    424    432     1
    427    434     1
    434    441     1
    434    442     1
    445    454     1
    448    455     1
    448    465     1
    451    458     1
    451    468     1
    451    475     1
    454    461     1
    454    471     1
    455    462     1
    455    463     1
    455    468     1
    458    465     1
    465    472     1
    465    473     1
    476    485     1
    479    486     1
    479    496     1
    482    506     1
    482    489     1
    482    499     1
    485    492     1
    485    502     1
    486    499     1
    486    493     1
    486    494     1
    489    496     1
    496    503     1
    496    504     1
    507    516     1
    510    517     1
    510    527     1
    513    520     1
    513    530     1
    513    537     1
    516    523     1
    516    533     1
    517    524     1
    517    525     1
    517    530     1
    520    527     1
    527    534     1
    527    535     1
    538    547     1
    541    548     1
    541    558     1
    544    568     1
    544    551     1
    544    561     1
    547    554     1
    547    564     1
    548    561     1
    548    555     1
    548    556     1
    551    558     1
    558    565     1
    558    566     1
    569    578     1
    572    579     1
    572    589     1
    575    582     1
    575    592     1
    575    599     1
    578    585     1
    578    595     1
    579    586     1
    579    587     1
    579    592     1
    582    589     1
    589    596     1
    589    597     1
    600    609     1
    603    610     1
    603    620     1
    606    630     1
    606    613     1
    606    623     1
    609    616     1
    609    626     1
    610    623     1
    610    617     1
    610    618     1
    613    620     1
    620    627     1
    620    628     1
    631    640     1
    634    641     1
    634    651     1
    637    644     1
    637    654     1
    637    661     1
    640    647     1
    640    657     1
    641    648     1
    641    649     1
    641    654     1
    644    651     1
    651    658     1
    651    659     1
      1     15     1
      1     16     1
      1     18     1
      1     19     1
      1     12     1
      1     13     1
      2      6     1
      2      7     1
      2      9     1
      2     10     1
      2     27     1
      2     28     1
      5      3     1
      8      3     1
      3     26     1
      3     15     1
      3     16     1
      5      4     1
      8      4     1
      4     26     1
      4     15     1
      4     16     1
      5      9     1
      5     10     1
      5     21     1
      5     22     1
      8      6     1
      6     20     1
      6     18     1
      6     19     1
      8      7     1
      7     20     1
      7     18     1
      7     19     1
      8     24     1
      8     25     1
      9     23     1
      9     12     1
      9     13     1
     10     23     1
     10     12     1
     10     13     1
     12     86     1
     12     24     1
     12     25     1
     13     86     1
     13     24     1
     13     25     1
     15    115     1
     15     27     1
     15     28     1
     16    115     1
     16     27     1
     16     28     1
     18     57     1
     18     21     1
     18     22     1
     19     57     1
     19     21     1
     19     22     1
     20     49     1
     20     50     1
     21     48     1
     22     48     1
     23     78     1
     23     79     1
     24     77     1
     25     77     1
     26    107     1
     26    108     1
     27    106     1
     28    106     1
     29     43     1
     29     44     1
     29     46     1
     29     47     1
     29     40     1
     29     41     1
     30     34     1
     30     35     1
     30     37     1
     30     38     1
     30     55     1
     30     56     1
     31     33     1
     31     36     1
     31     54     1
     31     43     1
     31     44     1
     32     33     1
     32     36     1
     32     54     1
     32     43     1
     32     44     1
     33     37     1
     33     38     1
     33     52     1
     33     53     1
     34     36     1
     34     51     1
     34     46     1
     34     47     1
     35     36     1
     35     51     1
     35     46     1
     35     47     1
     36     49     1
     36     50     1
     37     48     1
     37     40     1
     37     41     1
     38     48     1
     38     40     1
     38     41     1
     40     57     1
     40     49     1
     40     50     1
     41     57     1
     41     49     1
     41     50     1
     43    173     1
     43     55     1
     43     56     1
     44    173     1
     44     55     1
     44     56     1
     46    144     1
     46     52     1
     46     53     1
     47    144     1
     47     52     1
     47     53     1
     51    136     1
     51    137     1
     52    135     1
     53    135     1
     54    165     1
     54    166     1
     55    164     1
     56    164     1
     58     72     1
     58     73     1
     58     75     1
     58     76     1
     58     69     1
     58     70     1
     59     63     1
     59     64     1
     59     66     1
     59     67     1
     59     84     1
     59     85     1
     60     62     1
     60     65     1
     60     83     1
     60     72     1
     60     73     1
     61     62     1
     61     65     1
     61     83     1
     61     72     1
     61     73     1
     62     66     1
     62     67     1
     62     81     1
     62     82     1
     63     65     1
     63     80     1
     63     75     1
     63     76     1
     64     65     1
     64     80     1
     64     75     1
     64     76     1
     65     78     1
     65     79     1
     66     77     1
     66     69     1
     66     70     1
     67     77     1
     67     69     1
     67     70     1
     69     86     1
     69     78     1
     69     79     1
     70     86     1
     70     78     1
     70     79     1
     72    231     1
     72     84     1
     72     85     1
     73    231     1
     73     84     1
     73     85     1
     75    202     1
     75     81     1
     75     82     1
     76    202     1
     76     81     1
     76     82     1
     80    194     1
     80    195     1
     81    193     1
     82    193     1
     83    223     1
     83    224     1
     84    222     1
     85    222     1
     87    101     1
     87    102     1
     87    104     1
     87    105     1
     87     98     1
     87     99     1
     88     92     1
     88     93     1
     88     95     1
     88     96     1
     88    113     1
     88    114     1
     89     91     1
     89     94     1
     89    112     1
     89    101     1
     89    102     1
     90     91     1
     90     94     1
     90    112     1
     90    101     1
     90    102     1
     91     95     1
     91     96     1
     91    110     1
     91    111     1
     92     94     1
     92    109     1
     92    104     1
     92    105     1
     93     94     1
     93    109     1
     93    104     1
     93    105     1
     94    107     1
     94    108     1
     95    106     1
     95     98     1
     95     99     1
     96    106     1
     96     98     1
     96     99     1
     98    115     1
     98    107     1
     98    108     1
     99    115     1
     99    107     1
     99    108     1
    101    289     1
    101    113     1
    101    114     1
    102    289     1
    102    113     1
    102    114     1
    104    260     1
    104    110     1
    104    111     1
    105    260     1
    105    110     1
    105    111     1
    109    252     1
    109    253     1
    110    251     1
    111    251     1
    112    281     1
    112    282     1
    113    280     1
    114    280     1
    116    130     1
    116    131     1
    116    133     1
    116    134     1
    116    127     1
    116    128     1
    117    121     1
    117    122     1
    117    124     1
    117    125     1
    117    142     1
    117    143     1
    118    120     1
    118    123     1
    118    141     1
    118    130     1
    118    131     1
    119    120     1
    119    123     1
    119    141     1
    119    130     1
    119    131     1
    120    124     1
    120    125     1
    120    139     1
    120    140     1
    121    123     1
    121    138     1
    121    133     1
    121    134     1
    122    123     1
    122    138     1
    122    133     1
    122    134     1
    123    136     1
    123    137     1
    124    135     1
    124    127     1
    124    128     1
    125    135     1
    125    127     1
    125    128     1
    127    144     1
    127    136     1
    127    137     1
    128    144     1
    128    136     1
    128    137     1
    130    351     1
    130    142     1
    130    143     1
    131    351     1
    131    142     1
    131    143     1
    133    320     1
    133    139     1
    133    140     1
    134    320     1
    134    139     1
    134    140     1
    138    291     1
    138    292     1
    139    290     1
    140    290     1
    141    322     1
    141    323     1
    142    321     1
    143    321     1
    145    159     1
    145    160     1
    145    162     1
    145    163     1
    145    156     1
    145    157     1
    146    150     1
    146    151     1
    146    153     1
    146    154     1
    146    171     1
    146    172     1
    147    149     1
    147    152     1
    147    170     1
    147    159     1
    147    160     1
    148    149     1
    148    152     1
    148    170     1
    148    159     1
    148    160     1
    149    153     1
    149    154     1
    149    168     1
    149    169     1
    150    152     1
    150    167     1
    150    162     1
    150    163     1
    151    152     1
    151    167     1
    151    162     1
    151    163     1
    152    165     1
    152    166     1
    153    164     1
    153    156     1
    153    157     1
    154    164     1
    154    156     1
    154    157     1
    156    173     1
    156    165     1
    156    166     1
    157    173     1
    157    165     1
    157    166     1
    159    413     1
    159    171     1
    159    172     1
    160    413     1
    160    171     1
    160    172     1
    162    382     1
    162    168     1
    162    169     1
    163    382     1
    163    168     1
    163    169     1
    167    353     1
    167    354     1
    168    352     1
    169    352     1
    170    384     1
    170    385     1
    171    383     1
    172    383     1
    174    188     1
    174    189     1
    174    191     1
    174    192     1
    174    185     1
    174    186     1
    175    179     1
    175    180     1
    175    182     1
    175    183     1
    175    200     1
    175    201     1
    176    178     1
    176    181     1
    176    199     1
    176    188     1
    176    189     1
    177    178     1
    177    181     1
    177    199     1
    177    188     1
    177    189     1
    178    182     1
    178    183     1
    178    197     1
    178    198     1
    179    181     1
    179    196     1
    179    191     1
    179    192     1
    180    181     1
    180    196     1
    180    191     1
    180    192     1
    181    194     1
    181    195     1
    182    193     1
    182    185     1
    182    186     1
    183    193     1
    183    185     1
    183    186     1
    185    202     1
    185    194     1
    185    195     1
    186    202     1
    186    194     1
    186    195     1
    188    475     1
    188    200     1
    188    201     1
    189    475     1
    189    200     1
    189    201     1
    191    444     1
    191    197     1
    191    198     1
    192    444     1
    192    197     1
    192    198     1
    196    415     1
    196    416     1
    197    414     1
    198    414     1
    199    446     1
    199    447     1
    200    445     1
    201    445     1
    203    217     1
    203    218     1
    203    220     1
    203    221     1
    203    214     1
    203    215     1
    204    208     1
    204    209     1
    204    211     1
    204    212     1
    204    229     1
    204    230     1
    205    207     1
    205    210     1
    205    228     1
    205    217     1
    205    218     1
    206    207     1
    206    210     1
    206    228     1
    206    217     1
    206    218     1
    207    211     1
    207    212     1
    207    226     1
    207    227     1
    208    210     1
    208    225     1
    208    220     1
    208    221     1
    209    210     1
    209    225     1
    209    220     1
    209    221     1
    210    223     1
    210    224     1
    211    222     1
    211    214     1
    211    215     1
    212    222     1
    212    214     1
    212    215     1
    214    231     1
    214    223     1
    214    224     1
    215    231     1
    215    223     1
    215    224     1
    217    537     1
    217    229     1
    217    230     1
    218    537     1
    218    229     1
    218    230     1
    220    506     1
    220    226     1
    220    227     1
    221    506     1
    221    226     1
    221    227     1
    225    477     1
    225    478     1
    226    476     1
    227    476     1
    228    508     1
    228    509     1
    229    507     1
    230    507     1
    232    246     1
    232    247     1
    232    249     1
    232    250     1
    232    243     1
    232    244     1
    233    237     1
    233    238     1
    233    240     1
    233    241     1
    233    258     1
    233    259     1
    234    236     1
    234    239     1
    234    257     1
    234    246     1
    234    247     1
    235    236     1
    235    239     1
    235    257     1
    235    246     1
    235    247     1
    236    240     1
    236    241     1
    236    255     1
    236    256     1
    237    239     1
    237    254     1
    237    249     1
    237    250     1
    238    239     1
    238    254     1
    238    249     1
    238    250     1
    239    252     1
    239    253     1
    240    251     1
    240    243     1
    240    244     1
    241    251     1
    241    243     1
    241    244     1
    243    260     1
    243    252     1
    243    253     1
    244    260     1
    244    252     1
    244    253     1
    246    599     1
    246    258     1
    246    259     1
    247    599     1
    247    258     1
    247    259     1
    249    568     1
    249    255     1
    249    256     1
    250    568     1
    250    255     1
    250    256     1
    254    539     1
    254    540     1
    255    538     1
    256    538     1
    257    570     1
    257    571     1
    258    569     1
    259    569     1
    261    275     1
    261    276     1
    261    278     1
    261    279     1
    261    272     1
    261    273     1
    262    266     1
    262    267     1
    262    269     1
    262    270     1
    262    287     1
    262    288     1
    263    265     1
    263    268     1
    263    286     1
    263    275     1
    263    276     1
    264    265     1
    264    268     1
    264    286     1
    264    275     1
    264    276     1
    265    269     1
    265    270     1
    265    284     1
    265    285     1
    266    268     1
    266    283     1
    266    278     1
    266    279     1
    267    268     1
    267    283     1
    267    278     1
    267    279     1
    268    281     1
    268    282     1
    269    280     1
    269    272     1
    269    273     1
    270    280     1
    270    272     1
    270    273     1
    272    289     1
    272    281     1
    272    282     1
    273    289     1
    273    281     1
    273    282     1
    275    661     1
    275    287     1
    275    288     1
    276    661     1
    276    287     1
    276    288     1
    278    630     1
    278    284     1
    278    285     1
    279    630     1
    279    284     1
    279    285     1
    283    601     1
    283    602     1
    284    600     1
    285    600     1
    286    632     1
    286    633     1
    287    631     1
    288    631     1
    290    297     1
    290    298     1
    291    296     1
    291    294     1
    291    295     1
    292    296     1
    292    294     1
    292    295     1
    294    320     1
    294    299     1
    294    297     1
    294    298     1
    295    320     1
    295    299     1
    295    297     1
    295    298     1
    296    301     1
    296    302     1
    296    311     1
    296    312     1
    297    300     1
    297    310     1
    298    300     1
    298    310     1
    299    304     1
    299    305     1
    299    314     1
    299    315     1
    300    311     1
    300    312     1
    301    310     1
    301    306     1
    301    304     1
    301    305     1
    302    310     1
    302    306     1
    302    304     1
    302    305     1
    303    309     1
    304    307     1
    304    308     1
    305    307     1
    305    308     1
    307    309     1
    311    316     1
    311    314     1
    311    315     1
    312    316     1
    312    314     1
    312    315     1
    313    319     1
    314    317     1
    314    318     1
    315    317     1
    315    318     1
    317    319     1
    321    328     1
    321    329     1
    322    327     1
    322    325     1
    322    326     1
    323    327     1
    323    325     1
    323    326     1
    325    330     1
    325    328     1
    325    329     1
    325    351     1
    326    330     1
    326    328     1
    326    329     1
    326    351     1
    327    332     1
    327    333     1
    327    342     1
    327    343     1
    328    331     1
    328    341     1
    329    331     1
    329    341     1
    330    335     1
    330    336     1
    330    345     1
    330    346     1
    331    342     1
    331    343     1
    332    337     1
    332    335     1
    332    336     1
    332    341     1
    333    337     1
    333    335     1
    333    336     1
    333    341     1
    334    340     1
    335    338     1
    335    339     1
    336    338     1
    336    339     1
    338    340     1
    342    347     1
    342    345     1
    342    346     1
    343    347     1
    343    345     1
    343    346     1
    344    350     1
    345    348     1
    345    349     1
    346    348     1
    346    349     1
    348    350     1
    352    359     1
    352    360     1
    353    358     1
    353    356     1
    353    357     1
    354    358     1
    354    356     1
    354    357     1
    356    382     1
    356    361     1
    356    359     1
    356    360     1
    357    382     1
    357    361     1
    357    359     1
    357    360     1
    358    363     1
    358    364     1
    358    373     1
    358    374     1
    359    362     1
    359    372     1
    360    362     1
    360    372     1
    361    366     1
    361    367     1
    361    376     1
    361    377     1
    362    373     1
    362    374     1
    363    372     1
    363    368     1
    363    366     1
    363    367     1
    364    372     1
    364    368     1
    364    366     1
    364    367     1
    365    371     1
    366    369     1
    366    370     1
    367    369     1
    367    370     1
    369    371     1
    373    378     1
    373    376     1
    373    377     1
    374    378     1
    374    376     1
    374    377     1
    375    381     1
    376    379     1
    376    380     1
    377    379     1
    377    380     1
    379    381     1
    383    390     1
    383    391     1
    384    389     1
    384    387     1
    384    388     1
    385    389     1
    385    387     1
    385    388     1
    387    392     1
    387    390     1
    387    391     1
    387    413     1
    388    392     1
    388    390     1
    388    391     1
    388    413     1
    389    394     1
    389    395     1
    389    404     1
    389    405     1
    390    393     1
    390    403     1
    391    393     1
    391    403     1
    392    397     1
    392    398     1
    392    407     1
    392    408     1
    393    404     1
    393    405     1
    394    399     1
    394    397     1
    394    398     1
    394    403     1
    395    399     1
    395    397     1
    395    398     1
    395    403     1
    396    402     1
    397    400     1
    397    401     1
    398    400     1
    398    401     1
    400    402     1
    404    409     1
    404    407     1
    404    408     1
    405    409     1
    405    407     1
    405    408     1
    406    412     1
    407    410     1
    407    411     1
    408    410     1
    408    411     1
    410    412     1
    414    421     1
    414    422     1
    415    420     1
    415    418     1
    415    419     1
    416    420     1
    416    418     1
    416    419     1
    418    444     1
    418    423     1
    418    421     1
    418    422     1
    419    444     1
    419    423     1
    419    421     1
    419    422     1
    420    425     1
    420    426     1
    420    435     1
    420    436     1
    421    424     1
    421    434     1
    422    424     1
    422    434     1
    423    428     1
    423    429     1
    423    438     1
    423    439     1
    424    435     1
    424    436     1
    425    434     1
    425    430     1
    425    428     1
    425    429     1
    426    434     1
    426    430     1
    426    428     1
    426    429     1
    427    433     1
    428    431     1
    428    432     1
    429    431     1
    429    432     1
    431    433     1
    435    440     1
    435    438     1
    435    439     1
    436    440     1
    436    438     1
    436    439     1
    437    443     1
    438    441     1
    438    442     1
    439    441     1
    439    442     1
    441    443     1
    445    452     1
    445    453     1
    446    451     1
    446    449     1
    446    450     1
    447    451     1
    447    449     1
    447    450     1
    449    454     1
    449    452     1
    449    453     1
    449    475     1
    450    454     1
    450    452     1
    450    453     1
    450    475     1
    451    456     1
    451    457     1
    451    466     1
    451    467     1
    452    455     1
    452    465     1
    453    455     1
    453    465     1
    454    459     1
    454    460     1
    454    469     1
    454    470     1
    455    466     1
    455    467     1
    456    461     1
    456    459     1
    456    460     1
    456    465     1
    457    461     1
    457    459     1
    457    460     1
    457    465     1
    458    464     1
    459    462     1
    459    463     1
    460    462     1
    460    463     1
    462    464     1
    466    471     1
    466    469     1
    466    470     1
    467    471     1
    467    469     1
    467    470     1
    468    474     1
    469    472     1
    469    473     1
    470    472     1
    470    473     1
    472    474     1
    476    483     1
    476    484     1
    477    482     1
    477    480     1
    477    481     1
    478    482     1
    478    480     1
    478    481     1
    480    506     1
    480    485     1
    480    483     1
    480    484     1
    481    506     1
    481    485     1
    481    483     1
    481    484     1
    482    487     1
    482    488     1
    482    497     1
    482    498     1
    483    486     1
    483    496     1
    484    486     1
    484    496     1
    485    490     1
    485    491     1
    485    500     1
    485    501     1
    486    497     1
    486    498     1
    487    496     1
    487    492     1
    487    490     1
    487    491     1
    488    496     1
    488    492     1
    488    490     1
    488    491     1
    489    495     1
    490    493     1
    490    494     1
    491    493     1
    491    494     1
    493    495     1
    497    502     1
    497    500     1
    497    501     1
    498    502     1
    498    500     1
    498    501     1
    499    505     1
    500    503     1
    500    504     1
    501    503     1
    501    504     1
    503    505     1
    507    514     1
    507    515     1
    508    513     1
    508    511     1
    508    512     1
    509    513     1
    509    511     1
    509    512     1
    511    516     1
    511    514     1
    511    515     1
    511    537     1
    512    516     1
    512    514     1
    512    515     1
    512    537     1
    513    518     1
    513    519     1
    513    528     1
    513    529     1
    514    517     1
    514    527     1
    515    517     1
    515    527     1
    516    521     1
    516    522     1
    516    531     1
    516    532     1
    517    528     1
    517    529     1
    518    523     1
    518    521     1
    518    522     1
    518    527     1
    519    523     1
    519    521     1
    519    522     1
    519    527     1
    520    526     1
    521    524     1
    521    525     1
    522    524     1
    522    525     1
    524    526     1
    528    533     1
    528    531     1
    528    532     1
    529    533     1
    529    531     1
    529    532     1
    530    536     1
    531    534     1
    531    535     1
    532    534     1
    532    535     1
    534    536     1
    538    545     1
    538    546     1
    539    544     1
    539    542     1
    539    543     1
    540    544     1
    540    542     1
    540    543     1
    542    568     1
    542    547     1
    542    545     1
    542    546     1
    543    568     1
    543    547     1
    543    545     1
    543    546     1
    544    549     1
    544    550     1
    544    559     1
    544    560     1
    545    548     1
    545    558     1
    546    548     1
    546    558     1
    547    552     1
    547    553     1
    547    562     1
    547    563     1
    548    559     1
    548    560     1
    549    558     1
    549    554     1
    549    552     1
    549    553     1
    550    558     1
    550    554     1
    550    552     1
    550    553     1
    551    557     1
    552    555     1
    552    556     1
    553    555     1
    553    556     1
    555    557     1
    559    564     1
    559    562     1
    559    563     1
    560    564     1
    560    562     1
    560    563     1
    561    567     1
    562    565     1
    562    566     1
    563    565     1
    563    566     1
    565    567     1
    569    576     1
    569    577     1
    570    575     1
    570    573     1
    570    574     1
    571    575     1
    571    573     1
    571    574     1
    573    578     1
    573    576     1
    573    577     1
    573    599     1
    574    578     1
    574    576     1
    574    577     1
    574    599     1
    575    580     1
    575    581     1
    575    590     1
    575    591     1
    576    579     1
    576    589     1
    577    579     1
    577    589     1
    578    583     1
    578    584     1
    578    593     1
    578    594     1
    579    590     1
    579    591     1
    580    585     1
    580    583     1
    580    584     1
    580    589     1
    581    585     1
    581    583     1
    581    584     1
    581    589     1
    582    588     1
    583    586     1
    583    587     1
    584    586     1
    584    587     1
    586    588     1
    590    595     1
    590    593     1
    590    594     1
    591    595     1
    591    593     1
    591    594     1
    592    598     1
    593    596     1
    593    597     1
    594    596     1
    594    597     1
    596    598     1
    600    607     1
    600    608     1
    601    606     1
    601    604     1
    601    605     1
    602    606     1
    602    604     1
    602    605     1
    604    630     1
    604    609     1
    604    607     1
    604    608     1
    605    630     1
    605    609     1
    605    607     1
    605    608     1
    606    611     1
    606    612     1
    606    621     1
    606    622     1
    607    610     1
    607    620     1
    608    610     1
    608    620     1
    609    614     1
    609    615     1
    609    624     1
    609    625     1
    610    621     1
    610    622     1
    611    620     1
    611    616     1
    611    614     1
    611    615     1
    612    620     1
    612    616     1
    612    614     1
    612    615     1
    613    619     1
    614    617     1
    614    618     1
    615    617     1
    615    618     1
    617    619     1
    621    626     1
    621    624     1
    621    625     1
    622    626     1
    622    624     1
    622    625     1
    623    629     1
    624    627     1
    624    628     1
    625    627     1
    625    628     1
    627    629     1
    631    638     1
    631    639     1
    632    637     1
    632    635     1
    632    636     1
    633    637     1
    633    635     1
    633    636     1
    635    640     1
    635    638     1
    635    639     1
    635    661     1
    636    640     1
    636    638     1
    636    639     1
    636    661     1
    637    642     1
    637    643     1
    637    652     1
    637    653     1
    638    641     1
    638    651     1
    639    641     1
    639    651     1
    640    645     1
    640    646     1
    640    655     1
    640    656     1
    641    652     1
    641    653     1
    642    647     1
    642    645     1
    642    646     1
    642    651     1
    643    647     1
    643    645     1
    643    646     1
    643    651     1
    644    650     1
    645    648     1
    645    649     1
    646    648     1
    646    649     1
    648    650     1
    652    657     1
    652    655     1
    652    656     1
    653    657     1
    653    655     1
    653    656     1
    654    660     1
    655    658     1
    655    659     1
    656    658     1
    656    659     1
    658    660     1

[ angles ]
;    ai     aj     ak funct         c0         c1         c2         c3
      1      2     14     1   111.0400475 552.288000
      1      5     17     1   111.0400475 552.288000
      1      8     11     1   111.0400475 552.288000
      2      1      5     1   112.3500484 533.878400
      2      1      8     1   112.3500484 533.878400
      2     14     26     1   111.5100476 526.347200
      5      1      8     1   112.3500484 533.878400
      5     17     20     1   111.5100476 526.347200
      8     11     23     1   111.5100476 526.347200
     11     23     86     1   107.9700462 569.024000
     14     26    115     1   107.9700462 569.024000
     17     20     57     1   107.9700462 569.024000
     20     57     48     1   112.4800480 524.673600
     23     86     77     1   112.4800480 524.673600
     26    115    106     1   112.4800480 524.673600
     29     30     42     1   111.0400475 552.288000
     29     33     45     1   111.0400475 552.288000
     29     36     39     1   111.0400475 552.288000
     30     29     33     1   112.3500484 533.878400
     30     29     36     1   112.3500484 533.878400
     30     42     54     1   111.5100476 526.347200
     33     29     36     1   112.3500484 533.878400
     33     45     51     1   111.5100476 526.347200
     36     39     48     1   111.5100476 526.347200
     39     48     57     1   107.9700462 569.024000
     42     54    173     1   107.9700462 569.024000
     45     51    144     1   107.9700462 569.024000
     51    144    135     1   112.4800480 524.673600
     54    173    164     1   112.4800480 524.673600
     58     59     71     1   111.0400475 552.288000
     58     62     74     1   111.0400475 552.288000
     58     65     68     1   111.0400475 552.288000
     59     58     62     1   112.3500484 533.878400
     59     58     65     1   112.3500484 533.878400
     59     71     83     1   111.5100476 526.347200
     62     58     65     1   112.3500484 533.878400
     62     74     80     1   111.5100476 526.347200
     65     68     77     1   111.5100476 526.347200
     68     77     86     1   107.9700462 569.024000
     71     83    231     1   107.9700462 569.024000
     74     80    202     1   107.9700462 569.024000
     80    202    193     1   112.4800480 524.673600
     83    231    222     1   112.4800480 524.673600
     87     88    100     1   111.0400475 552.288000
     87     91    103     1   111.0400475 552.288000
     87     94     97     1   111.0400475 552.288000
     88     87     91     1   112.3500484 533.878400
     88     87     94     1   112.3500484 533.878400
     88    100    112     1   111.5100476 526.347200
     91     87     94     1   112.3500484 533.878400
     91    103    109     1   111.5100476 526.347200
     94     97    106     1   111.5100476 526.347200
     97    106    115     1   107.9700462 569.024000
    100    112    289     1   107.9700462 569.024000
    103    109    260     1   107.9700462 569.024000
    109    260    251     1   112.4800480 524.673600
    112    289    280     1   112.4800480 524.673600
    116    117    129     1   111.0400475 552.288000
    116    120    132     1   111.0400475 552.288000
    116    123    126     1   111.0400475 552.288000
    117    116    120     1   112.3500484 533.878400
    117    116    123     1   112.3500484 533.878400
    117    129    141     1   111.5100476 526.347200
    120    116    123     1   112.3500484 533.878400
    120    132    138     1   111.5100476 526.347200
    123    126    135     1   111.5100476 526.347200
    126    135    144     1   107.9700462 569.024000
    129    141    351     1   107.9700462 569.024000
    132    138    320     1   107.9700462 569.024000
    138    320    290     1   112.4800480 524.673600
    141    351    321     1   112.4800480 524.673600
    145    146    158     1   111.0400475 552.288000
    145    149    161     1   111.0400475 552.288000
    145    152    155     1   111.0400475 552.288000
    146    145    149     1   112.3500484 533.878400
    146    145    152     1   112.3500484 533.878400
    146    158    170     1   111.5100476 526.347200
    149    145    152     1   112.3500484 533.878400
    149    161    167     1   111.5100476 526.347200
    152    155    164     1   111.5100476 526.347200
    155    164    173     1   107.9700462 569.024000
    158    170    413     1   107.9700462 569.024000
    161    167    382     1   107.9700462 569.024000
    167    382    352     1   112.4800480 524.673600
    170    413    383     1   112.4800480 524.673600
    174    175    187     1   111.0400475 552.288000
    174    178    190     1   111.0400475 552.288000
    174    181    184     1   111.0400475 552.288000
    175    174    178     1   112.3500484 533.878400
    175    174    181     1   112.3500484 533.878400
    175    187    199     1   111.5100476 526.347200
    178    174    181     1   112.3500484 533.878400
    178    190    196     1   111.5100476 526.347200
    181    184    193     1   111.5100476 526.347200
    184    193    202     1   107.9700462 569.024000
    187    199    475     1   107.9700462 569.024000
    190    196    444     1   107.9700462 569.024000
    196    444    414     1   112.4800480 524.673600
    199    475    445     1   112.4800480 524.673600
    203    204    216     1   111.0400475 552.288000
    203    207    219     1   111.0400475 552.288000
    203    210    213     1   111.0400475 552.288000
    204    203    207     1   112.3500484 533.878400
    204    203    210     1   112.3500484 533.878400
    204    216    228     1   111.5100476 526.347200
    207    203    210     1   112.3500484 533.878400
    207    219    225     1   111.5100476 526.347200
    210    213    222     1   111.5100476 526.347200
    213    222    231     1   107.9700462 569.024000
    216    228    537     1   107.9700462 569.024000
    219    225    506     1   107.9700462 569.024000
    225    506    476     1   112.4800480 524.673600
    228    537    507     1   112.4800480 524.673600
    232    233    245     1   111.0400475 552.288000
    232    236    248     1   111.0400475 552.288000
    232    239    242     1   111.0400475 552.288000
    233    232    236     1   112.3500484 533.878400
    233    232    239     1   112.3500484 533.878400
    233    245    257     1   111.5100476 526.347200
    236    232    239     1   112.3500484 533.878400
    236    248    254     1   111.5100476 526.347200
    239    242    251     1   111.5100476 526.347200
    242    251    260     1   107.9700462 569.024000
    245    257    599     1   107.9700462 569.024000
    248    254    568     1   107.9700462 569.024000
    254    568    538     1   112.4800480 524.673600
    257    599    569     1   112.4800480 524.673600
    261    262    274     1   111.0400475 552.288000
    261    265    277     1   111.0400475 552.288000
    261    268    271     1   111.0400475 552.288000
    262    261    265     1   112.3500484 533.878400
    262    261    268     1   112.3500484 533.878400
    262    274    286     1   111.5100476 526.347200
    265    261    268     1   112.3500484 533.878400
    265    277    283     1   111.5100476 526.347200
    268    271    280     1   111.5100476 526.347200
    271    280    289     1   107.9700462 569.024000
    274    286    661     1   107.9700462 569.024000
    277    283    630     1   107.9700462 569.024000
    283    630    600     1   112.4800480 524.673600
    286    661    631     1   112.4800480 524.673600
    290    293    296     1   111.5100476 526.347200
    293    290    320     1   107.9700462 569.024000
    293    296    299     1   111.0400475 552.288000
    296    299    300     1   112.3500484 533.878400
    296    299    310     1   112.3500484 533.878400
    299    300    303     1   111.0400475 552.288000
    299    310    313     1   111.0400475 552.288000
    300    299    310     1   112.3500484 533.878400
    300    303    306     1   111.0400475 529.694400
    303    306    307     1   123.2000528 564.003200
    303    306    308     1   112.7300484 572.371200
    307    306    308     1   122.1000523 635.131200
    310    313    316     1   111.0400475 529.694400
    313    316    317     1   123.2000528 564.003200
    313    316    318     1   112.7300484 572.371200
    317    316    318     1   122.1000523 635.131200
    321    324    327     1   111.5100476 526.347200
    324    327    330     1   111.0400475 552.288000
    324    321    351     1   107.9700462 569.024000
    327    330    331     1   112.3500484 533.878400
    327    330    341     1   112.3500484 533.878400
    330    331    334     1   111.0400475 552.288000
    330    341    344     1   111.0400475 552.288000
    331    334    337     1   111.0400475 529.694400
    331    330    341     1   112.3500484 533.878400
    334    337    338     1   123.2000528 564.003200
    334    337    339     1   112.7300484 572.371200
    338    337    339     1   122.1000523 635.131200
    341    344    347     1   111.0400475 529.694400
    344    347    348     1   123.2000528 564.003200
    344    347    349     1   112.7300484 572.371200
    348    347    349     1   122.1000523 635.131200
    352    355    358     1   111.5100476 526.347200
    355    352    382     1   107.9700462 569.024000
    355    358    361     1   111.0400475 552.288000
    358    361    362     1   112.3500484 533.878400
    358    361    372     1   112.3500484 533.878400
    361    362    365     1   111.0400475 552.288000
    361    372    375     1   111.0400475 552.288000
    362    361    372     1   112.3500484 533.878400
    362    365    368     1   111.0400475 529.694400
    365    368    369     1   123.2000528 564.003200
    365    368    370     1   112.7300484 572.371200
    369    368    370     1   122.1000523 635.131200
    372    375    378     1   111.0400475 529.694400
    375    378    379     1   123.2000528 564.003200
    375    378    380     1   112.7300484 572.371200
    379    378    380     1   122.1000523 635.131200
    383    386    389     1   111.5100476 526.347200
    386    389    392     1   111.0400475 552.288000
    386    383    413     1   107.9700462 569.024000
    389    392    393     1   112.3500484 533.878400
    389    392    403     1   112.3500484 533.878400
    392    393    396     1   111.0400475 552.288000
    392    403    406     1   111.0400475 552.288000
    393    396    399     1   111.0400475 529.694400
    393    392    403     1   112.3500484 533.878400
    396    399    400     1   123.2000528 564.003200
    396    399    401     1   112.7300484 572.371200
    400    399    401     1   122.1000523 635.131200
    403    406    409     1   111.0400475 529.694400
    406    409    410     1   123.2000528 564.003200
    406    409    411     1   112.7300484 572.371200
    410    409    411     1   122.1000523 635.131200
    414    417    420     1   111.5100476 526.347200
    417    414    444     1   107.9700462 569.024000
    417    420    423     1   111.0400475 552.288000
    420    423    424     1   112.3500484 533.878400
    420    423    434     1   112.3500484 533.878400
    423    424    427     1   111.0400475 552.288000
    423    434    437     1   111.0400475 552.288000
    424    423    434     1   112.3500484 533.878400
    424    427    430     1   111.0400475 529.694400
    427    430    431     1   123.2000528 564.003200
    427    430    432     1   112.7300484 572.371200
    431    430    432     1   122.1000523 635.131200
    434    437    440     1   111.0400475 529.694400
    437    440    441     1   123.2000528 564.003200
    437    440    442     1   112.7300484 572.371200
    441    440    442     1   122.1000523 635.131200
    445    448    451     1   111.5100476 526.347200
    448    451    454     1   111.0400475 552.288000
    448    445    475     1   107.9700462 569.024000
    451    454    455     1   112.3500484 533.878400
    451    454    465     1   112.3500484 533.878400
    454    455    458     1   111.0400475 552.288000
    454    465    468     1   111.0400475 552.288000
    455    458    461     1   111.0400475 529.694400
    455    454    465     1   112.3500484 533.878400
    458    461    462     1   123.2000528 564.003200
    458    461    463     1   112.7300484 572.371200
    462    461    463     1   122.1000523 635.131200
    465    468    471     1   111.0400475 529.694400
    468    471    472     1   123.2000528 564.003200
    468    471    473     1   112.7300484 572.371200
    472    471    473     1   122.1000523 635.131200
    476    479    482     1   111.5100476 526.347200
    479    476    506     1   107.9700462 569.024000
    479    482    485     1   111.0400475 552.288000
    482    485    486     1   112.3500484 533.878400
    482    485    496     1   112.3500484 533.878400
    485    486    489     1   111.0400475 552.288000
    485    496    499     1   111.0400475 552.288000
    486    485    496     1   112.3500484 533.878400
    486    489    492     1   111.0400475 529.694400
    489    492    493     1   123.2000528 564.003200
    489    492    494     1   112.7300484 572.371200
    493    492    494     1   122.1000523 635.131200
    496    499    502     1   111.0400475 529.694400
    499    502    503     1   123.2000528 564.003200
    499    502    504     1   112.7300484 572.371200
    503    502    504     1   122.1000523 635.131200
    507    510    513     1   111.5100476 526.347200
    510    513    516     1   111.0400475 552.288000
    510    507    537     1   107.9700462 569.024000
    513    516    517     1   112.3500484 533.878400
    513    516    527     1   112.3500484 533.878400
    516    517    520     1   111.0400475 552.288000
    516    527    530     1   111.0400475 552.288000
    517    520    523     1   111.0400475 529.694400
    517    516    527     1   112.3500484 533.878400
    520    523    524     1   123.2000528 564.003200
    520    523    525     1   112.7300484 572.371200
    524    523    525     1   122.1000523 635.131200
    527    530    533     1   111.0400475 529.694400
    530    533    534     1   123.2000528 564.003200
    530    533    535     1   112.7300484 572.371200
    534    533    535     1   122.1000523 635.131200
    538    541    544     1   111.5100476 526.347200
    541    538    568     1   107.9700462 569.024000
    541    544    547     1   111.0400475 552.288000
    544    547    548     1   112.3500484 533.878400
    544    547    558     1   112.3500484 533.878400
    547    548    551     1   111.0400475 552.288000
    547    558    561     1   111.0400475 552.288000
    548    547    558     1   112.3500484 533.878400
    548    551    554     1   111.0400475 529.694400
    551    554    555     1   123.2000528 564.003200
    551    554    556     1   112.7300484 572.371200
    555    554    556     1   122.1000523 635.131200
    558    561    564     1   111.0400475 529.694400
    561    564    565     1   123.2000528 564.003200
    561    564    566     1   112.7300484 572.371200
    565    564    566     1   122.1000523 635.131200
    569    572    575     1   111.5100476 526.347200
    572    575    578     1   111.0400475 552.288000
    572    569    599     1   107.9700462 569.024000
    575    578    579     1   112.3500484 533.878400
    575    578    589     1   112.3500484 533.878400
    578    579    582     1   111.0400475 552.288000
    578    589    592     1   111.0400475 552.288000
    579    582    585     1   111.0400475 529.694400
    579    578    589     1   112.3500484 533.878400
    582    585    586     1   123.2000528 564.003200
    582    585    587     1   112.7300484 572.371200
    586    585    587     1   122.1000523 635.131200
    589    592    595     1   111.0400475 529.694400
    592    595    596     1   123.2000528 564.003200
    592    595    597     1   112.7300484 572.371200
    596    595    597     1   122.1000523 635.131200
    600    603    606     1   111.5100476 526.347200
    603    600    630     1   107.9700462 569.024000
    603    606    609     1   111.0400475 552.288000
    606    609    610     1   112.3500484 533.878400
    606    609    620     1   112.3500484 533.878400
    609    610    613     1   111.0400475 552.288000
    609    620    623     1   111.0400475 552.288000
    610    609    620     1   112.3500484 533.878400
    610    613    616     1   111.0400475 529.694400
    613    616    617     1   123.2000528 564.003200
    613    616    618     1   112.7300484 572.371200
    617    616    618     1   122.1000523 635.131200
    620    623    626     1   111.0400475 529.694400
    623    626    627     1   123.2000528 564.003200
    623    626    628     1   112.7300484 572.371200
    627    626    628     1   122.1000523 635.131200
    631    634    637     1   111.5100476 526.347200
    634    637    640     1   111.0400475 552.288000
    634    631    661     1   107.9700462 569.024000
    637    640    641     1   112.3500484 533.878400
    637    640    651     1   112.3500484 533.878400
    640    641    644     1   111.0400475 552.288000
    640    651    654     1   111.0400475 552.288000
    641    644    647     1   111.0400475 529.694400
    641    640    651     1   112.3500484 533.878400
    644    647    648     1   123.2000528 564.003200
    644    647    649     1   112.7300484 572.371200
    648    647    649     1   122.1000523 635.131200
    651    654    657     1   111.0400475 529.694400
    654    657    658     1   123.2000528 564.003200
    654    657    659     1   112.7300484 572.371200
    658    657    659     1   122.1000523 635.131200
      1      2      3     1   109.8800469 414.216000
      1      2      4     1   109.8800469 414.216000
      1      5      6     1   109.8800469 414.216000
      1      5      7     1   109.8800469 414.216000
      1      8      9     1   109.8800469 414.216000
      1      8     10     1   109.8800469 414.216000
      2     14     15     1   109.8000471 387.438400
      2     14     16     1   109.8000471 387.438400
      3      2     14     1   109.5600471 388.275200
      3      2      4     1   108.4600466 328.025600
      4      2     14     1   109.5600471 388.275200
      5     17     18     1   109.8000471 387.438400
      5     17     19     1   109.8000471 387.438400
      6      5     17     1   109.5600471 388.275200
      6      5      7     1   108.4600466 328.025600
      7      5     17     1   109.5600471 388.275200
      8     11     12     1   109.8000471 387.438400
      8     11     13     1   109.8000471 387.438400
      9      8     11     1   109.5600471 388.275200
      9      8     10     1   108.4600466 328.025600
     10      8     11     1   109.5600471 388.275200
     11     23     24     1   109.5600471 388.275200
     11     23     25     1   109.5600471 388.275200
     12     11     23     1   109.8000471 387.438400
     12     11     13     1   107.5800459 329.699200
     13     11     23     1   109.8000471 387.438400
     14     26     27     1   109.5600471 388.275200
     14     26     28     1   109.5600471 388.275200
     15     14     26     1   109.8000471 387.438400
     15     14     16     1   107.5800459 329.699200
     16     14     26     1   109.8000471 387.438400
     17     20     21     1   109.5600471 388.275200
     17     20     22     1   109.5600471 388.275200
     18     17     20     1   109.8000471 387.438400
     18     17     19     1   107.5800459 329.699200
     19     17     20     1   109.8000471 387.438400
     21     20     57     1   109.7800468 425.094400
     21     20     22     1   108.4600466 328.025600
     22     20     57     1   109.7800468 425.094400
     24     23     86     1   109.7800468 425.094400
     24     23     25     1   108.4600466 328.025600
     25     23     86     1   109.7800468 425.094400
     27     26    115     1   109.7800468 425.094400
     27     26     28     1   108.4600466 328.025600
     28     26    115     1   109.7800468 425.094400
     29     30     31     1   109.8800469 414.216000
     29     30     32     1   109.8800469 414.216000
     29     33     34     1   109.8800469 414.216000
     29     33     35     1   109.8800469 414.216000
     29     36     37     1   109.8800469 414.216000
     29     36     38     1   109.8800469 414.216000
     30     42     43     1   109.8000471 387.438400
     30     42     44     1   109.8000471 387.438400
     31     30     42     1   109.5600471 388.275200
     31     30     32     1   108.4600466 328.025600
     32     30     42     1   109.5600471 388.275200
     33     45     46     1   109.8000471 387.438400
     33     45     47     1   109.8000471 387.438400
     34     33     45     1   109.5600471 388.275200
     34     33     35     1   108.4600466 328.025600
     35     33     45     1   109.5600471 388.275200
     36     39     40     1   109.8000471 387.438400
     36     39     41     1   109.8000471 387.438400
     37     36     39     1   109.5600471 388.275200
     37     36     38     1   108.4600466 328.025600
     38     36     39     1   109.5600471 388.275200
     39     48     49     1   109.5600471 388.275200
     39     48     50     1   109.5600471 388.275200
     40     39     48     1   109.8000471 387.438400
     40     39     41     1   107.5800459 329.699200
     41     39     48     1   109.8000471 387.438400
     42     54     55     1   109.5600471 388.275200
     42     54     56     1   109.5600471 388.275200
     43     42     54     1   109.8000471 387.438400
     43     42     44     1   107.5800459 329.699200
     44     42     54     1   109.8000471 387.438400
     45     51     52     1   109.5600471 388.275200
     45     51     53     1   109.5600471 388.275200
     46     45     51     1   109.8000471 387.438400
     46     45     47     1   107.5800459 329.699200
     47     45     51     1   109.8000471 387.438400
     49     48     57     1   109.7800468 425.094400
     49     48     50     1   108.4600466 328.025600
     50     48     57     1   109.7800468 425.094400
     52     51    144     1   109.7800468 425.094400
     52     51     53     1   108.4600466 328.025600
     53     51    144     1   109.7800468 425.094400
     55     54    173     1   109.7800468 425.094400
     55     54     56     1   108.4600466 328.025600
     56     54    173     1   109.7800468 425.094400
     58     59     60     1   109.8800469 414.216000
     58     59     61     1   109.8800469 414.216000
     58     62     63     1   109.8800469 414.216000
     58     62     64     1   109.8800469 414.216000
     58     65     66     1   109.8800469 414.216000
     58     65     67     1   109.8800469 414.216000
     59     71     72     1   109.8000471 387.438400
     59     71     73     1   109.8000471 387.438400
     60     59     71     1   109.5600471 388.275200
     60     59     61     1   108.4600466 328.025600
     61     59     71     1   109.5600471 388.275200
     62     74     75     1   109.8000471 387.438400
     62     74     76     1   109.8000471 387.438400
     63     62     74     1   109.5600471 388.275200
     63     62     64     1   108.4600466 328.025600
     64     62     74     1   109.5600471 388.275200
     65     68     69     1   109.8000471 387.438400
     65     68     70     1   109.8000471 387.438400
     66     65     68     1   109.5600471 388.275200
     66     65     67     1   108.4600466 328.025600
     67     65     68     1   109.5600471 388.275200
     68     77     78     1   109.5600471 388.275200
     68     77     79     1   109.5600471 388.275200
     69     68     77     1   109.8000471 387.438400
     69     68     70     1   107.5800459 329.699200
     70     68     77     1   109.8000471 387.438400
     71     83     84     1   109.5600471 388.275200
     71     83     85     1   109.5600471 388.275200
     72     71     83     1   109.8000471 387.438400
     72     71     73     1   107.5800459 329.699200
     73     71     83     1   109.8000471 387.438400
     74     80     81     1   109.5600471 388.275200
     74     80     82     1   109.5600471 388.275200
     75     74     80     1   109.8000471 387.438400
     75     74     76     1   107.5800459 329.699200
     76     74     80     1   109.8000471 387.438400
     78     77     86     1   109.7800468 425.094400
     78     77     79     1   108.4600466 328.025600
     79     77     86     1   109.7800468 425.094400
     81     80    202     1   109.7800468 425.094400
     81     80     82     1   108.4600466 328.025600
     82     80    202     1   109.7800468 425.094400
     84     83    231     1   109.7800468 425.094400
     84     83     85     1   108.4600466 328.025600
     85     83    231     1   109.7800468 425.094400
     87     88     89     1   109.8800469 414.216000
     87     88     90     1   109.8800469 414.216000
     87     91     92     1   109.8800469 414.216000
     87     91     93     1   109.8800469 414.216000
     87     94     95     1   109.8800469 414.216000
     87     94     96     1   109.8800469 414.216000
     88    100    101     1   109.8000471 387.438400
     88    100    102     1   109.8000471 387.438400
     89     88    100     1   109.5600471 388.275200
     89     88     90     1   108.4600466 328.025600
     90     88    100     1   109.5600471 388.275200
     91    103    104     1   109.8000471 387.438400
     91    103    105     1   109.8000471 387.438400
     92     91    103     1   109.5600471 388.275200
     92     91     93     1   108.4600466 328.025600
     93     91    103     1   109.5600471 388.275200
     94     97     98     1   109.8000471 387.438400
     94     97     99     1   109.8000471 387.438400
     95     94     97     1   109.5600471 388.275200
     95     94     96     1   108.4600466 328.025600
     96     94     97     1   109.5600471 388.275200
     97    106    107     1   109.5600471 388.275200
     97    106    108     1   109.5600471 388.275200
     98     97    106     1   109.8000471 387.438400
     98     97     99     1   107.5800459 329.699200
     99     97    106     1   109.8000471 387.438400
    100    112    113     1   109.5600471 388.275200
    100    112    114     1   109.5600471 388.275200
    101    100    112     1   109.8000471 387.438400
    101    100    102     1   107.5800459 329.699200
    102    100    112     1   109.8000471 387.438400
    103    109    110     1   109.5600471 388.275200
    103    109    111     1   109.5600471 388.275200
    104    103    109     1   109.8000471 387.438400
    104    103    105     1   107.5800459 329.699200
    105    103    109     1   109.8000471 387.438400
    107    106    115     1   109.7800468 425.094400
    107    106    108     1   108.4600466 328.025600
    108    106    115     1   109.7800468 425.094400
    110    109    260     1   109.7800468 425.094400
    110    109    111     1   108.4600466 328.025600
    111    109    260     1   109.7800468 425.094400
    113    112    289     1   109.7800468 425.094400
    113    112    114     1   108.4600466 328.025600
    114    112    289     1   109.7800468 425.094400
    116    117    118     1   109.8800469 414.216000
    116    117    119     1   109.8800469 414.216000
    116    120    121     1   109.8800469 414.216000
    116    120    122     1   109.8800469 414.216000
    116    123    124     1   109.8800469 414.216000
    116    123    125     1   109.8800469 414.216000
    117    129    130     1   109.8000471 387.438400
    117    129    131     1   109.8000471 387.438400
    118    117    129     1   109.5600471 388.275200
    118    117    119     1   108.4600466 328.025600
    119    117    129     1   109.5600471 388.275200
    120    132    133     1   109.8000471 387.438400
    120    132    134     1   109.8000471 387.438400
    121    120    132     1   109.5600471 388.275200
    121    120    122     1   108.4600466 328.025600
    122    120    132     1   109.5600471 388.275200
    123    126    127     1   109.8000471 387.438400
    123    126    128     1   109.8000471 387.438400
    124    123    126     1   109.5600471 388.275200
    124    123    125     1   108.4600466 328.025600
    125    123    126     1   109.5600471 388.275200
    126    135    136     1   109.5600471 388.275200
    126    135    137     1   109.5600471 388.275200
    127    126    135     1   109.8000471 387.438400
    127    126    128     1   107.5800459 329.699200
    128    126    135     1   109.8000471 387.438400
    129    141    142     1   109.5600471 388.275200
    129    141    143     1   109.5600471 388.275200
    130    129    141     1   109.8000471 387.438400
    130    129    131     1   107.5800459 329.699200
    131    129    141     1   109.8000471 387.438400
    132    138    139     1   109.5600471 388.275200
    132    138    140     1   109.5600471 388.275200
    133    132    138     1   109.8000471 387.438400
    133    132    134     1   107.5800459 329.699200
    134    132    138     1   109.8000471 387.438400
    136    135    144     1   109.7800468 425.094400
    136    135    137     1   108.4600466 328.025600
    137    135    144     1   109.7800468 425.094400
    139    138    320     1   109.7800468 425.094400
    139    138    140     1   108.4600466 328.025600
    140    138    320     1   109.7800468 425.094400
    142    141    351     1   109.7800468 425.094400
    142    141    143     1   108.4600466 328.025600
    143    141    351     1   109.7800468 425.094400
    145    146    147     1   109.8800469 414.216000
    145    146    148     1   109.8800469 414.216000
    145    149    150     1   109.8800469 414.216000
    145    149    151     1   109.8800469 414.216000
    145    152    153     1   109.8800469 414.216000
    145    152    154     1   109.8800469 414.216000
    146    158    159     1   109.8000471 387.438400
    146    158    160     1   109.8000471 387.438400
    147    146    158     1   109.5600471 388.275200
    147    146    148     1   108.4600466 328.025600
    148    146    158     1   109.5600471 388.275200
    149    161    162     1   109.8000471 387.438400
    149    161    163     1   109.8000471 387.438400
    150    149    161     1   109.5600471 388.275200
    150    149    151     1   108.4600466 328.025600
    151    149    161     1   109.5600471 388.275200
    152    155    156     1   109.8000471 387.438400
    152    155    157     1   109.8000471 387.438400
    153    152    155     1   109.5600471 388.275200
    153    152    154     1   108.4600466 328.025600
    154    152    155     1   109.5600471 388.275200
    155    164    165     1   109.5600471 388.275200
    155    164    166     1   109.5600471 388.275200
    156    155    164     1   109.8000471 387.438400
    156    155    157     1   107.5800459 329.699200
    157    155    164     1   109.8000471 387.438400
    158    170    171     1   109.5600471 388.275200
    158    170    172     1   109.5600471 388.275200
    159    158    170     1   109.8000471 387.438400
    159    158    160     1   107.5800459 329.699200
    160    158    170     1   109.8000471 387.438400
    161    167    168     1   109.5600471 388.275200
    161    167    169     1   109.5600471 388.275200
    162    161    167     1   109.8000471 387.438400
    162    161    163     1   107.5800459 329.699200
    163    161    167     1   109.8000471 387.438400
    165    164    173     1   109.7800468 425.094400
    165    164    166     1   108.4600466 328.025600
    166    164    173     1   109.7800468 425.094400
    168    167    382     1   109.7800468 425.094400
    168    167    169     1   108.4600466 328.025600
    169    167    382     1   109.7800468 425.094400
    171    170    413     1   109.7800468 425.094400
    171    170    172     1   108.4600466 328.025600
    172    170    413     1   109.7800468 425.094400
    174    175    176     1   109.8800469 414.216000
    174    175    177     1   109.8800469 414.216000
    174    178    179     1   109.8800469 414.216000
    174    178    180     1   109.8800469 414.216000
    174    181    182     1   109.8800469 414.216000
    174    181    183     1   109.8800469 414.216000
    175    187    188     1   109.8000471 387.438400
    175    187    189     1   109.8000471 387.438400
    176    175    187     1   109.5600471 388.275200
    176    175    177     1   108.4600466 328.025600
    177    175    187     1   109.5600471 388.275200
    178    190    191     1   109.8000471 387.438400
    178    190    192     1   109.8000471 387.438400
    179    178    190     1   109.5600471 388.275200
    179    178    180     1   108.4600466 328.025600
    180    178    190     1   109.5600471 388.275200
    181    184    185     1   109.8000471 387.438400
    181    184    186     1   109.8000471 387.438400
    182    181    184     1   109.5600471 388.275200
    182    181    183     1   108.4600466 328.025600
    183    181    184     1   109.5600471 388.275200
    184    193    194     1   109.5600471 388.275200
    184    193    195     1   109.5600471 388.275200
    185    184    193     1   109.8000471 387.438400
    185    184    186     1   107.5800459 329.699200
    186    184    193     1   109.8000471 387.438400
    187    199    200     1   109.5600471 388.275200
    187    199    201     1   109.5600471 388.275200
    188    187    199     1   109.8000471 387.438400
    188    187    189     1   107.5800459 329.699200
    189    187    199     1   109.8000471 387.438400
    190    196    197     1   109.5600471 388.275200
    190    196    198     1   109.5600471 388.275200
    191    190    196     1   109.8000471 387.438400
    191    190    192     1   107.5800459 329.699200
    192    190    196     1   109.8000471 387.438400
    194    193    202     1   109.7800468 425.094400
    194    193    195     1   108.4600466 328.025600
    195    193    202     1   109.7800468 425.094400
    197    196    444     1   109.7800468 425.094400
    197    196    198     1   108.4600466 328.025600
    198    196    444     1   109.7800468 425.094400
    200    199    475     1   109.7800468 425.094400
    200    199    201     1   108.4600466 328.025600
    201    199    475     1   109.7800468 425.094400
    203    204    205     1   109.8800469 414.216000
    203    204    206     1   109.8800469 414.216000
    203    207    208     1   109.8800469 414.216000
    203    207    209     1   109.8800469 414.216000
    203    210    211     1   109.8800469 414.216000
    203    210    212     1   109.8800469 414.216000
    204    216    217     1   109.8000471 387.438400
    204    216    218     1   109.8000471 387.438400
    205    204    216     1   109.5600471 388.275200
    205    204    206     1   108.4600466 328.025600
    206    204    216     1   109.5600471 388.275200
    207    219    220     1   109.8000471 387.438400
    207    219    221     1   109.8000471 387.438400
    208    207    219     1   109.5600471 388.275200
    208    207    209     1   108.4600466 328.025600
    209    207    219     1   109.5600471 388.275200
    210    213    214     1   109.8000471 387.438400
    210    213    215     1   109.8000471 387.438400
    211    210    213     1   109.5600471 388.275200
    211    210    212     1   108.4600466 328.025600
    212    210    213     1   109.5600471 388.275200
    213    222    223     1   109.5600471 388.275200
    213    222    224     1   109.5600471 388.275200
    214    213    222     1   109.8000471 387.438400
    214    213    215     1   107.5800459 329.699200
    215    213    222     1   109.8000471 387.438400
    216    228    229     1   109.5600471 388.275200
    216    228    230     1   109.5600471 388.275200
    217    216    228     1   109.8000471 387.438400
    217    216    218     1   107.5800459 329.699200
    218    216    228     1   109.8000471 387.438400
    219    225    226     1   109.5600471 388.275200
    219    225    227     1   109.5600471 388.275200
    220    219    225     1   109.8000471 387.438400
    220    219    221     1   107.5800459 329.699200
    221    219    225     1   109.8000471 387.438400
    223    222    231     1   109.7800468 425.094400
    223    222    224     1   108.4600466 328.025600
    224    222    231     1   109.7800468 425.094400
    226    225    506     1   109.7800468 425.094400
    226    225    227     1   108.4600466 328.025600
    227    225    506     1   109.7800468 425.094400
    229    228    537     1   109.7800468 425.094400
    229    228    230     1   108.4600466 328.025600
    230    228    537     1   109.7800468 425.094400
    232    233    234     1   109.8800469 414.216000
    232    233    235     1   109.8800469 414.216000
    232    236    237     1   109.8800469 414.216000
    232    236    238     1   109.8800469 414.216000
    232    239    240     1   109.8800469 414.216000
    232    239    241     1   109.8800469 414.216000
    233    245    246     1   109.8000471 387.438400
    233    245    247     1   109.8000471 387.438400
    234    233    245     1   109.5600471 388.275200
    234    233    235     1   108.4600466 328.025600
    235    233    245     1   109.5600471 388.275200
    236    248    249     1   109.8000471 387.438400
    236    248    250     1   109.8000471 387.438400
    237    236    248     1   109.5600471 388.275200
    237    236    238     1   108.4600466 328.025600
    238    236    248     1   109.5600471 388.275200
    239    242    243     1   109.8000471 387.438400
    239    242    244     1   109.8000471 387.438400
    240    239    242     1   109.5600471 388.275200
    240    239    241     1   108.4600466 328.025600
    241    239    242     1   109.5600471 388.275200
    242    251    252     1   109.5600471 388.275200
    242    251    253     1   109.5600471 388.275200
    243    242    251     1   109.8000471 387.438400
    243    242    244     1   107.5800459 329.699200
    244    242    251     1   109.8000471 387.438400
    245    257    258     1   109.5600471 388.275200
    245    257    259     1   109.5600471 388.275200
    246    245    257     1   109.8000471 387.438400
    246    245    247     1   107.5800459 329.699200
    247    245    257     1   109.8000471 387.438400
    248    254    255     1   109.5600471 388.275200
    248    254    256     1   109.5600471 388.275200
    249    248    254     1   109.8000471 387.438400
    249    248    250     1   107.5800459 329.699200
    250    248    254     1   109.8000471 387.438400
    252    251    260     1   109.7800468 425.094400
    252    251    253     1   108.4600466 328.025600
    253    251    260     1   109.7800468 425.094400
    255    254    568     1   109.7800468 425.094400
    255    254    256     1   108.4600466 328.025600
    256    254    568     1   109.7800468 425.094400
    258    257    599     1   109.7800468 425.094400
    258    257    259     1   108.4600466 328.025600
    259    257    599     1   109.7800468 425.094400
    261    262    263     1   109.8800469 414.216000
    261    262    264     1   109.8800469 414.216000
    261    265    266     1   109.8800469 414.216000
    261    265    267     1   109.8800469 414.216000
    261    268    269     1   109.8800469 414.216000
    261    268    270     1   109.8800469 414.216000
    262    274    275     1   109.8000471 387.438400
    262    274    276     1   109.8000471 387.438400
    263    262    274     1   109.5600471 388.275200
    263    262    264     1   108.4600466 328.025600
    264    262    274     1   109.5600471 388.275200
    265    277    278     1   109.8000471 387.438400
    265    277    279     1   109.8000471 387.438400
    266    265    277     1   109.5600471 388.275200
    266    265    267     1   108.4600466 328.025600
    267    265    277     1   109.5600471 388.275200
    268    271    272     1   109.8000471 387.438400
    268    271    273     1   109.8000471 387.438400
    269    268    271     1   109.5600471 388.275200
    269    268    270     1   108.4600466 328.025600
    270    268    271     1   109.5600471 388.275200
    271    280    281     1   109.5600471 388.275200
    271    280    282     1   109.5600471 388.275200
    272    271    280     1   109.8000471 387.438400
    272    271    273     1   107.5800459 329.699200
    273    271    280     1   109.8000471 387.438400
    274    286    287     1   109.5600471 388.275200
    274    286    288     1   109.5600471 388.275200
    275    274    286     1   109.8000471 387.438400
    275    274    276     1   107.5800459 329.699200
    276    274    286     1   109.8000471 387.438400
    277    283    284     1   109.5600471 388.275200
    277    283    285     1   109.5600471 388.275200
    278    277    283     1   109.8000471 387.438400
    278    277    279     1   107.5800459 329.699200
    279    277    283     1   109.8000471 387.438400
    281    280    289     1   109.7800468 425.094400
    281    280    282     1   108.4600466 328.025600
    282    280    289     1   109.7800468 425.094400
    284    283    630     1   109.7800468 425.094400
    284    283    285     1   108.4600466 328.025600
    285    283    630     1   109.7800468 425.094400
    287    286    661     1   109.7800468 425.094400
    287    286    288     1   108.4600466 328.025600
    288    286    661     1   109.7800468 425.094400
    290    293    294     1   109.8000471 387.438400
    290    293    295     1   109.8000471 387.438400
    291    290    293     1   109.5600471 388.275200
    291    290    320     1   109.7800468 425.094400
    291    290    292     1   108.4600466 328.025600
    292    290    293     1   109.5600471 388.275200
    292    290    320     1   109.7800468 425.094400
    293    296    297     1   109.5600471 388.275200
    293    296    298     1   109.5600471 388.275200
    294    293    296     1   109.8000471 387.438400
    294    293    295     1   107.5800459 329.699200
    295    293    296     1   109.8000471 387.438400
    297    296    299     1   109.8800469 414.216000
    297    296    298     1   108.4600466 328.025600
    298    296    299     1   109.8800469 414.216000
    299    300    301     1   109.8800469 414.216000
    299    300    302     1   109.8800469 414.216000
    299    310    311     1   109.8800469 414.216000
    299    310    312     1   109.8800469 414.216000
    300    303    304     1   109.8000471 387.438400
    300    303    305     1   109.8000471 387.438400
    301    300    303     1   109.5600471 388.275200
    301    300    302     1   108.4600466 328.025600
    302    300    303     1   109.5600471 388.275200
    304    303    306     1   108.7700466 392.459200
    304    303    305     1   107.5800459 329.699200
    305    303    306     1   108.7700466 392.459200
    306    308    309     1   106.5500460 417.563200
    310    313    314     1   109.8000471 387.438400
    310    313    315     1   109.8000471 387.438400
    311    310    313     1   109.5600471 388.275200
    311    310    312     1   108.4600466 328.025600
    312    310    313     1   109.5600471 388.275200
    314    313    316     1   108.7700466 392.459200
    314    313    315     1   107.5800459 329.699200
    315    313    316     1   108.7700466 392.459200
    316    318    319     1   106.5500460 417.563200
    321    324    325     1   109.8000471 387.438400
    321    324    326     1   109.8000471 387.438400
    322    321    324     1   109.5600471 388.275200
    322    321    351     1   109.7800468 425.094400
    322    321    323     1   108.4600466 328.025600
    323    321    324     1   109.5600471 388.275200
    323    321    351     1   109.7800468 425.094400
    324    327    328     1   109.5600471 388.275200
    324    327    329     1   109.5600471 388.275200
    325    324    327     1   109.8000471 387.438400
    325    324    326     1   107.5800459 329.699200
    326    324    327     1   109.8000471 387.438400
    328    327    330     1   109.8800469 414.216000
    328    327    329     1   108.4600466 328.025600
    329    327    330     1   109.8800469 414.216000
    330    331    332     1   109.8800469 414.216000
    330    331    333     1   109.8800469 414.216000
    330    341    342     1   109.8800469 414.216000
    330    341    343     1   109.8800469 414.216000
    331    334    335     1   109.8000471 387.438400
    331    334    336     1   109.8000471 387.438400
    332    331    334     1   109.5600471 388.275200
    332    331    333     1   108.4600466 328.025600
    333    331    334     1   109.5600471 388.275200
    335    334    337     1   108.7700466 392.459200
    335    334    336     1   107.5800459 329.699200
    336    334    337     1   108.7700466 392.459200
    337    339    340     1   106.5500460 417.563200
    341    344    345     1   109.8000471 387.438400
    341    344    346     1   109.8000471 387.438400
    342    341    344     1   109.5600471 388.275200
    342    341    343     1   108.4600466 328.025600
    343    341    344     1   109.5600471 388.275200
    345    344    347     1   108.7700466 392.459200
    345    344    346     1   107.5800459 329.699200
    346    344    347     1   108.7700466 392.459200
    347    349    350     1   106.5500460 417.563200
    352    355    356     1   109.8000471 387.438400
    352    355    357     1   109.8000471 387.438400
    353    352    355     1   109.5600471 388.275200
    353    352    382     1   109.7800468 425.094400
    353    352    354     1   108.4600466 328.025600
    354    352    355     1   109.5600471 388.275200
    354    352    382     1   109.7800468 425.094400
    355    358    359     1   109.5600471 388.275200
    355    358    360     1   109.5600471 388.275200
    356    355    358     1   109.8000471 387.438400
    356    355    357     1   107.5800459 329.699200
    357    355    358     1   109.8000471 387.438400
    359    358    361     1   109.8800469 414.216000
    359    358    360     1   108.4600466 328.025600
    360    358    361     1   109.8800469 414.216000
    361    362    363     1   109.8800469 414.216000
    361    362    364     1   109.8800469 414.216000
    361    372    373     1   109.8800469 414.216000
    361    372    374     1   109.8800469 414.216000
    362    365    366     1   109.8000471 387.438400
    362    365    367     1   109.8000471 387.438400
    363    362    365     1   109.5600471 388.275200
    363    362    364     1   108.4600466 328.025600
    364    362    365     1   109.5600471 388.275200
    366    365    368     1   108.7700466 392.459200
    366    365    367     1   107.5800459 329.699200
    367    365    368     1   108.7700466 392.459200
    368    370    371     1   106.5500460 417.563200
    372    375    376     1   109.8000471 387.438400
    372    375    377     1   109.8000471 387.438400
    373    372    375     1   109.5600471 388.275200
    373    372    374     1   108.4600466 328.025600
    374    372    375     1   109.5600471 388.275200
    376    375    378     1   108.7700466 392.459200
    376    375    377     1   107.5800459 329.699200
    377    375    378     1   108.7700466 392.459200
    378    380    381     1   106.5500460 417.563200
    383    386    387     1   109.8000471 387.438400
    383    386    388     1   109.8000471 387.438400
    384    383    386     1   109.5600471 388.275200
    384    383    413     1   109.7800468 425.094400
    384    383    385     1   108.4600466 328.025600
    385    383    386     1   109.5600471 388.275200
    385    383    413     1   109.7800468 425.094400
    386    389    390     1   109.5600471 388.275200
    386    389    391     1   109.5600471 388.275200
    387    386    389     1   109.8000471 387.438400
    387    386    388     1   107.5800459 329.699200
    388    386    389     1   109.8000471 387.438400
    390    389    392     1   109.8800469 414.216000
    390    389    391     1   108.4600466 328.025600
    391    389    392     1   109.8800469 414.216000
    392    393    394     1   109.8800469 414.216000
    392    393    395     1   109.8800469 414.216000
    392    403    404     1   109.8800469 414.216000
    392    403    405     1   109.8800469 414.216000
    393    396    397     1   109.8000471 387.438400
    393    396    398     1   109.8000471 387.438400
    394    393    396     1   109.5600471 388.275200
    394    393    395     1   108.4600466 328.025600
    395    393    396     1   109.5600471 388.275200
    397    396    399     1   108.7700466 392.459200
    397    396    398     1   107.5800459 329.699200
    398    396    399     1   108.7700466 392.459200
    399    401    402     1   106.5500460 417.563200
    403    406    407     1   109.8000471 387.438400
    403    406    408     1   109.8000471 387.438400
    404    403    406     1   109.5600471 388.275200
    404    403    405     1   108.4600466 328.025600
    405    403    406     1   109.5600471 388.275200
    407    406    409     1   108.7700466 392.459200
    407    406    408     1   107.5800459 329.699200
    408    406    409     1   108.7700466 392.459200
    409    411    412     1   106.5500460 417.563200
    414    417    418     1   109.8000471 387.438400
    414    417    419     1   109.8000471 387.438400
    415    414    417     1   109.5600471 388.275200
    415    414    444     1   109.7800468 425.094400
    415    414    416     1   108.4600466 328.025600
    416    414    417     1   109.5600471 388.275200
    416    414    444     1   109.7800468 425.094400
    417    420    421     1   109.5600471 388.275200
    417    420    422     1   109.5600471 388.275200
    418    417    420     1   109.8000471 387.438400
    418    417    419     1   107.5800459 329.699200
    419    417    420     1   109.8000471 387.438400
    421    420    423     1   109.8800469 414.216000
    421    420    422     1   108.4600466 328.025600
    422    420    423     1   109.8800469 414.216000
    423    424    425     1   109.8800469 414.216000
    423    424    426     1   109.8800469 414.216000
    423    434    435     1   109.8800469 414.216000
    423    434    436     1   109.8800469 414.216000
    424    427    428     1   109.8000471 387.438400
    424    427    429     1   109.8000471 387.438400
    425    424    427     1   109.5600471 388.275200
    425    424    426     1   108.4600466 328.025600
    426    424    427     1   109.5600471 388.275200
    428    427    430     1   108.7700466 392.459200
    428    427    429     1   107.5800459 329.699200
    429    427    430     1   108.7700466 392.459200
    430    432    433     1   106.5500460 417.563200
    434    437    438     1   109.8000471 387.438400
    434    437    439     1   109.8000471 387.438400
    435    434    437     1   109.5600471 388.275200
    435    434    436     1   108.4600466 328.025600
    436    434    437     1   109.5600471 388.275200
    438    437    440     1   108.7700466 392.459200
    438    437    439     1   107.5800459 329.699200
    439    437    440     1   108.7700466 392.459200
    440    442    443     1   106.5500460 417.563200
    445    448    449     1   109.8000471 387.438400
    445    448    450     1   109.8000471 387.438400
    446    445    448     1   109.5600471 388.275200
    446    445    475     1   109.7800468 425.094400
    446    445    447     1   108.4600466 328.025600
    447    445    448     1   109.5600471 388.275200
    447    445    475     1   109.7800468 425.094400
    448    451    452     1   109.5600471 388.275200
    448    451    453     1   109.5600471 388.275200
    449    448    451     1   109.8000471 387.438400
    449    448    450     1   107.5800459 329.699200
    450    448    451     1   109.8000471 387.438400
    452    451    454     1   109.8800469 414.216000
    452    451    453     1   108.4600466 328.025600
    453    451    454     1   109.8800469 414.216000
    454    455    456     1   109.8800469 414.216000
    454    455    457     1   109.8800469 414.216000
    454    465    466     1   109.8800469 414.216000
    454    465    467     1   109.8800469 414.216000
    455    458    459     1   109.8000471 387.438400
    455    458    460     1   109.8000471 387.438400
    456    455    458     1   109.5600471 388.275200
    456    455    457     1   108.4600466 328.025600
    457    455    458     1   109.5600471 388.275200
    459    458    461     1   108.7700466 392.459200
    459    458    460     1   107.5800459 329.699200
    460    458    461     1   108.7700466 392.459200
    461    463    464     1   106.5500460 417.563200
    465    468    469     1   109.8000471 387.438400
    465    468    470     1   109.8000471 387.438400
    466    465    468     1   109.5600471 388.275200
    466    465    467     1   108.4600466 328.025600
    467    465    468     1   109.5600471 388.275200
    469    468    471     1   108.7700466 392.459200
    469    468    470     1   107.5800459 329.699200
    470    468    471     1   108.7700466 392.459200
    471    473    474     1   106.5500460 417.563200
    476    479    480     1   109.8000471 387.438400
    476    479    481     1   109.8000471 387.438400
    477    476    479     1   109.5600471 388.275200
    477    476    506     1   109.7800468 425.094400
    477    476    478     1   108.4600466 328.025600
    478    476    479     1   109.5600471 388.275200
    478    476    506     1   109.7800468 425.094400
    479    482    483     1   109.5600471 388.275200
    479    482    484     1   109.5600471 388.275200
    480    479    482     1   109.8000471 387.438400
    480    479    481     1   107.5800459 329.699200
    481    479    482     1   109.8000471 387.438400
    483    482    485     1   109.8800469 414.216000
    483    482    484     1   108.4600466 328.025600
    484    482    485     1   109.8800469 414.216000
    485    486    487     1   109.8800469 414.216000
    485    486    488     1   109.8800469 414.216000
    485    496    497     1   109.8800469 414.216000
    485    496    498     1   109.8800469 414.216000
    486    489    490     1   109.8000471 387.438400
    486    489    491     1   109.8000471 387.438400
    487    486    489     1   109.5600471 388.275200
    487    486    488     1   108.4600466 328.025600
    488    486    489     1   109.5600471 388.275200
    490    489    492     1   108.7700466 392.459200
    490    489    491     1   107.5800459 329.699200
    491    489    492     1   108.7700466 392.459200
    492    494    495     1   106.5500460 417.563200
    496    499    500     1   109.8000471 387.438400
    496    499    501     1   109.8000471 387.438400
    497    496    499     1   109.5600471 388.275200
    497    496    498     1   108.4600466 328.025600
    498    496    499     1   109.5600471 388.275200
    500    499    502     1   108.7700466 392.459200
    500    499    501     1   107.5800459 329.699200
    501    499    502     1   108.7700466 392.459200
    502    504    505     1   106.5500460 417.563200
    507    510    511     1   109.8000471 387.438400
    507    510    512     1   109.8000471 387.438400
    508    507    510     1   109.5600471 388.275200
    508    507    537     1   109.7800468 425.094400
    508    507    509     1   108.4600466 328.025600
    509    507    510     1   109.5600471 388.275200
    509    507    537     1   109.7800468 425.094400
    510    513    514     1   109.5600471 388.275200
    510    513    515     1   109.5600471 388.275200
    511    510    513     1   109.8000471 387.438400
    511    510    512     1   107.5800459 329.699200
    512    510    513     1   109.8000471 387.438400
    514    513    516     1   109.8800469 414.216000
    514    513    515     1   108.4600466 328.025600
    515    513    516     1   109.8800469 414.216000
    516    517    518     1   109.8800469 414.216000
    516    517    519     1   109.8800469 414.216000
    516    527    528     1   109.8800469 414.216000
    516    527    529     1   109.8800469 414.216000
    517    520    521     1   109.8000471 387.438400
    517    520    522     1   109.8000471 387.438400
    518    517    520     1   109.5600471 388.275200
    518    517    519     1   108.4600466 328.025600
    519    517    520     1   109.5600471 388.275200
    521    520    523     1   108.7700466 392.459200
    521    520    522     1   107.5800459 329.699200
    522    520    523     1   108.7700466 392.459200
    523    525    526     1   106.5500460 417.563200
    527    530    531     1   109.8000471 387.438400
    527    530    532     1   109.8000471 387.438400
    528    527    530     1   109.5600471 388.275200
    528    527    529     1   108.4600466 328.025600
    529    527    530     1   109.5600471 388.275200
    531    530    533     1   108.7700466 392.459200
    531    530    532     1   107.5800459 329.699200
    532    530    533     1   108.7700466 392.459200
    533    535    536     1   106.5500460 417.563200
    538    541    542     1   109.8000471 387.438400
    538    541    543     1   109.8000471 387.438400
    539    538    541     1   109.5600471 388.275200
    539    538    568     1   109.7800468 425.094400
    539    538    540     1   108.4600466 328.025600
    540    538    541     1   109.5600471 388.275200
    540    538    568     1   109.7800468 425.094400
    541    544    545     1   109.5600471 388.275200
    541    544    546     1   109.5600471 388.275200
    542    541    544     1   109.8000471 387.438400
    542    541    543     1   107.5800459 329.699200
    543    541    544     1   109.8000471 387.438400
    545    544    547     1   109.8800469 414.216000
    545    544    546     1   108.4600466 328.025600
    546    544    547     1   109.8800469 414.216000
    547    548    549     1   109.8800469 414.216000
    547    548    550     1   109.8800469 414.216000
    547    558    559     1   109.8800469 414.216000
    547    558    560     1   109.8800469 414.216000
    548    551    552     1   109.8000471 387.438400
    548    551    553     1   109.8000471 387.438400
    549    548    551     1   109.5600471 388.275200
    549    548    550     1   108.4600466 328.025600
    550    548    551     1   109.5600471 388.275200
    552    551    554     1   108.7700466 392.459200
    552    551    553     1   107.5800459 329.699200
    553    551    554     1   108.7700466 392.459200
    554    556    557     1   106.5500460 417.563200
    558    561    562     1   109.8000471 387.438400
    558    561    563     1   109.8000471 387.438400
    559    558    561     1   109.5600471 388.275200
    559    558    560     1   108.4600466 328.025600
    560    558    561     1   109.5600471 388.275200
    562    561    564     1   108.7700466 392.459200
    562    561    563     1   107.5800459 329.699200
    563    561    564     1   108.7700466 392.459200
    564    566    567     1   106.5500460 417.563200
    569    572    573     1   109.8000471 387.438400
    569    572    574     1   109.8000471 387.438400
    570    569    572     1   109.5600471 388.275200
    570    569    599     1   109.7800468 425.094400
    570    569    571     1   108.4600466 328.025600
    571    569    572     1   109.5600471 388.275200
    571    569    599     1   109.7800468 425.094400
    572    575    576     1   109.5600471 388.275200
    572    575    577     1   109.5600471 388.275200
    573    572    575     1   109.8000471 387.438400
    573    572    574     1   107.5800459 329.699200
    574    572    575     1   109.8000471 387.438400
    576    575    578     1   109.8800469 414.216000
    576    575    577     1   108.4600466 328.025600
    577    575    578     1   109.8800469 414.216000
    578    579    580     1   109.8800469 414.216000
    578    579    581     1   109.8800469 414.216000
    578    589    590     1   109.8800469 414.216000
    578    589    591     1   109.8800469 414.216000
    579    582    583     1   109.8000471 387.438400
    579    582    584     1   109.8000471 387.438400
    580    579    582     1   109.5600471 388.275200
    580    579    581     1   108.4600466 328.025600
    581    579    582     1   109.5600471 388.275200
    583    582    585     1   108.7700466 392.459200
    583    582    584     1   107.5800459 329.699200
    584    582    585     1   108.7700466 392.459200
    585    587    588     1   106.5500460 417.563200
    589    592    593     1   109.8000471 387.438400
    589    592    594     1   109.8000471 387.438400
    590    589    592     1   109.5600471 388.275200
    590    589    591     1   108.4600466 328.025600
    591    589    592     1   109.5600471 388.275200
    593    592    595     1   108.7700466 392.459200
    593    592    594     1   107.5800459 329.699200
    594    592    595     1   108.7700466 392.459200
    595    597    598     1   106.5500460 417.563200
    600    603    604     1   109.8000471 387.438400
    600    603    605     1   109.8000471 387.438400
    601    600    603     1   109.5600471 388.275200
    601    600    630     1   109.7800468 425.094400
    601    600    602     1   108.4600466 328.025600
    602    600    603     1   109.5600471 388.275200
    602    600    630     1   109.7800468 425.094400
    603    606    607     1   109.5600471 388.275200
    603    606    608     1   109.5600471 388.275200
    604    603    606     1   109.8000471 387.438400
    604    603    605     1   107.5800459 329.699200
    605    603    606     1   109.8000471 387.438400
    607    606    609     1   109.8800469 414.216000
    607    606    608     1   108.4600466 328.025600
    608    606    609     1   109.8800469 414.216000
    609    610    611     1   109.8800469 414.216000
    609    610    612     1   109.8800469 414.216000
    609    620    621     1   109.8800469 414.216000
    609    620    622     1   109.8800469 414.216000
    610    613    614     1   109.8000471 387.438400
    610    613    615     1   109.8000471 387.438400
    611    610    613     1   109.5600471 388.275200
    611    610    612     1   108.4600466 328.025600
    612    610    613     1   109.5600471 388.275200
    614    613    616     1   108.7700466 392.459200
    614    613    615     1   107.5800459 329.699200
    615    613    616     1   108.7700466 392.459200
    616    618    619     1   106.5500460 417.563200
    620    623    624     1   109.8000471 387.438400
    620    623    625     1   109.8000471 387.438400
    621    620    623     1   109.5600471 388.275200
    621    620    622     1   108.4600466 328.025600
    622    620    623     1   109.5600471 388.275200
    624    623    626     1   108.7700466 392.459200
    624    623    625     1   107.5800459 329.699200
    625    623    626     1   108.7700466 392.459200
    626    628    629     1   106.5500460 417.563200
    631    634    635     1   109.8000471 387.438400
    631    634    636     1   109.8000471 387.438400
    632    631    634     1   109.5600471 388.275200
    632    631    661     1   109.7800468 425.094400
    632    631    633     1   108.4600466 328.025600
    633    631    634     1   109.5600471 388.275200
    633    631    661     1   109.7800468 425.094400
    634    637    638     1   109.5600471 388.275200
    634    637    639     1   109.5600471 388.275200
    635    634    637     1   109.8000471 387.438400
    635    634    636     1   107.5800459 329.699200
    636    634    637     1   109.8000471 387.438400
    638    637    640     1   109.8800469 414.216000
    638    637    639     1   108.4600466 328.025600
    639    637    640     1   109.8800469 414.216000
    640    641    642     1   109.8800469 414.216000
    640    641    643     1   109.8800469 414.216000
    640    651    652     1   109.8800469 414.216000
    640    651    653     1   109.8800469 414.216000
    641    644    645     1   109.8000471 387.438400
    641    644    646     1   109.8000471 387.438400
    642    641    644     1   109.5600471 388.275200
    642    641    643     1   108.4600466 328.025600
    643    641    644     1   109.5600471 388.275200
    645    644    647     1   108.7700466 392.459200
    645    644    646     1   107.5800459 329.699200
    646    644    647     1   108.7700466 392.459200
    647    649    650     1   106.5500460 417.563200
    651    654    655     1   109.8000471 387.438400
    651    654    656     1   109.8000471 387.438400
    652    651    654     1   109.5600471 388.275200
    652    651    653     1   108.4600466 328.025600
    653    651    654     1   109.5600471 388.275200
    655    654    657     1   108.7700466 392.459200
    655    654    656     1   107.5800459 329.699200
    656    654    657     1   108.7700466 392.459200
    657    659    660     1   106.5500460 417.563200

[ dihedrals ]
;    ai     aj     ak     al funct         c0         c1         c2         c3         c4         c5
      1      2     14     26     1  0.0000000  0.6508444  3
      1      5     17     20     1  0.0000000  0.6508444  3
      1      8     11     23     1  0.0000000  0.6508444  3
      2      1      5     17     1  180.0000771  2.0083200  2
      2      1      5     17     1  0.0000000  1.2552000  3
      2      1      8     11     1  180.0000771  2.0083200  2
      2      1      8     11     1  0.0000000  1.2552000  3
      2     14     26    115     1  0.0000000  0.6508444  3
      5      1      2     14     1  180.0000771  2.0083200  2
      5      1      2     14     1  0.0000000  1.2552000  3
      5      1      8     11     1  180.0000771  2.0083200  2
      5      1      8     11     1  0.0000000  1.2552000  3
      5     17     20     57     1  0.0000000  0.6508444  3
      8      1      2     14     1  180.0000771  2.0083200  2
      8      1      2     14     1  0.0000000  1.2552000  3
      8      1      5     17     1  180.0000771  2.0083200  2
      8      1      5     17     1  0.0000000  1.2552000  3
      8     11     23     86     1  0.0000000  0.6508444  3
     11     23     86     77     1  180.0000771  0.4184000  2
     11     23     86     77     1  0.0000000  1.6024720  3
     14     26    115    106     1  180.0000771  0.4184000  2
     14     26    115    106     1  0.0000000  1.6024720  3
     17     20     57     48     1  180.0000771  0.4184000  2
     17     20     57     48     1  0.0000000  1.6024720  3
     20     57     48     39     1  180.0000771  0.4184000  2
     20     57     48     39     1  0.0000000  1.6024720  3
     23     86     77     68     1  180.0000771  0.4184000  2
     23     86     77     68     1  0.0000000  1.6024720  3
     26    115    106     97     1  180.0000771  0.4184000  2
     26    115    106     97     1  0.0000000  1.6024720  3
     29     30     42     54     1  0.0000000  0.6508444  3
     29     33     45     51     1  0.0000000  0.6508444  3
     29     36     39     48     1  0.0000000  0.6508444  3
     30     29     33     45     1  180.0000771  2.0083200  2
     30     29     33     45     1  0.0000000  1.2552000  3
     30     29     36     39     1  180.0000771  2.0083200  2
     30     29     36     39     1  0.0000000  1.2552000  3
     30     42     54    173     1  0.0000000  0.6508444  3
     33     29     30     42     1  180.0000771  2.0083200  2
     33     29     30     42     1  0.0000000  1.2552000  3
     33     29     36     39     1  180.0000771  2.0083200  2
     33     29     36     39     1  0.0000000  1.2552000  3
     33     45     51    144     1  0.0000000  0.6508444  3
     36     29     30     42     1  180.0000771  2.0083200  2
     36     29     30     42     1  0.0000000  1.2552000  3
     36     29     33     45     1  180.0000771  2.0083200  2
     36     29     33     45     1  0.0000000  1.2552000  3
     36     39     48     57     1  0.0000000  0.6508444  3
     42     54    173    164     1  180.0000771  0.4184000  2
     42     54    173    164     1  0.0000000  1.6024720  3
     45     51    144    135     1  180.0000771  0.4184000  2
     45     51    144    135     1  0.0000000  1.6024720  3
     51    144    135    126     1  180.0000771  0.4184000  2
     51    144    135    126     1  0.0000000  1.6024720  3
     54    173    164    155     1  180.0000771  0.4184000  2
     54    173    164    155     1  0.0000000  1.6024720  3
     58     59     71     83     1  0.0000000  0.6508444  3
     58     62     74     80     1  0.0000000  0.6508444  3
     58     65     68     77     1  0.0000000  0.6508444  3
     59     58     62     74     1  180.0000771  2.0083200  2
     59     58     62     74     1  0.0000000  1.2552000  3
     59     58     65     68     1  180.0000771  2.0083200  2
     59     58     65     68     1  0.0000000  1.2552000  3
     59     71     83    231     1  0.0000000  0.6508444  3
     62     58     59     71     1  180.0000771  2.0083200  2
     62     58     59     71     1  0.0000000  1.2552000  3
     62     58     65     68     1  180.0000771  2.0083200  2
     62     58     65     68     1  0.0000000  1.2552000  3
     62     74     80    202     1  0.0000000  0.6508444  3
     65     58     59     71     1  180.0000771  2.0083200  2
     65     58     59     71     1  0.0000000  1.2552000  3
     65     58     62     74     1  180.0000771  2.0083200  2
     65     58     62     74     1  0.0000000  1.2552000  3
     65     68     77     86     1  0.0000000  0.6508444  3
     71     83    231    222     1  180.0000771  0.4184000  2
     71     83    231    222     1  0.0000000  1.6024720  3
     74     80    202    193     1  180.0000771  0.4184000  2
     74     80    202    193     1  0.0000000  1.6024720  3
     80    202    193    184     1  180.0000771  0.4184000  2
     80    202    193    184     1  0.0000000  1.6024720  3
     83    231    222    213     1  180.0000771  0.4184000  2
     83    231    222    213     1  0.0000000  1.6024720  3
     87     88    100    112     1  0.0000000  0.6508444  3
     87     91    103    109     1  0.0000000  0.6508444  3
     87     94     97    106     1  0.0000000  0.6508444  3
     88     87     91    103     1  180.0000771  2.0083200  2
     88     87     91    103     1  0.0000000  1.2552000  3
     88     87     94     97     1  180.0000771  2.0083200  2
     88     87     94     97     1  0.0000000  1.2552000  3
     88    100    112    289     1  0.0000000  0.6508444  3
     91     87     88    100     1  180.0000771  2.0083200  2
     91     87     88    100     1  0.0000000  1.2552000  3
     91     87     94     97     1  180.0000771  2.0083200  2
     91     87     94     97     1  0.0000000  1.2552000  3
     91    103    109    260     1  0.0000000  0.6508444  3
     94     87     88    100     1  180.0000771  2.0083200  2
     94     87     88    100     1  0.0000000  1.2552000  3
     94     87     91    103     1  180.0000771  2.0083200  2
     94     87     91    103     1  0.0000000  1.2552000  3
     94     97    106    115     1  0.0000000  0.6508444  3
    100    112    289    280     1  180.0000771  0.4184000  2
    100    112    289    280     1  0.0000000  1.6024720  3
    103    109    260    251     1  180.0000771  0.4184000  2
    103    109    260    251     1  0.0000000  1.6024720  3
    109    260    251    242     1  180.0000771  0.4184000  2
    109    260    251    242     1  0.0000000  1.6024720  3
    112    289    280    271     1  180.0000771  0.4184000  2
    112    289    280    271     1  0.0000000  1.6024720  3
    116    117    129    141     1  0.0000000  0.6508444  3
    116    120    132    138     1  0.0000000  0.6508444  3
    116    123    126    135     1  0.0000000  0.6508444  3
    117    116    120    132     1  180.0000771  2.0083200  2
    117    116    120    132     1  0.0000000  1.2552000  3
    117    116    123    126     1  180.0000771  2.0083200  2
    117    116    123    126     1  0.0000000  1.2552000  3
    117    129    141    351     1  0.0000000  0.6508444  3
    120    116    117    129     1  180.0000771  2.0083200  2
    120    116    117    129     1  0.0000000  1.2552000  3
    120    116    123    126     1  180.0000771  2.0083200  2
    120    116    123    126     1  0.0000000  1.2552000  3
    120    132    138    320     1  0.0000000  0.6508444  3
    123    116    117    129     1  180.0000771  2.0083200  2
    123    116    117    129     1  0.0000000  1.2552000  3
    123    116    120    132     1  180.0000771  2.0083200  2
    123    116    120    132     1  0.0000000  1.2552000  3
    123    126    135    144     1  0.0000000  0.6508444  3
    129    141    351    321     1  180.0000771  0.4184000  2
    129    141    351    321     1  0.0000000  1.6024720  3
    132    138    320    290     1  180.0000771  0.4184000  2
    132    138    320    290     1  0.0000000  1.6024720  3
    138    320    290    293     1  180.0000771  0.4184000  2
    138    320    290    293     1  0.0000000  1.6024720  3
    141    351    321    324     1  180.0000771  0.4184000  2
    141    351    321    324     1  0.0000000  1.6024720  3
    145    146    158    170     1  0.0000000  0.6508444  3
    145    149    161    167     1  0.0000000  0.6508444  3
    145    152    155    164     1  0.0000000  0.6508444  3
    146    145    149    161     1  180.0000771  2.0083200  2
    146    145    149    161     1  0.0000000  1.2552000  3
    146    145    152    155     1  180.0000771  2.0083200  2
    146    145    152    155     1  0.0000000  1.2552000  3
    146    158    170    413     1  0.0000000  0.6508444  3
    149    145    146    158     1  180.0000771  2.0083200  2
    149    145    146    158     1  0.0000000  1.2552000  3
    149    145    152    155     1  180.0000771  2.0083200  2
    149    145    152    155     1  0.0000000  1.2552000  3
    149    161    167    382     1  0.0000000  0.6508444  3
    152    145    146    158     1  180.0000771  2.0083200  2
    152    145    146    158     1  0.0000000  1.2552000  3
    152    145    149    161     1  180.0000771  2.0083200  2
    152    145    149    161     1  0.0000000  1.2552000  3
    152    155    164    173     1  0.0000000  0.6508444  3
    158    170    413    383     1  180.0000771  0.4184000  2
    158    170    413    383     1  0.0000000  1.6024720  3
    161    167    382    352     1  180.0000771  0.4184000  2
    161    167    382    352     1  0.0000000  1.6024720  3
    167    382    352    355     1  180.0000771  0.4184000  2
    167    382    352    355     1  0.0000000  1.6024720  3
    170    413    383    386     1  180.0000771  0.4184000  2
    170    413    383    386     1  0.0000000  1.6024720  3
    174    175    187    199     1  0.0000000  0.6508444  3
    174    178    190    196     1  0.0000000  0.6508444  3
    174    181    184    193     1  0.0000000  0.6508444  3
    175    174    178    190     1  180.0000771  2.0083200  2
    175    174    178    190     1  0.0000000  1.2552000  3
    175    174    181    184     1  180.0000771  2.0083200  2
    175    174    181    184     1  0.0000000  1.2552000  3
    175    187    199    475     1  0.0000000  0.6508444  3
    178    174    175    187     1  180.0000771  2.0083200  2
    178    174    175    187     1  0.0000000  1.2552000  3
    178    174    181    184     1  180.0000771  2.0083200  2
    178    174    181    184     1  0.0000000  1.2552000  3
    178    190    196    444     1  0.0000000  0.6508444  3
    181    174    175    187     1  180.0000771  2.0083200  2
    181    174    175    187     1  0.0000000  1.2552000  3
    181    174    178    190     1  180.0000771  2.0083200  2
    181    174    178    190     1  0.0000000  1.2552000  3
    181    184    193    202     1  0.0000000  0.6508444  3
    187    199    475    445     1  180.0000771  0.4184000  2
    187    199    475    445     1  0.0000000  1.6024720  3
    190    196    444    414     1  180.0000771  0.4184000  2
    190    196    444    414     1  0.0000000  1.6024720  3
    196    444    414    417     1  180.0000771  0.4184000  2
    196    444    414    417     1  0.0000000  1.6024720  3
    199    475    445    448     1  180.0000771  0.4184000  2
    199    475    445    448     1  0.0000000  1.6024720  3
    203    204    216    228     1  0.0000000  0.6508444  3
    203    207    219    225     1  0.0000000  0.6508444  3
    203    210    213    222     1  0.0000000  0.6508444  3
    204    203    207    219     1  180.0000771  2.0083200  2
    204    203    207    219     1  0.0000000  1.2552000  3
    204    203    210    213     1  180.0000771  2.0083200  2
    204    203    210    213     1  0.0000000  1.2552000  3
    204    216    228    537     1  0.0000000  0.6508444  3
    207    203    204    216     1  180.0000771  2.0083200  2
    207    203    204    216     1  0.0000000  1.2552000  3
    207    203    210    213     1  180.0000771  2.0083200  2
    207    203    210    213     1  0.0000000  1.2552000  3
    207    219    225    506     1  0.0000000  0.6508444  3
    210    203    204    216     1  180.0000771  2.0083200  2
    210    203    204    216     1  0.0000000  1.2552000  3
    210    203    207    219     1  180.0000771  2.0083200  2
    210    203    207    219     1  0.0000000  1.2552000  3
    210    213    222    231     1  0.0000000  0.6508444  3
    216    228    537    507     1  180.0000771  0.4184000  2
    216    228    537    507     1  0.0000000  1.6024720  3
    219    225    506    476     1  180.0000771  0.4184000  2
    219    225    506    476     1  0.0000000  1.6024720  3
    225    506    476    479     1  180.0000771  0.4184000  2
    225    506    476    479     1  0.0000000  1.6024720  3
    228    537    507    510     1  180.0000771  0.4184000  2
    228    537    507    510     1  0.0000000  1.6024720  3
    232    233    245    257     1  0.0000000  0.6508444  3
    232    236    248    254     1  0.0000000  0.6508444  3
    232    239    242    251     1  0.0000000  0.6508444  3
    233    232    236    248     1  180.0000771  2.0083200  2
    233    232    236    248     1  0.0000000  1.2552000  3
    233    232    239    242     1  180.0000771  2.0083200  2
    233    232    239    242     1  0.0000000  1.2552000  3
    233    245    257    599     1  0.0000000  0.6508444  3
    236    232    233    245     1  180.0000771  2.0083200  2
    236    232    233    245     1  0.0000000  1.2552000  3
    236    232    239    242     1  180.0000771  2.0083200  2
    236    232    239    242     1  0.0000000  1.2552000  3
    236    248    254    568     1  0.0000000  0.6508444  3
    239    232    233    245     1  180.0000771  2.0083200  2
    239    232    233    245     1  0.0000000  1.2552000  3
    239    232    236    248     1  180.0000771  2.0083200  2
    239    232    236    248     1  0.0000000  1.2552000  3
    239    242    251    260     1  0.0000000  0.6508444  3
    245    257    599    569     1  180.0000771  0.4184000  2
    245    257    599    569     1  0.0000000  1.6024720  3
    248    254    568    538     1  180.0000771  0.4184000  2
    248    254    568    538     1  0.0000000  1.6024720  3
    254    568    538    541     1  180.0000771  0.4184000  2
    254    568    538    541     1  0.0000000  1.6024720  3
    257    599    569    572     1  180.0000771  0.4184000  2
    257    599    569    572     1  0.0000000  1.6024720  3
    261    262    274    286     1  0.0000000  0.6508444  3
    261    265    277    283     1  0.0000000  0.6508444  3
    261    268    271    280     1  0.0000000  0.6508444  3
    262    261    265    277     1  180.0000771  2.0083200  2
    262    261    265    277     1  0.0000000  1.2552000  3
    262    261    268    271     1  180.0000771  2.0083200  2
    262    261    268    271     1  0.0000000  1.2552000  3
    262    274    286    661     1  0.0000000  0.6508444  3
    265    261    262    274     1  180.0000771  2.0083200  2
    265    261    262    274     1  0.0000000  1.2552000  3
    265    261    268    271     1  180.0000771  2.0083200  2
    265    261    268    271     1  0.0000000  1.2552000  3
    265    277    283    630     1  0.0000000  0.6508444  3
    268    261    262    274     1  180.0000771  2.0083200  2
    268    261    262    274     1  0.0000000  1.2552000  3
    268    261    265    277     1  180.0000771  2.0083200  2
    268    261    265    277     1  0.0000000  1.2552000  3
    268    271    280    289     1  0.0000000  0.6508444  3
    274    286    661    631     1  180.0000771  0.4184000  2
    274    286    661    631     1  0.0000000  1.6024720  3
    277    283    630    600     1  180.0000771  0.4184000  2
    277    283    630    600     1  0.0000000  1.6024720  3
    283    630    600    603     1  180.0000771  0.4184000  2
    283    630    600    603     1  0.0000000  1.6024720  3
    286    661    631    634     1  180.0000771  0.4184000  2
    286    661    631    634     1  0.0000000  1.6024720  3
    290    293    296    299     1  0.0000000  0.6508444  3
    293    296    299    300     1  180.0000771  2.0083200  2
    293    296    299    300     1  0.0000000  1.2552000  3
    293    296    299    310     1  180.0000771  2.0083200  2
    293    296    299    310     1  0.0000000  1.2552000  3
    296    293    290    320     1  0.0000000  0.6508444  3
    296    299    300    303     1  180.0000771  2.0083200  2
    296    299    300    303     1  0.0000000  1.2552000  3
    296    299    310    313     1  180.0000771  2.0083200  2
    296    299    310    313     1  0.0000000  1.2552000  3
    299    300    303    306     1  0.0000000  0.6508444  3
    299    310    313    316     1  0.0000000  0.6508444  3
    300    299    310    313     1  180.0000771  2.0083200  2
    300    299    310    313     1  0.0000000  1.2552000  3
    300    303    306    307     1  180.0000771  0.0000000  2
    300    303    306    308     1  180.0000771  0.0000000  2
    303    300    299    310     1  180.0000771  2.0083200  2
    303    300    299    310     1  0.0000000  1.2552000  3
    310    313    316    317     1  180.0000771  0.0000000  2
    310    313    316    318     1  180.0000771  0.0000000  2
    321    324    327    330     1  0.0000000  0.6508444  3
    324    327    330    331     1  180.0000771  2.0083200  2
    324    327    330    331     1  0.0000000  1.2552000  3
    324    327    330    341     1  180.0000771  2.0083200  2
    324    327    330    341     1  0.0000000  1.2552000  3
    327    330    331    334     1  180.0000771  2.0083200  2
    327    330    331    334     1  0.0000000  1.2552000  3
    327    330    341    344     1  180.0000771  2.0083200  2
    327    330    341    344     1  0.0000000  1.2552000  3
    327    324    321    351     1  0.0000000  0.6508444  3
    330    331    334    337     1  0.0000000  0.6508444  3
    330    341    344    347     1  0.0000000  0.6508444  3
    331    334    337    338     1  180.0000771  0.0000000  2
    331    334    337    339     1  180.0000771  0.0000000  2
    331    330    341    344     1  180.0000771  2.0083200  2
    331    330    341    344     1  0.0000000  1.2552000  3
    334    331    330    341     1  180.0000771  2.0083200  2
    334    331    330    341     1  0.0000000  1.2552000  3
    341    344    347    348     1  180.0000771  0.0000000  2
    341    344    347    349     1  180.0000771  0.0000000  2
    352    355    358    361     1  0.0000000  0.6508444  3
    355    358    361    362     1  180.0000771  2.0083200  2
    355    358    361    362     1  0.0000000  1.2552000  3
    355    358    361    372     1  180.0000771  2.0083200  2
    355    358    361    372     1  0.0000000  1.2552000  3
    358    355    352    382     1  0.0000000  0.6508444  3
    358    361    362    365     1  180.0000771  2.0083200  2
    358    361    362    365     1  0.0000000  1.2552000  3
    358    361    372    375     1  180.0000771  2.0083200  2
    358    361    372    375     1  0.0000000  1.2552000  3
    361    362    365    368     1  0.0000000  0.6508444  3
    361    372    375    378     1  0.0000000  0.6508444  3
    362    361    372    375     1  180.0000771  2.0083200  2
    362    361    372    375     1  0.0000000  1.2552000  3
    362    365    368    369     1  180.0000771  0.0000000  2
    362    365    368    370     1  180.0000771  0.0000000  2
    365    362    361    372     1  180.0000771  2.0083200  2
    365    362    361    372     1  0.0000000  1.2552000  3
    372    375    378    379     1  180.0000771  0.0000000  2
    372    375    378    380     1  180.0000771  0.0000000  2
    383    386    389    392     1  0.0000000  0.6508444  3
    386    389    392    393     1  180.0000771  2.0083200  2
    386    389    392    393     1  0.0000000  1.2552000  3
    386    389    392    403     1  180.0000771  2.0083200  2
    386    389    392    403     1  0.0000000  1.2552000  3
    389    392    393    396     1  180.0000771  2.0083200  2
    389    392    393    396     1  0.0000000  1.2552000  3
    389    392    403    406     1  180.0000771  2.0083200  2
    389    392    403    406     1  0.0000000  1.2552000  3
    389    386    383    413     1  0.0000000  0.6508444  3
    392    393    396    399     1  0.0000000  0.6508444  3
    392    403    406    409     1  0.0000000  0.6508444  3
    393    396    399    400     1  180.0000771  0.0000000  2
    393    396    399    401     1  180.0000771  0.0000000  2
    393    392    403    406     1  180.0000771  2.0083200  2
    393    392    403    406     1  0.0000000  1.2552000  3
    396    393    392    403     1  180.0000771  2.0083200  2
    396    393    392    403     1  0.0000000  1.2552000  3
    403    406    409    410     1  180.0000771  0.0000000  2
    403    406    409    411     1  180.0000771  0.0000000  2
    414    417    420    423     1  0.0000000  0.6508444  3
    417    420    423    424     1  180.0000771  2.0083200  2
    417    420    423    424     1  0.0000000  1.2552000  3
    417    420    423    434     1  180.0000771  2.0083200  2
    417    420    423    434     1  0.0000000  1.2552000  3
    420    417    414    444     1  0.0000000  0.6508444  3
    420    423    424    427     1  180.0000771  2.0083200  2
    420    423    424    427     1  0.0000000  1.2552000  3
    420    423    434    437     1  180.0000771  2.0083200  2
    420    423    434    437     1  0.0000000  1.2552000  3
    423    424    427    430     1  0.0000000  0.6508444  3
    423    434    437    440     1  0.0000000  0.6508444  3
    424    423    434    437     1  180.0000771  2.0083200  2
    424    423    434    437     1  0.0000000  1.2552000  3
    424    427    430    431     1  180.0000771  0.0000000  2
    424    427    430    432     1  180.0000771  0.0000000  2
    427    424    423    434     1  180.0000771  2.0083200  2
    427    424    423    434     1  0.0000000  1.2552000  3
    434    437    440    441     1  180.0000771  0.0000000  2
    434    437    440    442     1  180.0000771  0.0000000  2
    445    448    451    454     1  0.0000000  0.6508444  3
    448    451    454    455     1  180.0000771  2.0083200  2
    448    451    454    455     1  0.0000000  1.2552000  3
    448    451    454    465     1  180.0000771  2.0083200  2
    448    451    454    465     1  0.0000000  1.2552000  3
    451    454    455    458     1  180.0000771  2.0083200  2
    451    454    455    458     1  0.0000000  1.2552000  3
    451    454    465    468     1  180.0000771  2.0083200  2
    451    454    465    468     1  0.0000000  1.2552000  3
    451    448    445    475     1  0.0000000  0.6508444  3
    454    455    458    461     1  0.0000000  0.6508444  3
    454    465    468    471     1  0.0000000  0.6508444  3
    455    458    461    462     1  180.0000771  0.0000000  2
    455    458    461    463     1  180.0000771  0.0000000  2
    455    454    465    468     1  180.0000771  2.0083200  2
    455    454    465    468     1  0.0000000  1.2552000  3
    458    455    454    465     1  180.0000771  2.0083200  2
    458    455    454    465     1  0.0000000  1.2552000  3
    465    468    471    472     1  180.0000771  0.0000000  2
    465    468    471    473     1  180.0000771  0.0000000  2
    476    479    482    485     1  0.0000000  0.6508444  3
    479    482    485    486     1  180.0000771  2.0083200  2
    479    482    485    486     1  0.0000000  1.2552000  3
    479    482    485    496     1  180.0000771  2.0083200  2
    479    482    485    496     1  0.0000000  1.2552000  3
    482    479    476    506     1  0.0000000  0.6508444  3
    482    485    486    489     1  180.0000771  2.0083200  2
    482    485    486    489     1  0.0000000  1.2552000  3
    482    485    496    499     1  180.0000771  2.0083200  2
    482    485    496    499     1  0.0000000  1.2552000  3
    485    486    489    492     1  0.0000000  0.6508444  3
    485    496    499    502     1  0.0000000  0.6508444  3
    486    485    496    499     1  180.0000771  2.0083200  2
    486    485    496    499     1  0.0000000  1.2552000  3
    486    489    492    493     1  180.0000771  0.0000000  2
    486    489    492    494     1  180.0000771  0.0000000  2
    489    486    485    496     1  180.0000771  2.0083200  2
    489    486    485    496     1  0.0000000  1.2552000  3
    496    499    502    503     1  180.0000771  0.0000000  2
    496    499    502    504     1  180.0000771  0.0000000  2
    507    510    513    516     1  0.0000000  0.6508444  3
    510    513    516    517     1  180.0000771  2.0083200  2
    510    513    516    517     1  0.0000000  1.2552000  3
    510    513    516    527     1  180.0000771  2.0083200  2
    510    513    516    527     1  0.0000000  1.2552000  3
    513    516    517    520     1  180.0000771  2.0083200  2
    513    516    517    520     1  0.0000000  1.2552000  3
    513    516    527    530     1  180.0000771  2.0083200  2
    513    516    527    530     1  0.0000000  1.2552000  3
    513    510    507    537     1  0.0000000  0.6508444  3
    516    517    520    523     1  0.0000000  0.6508444  3
    516    527    530    533     1  0.0000000  0.6508444  3
    517    520    523    524     1  180.0000771  0.0000000  2
    517    520    523    525     1  180.0000771  0.0000000  2
    517    516    527    530     1  180.0000771  2.0083200  2
    517    516    527    530     1  0.0000000  1.2552000  3
    520    517    516    527     1  180.0000771  2.0083200  2
    520    517    516    527     1  0.0000000  1.2552000  3
    527    530    533    534     1  180.0000771  0.0000000  2
    527    530    533    535     1  180.0000771  0.0000000  2
    538    541    544    547     1  0.0000000  0.6508444  3
    541    544    547    548     1  180.0000771  2.0083200  2
    541    544    547    548     1  0.0000000  1.2552000  3
    541    544    547    558     1  180.0000771  2.0083200  2
    541    544    547    558     1  0.0000000  1.2552000  3
    544    541    538    568     1  0.0000000  0.6508444  3
    544    547    548    551     1  180.0000771  2.0083200  2
    544    547    548    551     1  0.0000000  1.2552000  3
    544    547    558    561     1  180.0000771  2.0083200  2
    544    547    558    561     1  0.0000000  1.2552000  3
    547    548    551    554     1  0.0000000  0.6508444  3
    547    558    561    564     1  0.0000000  0.6508444  3
    548    547    558    561     1  180.0000771  2.0083200  2
    548    547    558    561     1  0.0000000  1.2552000  3
    548    551    554    555     1  180.0000771  0.0000000  2
    548    551    554    556     1  180.0000771  0.0000000  2
    551    548    547    558     1  180.0000771  2.0083200  2
    551    548    547    558     1  0.0000000  1.2552000  3
    558    561    564    565     1  180.0000771  0.0000000  2
    558    561    564    566     1  180.0000771  0.0000000  2
    569    572    575    578     1  0.0000000  0.6508444  3
    572    575    578    579     1  180.0000771  2.0083200  2
    572    575    578    579     1  0.0000000  1.2552000  3
    572    575    578    589     1  180.0000771  2.0083200  2
    572    575    578    589     1  0.0000000  1.2552000  3
    575    578    579    582     1  180.0000771  2.0083200  2
    575    578    579    582     1  0.0000000  1.2552000  3
    575    578    589    592     1  180.0000771  2.0083200  2
    575    578    589    592     1  0.0000000  1.2552000  3
    575    572    569    599     1  0.0000000  0.6508444  3
    578    579    582    585     1  0.0000000  0.6508444  3
    578    589    592    595     1  0.0000000  0.6508444  3
    579    582    585    586     1  180.0000771  0.0000000  2
    579    582    585    587     1  180.0000771  0.0000000  2
    579    578    589    592     1  180.0000771  2.0083200  2
    579    578    589    592     1  0.0000000  1.2552000  3
    582    579    578    589     1  180.0000771  2.0083200  2
    582    579    578    589     1  0.0000000  1.2552000  3
    589    592    595    596     1  180.0000771  0.0000000  2
    589    592    595    597     1  180.0000771  0.0000000  2
    600    603    606    609     1  0.0000000  0.6508444  3
    603    606    609    610     1  180.0000771  2.0083200  2
    603    606    609    610     1  0.0000000  1.2552000  3
    603    606    609    620     1  180.0000771  2.0083200  2
    603    606    609    620     1  0.0000000  1.2552000  3
    606    603    600    630     1  0.0000000  0.6508444  3
    606    609    610    613     1  180.0000771  2.0083200  2
    606    609    610    613     1  0.0000000  1.2552000  3
    606    609    620    623     1  180.0000771  2.0083200  2
    606    609    620    623     1  0.0000000  1.2552000  3
    609    610    613    616     1  0.0000000  0.6508444  3
    609    620    623    626     1  0.0000000  0.6508444  3
    610    609    620    623     1  180.0000771  2.0083200  2
    610    609    620    623     1  0.0000000  1.2552000  3
    610    613    616    617     1  180.0000771  0.0000000  2
    610    613    616    618     1  180.0000771  0.0000000  2
    613    610    609    620     1  180.0000771  2.0083200  2
    613    610    609    620     1  0.0000000  1.2552000  3
    620    623    626    627     1  180.0000771  0.0000000  2
    620    623    626    628     1  180.0000771  0.0000000  2
    631    634    637    640     1  0.0000000  0.6508444  3
    634    637    640    641     1  180.0000771  2.0083200  2
    634    637    640    641     1  0.0000000  1.2552000  3
    634    637    640    651     1  180.0000771  2.0083200  2
    634    637    640    651     1  0.0000000  1.2552000  3
    637    640    641    644     1  180.0000771  2.0083200  2
    637    640    641    644     1  0.0000000  1.2552000  3
    637    640    651    654     1  180.0000771  2.0083200  2
    637    640    651    654     1  0.0000000  1.2552000  3
    637    634    631    661     1  0.0000000  0.6508444  3
    640    641    644    647     1  0.0000000  0.6508444  3
    640    651    654    657     1  0.0000000  0.6508444  3
    641    644    647    648     1  180.0000771  0.0000000  2
    641    644    647    649     1  180.0000771  0.0000000  2
    641    640    651    654     1  180.0000771  2.0083200  2
    641    640    651    654     1  0.0000000  1.2552000  3
    644    641    640    651     1  180.0000771  2.0083200  2
    644    641    640    651     1  0.0000000  1.2552000  3
    651    654    657    658     1  180.0000771  0.0000000  2
    651    654    657    659     1  180.0000771  0.0000000  2
    303    307    306    308     4  180.0000771  4.6024000  2
    313    317    316    318     4  180.0000771  4.6024000  2
    334    338    337    339     4  180.0000771  4.6024000  2
    344    348    347    349     4  180.0000771  4.6024000  2
    365    369    368    370     4  180.0000771  4.6024000  2
    375    379    378    380     4  180.0000771  4.6024000  2
    396    400    399    401     4  180.0000771  4.6024000  2
    406    410    409    411     4  180.0000771  4.6024000  2
    427    431    430    432     4  180.0000771  4.6024000  2
    437    441    440    442     4  180.0000771  4.6024000  2
    458    462    461    463     4  180.0000771  4.6024000  2
    468    472    471    473     4  180.0000771  4.6024000  2
    489    493    492    494     4  180.0000771  4.6024000  2
    499    503    502    504     4  180.0000771  4.6024000  2
    520    524    523    525     4  180.0000771  4.6024000  2
    530    534    533    535     4  180.0000771  4.6024000  2
    551    555    554    556     4  180.0000771  4.6024000  2
    561    565    564    566     4  180.0000771  4.6024000  2
    582    586    585    587     4  180.0000771  4.6024000  2
    592    596    595    597     4  180.0000771  4.6024000  2
    613    617    616    618     4  180.0000771  4.6024000  2
    623    627    626    628     4  180.0000771  4.6024000  2
    644    648    647    649     4  180.0000771  4.6024000  2
    654    658    657    659     4  180.0000771  4.6024000  2
      1      2     14     15     1  0.0000000  0.6508444  3
      1      2     14     16     1  0.0000000  0.6508444  3
      1      5     17     18     1  0.0000000  0.6508444  3
      1      5     17     19     1  0.0000000  0.6508444  3
      1      8     11     12     1  0.0000000  0.6508444  3
      1      8     11     13     1  0.0000000  0.6508444  3
      2      1      5      6     1  0.0000000  1.2552000  3
      2      1      5      7     1  0.0000000  1.2552000  3
      2      1      8      9     1  0.0000000  1.2552000  3
      2      1      8     10     1  0.0000000  1.2552000  3
      2     14     26     27     1  0.0000000  0.6508444  3
      2     14     26     28     1  0.0000000  0.6508444  3
      5      1      2      3     1  0.0000000  1.2552000  3
      8      1      2      3     1  0.0000000  1.2552000  3
      3      2     14     26     1  0.0000000  0.6508444  3
      3      2     14     15     1  0.0000000  0.6508444  3
      3      2     14     16     1  0.0000000  0.6508444  3
      5      1      2      4     1  0.0000000  1.2552000  3
      8      1      2      4     1  0.0000000  1.2552000  3
      4      2     14     26     1  0.0000000  0.6508444  3
      4      2     14     15     1  0.0000000  0.6508444  3
      4      2     14     16     1  0.0000000  0.6508444  3
      5      1      8      9     1  0.0000000  1.2552000  3
      5      1      8     10     1  0.0000000  1.2552000  3
      5     17     20     21     1  0.0000000  0.6508444  3
      5     17     20     22     1  0.0000000  0.6508444  3
      8      1      5      6     1  0.0000000  1.2552000  3
      6      5     17     20     1  0.0000000  0.6508444  3
      6      5     17     18     1  0.0000000  0.6508444  3
      6      5     17     19     1  0.0000000  0.6508444  3
      8      1      5      7     1  0.0000000  1.2552000  3
      7      5     17     20     1  0.0000000  0.6508444  3
      7      5     17     18     1  0.0000000  0.6508444  3
      7      5     17     19     1  0.0000000  0.6508444  3
      8     11     23     24     1  0.0000000  0.6508444  3
      8     11     23     25     1  0.0000000  0.6508444  3
      9      8     11     23     1  0.0000000  0.6508444  3
      9      8     11     12     1  0.0000000  0.6508444  3
      9      8     11     13     1  0.0000000  0.6508444  3
     10      8     11     23     1  0.0000000  0.6508444  3
     10      8     11     12     1  0.0000000  0.6508444  3
     10      8     11     13     1  0.0000000  0.6508444  3
     12     11     23     86     1  0.0000000  1.0460000  1
     12     11     23     86     1  0.0000000  0.0000000  3
     12     11     23     24     1  0.0000000  0.6508444  3
     12     11     23     25     1  0.0000000  0.6508444  3
     13     11     23     86     1  0.0000000  1.0460000  1
     13     11     23     86     1  0.0000000  0.0000000  3
     13     11     23     24     1  0.0000000  0.6508444  3
     13     11     23     25     1  0.0000000  0.6508444  3
     15     14     26    115     1  0.0000000  1.0460000  1
     15     14     26    115     1  0.0000000  0.0000000  3
     15     14     26     27     1  0.0000000  0.6508444  3
     15     14     26     28     1  0.0000000  0.6508444  3
     16     14     26    115     1  0.0000000  1.0460000  1
     16     14     26    115     1  0.0000000  0.0000000  3
     16     14     26     27     1  0.0000000  0.6508444  3
     16     14     26     28     1  0.0000000  0.6508444  3
     18     17     20     57     1  0.0000000  1.0460000  1
     18     17     20     57     1  0.0000000  0.0000000  3
     18     17     20     21     1  0.0000000  0.6508444  3
     18     17     20     22     1  0.0000000  0.6508444  3
     19     17     20     57     1  0.0000000  1.0460000  1
     19     17     20     57     1  0.0000000  0.0000000  3
     19     17     20     21     1  0.0000000  0.6508444  3
     19     17     20     22     1  0.0000000  0.6508444  3
     20     57     48     49     1  0.0000000  1.6038667  3
     20     57     48     50     1  0.0000000  1.6038667  3
     21     20     57     48     1  0.0000000  1.6038667  3
     22     20     57     48     1  0.0000000  1.6038667  3
     23     86     77     78     1  0.0000000  1.6038667  3
     23     86     77     79     1  0.0000000  1.6038667  3
     24     23     86     77     1  0.0000000  1.6038667  3
     25     23     86     77     1  0.0000000  1.6038667  3
     26    115    106    107     1  0.0000000  1.6038667  3
     26    115    106    108     1  0.0000000  1.6038667  3
     27     26    115    106     1  0.0000000  1.6038667  3
     28     26    115    106     1  0.0000000  1.6038667  3
     29     30     42     43     1  0.0000000  0.6508444  3
     29     30     42     44     1  0.0000000  0.6508444  3
     29     33     45     46     1  0.0000000  0.6508444  3
     29     33     45     47     1  0.0000000  0.6508444  3
     29     36     39     40     1  0.0000000  0.6508444  3
     29     36     39     41     1  0.0000000  0.6508444  3
     30     29     33     34     1  0.0000000  1.2552000  3
     30     29     33     35     1  0.0000000  1.2552000  3
     30     29     36     37     1  0.0000000  1.2552000  3
     30     29     36     38     1  0.0000000  1.2552000  3
     30     42     54     55     1  0.0000000  0.6508444  3
     30     42     54     56     1  0.0000000  0.6508444  3
     31     30     29     33     1  0.0000000  1.2552000  3
     31     30     29     36     1  0.0000000  1.2552000  3
     31     30     42     54     1  0.0000000  0.6508444  3
     31     30     42     43     1  0.0000000  0.6508444  3
     31     30     42     44     1  0.0000000  0.6508444  3
     32     30     29     33     1  0.0000000  1.2552000  3
     32     30     29     36     1  0.0000000  1.2552000  3
     32     30     42     54     1  0.0000000  0.6508444  3
     32     30     42     43     1  0.0000000  0.6508444  3
     32     30     42     44     1  0.0000000  0.6508444  3
     33     29     36     37     1  0.0000000  1.2552000  3
     33     29     36     38     1  0.0000000  1.2552000  3
     33     45     51     52     1  0.0000000  0.6508444  3
     33     45     51     53     1  0.0000000  0.6508444  3
     34     33     29     36     1  0.0000000  1.2552000  3
     34     33     45     51     1  0.0000000  0.6508444  3
     34     33     45     46     1  0.0000000  0.6508444  3
     34     33     45     47     1  0.0000000  0.6508444  3
     35     33     29     36     1  0.0000000  1.2552000  3
     35     33     45     51     1  0.0000000  0.6508444  3
     35     33     45     46     1  0.0000000  0.6508444  3
     35     33     45     47     1  0.0000000  0.6508444  3
     36     39     48     49     1  0.0000000  0.6508444  3
     36     39     48     50     1  0.0000000  0.6508444  3
     37     36     39     48     1  0.0000000  0.6508444  3
     37     36     39     40     1  0.0000000  0.6508444  3
     37     36     39     41     1  0.0000000  0.6508444  3
     38     36     39     48     1  0.0000000  0.6508444  3
     38     36     39     40     1  0.0000000  0.6508444  3
     38     36     39     41     1  0.0000000  0.6508444  3
     40     39     48     57     1  0.0000000  1.0460000  1
     40     39     48     57     1  0.0000000  0.0000000  3
     40     39     48     49     1  0.0000000  0.6508444  3
     40     39     48     50     1  0.0000000  0.6508444  3
     41     39     48     57     1  0.0000000  1.0460000  1
     41     39     48     57     1  0.0000000  0.0000000  3
     41     39     48     49     1  0.0000000  0.6508444  3
     41     39     48     50     1  0.0000000  0.6508444  3
     43     42     54    173     1  0.0000000  1.0460000  1
     43     42     54    173     1  0.0000000  0.0000000  3
     43     42     54     55     1  0.0000000  0.6508444  3
     43     42     54     56     1  0.0000000  0.6508444  3
     44     42     54    173     1  0.0000000  1.0460000  1
     44     42     54    173     1  0.0000000  0.0000000  3
     44     42     54     55     1  0.0000000  0.6508444  3
     44     42     54     56     1  0.0000000  0.6508444  3
     46     45     51    144     1  0.0000000  1.0460000  1
     46     45     51    144     1  0.0000000  0.0000000  3
     46     45     51     52     1  0.0000000  0.6508444  3
     46     45     51     53     1  0.0000000  0.6508444  3
     47     45     51    144     1  0.0000000  1.0460000  1
     47     45     51    144     1  0.0000000  0.0000000  3
     47     45     51     52     1  0.0000000  0.6508444  3
     47     45     51     53     1  0.0000000  0.6508444  3
     51    144    135    136     1  0.0000000  1.6038667  3
     51    144    135    137     1  0.0000000  1.6038667  3
     52     51    144    135     1  0.0000000  1.6038667  3
     53     51    144    135     1  0.0000000  1.6038667  3
     54    173    164    165     1  0.0000000  1.6038667  3
     54    173    164    166     1  0.0000000  1.6038667  3
     55     54    173    164     1  0.0000000  1.6038667  3
     56     54    173    164     1  0.0000000  1.6038667  3
     58     59     71     72     1  0.0000000  0.6508444  3
     58     59     71     73     1  0.0000000  0.6508444  3
     58     62     74     75     1  0.0000000  0.6508444  3
     58     62     74     76     1  0.0000000  0.6508444  3
     58     65     68     69     1  0.0000000  0.6508444  3
     58     65     68     70     1  0.0000000  0.6508444  3
     59     58     62     63     1  0.0000000  1.2552000  3
     59     58     62     64     1  0.0000000  1.2552000  3
     59     58     65     66     1  0.0000000  1.2552000  3
     59     58     65     67     1  0.0000000  1.2552000  3
     59     71     83     84     1  0.0000000  0.6508444  3
     59     71     83     85     1  0.0000000  0.6508444  3
     60     59     58     62     1  0.0000000  1.2552000  3
     60     59     58     65     1  0.0000000  1.2552000  3
     60     59     71     83     1  0.0000000  0.6508444  3
     60     59     71     72     1  0.0000000  0.6508444  3
     60     59     71     73     1  0.0000000  0.6508444  3
     61     59     58     62     1  0.0000000  1.2552000  3
     61     59     58     65     1  0.0000000  1.2552000  3
     61     59     71     83     1  0.0000000  0.6508444  3
     61     59     71     72     1  0.0000000  0.6508444  3
     61     59     71     73     1  0.0000000  0.6508444  3
     62     58     65     66     1  0.0000000  1.2552000  3
     62     58     65     67     1  0.0000000  1.2552000  3
     62     74     80     81     1  0.0000000  0.6508444  3
     62     74     80     82     1  0.0000000  0.6508444  3
     63     62     58     65     1  0.0000000  1.2552000  3
     63     62     74     80     1  0.0000000  0.6508444  3
     63     62     74     75     1  0.0000000  0.6508444  3
     63     62     74     76     1  0.0000000  0.6508444  3
     64     62     58     65     1  0.0000000  1.2552000  3
     64     62     74     80     1  0.0000000  0.6508444  3
     64     62     74     75     1  0.0000000  0.6508444  3
     64     62     74     76     1  0.0000000  0.6508444  3
     65     68     77     78     1  0.0000000  0.6508444  3
     65     68     77     79     1  0.0000000  0.6508444  3
     66     65     68     77     1  0.0000000  0.6508444  3
     66     65     68     69     1  0.0000000  0.6508444  3
     66     65     68     70     1  0.0000000  0.6508444  3
     67     65     68     77     1  0.0000000  0.6508444  3
     67     65     68     69     1  0.0000000  0.6508444  3
     67     65     68     70     1  0.0000000  0.6508444  3
     69     68     77     86     1  0.0000000  1.0460000  1
     69     68     77     86     1  0.0000000  0.0000000  3
     69     68     77     78     1  0.0000000  0.6508444  3
     69     68     77     79     1  0.0000000  0.6508444  3
     70     68     77     86     1  0.0000000  1.0460000  1
     70     68     77     86     1  0.0000000  0.0000000  3
     70     68     77     78     1  0.0000000  0.6508444  3
     70     68     77     79     1  0.0000000  0.6508444  3
     72     71     83    231     1  0.0000000  1.0460000  1
     72     71     83    231     1  0.0000000  0.0000000  3
     72     71     83     84     1  0.0000000  0.6508444  3
     72     71     83     85     1  0.0000000  0.6508444  3
     73     71     83    231     1  0.0000000  1.0460000  1
     73     71     83    231     1  0.0000000  0.0000000  3
     73     71     83     84     1  0.0000000  0.6508444  3
     73     71     83     85     1  0.0000000  0.6508444  3
     75     74     80    202     1  0.0000000  1.0460000  1
     75     74     80    202     1  0.0000000  0.0000000  3
     75     74     80     81     1  0.0000000  0.6508444  3
     75     74     80     82     1  0.0000000  0.6508444  3
     76     74     80    202     1  0.0000000  1.0460000  1
     76     74     80    202     1  0.0000000  0.0000000  3
     76     74     80     81     1  0.0000000  0.6508444  3
     76     74     80     82     1  0.0000000  0.6508444  3
     80    202    193    194     1  0.0000000  1.6038667  3
     80    202    193    195     1  0.0000000  1.6038667  3
     81     80    202    193     1  0.0000000  1.6038667  3
     82     80    202    193     1  0.0000000  1.6038667  3
     83    231    222    223     1  0.0000000  1.6038667  3
     83    231    222    224     1  0.0000000  1.6038667  3
     84     83    231    222     1  0.0000000  1.6038667  3
     85     83    231    222     1  0.0000000  1.6038667  3
     87     88    100    101     1  0.0000000  0.6508444  3
     87     88    100    102     1  0.0000000  0.6508444  3
     87     91    103    104     1  0.0000000  0.6508444  3
     87     91    103    105     1  0.0000000  0.6508444  3
     87     94     97     98     1  0.0000000  0.6508444  3
     87     94     97     99     1  0.0000000  0.6508444  3
     88     87     91     92     1  0.0000000  1.2552000  3
     88     87     91     93     1  0.0000000  1.2552000  3
     88     87     94     95     1  0.0000000  1.2552000  3
     88     87     94     96     1  0.0000000  1.2552000  3
     88    100    112    113     1  0.0000000  0.6508444  3
     88    100    112    114     1  0.0000000  0.6508444  3
     89     88     87     91     1  0.0000000  1.2552000  3
     89     88     87     94     1  0.0000000  1.2552000  3
     89     88    100    112     1  0.0000000  0.6508444  3
     89     88    100    101     1  0.0000000  0.6508444  3
     89     88    100    102     1  0.0000000  0.6508444  3
     90     88     87     91     1  0.0000000  1.2552000  3
     90     88     87     94     1  0.0000000  1.2552000  3
     90     88    100    112     1  0.0000000  0.6508444  3
     90     88    100    101     1  0.0000000  0.6508444  3
     90     88    100    102     1  0.0000000  0.6508444  3
     91     87     94     95     1  0.0000000  1.2552000  3
     91     87     94     96     1  0.0000000  1.2552000  3
     91    103    109    110     1  0.0000000  0.6508444  3
     91    103    109    111     1  0.0000000  0.6508444  3
     92     91     87     94     1  0.0000000  1.2552000  3
     92     91    103    109     1  0.0000000  0.6508444  3
     92     91    103    104     1  0.0000000  0.6508444  3
     92     91    103    105     1  0.0000000  0.6508444  3
     93     91     87     94     1  0.0000000  1.2552000  3
     93     91    103    109     1  0.0000000  0.6508444  3
     93     91    103    104     1  0.0000000  0.6508444  3
     93     91    103    105     1  0.0000000  0.6508444  3
     94     97    106    107     1  0.0000000  0.6508444  3
     94     97    106    108     1  0.0000000  0.6508444  3
     95     94     97    106     1  0.0000000  0.6508444  3
     95     94     97     98     1  0.0000000  0.6508444  3
     95     94     97     99     1  0.0000000  0.6508444  3
     96     94     97    106     1  0.0000000  0.6508444  3
     96     94     97     98     1  0.0000000  0.6508444  3
     96     94     97     99     1  0.0000000  0.6508444  3
     98     97    106    115     1  0.0000000  1.0460000  1
     98     97    106    115     1  0.0000000  0.0000000  3
     98     97    106    107     1  0.0000000  0.6508444  3
     98     97    106    108     1  0.0000000  0.6508444  3
     99     97    106    115     1  0.0000000  1.0460000  1
     99     97    106    115     1  0.0000000  0.0000000  3
     99     97    106    107     1  0.0000000  0.6508444  3
     99     97    106    108     1  0.0000000  0.6508444  3
    101    100    112    289     1  0.0000000  1.0460000  1
    101    100    112    289     1  0.0000000  0.0000000  3
    101    100    112    113     1  0.0000000  0.6508444  3
    101    100    112    114     1  0.0000000  0.6508444  3
    102    100    112    289     1  0.0000000  1.0460000  1
    102    100    112    289     1  0.0000000  0.0000000  3
    102    100    112    113     1  0.0000000  0.6508444  3
    102    100    112    114     1  0.0000000  0.6508444  3
    104    103    109    260     1  0.0000000  1.0460000  1
    104    103    109    260     1  0.0000000  0.0000000  3
    104    103    109    110     1  0.0000000  0.6508444  3
    104    103    109    111     1  0.0000000  0.6508444  3
    105    103    109    260     1  0.0000000  1.0460000  1
    105    103    109    260     1  0.0000000  0.0000000  3
    105    103    109    110     1  0.0000000  0.6508444  3
    105    103    109    111     1  0.0000000  0.6508444  3
    109    260    251    252     1  0.0000000  1.6038667  3
    109    260    251    253     1  0.0000000  1.6038667  3
    110    109    260    251     1  0.0000000  1.6038667  3
    111    109    260    251     1  0.0000000  1.6038667  3
    112    289    280    281     1  0.0000000  1.6038667  3
    112    289    280    282     1  0.0000000  1.6038667  3
    113    112    289    280     1  0.0000000  1.6038667  3
    114    112    289    280     1  0.0000000  1.6038667  3
    116    117    129    130     1  0.0000000  0.6508444  3
    116    117    129    131     1  0.0000000  0.6508444  3
    116    120    132    133     1  0.0000000  0.6508444  3
    116    120    132    134     1  0.0000000  0.6508444  3
    116    123    126    127     1  0.0000000  0.6508444  3
    116    123    126    128     1  0.0000000  0.6508444  3
    117    116    120    121     1  0.0000000  1.2552000  3
    117    116    120    122     1  0.0000000  1.2552000  3
    117    116    123    124     1  0.0000000  1.2552000  3
    117    116    123    125     1  0.0000000  1.2552000  3
    117    129    141    142     1  0.0000000  0.6508444  3
    117    129    141    143     1  0.0000000  0.6508444  3
    118    117    116    120     1  0.0000000  1.2552000  3
    118    117    116    123     1  0.0000000  1.2552000  3
    118    117    129    141     1  0.0000000  0.6508444  3
    118    117    129    130     1  0.0000000  0.6508444  3
    118    117    129    131     1  0.0000000  0.6508444  3
    119    117    116    120     1  0.0000000  1.2552000  3
    119    117    116    123     1  0.0000000  1.2552000  3
    119    117    129    141     1  0.0000000  0.6508444  3
    119    117    129    130     1  0.0000000  0.6508444  3
    119    117    129    131     1  0.0000000  0.6508444  3
    120    116    123    124     1  0.0000000  1.2552000  3
    120    116    123    125     1  0.0000000  1.2552000  3
    120    132    138    139     1  0.0000000  0.6508444  3
    120    132    138    140     1  0.0000000  0.6508444  3
    121    120    116    123     1  0.0000000  1.2552000  3
    121    120    132    138     1  0.0000000  0.6508444  3
    121    120    132    133     1  0.0000000  0.6508444  3
    121    120    132    134     1  0.0000000  0.6508444  3
    122    120    116    123     1  0.0000000  1.2552000  3
    122    120    132    138     1  0.0000000  0.6508444  3
    122    120    132    133     1  0.0000000  0.6508444  3
    122    120    132    134     1  0.0000000  0.6508444  3
    123    126    135    136     1  0.0000000  0.6508444  3
    123    126    135    137     1  0.0000000  0.6508444  3
    124    123    126    135     1  0.0000000  0.6508444  3
    124    123    126    127     1  0.0000000  0.6508444  3
    124    123    126    128     1  0.0000000  0.6508444  3
    125    123    126    135     1  0.0000000  0.6508444  3
    125    123    126    127     1  0.0000000  0.6508444  3
    125    123    126    128     1  0.0000000  0.6508444  3
    127    126    135    144     1  0.0000000  1.0460000  1
    127    126    135    144     1  0.0000000  0.0000000  3
    127    126    135    136     1  0.0000000  0.6508444  3
    127    126    135    137     1  0.0000000  0.6508444  3
    128    126    135    144     1  0.0000000  1.0460000  1
    128    126    135    144     1  0.0000000  0.0000000  3
    128    126    135    136     1  0.0000000  0.6508444  3
    128    126    135    137     1  0.0000000  0.6508444  3
    130    129    141    351     1  0.0000000  1.0460000  1
    130    129    141    351     1  0.0000000  0.0000000  3
    130    129    141    142     1  0.0000000  0.6508444  3
    130    129    141    143     1  0.0000000  0.6508444  3
    131    129    141    351     1  0.0000000  1.0460000  1
    131    129    141    351     1  0.0000000  0.0000000  3
    131    129    141    142     1  0.0000000  0.6508444  3
    131    129    141    143     1  0.0000000  0.6508444  3
    133    132    138    320     1  0.0000000  1.0460000  1
    133    132    138    320     1  0.0000000  0.0000000  3
    133    132    138    139     1  0.0000000  0.6508444  3
    133    132    138    140     1  0.0000000  0.6508444  3
    134    132    138    320     1  0.0000000  1.0460000  1
    134    132    138    320     1  0.0000000  0.0000000  3
    134    132    138    139     1  0.0000000  0.6508444  3
    134    132    138    140     1  0.0000000  0.6508444  3
    138    320    290    291     1  0.0000000  1.6038667  3
    138    320    290    292     1  0.0000000  1.6038667  3
    139    138    320    290     1  0.0000000  1.6038667  3
    140    138    320    290     1  0.0000000  1.6038667  3
    141    351    321    322     1  0.0000000  1.6038667  3
    141    351    321    323     1  0.0000000  1.6038667  3
    142    141    351    321     1  0.0000000  1.6038667  3
    143    141    351    321     1  0.0000000  1.6038667  3
    145    146    158    159     1  0.0000000  0.6508444  3
    145    146    158    160     1  0.0000000  0.6508444  3
    145    149    161    162     1  0.0000000  0.6508444  3
    145    149    161    163     1  0.0000000  0.6508444  3
    145    152    155    156     1  0.0000000  0.6508444  3
    145    152    155    157     1  0.0000000  0.6508444  3
    146    145    149    150     1  0.0000000  1.2552000  3
    146    145    149    151     1  0.0000000  1.2552000  3
    146    145    152    153     1  0.0000000  1.2552000  3
    146    145    152    154     1  0.0000000  1.2552000  3
    146    158    170    171     1  0.0000000  0.6508444  3
    146    158    170    172     1  0.0000000  0.6508444  3
    147    146    145    149     1  0.0000000  1.2552000  3
    147    146    145    152     1  0.0000000  1.2552000  3
    147    146    158    170     1  0.0000000  0.6508444  3
    147    146    158    159     1  0.0000000  0.6508444  3
    147    146    158    160     1  0.0000000  0.6508444  3
    148    146    145    149     1  0.0000000  1.2552000  3
    148    146    145    152     1  0.0000000  1.2552000  3
    148    146    158    170     1  0.0000000  0.6508444  3
    148    146    158    159     1  0.0000000  0.6508444  3
    148    146    158    160     1  0.0000000  0.6508444  3
    149    145    152    153     1  0.0000000  1.2552000  3
    149    145    152    154     1  0.0000000  1.2552000  3
    149    161    167    168     1  0.0000000  0.6508444  3
    149    161    167    169     1  0.0000000  0.6508444  3
    150    149    145    152     1  0.0000000  1.2552000  3
    150    149    161    167     1  0.0000000  0.6508444  3
    150    149    161    162     1  0.0000000  0.6508444  3
    150    149    161    163     1  0.0000000  0.6508444  3
    151    149    145    152     1  0.0000000  1.2552000  3
    151    149    161    167     1  0.0000000  0.6508444  3
    151    149    161    162     1  0.0000000  0.6508444  3
    151    149    161    163     1  0.0000000  0.6508444  3
    152    155    164    165     1  0.0000000  0.6508444  3
    152    155    164    166     1  0.0000000  0.6508444  3
    153    152    155    164     1  0.0000000  0.6508444  3
    153    152    155    156     1  0.0000000  0.6508444  3
    153    152    155    157     1  0.0000000  0.6508444  3
    154    152    155    164     1  0.0000000  0.6508444  3
    154    152    155    156     1  0.0000000  0.6508444  3
    154    152    155    157     1  0.0000000  0.6508444  3
    156    155    164    173     1  0.0000000  1.0460000  1
    156    155    164    173     1  0.0000000  0.0000000  3
    156    155    164    165     1  0.0000000  0.6508444  3
    156    155    164    166     1  0.0000000  0.6508444  3
    157    155    164    173     1  0.0000000  1.0460000  1
    157    155    164    173     1  0.0000000  0.0000000  3
    157    155    164    165     1  0.0000000  0.6508444  3
    157    155    164    166     1  0.0000000  0.6508444  3
    159    158    170    413     1  0.0000000  1.0460000  1
    159    158    170    413     1  0.0000000  0.0000000  3
    159    158    170    171     1  0.0000000  0.6508444  3
    159    158    170    172     1  0.0000000  0.6508444  3
    160    158    170    413     1  0.0000000  1.0460000  1
    160    158    170    413     1  0.0000000  0.0000000  3
    160    158    170    171     1  0.0000000  0.6508444  3
    160    158    170    172     1  0.0000000  0.6508444  3
    162    161    167    382     1  0.0000000  1.0460000  1
    162    161    167    382     1  0.0000000  0.0000000  3
    162    161    167    168     1  0.0000000  0.6508444  3
    162    161    167    169     1  0.0000000  0.6508444  3
    163    161    167    382     1  0.0000000  1.0460000  1
    163    161    167    382     1  0.0000000  0.0000000  3
    163    161    167    168     1  0.0000000  0.6508444  3
    163    161    167    169     1  0.0000000  0.6508444  3
    167    382    352    353     1  0.0000000  1.6038667  3
    167    382    352    354     1  0.0000000  1.6038667  3
    168    167    382    352     1  0.0000000  1.6038667  3
    169    167    382    352     1  0.0000000  1.6038667  3
    170    413    383    384     1  0.0000000  1.6038667  3
    170    413    383    385     1  0.0000000  1.6038667  3
    171    170    413    383     1  0.0000000  1.6038667  3
    172    170    413    383     1  0.0000000  1.6038667  3
    174    175    187    188     1  0.0000000  0.6508444  3
    174    175    187    189     1  0.0000000  0.6508444  3
    174    178    190    191     1  0.0000000  0.6508444  3
    174    178    190    192     1  0.0000000  0.6508444  3
    174    181    184    185     1  0.0000000  0.6508444  3
    174    181    184    186     1  0.0000000  0.6508444  3
    175    174    178    179     1  0.0000000  1.2552000  3
    175    174    178    180     1  0.0000000  1.2552000  3
    175    174    181    182     1  0.0000000  1.2552000  3
    175    174    181    183     1  0.0000000  1.2552000  3
    175    187    199    200     1  0.0000000  0.6508444  3
    175    187    199    201     1  0.0000000  0.6508444  3
    176    175    174    178     1  0.0000000  1.2552000  3
    176    175    174    181     1  0.0000000  1.2552000  3
    176    175    187    199     1  0.0000000  0.6508444  3
    176    175    187    188     1  0.0000000  0.6508444  3
    176    175    187    189     1  0.0000000  0.6508444  3
    177    175    174    178     1  0.0000000  1.2552000  3
    177    175    174    181     1  0.0000000  1.2552000  3
    177    175    187    199     1  0.0000000  0.6508444  3
    177    175    187    188     1  0.0000000  0.6508444  3
    177    175    187    189     1  0.0000000  0.6508444  3
    178    174    181    182     1  0.0000000  1.2552000  3
    178    174    181    183     1  0.0000000  1.2552000  3
    178    190    196    197     1  0.0000000  0.6508444  3
    178    190    196    198     1  0.0000000  0.6508444  3
    179    178    174    181     1  0.0000000  1.2552000  3
    179    178    190    196     1  0.0000000  0.6508444  3
    179    178    190    191     1  0.0000000  0.6508444  3
    179    178    190    192     1  0.0000000  0.6508444  3
    180    178    174    181     1  0.0000000  1.2552000  3
    180    178    190    196     1  0.0000000  0.6508444  3
    180    178    190    191     1  0.0000000  0.6508444  3
    180    178    190    192     1  0.0000000  0.6508444  3
    181    184    193    194     1  0.0000000  0.6508444  3
    181    184    193    195     1  0.0000000  0.6508444  3
    182    181    184    193     1  0.0000000  0.6508444  3
    182    181    184    185     1  0.0000000  0.6508444  3
    182    181    184    186     1  0.0000000  0.6508444  3
    183    181    184    193     1  0.0000000  0.6508444  3
    183    181    184    185     1  0.0000000  0.6508444  3
    183    181    184    186     1  0.0000000  0.6508444  3
    185    184    193    202     1  0.0000000  1.0460000  1
    185    184    193    202     1  0.0000000  0.0000000  3
    185    184    193    194     1  0.0000000  0.6508444  3
    185    184    193    195     1  0.0000000  0.6508444  3
    186    184    193    202     1  0.0000000  1.0460000  1
    186    184    193    202     1  0.0000000  0.0000000  3
    186    184    193    194     1  0.0000000  0.6508444  3
    186    184    193    195     1  0.0000000  0.6508444  3
    188    187    199    475     1  0.0000000  1.0460000  1
    188    187    199    475     1  0.0000000  0.0000000  3
    188    187    199    200     1  0.0000000  0.6508444  3
    188    187    199    201     1  0.0000000  0.6508444  3
    189    187    199    475     1  0.0000000  1.0460000  1
    189    187    199    475     1  0.0000000  0.0000000  3
    189    187    199    200     1  0.0000000  0.6508444  3
    189    187    199    201     1  0.0000000  0.6508444  3
    191    190    196    444     1  0.0000000  1.0460000  1
    191    190    196    444     1  0.0000000  0.0000000  3
    191    190    196    197     1  0.0000000  0.6508444  3
    191    190    196    198     1  0.0000000  0.6508444  3
    192    190    196    444     1  0.0000000  1.0460000  1
    192    190    196    444     1  0.0000000  0.0000000  3
    192    190    196    197     1  0.0000000  0.6508444  3
    192    190    196    198     1  0.0000000  0.6508444  3
    196    444    414    415     1  0.0000000  1.6038667  3
    196    444    414    416     1  0.0000000  1.6038667  3
    197    196    444    414     1  0.0000000  1.6038667  3
    198    196    444    414     1  0.0000000  1.6038667  3
    199    475    445    446     1  0.0000000  1.6038667  3
    199    475    445    447     1  0.0000000  1.6038667  3
    200    199    475    445     1  0.0000000  1.6038667  3
    201    199    475    445     1  0.0000000  1.6038667  3
    203    204    216    217     1  0.0000000  0.6508444  3
    203    204    216    218     1  0.0000000  0.6508444  3
    203    207    219    220     1  0.0000000  0.6508444  3
    203    207    219    221     1  0.0000000  0.6508444  3
    203    210    213    214     1  0.0000000  0.6508444  3
    203    210    213    215     1  0.0000000  0.6508444  3
    204    203    207    208     1  0.0000000  1.2552000  3
    204    203    207    209     1  0.0000000  1.2552000  3
    204    203    210    211     1  0.0000000  1.2552000  3
    204    203    210    212     1  0.0000000  1.2552000  3
    204    216    228    229     1  0.0000000  0.6508444  3
    204    216    228    230     1  0.0000000  0.6508444  3
    205    204    203    207     1  0.0000000  1.2552000  3
    205    204    203    210     1  0.0000000  1.2552000  3
    205    204    216    228     1  0.0000000  0.6508444  3
    205    204    216    217     1  0.0000000  0.6508444  3
    205    204    216    218     1  0.0000000  0.6508444  3
    206    204    203    207     1  0.0000000  1.2552000  3
    206    204    203    210     1  0.0000000  1.2552000  3
    206    204    216    228     1  0.0000000  0.6508444  3
    206    204    216    217     1  0.0000000  0.6508444  3
    206    204    216    218     1  0.0000000  0.6508444  3
    207    203    210    211     1  0.0000000  1.2552000  3
    207    203    210    212     1  0.0000000  1.2552000  3
    207    219    225    226     1  0.0000000  0.6508444  3
    207    219    225    227     1  0.0000000  0.6508444  3
    208    207    203    210     1  0.0000000  1.2552000  3
    208    207    219    225     1  0.0000000  0.6508444  3
    208    207    219    220     1  0.0000000  0.6508444  3
    208    207    219    221     1  0.0000000  0.6508444  3
    209    207    203    210     1  0.0000000  1.2552000  3
    209    207    219    225     1  0.0000000  0.6508444  3
    209    207    219    220     1  0.0000000  0.6508444  3
    209    207    219    221     1  0.0000000  0.6508444  3
    210    213    222    223     1  0.0000000  0.6508444  3
    210    213    222    224     1  0.0000000  0.6508444  3
    211    210    213    222     1  0.0000000  0.6508444  3
    211    210    213    214     1  0.0000000  0.6508444  3
    211    210    213    215     1  0.0000000  0.6508444  3
    212    210    213    222     1  0.0000000  0.6508444  3
    212    210    213    214     1  0.0000000  0.6508444  3
    212    210    213    215     1  0.0000000  0.6508444  3
    214    213    222    231     1  0.0000000  1.0460000  1
    214    213    222    231     1  0.0000000  0.0000000  3
    214    213    222    223     1  0.0000000  0.6508444  3
    214    213    222    224     1  0.0000000  0.6508444  3
    215    213    222    231     1  0.0000000  1.0460000  1
    215    213    222    231     1  0.0000000  0.0000000  3
    215    213    222    223     1  0.0000000  0.6508444  3
    215    213    222    224     1  0.0000000  0.6508444  3
    217    216    228    537     1  0.0000000  1.0460000  1
    217    216    228    537     1  0.0000000  0.0000000  3
    217    216    228    229     1  0.0000000  0.6508444  3
    217    216    228    230     1  0.0000000  0.6508444  3
    218    216    228    537     1  0.0000000  1.0460000  1
    218    216    228    537     1  0.0000000  0.0000000  3
    218    216    228    229     1  0.0000000  0.6508444  3
    218    216    228    230     1  0.0000000  0.6508444  3
    220    219    225    506     1  0.0000000  1.0460000  1
    220    219    225    506     1  0.0000000  0.0000000  3
    220    219    225    226     1  0.0000000  0.6508444  3
    220    219    225    227     1  0.0000000  0.6508444  3
    221    219    225    506     1  0.0000000  1.0460000  1
    221    219    225    506     1  0.0000000  0.0000000  3
    221    219    225    226     1  0.0000000  0.6508444  3
    221    219    225    227     1  0.0000000  0.6508444  3
    225    506    476    477     1  0.0000000  1.6038667  3
    225    506    476    478     1  0.0000000  1.6038667  3
    226    225    506    476     1  0.0000000  1.6038667  3
    227    225    506    476     1  0.0000000  1.6038667  3
    228    537    507    508     1  0.0000000  1.6038667  3
    228    537    507    509     1  0.0000000  1.6038667  3
    229    228    537    507     1  0.0000000  1.6038667  3
    230    228    537    507     1  0.0000000  1.6038667  3
    232    233    245    246     1  0.0000000  0.6508444  3
    232    233    245    247     1  0.0000000  0.6508444  3
    232    236    248    249     1  0.0000000  0.6508444  3
    232    236    248    250     1  0.0000000  0.6508444  3
    232    239    242    243     1  0.0000000  0.6508444  3
    232    239    242    244     1  0.0000000  0.6508444  3
    233    232    236    237     1  0.0000000  1.2552000  3
    233    232    236    238     1  0.0000000  1.2552000  3
    233    232    239    240     1  0.0000000  1.2552000  3
    233    232    239    241     1  0.0000000  1.2552000  3
    233    245    257    258     1  0.0000000  0.6508444  3
    233    245    257    259     1  0.0000000  0.6508444  3
    234    233    232    236     1  0.0000000  1.2552000  3
    234    233    232    239     1  0.0000000  1.2552000  3
    234    233    245    257     1  0.0000000  0.6508444  3
    234    233    245    246     1  0.0000000  0.6508444  3
    234    233    245    247     1  0.0000000  0.6508444  3
    235    233    232    236     1  0.0000000  1.2552000  3
    235    233    232    239     1  0.0000000  1.2552000  3
    235    233    245    257     1  0.0000000  0.6508444  3
    235    233    245    246     1  0.0000000  0.6508444  3
    235    233    245    247     1  0.0000000  0.6508444  3
    236    232    239    240     1  0.0000000  1.2552000  3
    236    232    239    241     1  0.0000000  1.2552000  3
    236    248    254    255     1  0.0000000  0.6508444  3
    236    248    254    256     1  0.0000000  0.6508444  3
    237    236    232    239     1  0.0000000  1.2552000  3
    237    236    248    254     1  0.0000000  0.6508444  3
    237    236    248    249     1  0.0000000  0.6508444  3
    237    236    248    250     1  0.0000000  0.6508444  3
    238    236    232    239     1  0.0000000  1.2552000  3
    238    236    248    254     1  0.0000000  0.6508444  3
    238    236    248    249     1  0.0000000  0.6508444  3
    238    236    248    250     1  0.0000000  0.6508444  3
    239    242    251    252     1  0.0000000  0.6508444  3
    239    242    251    253     1  0.0000000  0.6508444  3
    240    239    242    251     1  0.0000000  0.6508444  3
    240    239    242    243     1  0.0000000  0.6508444  3
    240    239    242    244     1  0.0000000  0.6508444  3
    241    239    242    251     1  0.0000000  0.6508444  3
    241    239    242    243     1  0.0000000  0.6508444  3
    241    239    242    244     1  0.0000000  0.6508444  3
    243    242    251    260     1  0.0000000  1.0460000  1
    243    242    251    260     1  0.0000000  0.0000000  3
    243    242    251    252     1  0.0000000  0.6508444  3
    243    242    251    253     1  0.0000000  0.6508444  3
    244    242    251    260     1  0.0000000  1.0460000  1
    244    242    251    260     1  0.0000000  0.0000000  3
    244    242    251    252     1  0.0000000  0.6508444  3
    244    242    251    253     1  0.0000000  0.6508444  3
    246    245    257    599     1  0.0000000  1.0460000  1
    246    245    257    599     1  0.0000000  0.0000000  3
    246    245    257    258     1  0.0000000  0.6508444  3
    246    245    257    259     1  0.0000000  0.6508444  3
    247    245    257    599     1  0.0000000  1.0460000  1
    247    245    257    599     1  0.0000000  0.0000000  3
    247    245    257    258     1  0.0000000  0.6508444  3
    247    245    257    259     1  0.0000000  0.6508444  3
    249    248    254    568     1  0.0000000  1.0460000  1
    249    248    254    568     1  0.0000000  0.0000000  3
    249    248    254    255     1  0.0000000  0.6508444  3
    249    248    254    256     1  0.0000000  0.6508444  3
    250    248    254    568     1  0.0000000  1.0460000  1
    250    248    254    568     1  0.0000000  0.0000000  3
    250    248    254    255     1  0.0000000  0.6508444  3
    250    248    254    256     1  0.0000000  0.6508444  3
    254    568    538    539     1  0.0000000  1.6038667  3
    254    568    538    540     1  0.0000000  1.6038667  3
    255    254    568    538     1  0.0000000  1.6038667  3
    256    254    568    538     1  0.0000000  1.6038667  3
    257    599    569    570     1  0.0000000  1.6038667  3
    257    599    569    571     1  0.0000000  1.6038667  3
    258    257    599    569     1  0.0000000  1.6038667  3
    259    257    599    569     1  0.0000000  1.6038667  3
    261    262    274    275     1  0.0000000  0.6508444  3
    261    262    274    276     1  0.0000000  0.6508444  3
    261    265    277    278     1  0.0000000  0.6508444  3
    261    265    277    279     1  0.0000000  0.6508444  3
    261    268    271    272     1  0.0000000  0.6508444  3
    261    268    271    273     1  0.0000000  0.6508444  3
    262    261    265    266     1  0.0000000  1.2552000  3
    262    261    265    267     1  0.0000000  1.2552000  3
    262    261    268    269     1  0.0000000  1.2552000  3
    262    261    268    270     1  0.0000000  1.2552000  3
    262    274    286    287     1  0.0000000  0.6508444  3
    262    274    286    288     1  0.0000000  0.6508444  3
    263    262    261    265     1  0.0000000  1.2552000  3
    263    262    261    268     1  0.0000000  1.2552000  3
    263    262    274    286     1  0.0000000  0.6508444  3
    263    262    274    275     1  0.0000000  0.6508444  3
    263    262    274    276     1  0.0000000  0.6508444  3
    264    262    261    265     1  0.0000000  1.2552000  3
    264    262    261    268     1  0.0000000  1.2552000  3
    264    262    274    286     1  0.0000000  0.6508444  3
    264    262    274    275     1  0.0000000  0.6508444  3
    264    262    274    276     1  0.0000000  0.6508444  3
    265    261    268    269     1  0.0000000  1.2552000  3
    265    261    268    270     1  0.0000000  1.2552000  3
    265    277    283    284     1  0.0000000  0.6508444  3
    265    277    283    285     1  0.0000000  0.6508444  3
    266    265    261    268     1  0.0000000  1.2552000  3
    266    265    277    283     1  0.0000000  0.6508444  3
    266    265    277    278     1  0.0000000  0.6508444  3
    266    265    277    279     1  0.0000000  0.6508444  3
    267    265    261    268     1  0.0000000  1.2552000  3
    267    265    277    283     1  0.0000000  0.6508444  3
    267    265    277    278     1  0.0000000  0.6508444  3
    267    265    277    279     1  0.0000000  0.6508444  3
    268    271    280    281     1  0.0000000  0.6508444  3
    268    271    280    282     1  0.0000000  0.6508444  3
    269    268    271    280     1  0.0000000  0.6508444  3
    269    268    271    272     1  0.0000000  0.6508444  3
    269    268    271    273     1  0.0000000  0.6508444  3
    270    268    271    280     1  0.0000000  0.6508444  3
    270    268    271    272     1  0.0000000  0.6508444  3
    270    268    271    273     1  0.0000000  0.6508444  3
    272    271    280    289     1  0.0000000  1.0460000  1
    272    271    280    289     1  0.0000000  0.0000000  3
    272    271    280    281     1  0.0000000  0.6508444  3
    272    271    280    282     1  0.0000000  0.6508444  3
    273    271    280    289     1  0.0000000  1.0460000  1
    273    271    280    289     1  0.0000000  0.0000000  3
    273    271    280    281     1  0.0000000  0.6508444  3
    273    271    280    282     1  0.0000000  0.6508444  3
    275    274    286    661     1  0.0000000  1.0460000  1
    275    274    286    661     1  0.0000000  0.0000000  3
    275    274    286    287     1  0.0000000  0.6508444  3
    275    274    286    288     1  0.0000000  0.6508444  3
    276    274    286    661     1  0.0000000  1.0460000  1
    276    274    286    661     1  0.0000000  0.0000000  3
    276    274    286    287     1  0.0000000  0.6508444  3
    276    274    286    288     1  0.0000000  0.6508444  3
    278    277    283    630     1  0.0000000  1.0460000  1
    278    277    283    630     1  0.0000000  0.0000000  3
    278    277    283    284     1  0.0000000  0.6508444  3
    278    277    283    285     1  0.0000000  0.6508444  3
    279    277    283    630     1  0.0000000  1.0460000  1
    279    277    283    630     1  0.0000000  0.0000000  3
    279    277    283    284     1  0.0000000  0.6508444  3
    279    277    283    285     1  0.0000000  0.6508444  3
    283    630    600    601     1  0.0000000  1.6038667  3
    283    630    600    602     1  0.0000000  1.6038667  3
    284    283    630    600     1  0.0000000  1.6038667  3
    285    283    630    600     1  0.0000000  1.6038667  3
    286    661    631    632     1  0.0000000  1.6038667  3
    286    661    631    633     1  0.0000000  1.6038667  3
    287    286    661    631     1  0.0000000  1.6038667  3
    288    286    661    631     1  0.0000000  1.6038667  3
    290    293    296    297     1  0.0000000  0.6508444  3
    290    293    296    298     1  0.0000000  0.6508444  3
    291    290    293    296     1  0.0000000  0.6508444  3
    291    290    293    294     1  0.0000000  0.6508444  3
    291    290    293    295     1  0.0000000  0.6508444  3
    292    290    293    296     1  0.0000000  0.6508444  3
    292    290    293    294     1  0.0000000  0.6508444  3
    292    290    293    295     1  0.0000000  0.6508444  3
    294    293    290    320     1  0.0000000  1.0460000  1
    294    293    290    320     1  0.0000000  0.0000000  3
    294    293    296    299     1  0.0000000  0.6508444  3
    294    293    296    297     1  0.0000000  0.6508444  3
    294    293    296    298     1  0.0000000  0.6508444  3
    295    293    290    320     1  0.0000000  1.0460000  1
    295    293    290    320     1  0.0000000  0.0000000  3
    295    293    296    299     1  0.0000000  0.6508444  3
    295    293    296    297     1  0.0000000  0.6508444  3
    295    293    296    298     1  0.0000000  0.6508444  3
    296    299    300    301     1  0.0000000  1.2552000  3
    296    299    300    302     1  0.0000000  1.2552000  3
    296    299    310    311     1  0.0000000  1.2552000  3
    296    299    310    312     1  0.0000000  1.2552000  3
    297    296    299    300     1  0.0000000  1.2552000  3
    297    296    299    310     1  0.0000000  1.2552000  3
    298    296    299    300     1  0.0000000  1.2552000  3
    298    296    299    310     1  0.0000000  1.2552000  3
    299    300    303    304     1  0.0000000  0.6508444  3
    299    300    303    305     1  0.0000000  0.6508444  3
    299    310    313    314     1  0.0000000  0.6508444  3
    299    310    313    315     1  0.0000000  0.6508444  3
    300    299    310    311     1  0.0000000  1.2552000  3
    300    299    310    312     1  0.0000000  1.2552000  3
    301    300    299    310     1  0.0000000  1.2552000  3
    301    300    303    306     1  0.0000000  0.6508444  3
    301    300    303    304     1  0.0000000  0.6508444  3
    301    300    303    305     1  0.0000000  0.6508444  3
    302    300    299    310     1  0.0000000  1.2552000  3
    302    300    303    306     1  0.0000000  0.6508444  3
    302    300    303    304     1  0.0000000  0.6508444  3
    302    300    303    305     1  0.0000000  0.6508444  3
    303    306    308    309     1  180.0000771  9.6232000  2
    304    303    306    307     1  0.0000000  3.3472000  1
    304    303    306    307     1  0.0000000  0.0000000  2
    304    303    306    307     1  180.0000771  0.3347200  3
    304    303    306    308     1  180.0000771  0.0000000  2
    305    303    306    307     1  0.0000000  3.3472000  1
    305    303    306    307     1  0.0000000  0.0000000  2
    305    303    306    307     1  180.0000771  0.3347200  3
    305    303    306    308     1  180.0000771  0.0000000  2
    307    306    308    309     1  0.0000000  7.9496000  1
    307    306    308    309     1  180.0000771  9.6232000  2
    311    310    313    316     1  0.0000000  0.6508444  3
    311    310    313    314     1  0.0000000  0.6508444  3
    311    310    313    315     1  0.0000000  0.6508444  3
    312    310    313    316     1  0.0000000  0.6508444  3
    312    310    313    314     1  0.0000000  0.6508444  3
    312    310    313    315     1  0.0000000  0.6508444  3
    313    316    318    319     1  180.0000771  9.6232000  2
    314    313    316    317     1  0.0000000  3.3472000  1
    314    313    316    317     1  0.0000000  0.0000000  2
    314    313    316    317     1  180.0000771  0.3347200  3
    314    313    316    318     1  180.0000771  0.0000000  2
    315    313    316    317     1  0.0000000  3.3472000  1
    315    313    316    317     1  0.0000000  0.0000000  2
    315    313    316    317     1  180.0000771  0.3347200  3
    315    313    316    318     1  180.0000771  0.0000000  2
    317    316    318    319     1  0.0000000  7.9496000  1
    317    316    318    319     1  180.0000771  9.6232000  2
    321    324    327    328     1  0.0000000  0.6508444  3
    321    324    327    329     1  0.0000000  0.6508444  3
    322    321    324    327     1  0.0000000  0.6508444  3
    322    321    324    325     1  0.0000000  0.6508444  3
    322    321    324    326     1  0.0000000  0.6508444  3
    323    321    324    327     1  0.0000000  0.6508444  3
    323    321    324    325     1  0.0000000  0.6508444  3
    323    321    324    326     1  0.0000000  0.6508444  3
    325    324    327    330     1  0.0000000  0.6508444  3
    325    324    327    328     1  0.0000000  0.6508444  3
    325    324    327    329     1  0.0000000  0.6508444  3
    325    324    321    351     1  0.0000000  1.0460000  1
    325    324    321    351     1  0.0000000  0.0000000  3
    326    324    327    330     1  0.0000000  0.6508444  3
    326    324    327    328     1  0.0000000  0.6508444  3
    326    324    327    329     1  0.0000000  0.6508444  3
    326    324    321    351     1  0.0000000  1.0460000  1
    326    324    321    351     1  0.0000000  0.0000000  3
    327    330    331    332     1  0.0000000  1.2552000  3
    327    330    331    333     1  0.0000000  1.2552000  3
    327    330    341    342     1  0.0000000  1.2552000  3
    327    330    341    343     1  0.0000000  1.2552000  3
    328    327    330    331     1  0.0000000  1.2552000  3
    328    327    330    341     1  0.0000000  1.2552000  3
    329    327    330    331     1  0.0000000  1.2552000  3
    329    327    330    341     1  0.0000000  1.2552000  3
    330    331    334    335     1  0.0000000  0.6508444  3
    330    331    334    336     1  0.0000000  0.6508444  3
    330    341    344    345     1  0.0000000  0.6508444  3
    330    341    344    346     1  0.0000000  0.6508444  3
    331    330    341    342     1  0.0000000  1.2552000  3
    331    330    341    343     1  0.0000000  1.2552000  3
    332    331    334    337     1  0.0000000  0.6508444  3
    332    331    334    335     1  0.0000000  0.6508444  3
    332    331    334    336     1  0.0000000  0.6508444  3
    332    331    330    341     1  0.0000000  1.2552000  3
    333    331    334    337     1  0.0000000  0.6508444  3
    333    331    334    335     1  0.0000000  0.6508444  3
    333    331    334    336     1  0.0000000  0.6508444  3
    333    331    330    341     1  0.0000000  1.2552000  3
    334    337    339    340     1  180.0000771  9.6232000  2
    335    334    337    338     1  0.0000000  3.3472000  1
    335    334    337    338     1  0.0000000  0.0000000  2
    335    334    337    338     1  180.0000771  0.3347200  3
    335    334    337    339     1  180.0000771  0.0000000  2
    336    334    337    338     1  0.0000000  3.3472000  1
    336    334    337    338     1  0.0000000  0.0000000  2
    336    334    337    338     1  180.0000771  0.3347200  3
    336    334    337    339     1  180.0000771  0.0000000  2
    338    337    339    340     1  0.0000000  7.9496000  1
    338    337    339    340     1  180.0000771  9.6232000  2
    342    341    344    347     1  0.0000000  0.6508444  3
    342    341    344    345     1  0.0000000  0.6508444  3
    342    341    344    346     1  0.0000000  0.6508444  3
    343    341    344    347     1  0.0000000  0.6508444  3
    343    341    344    345     1  0.0000000  0.6508444  3
    343    341    344    346     1  0.0000000  0.6508444  3
    344    347    349    350     1  180.0000771  9.6232000  2
    345    344    347    348     1  0.0000000  3.3472000  1
    345    344    347    348     1  0.0000000  0.0000000  2
    345    344    347    348     1  180.0000771  0.3347200  3
    345    344    347    349     1  180.0000771  0.0000000  2
    346    344    347    348     1  0.0000000  3.3472000  1
    346    344    347    348     1  0.0000000  0.0000000  2
    346    344    347    348     1  180.0000771  0.3347200  3
    346    344    347    349     1  180.0000771  0.0000000  2
    348    347    349    350     1  0.0000000  7.9496000  1
    348    347    349    350     1  180.0000771  9.6232000  2
    352    355    358    359     1  0.0000000  0.6508444  3
    352    355    358    360     1  0.0000000  0.6508444  3
    353    352    355    358     1  0.0000000  0.6508444  3
    353    352    355    356     1  0.0000000  0.6508444  3
    353    352    355    357     1  0.0000000  0.6508444  3
    354    352    355    358     1  0.0000000  0.6508444  3
    354    352    355    356     1  0.0000000  0.6508444  3
    354    352    355    357     1  0.0000000  0.6508444  3
    356    355    352    382     1  0.0000000  1.0460000  1
    356    355    352    382     1  0.0000000  0.0000000  3
    356    355    358    361     1  0.0000000  0.6508444  3
    356    355    358    359     1  0.0000000  0.6508444  3
    356    355    358    360     1  0.0000000  0.6508444  3
    357    355    352    382     1  0.0000000  1.0460000  1
    357    355    352    382     1  0.0000000  0.0000000  3
    357    355    358    361     1  0.0000000  0.6508444  3
    357    355    358    359     1  0.0000000  0.6508444  3
    357    355    358    360     1  0.0000000  0.6508444  3
    358    361    362    363     1  0.0000000  1.2552000  3
    358    361    362    364     1  0.0000000  1.2552000  3
    358    361    372    373     1  0.0000000  1.2552000  3
    358    361    372    374     1  0.0000000  1.2552000  3
    359    358    361    362     1  0.0000000  1.2552000  3
    359    358    361    372     1  0.0000000  1.2552000  3
    360    358    361    362     1  0.0000000  1.2552000  3
    360    358    361    372     1  0.0000000  1.2552000  3
    361    362    365    366     1  0.0000000  0.6508444  3
    361    362    365    367     1  0.0000000  0.6508444  3
    361    372    375    376     1  0.0000000  0.6508444  3
    361    372    375    377     1  0.0000000  0.6508444  3
    362    361    372    373     1  0.0000000  1.2552000  3
    362    361    372    374     1  0.0000000  1.2552000  3
    363    362    361    372     1  0.0000000  1.2552000  3
    363    362    365    368     1  0.0000000  0.6508444  3
    363    362    365    366     1  0.0000000  0.6508444  3
    363    362    365    367     1  0.0000000  0.6508444  3
    364    362    361    372     1  0.0000000  1.2552000  3
    364    362    365    368     1  0.0000000  0.6508444  3
    364    362    365    366     1  0.0000000  0.6508444  3
    364    362    365    367     1  0.0000000  0.6508444  3
    365    368    370    371     1  180.0000771  9.6232000  2
    366    365    368    369     1  0.0000000  3.3472000  1
    366    365    368    369     1  0.0000000  0.0000000  2
    366    365    368    369     1  180.0000771  0.3347200  3
    366    365    368    370     1  180.0000771  0.0000000  2
    367    365    368    369     1  0.0000000  3.3472000  1
    367    365    368    369     1  0.0000000  0.0000000  2
    367    365    368    369     1  180.0000771  0.3347200  3
    367    365    368    370     1  180.0000771  0.0000000  2
    369    368    370    371     1  0.0000000  7.9496000  1
    369    368    370    371     1  180.0000771  9.6232000  2
    373    372    375    378     1  0.0000000  0.6508444  3
    373    372    375    376     1  0.0000000  0.6508444  3
    373    372    375    377     1  0.0000000  0.6508444  3
    374    372    375    378     1  0.0000000  0.6508444  3
    374    372    375    376     1  0.0000000  0.6508444  3
    374    372    375    377     1  0.0000000  0.6508444  3
    375    378    380    381     1  180.0000771  9.6232000  2
    376    375    378    379     1  0.0000000  3.3472000  1
    376    375    378    379     1  0.0000000  0.0000000  2
    376    375    378    379     1  180.0000771  0.3347200  3
    376    375    378    380     1  180.0000771  0.0000000  2
    377    375    378    379     1  0.0000000  3.3472000  1
    377    375    378    379     1  0.0000000  0.0000000  2
    377    375    378    379     1  180.0000771  0.3347200  3
    377    375    378    380     1  180.0000771  0.0000000  2
    379    378    380    381     1  0.0000000  7.9496000  1
    379    378    380    381     1  180.0000771  9.6232000  2
    383    386    389    390     1  0.0000000  0.6508444  3
    383    386    389    391     1  0.0000000  0.6508444  3
    384    383    386    389     1  0.0000000  0.6508444  3
    384    383    386    387     1  0.0000000  0.6508444  3
    384    383    386    388     1  0.0000000  0.6508444  3
    385    383    386    389     1  0.0000000  0.6508444  3
    385    383    386    387     1  0.0000000  0.6508444  3
    385    383    386    388     1  0.0000000  0.6508444  3
    387    386    389    392     1  0.0000000  0.6508444  3
    387    386    389    390     1  0.0000000  0.6508444  3
    387    386    389    391     1  0.0000000  0.6508444  3
    387    386    383    413     1  0.0000000  1.0460000  1
    387    386    383    413     1  0.0000000  0.0000000  3
    388    386    389    392     1  0.0000000  0.6508444  3
    388    386    389    390     1  0.0000000  0.6508444  3
    388    386    389    391     1  0.0000000  0.6508444  3
    388    386    383    413     1  0.0000000  1.0460000  1
    388    386    383    413     1  0.0000000  0.0000000  3
    389    392    393    394     1  0.0000000  1.2552000  3
    389    392    393    395     1  0.0000000  1.2552000  3
    389    392    403    404     1  0.0000000  1.2552000  3
    389    392    403    405     1  0.0000000  1.2552000  3
    390    389    392    393     1  0.0000000  1.2552000  3
    390    389    392    403     1  0.0000000  1.2552000  3
    391    389    392    393     1  0.0000000  1.2552000  3
    391    389    392    403     1  0.0000000  1.2552000  3
    392    393    396    397     1  0.0000000  0.6508444  3
    392    393    396    398     1  0.0000000  0.6508444  3
    392    403    406    407     1  0.0000000  0.6508444  3
    392    403    406    408     1  0.0000000  0.6508444  3
    393    392    403    404     1  0.0000000  1.2552000  3
    393    392    403    405     1  0.0000000  1.2552000  3
    394    393    396    399     1  0.0000000  0.6508444  3
    394    393    396    397     1  0.0000000  0.6508444  3
    394    393    396    398     1  0.0000000  0.6508444  3
    394    393    392    403     1  0.0000000  1.2552000  3
    395    393    396    399     1  0.0000000  0.6508444  3
    395    393    396    397     1  0.0000000  0.6508444  3
    395    393    396    398     1  0.0000000  0.6508444  3
    395    393    392    403     1  0.0000000  1.2552000  3
    396    399    401    402     1  180.0000771  9.6232000  2
    397    396    399    400     1  0.0000000  3.3472000  1
    397    396    399    400     1  0.0000000  0.0000000  2
    397    396    399    400     1  180.0000771  0.3347200  3
    397    396    399    401     1  180.0000771  0.0000000  2
    398    396    399    400     1  0.0000000  3.3472000  1
    398    396    399    400     1  0.0000000  0.0000000  2
    398    396    399    400     1  180.0000771  0.3347200  3
    398    396    399    401     1  180.0000771  0.0000000  2
    400    399    401    402     1  0.0000000  7.9496000  1
    400    399    401    402     1  180.0000771  9.6232000  2
    404    403    406    409     1  0.0000000  0.6508444  3
    404    403    406    407     1  0.0000000  0.6508444  3
    404    403    406    408     1  0.0000000  0.6508444  3
    405    403    406    409     1  0.0000000  0.6508444  3
    405    403    406    407     1  0.0000000  0.6508444  3
    405    403    406    408     1  0.0000000  0.6508444  3
    406    409    411    412     1  180.0000771  9.6232000  2
    407    406    409    410     1  0.0000000  3.3472000  1
    407    406    409    410     1  0.0000000  0.0000000  2
    407    406    409    410     1  180.0000771  0.3347200  3
    407    406    409    411     1  180.0000771  0.0000000  2
    408    406    409    410     1  0.0000000  3.3472000  1
    408    406    409    410     1  0.0000000  0.0000000  2
    408    406    409    410     1  180.0000771  0.3347200  3
    408    406    409    411     1  180.0000771  0.0000000  2
    410    409    411    412     1  0.0000000  7.9496000  1
    410    409    411    412     1  180.0000771  9.6232000  2
    414    417    420    421     1  0.0000000  0.6508444  3
    414    417    420    422     1  0.0000000  0.6508444  3
    415    414    417    420     1  0.0000000  0.6508444  3
    415    414    417    418     1  0.0000000  0.6508444  3
    415    414    417    419     1  0.0000000  0.6508444  3
    416    414    417    420     1  0.0000000  0.6508444  3
    416    414    417    418     1  0.0000000  0.6508444  3
    416    414    417    419     1  0.0000000  0.6508444  3
    418    417    414    444     1  0.0000000  1.0460000  1
    418    417    414    444     1  0.0000000  0.0000000  3
    418    417    420    423     1  0.0000000  0.6508444  3
    418    417    420    421     1  0.0000000  0.6508444  3
    418    417    420    422     1  0.0000000  0.6508444  3
    419    417    414    444     1  0.0000000  1.0460000  1
    419    417    414    444     1  0.0000000  0.0000000  3
    419    417    420    423     1  0.0000000  0.6508444  3
    419    417    420    421     1  0.0000000  0.6508444  3
    419    417    420    422     1  0.0000000  0.6508444  3
    420    423    424    425     1  0.0000000  1.2552000  3
    420    423    424    426     1  0.0000000  1.2552000  3
    420    423    434    435     1  0.0000000  1.2552000  3
    420    423    434    436     1  0.0000000  1.2552000  3
    421    420    423    424     1  0.0000000  1.2552000  3
    421    420    423    434     1  0.0000000  1.2552000  3
    422    420    423    424     1  0.0000000  1.2552000  3
    422    420    423    434     1  0.0000000  1.2552000  3
    423    424    427    428     1  0.0000000  0.6508444  3
    423    424    427    429     1  0.0000000  0.6508444  3
    423    434    437    438     1  0.0000000  0.6508444  3
    423    434    437    439     1  0.0000000  0.6508444  3
    424    423    434    435     1  0.0000000  1.2552000  3
    424    423    434    436     1  0.0000000  1.2552000  3
    425    424    423    434     1  0.0000000  1.2552000  3
    425    424    427    430     1  0.0000000  0.6508444  3
    425    424    427    428     1  0.0000000  0.6508444  3
    425    424    427    429     1  0.0000000  0.6508444  3
    426    424    423    434     1  0.0000000  1.2552000  3
    426    424    427    430     1  0.0000000  0.6508444  3
    426    424    427    428     1  0.0000000  0.6508444  3
    426    424    427    429     1  0.0000000  0.6508444  3
    427    430    432    433     1  180.0000771  9.6232000  2
    428    427    430    431     1  0.0000000  3.3472000  1
    428    427    430    431     1  0.0000000  0.0000000  2
    428    427    430    431     1  180.0000771  0.3347200  3
    428    427    430    432     1  180.0000771  0.0000000  2
    429    427    430    431     1  0.0000000  3.3472000  1
    429    427    430    431     1  0.0000000  0.0000000  2
    429    427    430    431     1  180.0000771  0.3347200  3
    429    427    430    432     1  180.0000771  0.0000000  2
    431    430    432    433     1  0.0000000  7.9496000  1
    431    430    432    433     1  180.0000771  9.6232000  2
    435    434    437    440     1  0.0000000  0.6508444  3
    435    434    437    438     1  0.0000000  0.6508444  3
    435    434    437    439     1  0.0000000  0.6508444  3
    436    434    437    440     1  0.0000000  0.6508444  3
    436    434    437    438     1  0.0000000  0.6508444  3
    436    434    437    439     1  0.0000000  0.6508444  3
    437    440    442    443     1  180.0000771  9.6232000  2
    438    437    440    441     1  0.0000000  3.3472000  1
    438    437    440    441     1  0.0000000  0.0000000  2
    438    437    440    441     1  180.0000771  0.3347200  3
    438    437    440    442     1  180.0000771  0.0000000  2
    439    437    440    441     1  0.0000000  3.3472000  1
    439    437    440    441     1  0.0000000  0.0000000  2
    439    437    440    441     1  180.0000771  0.3347200  3
    439    437    440    442     1  180.0000771  0.0000000  2
    441    440    442    443     1  0.0000000  7.9496000  1
    441    440    442    443     1  180.0000771  9.6232000  2
    445    448    451    452     1  0.0000000  0.6508444  3
    445    448    451    453     1  0.0000000  0.6508444  3
    446    445    448    451     1  0.0000000  0.6508444  3
    446    445    448    449     1  0.0000000  0.6508444  3
    446    445    448    450     1  0.0000000  0.6508444  3
    447    445    448    451     1  0.0000000  0.6508444  3
    447    445    448    449     1  0.0000000  0.6508444  3
    447    445    448    450     1  0.0000000  0.6508444  3
    449    448    451    454     1  0.0000000  0.6508444  3
    449    448    451    452     1  0.0000000  0.6508444  3
    449    448    451    453     1  0.0000000  0.6508444  3
    449    448    445    475     1  0.0000000  1.0460000  1
    449    448    445    475     1  0.0000000  0.0000000  3
    450    448    451    454     1  0.0000000  0.6508444  3
    450    448    451    452     1  0.0000000  0.6508444  3
    450    448    451    453     1  0.0000000  0.6508444  3
    450    448    445    475     1  0.0000000  1.0460000  1
    450    448    445    475     1  0.0000000  0.0000000  3
    451    454    455    456     1  0.0000000  1.2552000  3
    451    454    455    457     1  0.0000000  1.2552000  3
    451    454    465    466     1  0.0000000  1.2552000  3
    451    454    465    467     1  0.0000000  1.2552000  3
    452    451    454    455     1  0.0000000  1.2552000  3
    452    451    454    465     1  0.0000000  1.2552000  3
    453    451    454    455     1  0.0000000  1.2552000  3
    453    451    454    465     1  0.0000000  1.2552000  3
    454    455    458    459     1  0.0000000  0.6508444  3
    454    455    458    460     1  0.0000000  0.6508444  3
    454    465    468    469     1  0.0000000  0.6508444  3
    454    465    468    470     1  0.0000000  0.6508444  3
    455    454    465    466     1  0.0000000  1.2552000  3
    455    454    465    467     1  0.0000000  1.2552000  3
    456    455    458    461     1  0.0000000  0.6508444  3
    456    455    458    459     1  0.0000000  0.6508444  3
    456    455    458    460     1  0.0000000  0.6508444  3
    456    455    454    465     1  0.0000000  1.2552000  3
    457    455    458    461     1  0.0000000  0.6508444  3
    457    455    458    459     1  0.0000000  0.6508444  3
    457    455    458    460     1  0.0000000  0.6508444  3
    457    455    454    465     1  0.0000000  1.2552000  3
    458    461    463    464     1  180.0000771  9.6232000  2
    459    458    461    462     1  0.0000000  3.3472000  1
    459    458    461    462     1  0.0000000  0.0000000  2
    459    458    461    462     1  180.0000771  0.3347200  3
    459    458    461    463     1  180.0000771  0.0000000  2
    460    458    461    462     1  0.0000000  3.3472000  1
    460    458    461    462     1  0.0000000  0.0000000  2
    460    458    461    462     1  180.0000771  0.3347200  3
    460    458    461    463     1  180.0000771  0.0000000  2
    462    461    463    464     1  0.0000000  7.9496000  1
    462    461    463    464     1  180.0000771  9.6232000  2
    466    465    468    471     1  0.0000000  0.6508444  3
    466    465    468    469     1  0.0000000  0.6508444  3
    466    465    468    470     1  0.0000000  0.6508444  3
    467    465    468    471     1  0.0000000  0.6508444  3
    467    465    468    469     1  0.0000000  0.6508444  3
    467    465    468    470     1  0.0000000  0.6508444  3
    468    471    473    474     1  180.0000771  9.6232000  2
    469    468    471    472     1  0.0000000  3.3472000  1
    469    468    471    472     1  0.0000000  0.0000000  2
    469    468    471    472     1  180.0000771  0.3347200  3
    469    468    471    473     1  180.0000771  0.0000000  2
    470    468    471    472     1  0.0000000  3.3472000  1
    470    468    471    472     1  0.0000000  0.0000000  2
    470    468    471    472     1  180.0000771  0.3347200  3
    470    468    471    473     1  180.0000771  0.0000000  2
    472    471    473    474     1  0.0000000  7.9496000  1
    472    471    473    474     1  180.0000771  9.6232000  2
    476    479    482    483     1  0.0000000  0.6508444  3
    476    479    482    484     1  0.0000000  0.6508444  3
    477    476    479    482     1  0.0000000  0.6508444  3
    477    476    479    480     1  0.0000000  0.6508444  3
    477    476    479    481     1  0.0000000  0.6508444  3
    478    476    479    482     1  0.0000000  0.6508444  3
    478    476    479    480     1  0.0000000  0.6508444  3
    478    476    479    481     1  0.0000000  0.6508444  3
    480    479    476    506     1  0.0000000  1.0460000  1
    480    479    476    506     1  0.0000000  0.0000000  3
    480    479    482    485     1  0.0000000  0.6508444  3
    480    479    482    483     1  0.0000000  0.6508444  3
    480    479    482    484     1  0.0000000  0.6508444  3
    481    479    476    506     1  0.0000000  1.0460000  1
    481    479    476    506     1  0.0000000  0.0000000  3
    481    479    482    485     1  0.0000000  0.6508444  3
    481    479    482    483     1  0.0000000  0.6508444  3
    481    479    482    484     1  0.0000000  0.6508444  3
    482    485    486    487     1  0.0000000  1.2552000  3
    482    485    486    488     1  0.0000000  1.2552000  3
    482    485    496    497     1  0.0000000  1.2552000  3
    482    485    496    498     1  0.0000000  1.2552000  3
    483    482    485    486     1  0.0000000  1.2552000  3
    483    482    485    496     1  0.0000000  1.2552000  3
    484    482    485    486     1  0.0000000  1.2552000  3
    484    482    485    496     1  0.0000000  1.2552000  3
    485    486    489    490     1  0.0000000  0.6508444  3
    485    486    489    491     1  0.0000000  0.6508444  3
    485    496    499    500     1  0.0000000  0.6508444  3
    485    496    499    501     1  0.0000000  0.6508444  3
    486    485    496    497     1  0.0000000  1.2552000  3
    486    485    496    498     1  0.0000000  1.2552000  3
    487    486    485    496     1  0.0000000  1.2552000  3
    487    486    489    492     1  0.0000000  0.6508444  3
    487    486    489    490     1  0.0000000  0.6508444  3
    487    486    489    491     1  0.0000000  0.6508444  3
    488    486    485    496     1  0.0000000  1.2552000  3
    488    486    489    492     1  0.0000000  0.6508444  3
    488    486    489    490     1  0.0000000  0.6508444  3
    488    486    489    491     1  0.0000000  0.6508444  3
    489    492    494    495     1  180.0000771  9.6232000  2
    490    489    492    493     1  0.0000000  3.3472000  1
    490    489    492    493     1  0.0000000  0.0000000  2
    490    489    492    493     1  180.0000771  0.3347200  3
    490    489    492    494     1  180.0000771  0.0000000  2
    491    489    492    493     1  0.0000000  3.3472000  1
    491    489    492    493     1  0.0000000  0.0000000  2
    491    489    492    493     1  180.0000771  0.3347200  3
    491    489    492    494     1  180.0000771  0.0000000  2
    493    492    494    495     1  0.0000000  7.9496000  1
    493    492    494    495     1  180.0000771  9.6232000  2
    497    496    499    502     1  0.0000000  0.6508444  3
    497    496    499    500     1  0.0000000  0.6508444  3
    497    496    499    501     1  0.0000000  0.6508444  3
    498    496    499    502     1  0.0000000  0.6508444  3
    498    496    499    500     1  0.0000000  0.6508444  3
    498    496    499    501     1  0.0000000  0.6508444  3
    499    502    504    505     1  180.0000771  9.6232000  2
    500    499    502    503     1  0.0000000  3.3472000  1
    500    499    502    503     1  0.0000000  0.0000000  2
    500    499    502    503     1  180.0000771  0.3347200  3
    500    499    502    504     1  180.0000771  0.0000000  2
    501    499    502    503     1  0.0000000  3.3472000  1
    501    499    502    503     1  0.0000000  0.0000000  2
    501    499    502    503     1  180.0000771  0.3347200  3
    501    499    502    504     1  180.0000771  0.0000000  2
    503    502    504    505     1  0.0000000  7.9496000  1
    503    502    504    505     1  180.0000771  9.6232000  2
    507    510    513    514     1  0.0000000  0.6508444  3
    507    510    513    515     1  0.0000000  0.6508444  3
    508    507    510    513     1  0.0000000  0.6508444  3
    508    507    510    511     1  0.0000000  0.6508444  3
    508    507    510    512     1  0.0000000  0.6508444  3
    509    507    510    513     1  0.0000000  0.6508444  3
    509    507    510    511     1  0.0000000  0.6508444  3
    509    507    510    512     1  0.0000000  0.6508444  3
    511    510    513    516     1  0.0000000  0.6508444  3
    511    510    513    514     1  0.0000000  0.6508444  3
    511    510    513    515     1  0.0000000  0.6508444  3
    511    510    507    537     1  0.0000000  1.0460000  1
    511    510    507    537     1  0.0000000  0.0000000  3
    512    510    513    516     1  0.0000000  0.6508444  3
    512    510    513    514     1  0.0000000  0.6508444  3
    512    510    513    515     1  0.0000000  0.6508444  3
    512    510    507    537     1  0.0000000  1.0460000  1
    512    510    507    537     1  0.0000000  0.0000000  3
    513    516    517    518     1  0.0000000  1.2552000  3
    513    516    517    519     1  0.0000000  1.2552000  3
    513    516    527    528     1  0.0000000  1.2552000  3
    513    516    527    529     1  0.0000000  1.2552000  3
    514    513    516    517     1  0.0000000  1.2552000  3
    514    513    516    527     1  0.0000000  1.2552000  3
    515    513    516    517     1  0.0000000  1.2552000  3
    515    513    516    527     1  0.0000000  1.2552000  3
    516    517    520    521     1  0.0000000  0.6508444  3
    516    517    520    522     1  0.0000000  0.6508444  3
    516    527    530    531     1  0.0000000  0.6508444  3
    516    527    530    532     1  0.0000000  0.6508444  3
    517    516    527    528     1  0.0000000  1.2552000  3
    517    516    527    529     1  0.0000000  1.2552000  3
    518    517    520    523     1  0.0000000  0.6508444  3
    518    517    520    521     1  0.0000000  0.6508444  3
    518    517    520    522     1  0.0000000  0.6508444  3
    518    517    516    527     1  0.0000000  1.2552000  3
    519    517    520    523     1  0.0000000  0.6508444  3
    519    517    520    521     1  0.0000000  0.6508444  3
    519    517    520    522     1  0.0000000  0.6508444  3
    519    517    516    527     1  0.0000000  1.2552000  3
    520    523    525    526     1  180.0000771  9.6232000  2
    521    520    523    524     1  0.0000000  3.3472000  1
    521    520    523    524     1  0.0000000  0.0000000  2
    521    520    523    524     1  180.0000771  0.3347200  3
    521    520    523    525     1  180.0000771  0.0000000  2
    522    520    523    524     1  0.0000000  3.3472000  1
    522    520    523    524     1  0.0000000  0.0000000  2
    522    520    523    524     1  180.0000771  0.3347200  3
    522    520    523    525     1  180.0000771  0.0000000  2
    524    523    525    526     1  0.0000000  7.9496000  1
    524    523    525    526     1  180.0000771  9.6232000  2
    528    527    530    533     1  0.0000000  0.6508444  3
    528    527    530    531     1  0.0000000  0.6508444  3
    528    527    530    532     1  0.0000000  0.6508444  3
    529    527    530    533     1  0.0000000  0.6508444  3
    529    527    530    531     1  0.0000000  0.6508444  3
    529    527    530    532     1  0.0000000  0.6508444  3
    530    533    535    536     1  180.0000771  9.6232000  2
    531    530    533    534     1  0.0000000  3.3472000  1
    531    530    533    534     1  0.0000000  0.0000000  2
    531    530    533    534     1  180.0000771  0.3347200  3
    531    530    533    535     1  180.0000771  0.0000000  2
    532    530    533    534     1  0.0000000  3.3472000  1
    532    530    533    534     1  0.0000000  0.0000000  2
    532    530    533    534     1  180.0000771  0.3347200  3
    532    530    533    535     1  180.0000771  0.0000000  2
    534    533    535    536     1  0.0000000  7.9496000  1
    534    533    535    536     1  180.0000771  9.6232000  2
    538    541    544    545     1  0.0000000  0.6508444  3
    538    541    544    546     1  0.0000000  0.6508444  3
    539    538    541    544     1  0.0000000  0.6508444  3
    539    538    541    542     1  0.0000000  0.6508444  3
    539    538    541    543     1  0.0000000  0.6508444  3
    540    538    541    544     1  0.0000000  0.6508444  3
    540    538    541    542     1  0.0000000  0.6508444  3
    540    538    541    543     1  0.0000000  0.6508444  3
    542    541    538    568     1  0.0000000  1.0460000  1
    542    541    538    568     1  0.0000000  0.0000000  3
    542    541    544    547     1  0.0000000  0.6508444  3
    542    541    544    545     1  0.0000000  0.6508444  3
    542    541    544    546     1  0.0000000  0.6508444  3
    543    541    538    568     1  0.0000000  1.0460000  1
    543    541    538    568     1  0.0000000  0.0000000  3
    543    541    544    547     1  0.0000000  0.6508444  3
    543    541    544    545     1  0.0000000  0.6508444  3
    543    541    544    546     1  0.0000000  0.6508444  3
    544    547    548    549     1  0.0000000  1.2552000  3
    544    547    548    550     1  0.0000000  1.2552000  3
    544    547    558    559     1  0.0000000  1.2552000  3
    544    547    558    560     1  0.0000000  1.2552000  3
    545    544    547    548     1  0.0000000  1.2552000  3
    545    544    547    558     1  0.0000000  1.2552000  3
    546    544    547    548     1  0.0000000  1.2552000  3
    546    544    547    558     1  0.0000000  1.2552000  3
    547    548    551    552     1  0.0000000  0.6508444  3
    547    548    551    553     1  0.0000000  0.6508444  3
    547    558    561    562     1  0.0000000  0.6508444  3
    547    558    561    563     1  0.0000000  0.6508444  3
    548    547    558    559     1  0.0000000  1.2552000  3
    548    547    558    560     1  0.0000000  1.2552000  3
    549    548    547    558     1  0.0000000  1.2552000  3
    549    548    551    554     1  0.0000000  0.6508444  3
    549    548    551    552     1  0.0000000  0.6508444  3
    549    548    551    553     1  0.0000000  0.6508444  3
    550    548    547    558     1  0.0000000  1.2552000  3
    550    548    551    554     1  0.0000000  0.6508444  3
    550    548    551    552     1  0.0000000  0.6508444  3
    550    548    551    553     1  0.0000000  0.6508444  3
    551    554    556    557     1  180.0000771  9.6232000  2
    552    551    554    555     1  0.0000000  3.3472000  1
    552    551    554    555     1  0.0000000  0.0000000  2
    552    551    554    555     1  180.0000771  0.3347200  3
    552    551    554    556     1  180.0000771  0.0000000  2
    553    551    554    555     1  0.0000000  3.3472000  1
    553    551    554    555     1  0.0000000  0.0000000  2
    553    551    554    555     1  180.0000771  0.3347200  3
    553    551    554    556     1  180.0000771  0.0000000  2
    555    554    556    557     1  0.0000000  7.9496000  1
    555    554    556    557     1  180.0000771  9.6232000  2
    559    558    561    564     1  0.0000000  0.6508444  3
    559    558    561    562     1  0.0000000  0.6508444  3
    559    558    561    563     1  0.0000000  0.6508444  3
    560    558    561    564     1  0.0000000  0.6508444  3
    560    558    561    562     1  0.0000000  0.6508444  3
    560    558    561    563     1  0.0000000  0.6508444  3
    561    564    566    567     1  180.0000771  9.6232000  2
    562    561    564    565     1  0.0000000  3.3472000  1
    562    561    564    565     1  0.0000000  0.0000000  2
    562    561    564    565     1  180.0000771  0.3347200  3
    562    561    564    566     1  180.0000771  0.0000000  2
    563    561    564    565     1  0.0000000  3.3472000  1
    563    561    564    565     1  0.0000000  0.0000000  2
    563    561    564    565     1  180.0000771  0.3347200  3
    563    561    564    566     1  180.0000771  0.0000000  2
    565    564    566    567     1  0.0000000  7.9496000  1
    565    564    566    567     1  180.0000771  9.6232000  2
    569    572    575    576     1  0.0000000  0.6508444  3
    569    572    575    577     1  0.0000000  0.6508444  3
    570    569    572    575     1  0.0000000  0.6508444  3
    570    569    572    573     1  0.0000000  0.6508444  3
    570    569    572    574     1  0.0000000  0.6508444  3
    571    569    572    575     1  0.0000000  0.6508444  3
    571    569    572    573     1  0.0000000  0.6508444  3
    571    569    572    574     1  0.0000000  0.6508444  3
    573    572    575    578     1  0.0000000  0.6508444  3
    573    572    575    576     1  0.0000000  0.6508444  3
    573    572    575    577     1  0.0000000  0.6508444  3
    573    572    569    599     1  0.0000000  1.0460000  1
    573    572    569    599     1  0.0000000  0.0000000  3
    574    572    575    578     1  0.0000000  0.6508444  3
    574    572    575    576     1  0.0000000  0.6508444  3
    574    572    575    577     1  0.0000000  0.6508444  3
    574    572    569    599     1  0.0000000  1.0460000  1
    574    572    569    599     1  0.0000000  0.0000000  3
    575    578    579    580     1  0.0000000  1.2552000  3
    575    578    579    581     1  0.0000000  1.2552000  3
    575    578    589    590     1  0.0000000  1.2552000  3
    575    578    589    591     1  0.0000000  1.2552000  3
    576    575    578    579     1  0.0000000  1.2552000  3
    576    575    578    589     1  0.0000000  1.2552000  3
    577    575    578    579     1  0.0000000  1.2552000  3
    577    575    578    589     1  0.0000000  1.2552000  3
    578    579    582    583     1  0.0000000  0.6508444  3
    578    579    582    584     1  0.0000000  0.6508444  3
    578    589    592    593     1  0.0000000  0.6508444  3
    578    589    592    594     1  0.0000000  0.6508444  3
    579    578    589    590     1  0.0000000  1.2552000  3
    579    578    589    591     1  0.0000000  1.2552000  3
    580    579    582    585     1  0.0000000  0.6508444  3
    580    579    582    583     1  0.0000000  0.6508444  3
    580    579    582    584     1  0.0000000  0.6508444  3
    580    579    578    589     1  0.0000000  1.2552000  3
    581    579    582    585     1  0.0000000  0.6508444  3
    581    579    582    583     1  0.0000000  0.6508444  3
    581    579    582    584     1  0.0000000  0.6508444  3
    581    579    578    589     1  0.0000000  1.2552000  3
    582    585    587    588     1  180.0000771  9.6232000  2
    583    582    585    586     1  0.0000000  3.3472000  1
    583    582    585    586     1  0.0000000  0.0000000  2
    583    582    585    586     1  180.0000771  0.3347200  3
    583    582    585    587     1  180.0000771  0.0000000  2
    584    582    585    586     1  0.0000000  3.3472000  1
    584    582    585    586     1  0.0000000  0.0000000  2
    584    582    585    586     1  180.0000771  0.3347200  3
    584    582    585    587     1  180.0000771  0.0000000  2
    586    585    587    588     1  0.0000000  7.9496000  1
    586    585    587    588     1  180.0000771  9.6232000  2
    590    589    592    595     1  0.0000000  0.6508444  3
    590    589    592    593     1  0.0000000  0.6508444  3
    590    589    592    594     1  0.0000000  0.6508444  3
    591    589    592    595     1  0.0000000  0.6508444  3
    591    589    592    593     1  0.0000000  0.6508444  3
    591    589    592    594     1  0.0000000  0.6508444  3
    592    595    597    598     1  180.0000771  9.6232000  2
    593    592    595    596     1  0.0000000  3.3472000  1
    593    592    595    596     1  0.0000000  0.0000000  2
    593    592    595    596     1  180.0000771  0.3347200  3
    593    592    595    597     1  180.0000771  0.0000000  2
    594    592    595    596     1  0.0000000  3.3472000  1
    594    592    595    596     1  0.0000000  0.0000000  2
    594    592    595    596     1  180.0000771  0.3347200  3
    594    592    595    597     1  180.0000771  0.0000000  2
    596    595    597    598     1  0.0000000  7.9496000  1
    596    595    597    598     1  180.0000771  9.6232000  2
    600    603    606    607     1  0.0000000  0.6508444  3
    600    603    606    608     1  0.0000000  0.6508444  3
    601    600    603    606     1  0.0000000  0.6508444  3
    601    600    603    604     1  0.0000000  0.6508444  3
    601    600    603    605     1  0.0000000  0.6508444  3
    602    600    603    606     1  0.0000000  0.6508444  3
    602    600    603    604     1  0.0000000  0.6508444  3
    602    600    603    605     1  0.0000000  0.6508444  3
    604    603    600    630     1  0.0000000  1.0460000  1
    604    603    600    630     1  0.0000000  0.0000000  3
    604    603    606    609     1  0.0000000  0.6508444  3
    604    603    606    607     1  0.0000000  0.6508444  3
    604    603    606    608     1  0.0000000  0.6508444  3
    605    603    600    630     1  0.0000000  1.0460000  1
    605    603    600    630     1  0.0000000  0.0000000  3
    605    603    606    609     1  0.0000000  0.6508444  3
    605    603    606    607     1  0.0000000  0.6508444  3
    605    603    606    608     1  0.0000000  0.6508444  3
    606    609    610    611     1  0.0000000  1.2552000  3
    606    609    610    612     1  0.0000000  1.2552000  3
    606    609    620    621     1  0.0000000  1.2552000  3
    606    609    620    622     1  0.0000000  1.2552000  3
    607    606    609    610     1  0.0000000  1.2552000  3
    607    606    609    620     1  0.0000000  1.2552000  3
    608    606    609    610     1  0.0000000  1.2552000  3
    608    606    609    620     1  0.0000000  1.2552000  3
    609    610    613    614     1  0.0000000  0.6508444  3
    609    610    613    615     1  0.0000000  0.6508444  3
    609    620    623    624     1  0.0000000  0.6508444  3
    609    620    623    625     1  0.0000000  0.6508444  3
    610    609    620    621     1  0.0000000  1.2552000  3
    610    609    620    622     1  0.0000000  1.2552000  3
    611    610    609    620     1  0.0000000  1.2552000  3
    611    610    613    616     1  0.0000000  0.6508444  3
    611    610    613    614     1  0.0000000  0.6508444  3
    611    610    613    615     1  0.0000000  0.6508444  3
    612    610    609    620     1  0.0000000  1.2552000  3
    612    610    613    616     1  0.0000000  0.6508444  3
    612    610    613    614     1  0.0000000  0.6508444  3
    612    610    613    615     1  0.0000000  0.6508444  3
    613    616    618    619     1  180.0000771  9.6232000  2
    614    613    616    617     1  0.0000000  3.3472000  1
    614    613    616    617     1  0.0000000  0.0000000  2
    614    613    616    617     1  180.0000771  0.3347200  3
    614    613    616    618     1  180.0000771  0.0000000  2
    615    613    616    617     1  0.0000000  3.3472000  1
    615    613    616    617     1  0.0000000  0.0000000  2
    615    613    616    617     1  180.0000771  0.3347200  3
    615    613    616    618     1  180.0000771  0.0000000  2
    617    616    618    619     1  0.0000000  7.9496000  1
    617    616    618    619     1  180.0000771  9.6232000  2
    621    620    623    626     1  0.0000000  0.6508444  3
    621    620    623    624     1  0.0000000  0.6508444  3
    621    620    623    625     1  0.0000000  0.6508444  3
    622    620    623    626     1  0.0000000  0.6508444  3
    622    620    623    624     1  0.0000000  0.6508444  3
    622    620    623    625     1  0.0000000  0.6508444  3
    623    626    628    629     1  180.0000771  9.6232000  2
    624    623    626    627     1  0.0000000  3.3472000  1
    624    623    626    627     1  0.0000000  0.0000000  2
    624    623    626    627     1  180.0000771  0.3347200  3
    624    623    626    628     1  180.0000771  0.0000000  2
    625    623    626    627     1  0.0000000  3.3472000  1
    625    623    626    627     1  0.0000000  0.0000000  2
    625    623    626    627     1  180.0000771  0.3347200  3
    625    623    626    628     1  180.0000771  0.0000000  2
    627    626    628    629     1  0.0000000  7.9496000  1
    627    626    628    629     1  180.0000771  9.6232000  2
    631    634    637    638     1  0.0000000  0.6508444  3
    631    634    637    639     1  0.0000000  0.6508444  3
    632    631    634    637     1  0.0000000  0.6508444  3
    632    631    634    635     1  0.0000000  0.6508444  3
    632    631    634    636     1  0.0000000  0.6508444  3
    633    631    634    637     1  0.0000000  0.6508444  3
    633    631    634    635     1  0.0000000  0.6508444  3
    633    631    634    636     1  0.0000000  0.6508444  3
    635    634    637    640     1  0.0000000  0.6508444  3
    635    634    637    638     1  0.0000000  0.6508444  3
    635    634    637    639     1  0.0000000  0.6508444  3
    635    634    631    661     1  0.0000000  1.0460000  1
    635    634    631    661     1  0.0000000  0.0000000  3
    636    634    637    640     1  0.0000000  0.6508444  3
    636    634    637    638     1  0.0000000  0.6508444  3
    636    634    637    639     1  0.0000000  0.6508444  3
    636    634    631    661     1  0.0000000  1.0460000  1
    636    634    631    661     1  0.0000000  0.0000000  3
    637    640    641    642     1  0.0000000  1.2552000  3
    637    640    641    643     1  0.0000000  1.2552000  3
    637    640    651    652     1  0.0000000  1.2552000  3
    637    640    651    653     1  0.0000000  1.2552000  3
    638    637    640    641     1  0.0000000  1.2552000  3
    638    637    640    651     1  0.0000000  1.2552000  3
    639    637    640    641     1  0.0000000  1.2552000  3
    639    637    640    651     1  0.0000000  1.2552000  3
    640    641    644    645     1  0.0000000  0.6508444  3
    640    641    644    646     1  0.0000000  0.6508444  3
    640    651    654    655     1  0.0000000  0.6508444  3
    640    651    654    656     1  0.0000000  0.6508444  3
    641    640    651    652     1  0.0000000  1.2552000  3
    641    640    651    653     1  0.0000000  1.2552000  3
    642    641    644    647     1  0.0000000  0.6508444  3
    642    641    644    645     1  0.0000000  0.6508444  3
    642    641    644    646     1  0.0000000  0.6508444  3
    642    641    640    651     1  0.0000000  1.2552000  3
    643    641    644    647     1  0.0000000  0.6508444  3
    643    641    644    645     1  0.0000000  0.6508444  3
    643    641    644    646     1  0.0000000  0.6508444  3
    643    641    640    651     1  0.0000000  1.2552000  3
    644    647    649    650     1  180.0000771  9.6232000  2
    645    644    647    648     1  0.0000000  3.3472000  1
    645    644    647    648     1  0.0000000  0.0000000  2
    645    644    647    648     1  180.0000771  0.3347200  3
    645    644    647    649     1  180.0000771  0.0000000  2
    646    644    647    648     1  0.0000000  3.3472000  1
    646    644    647    648     1  0.0000000  0.0000000  2
    646    644    647    648     1  180.0000771  0.3347200  3
    646    644    647    649     1  180.0000771  0.0000000  2
    648    647    649    650     1  0.0000000  7.9496000  1
    648    647    649    650     1  180.0000771  9.6232000  2
    652    651    654    657     1  0.0000000  0.6508444  3
    652    651    654    655     1  0.0000000  0.6508444  3
    652    651    654    656     1  0.0000000  0.6508444  3
    653    651    654    657     1  0.0000000  0.6508444  3
    653    651    654    655     1  0.0000000  0.6508444  3
    653    651    654    656     1  0.0000000  0.6508444  3
    654    657    659    660     1  180.0000771  9.6232000  2
    655    654    657    658     1  0.0000000  3.3472000  1
    655    654    657    658     1  0.0000000  0.0000000  2
    655    654    657    658     1  180.0000771  0.3347200  3
    655    654    657    659     1  180.0000771  0.0000000  2
    656    654    657    658     1  0.0000000  3.3472000  1
    656    654    657    658     1  0.0000000  0.0000000  2
    656    654    657    658     1  180.0000771  0.3347200  3
    656    654    657    659     1  180.0000771  0.0000000  2
    658    657    659    660     1  0.0000000  7.9496000  1
    658    657    659    660     1  180.0000771  9.6232000  2

;[ system ]
;; Name
;Generic title
;
;[ molecules ]
;; Compound       #mols
;system1              1
